
     Program PWSCF v.7.2 starts on 19Jul2024 at  0:55:59 

     This program is part of the open-source Quantum ESPRESSO suite
     for quantum simulation of materials; please cite
         "P. Giannozzi et al., J. Phys.:Condens. Matter 21 395502 (2009);
         "P. Giannozzi et al., J. Phys.:Condens. Matter 29 465901 (2017);
         "P. Giannozzi et al., J. Chem. Phys. 152 154105 (2020);
          URL http://www.quantum-espresso.org", 
     in publications or presentations arising from this work. More details at
     http://www.quantum-espresso.org/quote

     Parallel version (MPI), running on  1456 processors

     MPI processes distributed on    13 nodes
     231900 MiB available memory on the printing compute node when the environment starts
 
     Reading input from 2.Cu_vac_in_ZnS.nscf.qn1.unrlxd.U8.in

     Current dimensions of program PWSCF are:
     Max number of different atomic species (ntypx) = 10
     Max number of k-points (npk) =  40000
     Max angular momentum in pseudopotentials (lmaxx) =  4

     Atomic positions and unit cell read from directory:
     ./out/Cu_vac_qn1_U8_unrlxd.save/
 
     file S.pbe-n-kjpaw_psl.1.0.0.UPF: wavefunction(s)  3S 3P renormalized
     file Zn.pbe-dnl-kjpaw_psl.1.0.0.UPF: wavefunction(s)  4S 3D renormalized
     file Cu.pbe-spn-kjpaw_psl.1.0.0.UPF: wavefunction(s)  4S 3P 3D renormalized
     [opt_tetra]  Optimized tetrahedron method is used.
 
     K-points division:     npool     =      13
     R & G space division:  proc/nbgrp/npool/nimage =     112
     Subspace diagonalization in iterative solution of the eigenvalue problem:
     one sub-group per band group will be used
     scalapack distributed-memory algorithm (size of sub-group:  3*  3 procs)

 
     Parallelization info
     --------------------
     sticks:   dense  smooth     PW     G-vecs:    dense   smooth      PW
     Min         180     180     46                19282    19282    2562
     Max         181     181     47                19291    19291    2573
     Sum       20217   20217   5249              2160009  2160009  287777
 
     Using Slab Decomposition
 


     bravais-lattice index     =            1
     lattice parameter (alat)  =      20.5686  a.u.
     unit-cell volume          =    8701.8437 (a.u.)^3
     number of atoms/cell      =           63
     number of atomic types    =            3
     number of electrons       =       578.00
     number of Kohn-Sham states=          347
     kinetic-energy cutoff     =     150.0000  Ry
     charge density cutoff     =     600.0000  Ry
     Exchange-correlation= SLA  PW   PBX  PBC
                           (   1   4   3   4   0   0   0)
     Hubbard projectors: ortho-atomic
     Hubbard parameters of DFT+U (Dudarev formulation) in eV:
     U(Zn-3d) =  7.0000
     U(Cu-3d) =  8.0000

     Internal variables: lda_plus_u = T, lda_plus_u_kind = 0

     celldm(1)=  20.568554  celldm(2)=   0.000000  celldm(3)=   0.000000
     celldm(4)=   0.000000  celldm(5)=   0.000000  celldm(6)=   0.000000

     crystal axes: (cart. coord. in units of alat)
               a(1) = (   1.000000   0.000000   0.000000 )  
               a(2) = (   0.000000   1.000000   0.000000 )  
               a(3) = (   0.000000   0.000000   1.000000 )  

     reciprocal axes: (cart. coord. in units 2 pi/alat)
               b(1) = (  1.000000  0.000000  0.000000 )  
               b(2) = (  0.000000  1.000000  0.000000 )  
               b(3) = (  0.000000  0.000000  1.000000 )  


     PseudoPot. # 1 for S  read from file:
     /arf/home/amuhaymin/pseudo/S.pbe-n-kjpaw_psl.1.0.0.UPF
     MD5 check sum: fb45dfebcf3e72a4e1bd4a866ec2e262
     Pseudo is Projector augmented-wave + core cor, Zval =  6.0
     Generated using &quot;atomic&quot; code by A. Dal Corso  v.6.3
     Shape of augmentation charge: PSQ
     Using radial grid of 1151 points,  6 beta functions with: 
                l(1) =   0
                l(2) =   0
                l(3) =   1
                l(4) =   1
                l(5) =   2
                l(6) =   2
     Q(r) pseudized with 0 coefficients 


     PseudoPot. # 2 for Zn read from file:
     /arf/home/amuhaymin/pseudo/Zn.pbe-dnl-kjpaw_psl.1.0.0.UPF
     MD5 check sum: c608214d9520ac179f507641260889e3
     Pseudo is Projector augmented-wave + core cor, Zval = 12.0
     Generated using &quot;atomic&quot; code by A. Dal Corso  v.6.2.2
     Shape of augmentation charge: PSQ
     Using radial grid of 1201 points,  6 beta functions with: 
                l(1) =   0
                l(2) =   0
                l(3) =   1
                l(4) =   1
                l(5) =   2
                l(6) =   2
     Q(r) pseudized with 0 coefficients 


     PseudoPot. # 3 for Cu read from file:
     /arf/home/amuhaymin/pseudo/Cu.pbe-spn-kjpaw_psl.1.0.0.UPF
     MD5 check sum: e7cbaad2f97193e5fe23251a619a52b0
     Pseudo is Projector augmented-wave + core cor, Zval = 19.0
     Generated using &quot;atomic&quot; code by A. Dal Corso  v.6.3
     Shape of augmentation charge: PSQ
     Using radial grid of 1199 points,  6 beta functions with: 
                l(1) =   0
                l(2) =   0
                l(3) =   1
                l(4) =   1
                l(5) =   2
                l(6) =   2
     Q(r) pseudized with 0 coefficients 


     atomic species   valence    mass     pseudopotential
        S              6.00    32.06500     S ( 1.00)
        Zn            12.00    65.38000     Zn( 1.00)
        Cu            19.00    63.54600     Cu( 1.00)

     Starting magnetic structure 
     atomic species   magnetization
        S            0.000
        Zn           0.000
        Cu           0.000

      6 Sym. Ops. (no inversion) found


                                    s                        frac. trans.

      isym =  1     identity                                     

 cryst.   s( 1) = (     1          0          0      )
                  (     0          1          0      )
                  (     0          0          1      )

 cart.    s( 1) = (  1.0000000  0.0000000  0.0000000 )
                  (  0.0000000  1.0000000  0.0000000 )
                  (  0.0000000  0.0000000  1.0000000 )


      isym =  2     120 deg rotation - cart. axis [-1,-1,-1]     

 cryst.   s( 2) = (     0          0          1      )
                  (     1          0          0      )
                  (     0          1          0      )

 cart.    s( 2) = (  0.0000000  1.0000000  0.0000000 )
                  (  0.0000000  0.0000000  1.0000000 )
                  (  1.0000000  0.0000000  0.0000000 )


      isym =  3     120 deg rotation - cart. axis [1,1,1]        

 cryst.   s( 3) = (     0          1          0      )
                  (     0          0          1      )
                  (     1          0          0      )

 cart.    s( 3) = (  0.0000000  0.0000000  1.0000000 )
                  (  1.0000000  0.0000000  0.0000000 )
                  (  0.0000000  1.0000000  0.0000000 )


      isym =  4     inv. 180 deg rotation - cart. axis [1,-1,0]  

 cryst.   s( 4) = (     0          1          0      )
                  (     1          0          0      )
                  (     0          0          1      )

 cart.    s( 4) = (  0.0000000  1.0000000  0.0000000 )
                  (  1.0000000  0.0000000  0.0000000 )
                  (  0.0000000  0.0000000  1.0000000 )


      isym =  5     inv. 180 deg rotation - cart. axis [-1,0,1]  

 cryst.   s( 5) = (     0          0          1      )
                  (     0          1          0      )
                  (     1          0          0      )

 cart.    s( 5) = (  0.0000000  0.0000000  1.0000000 )
                  (  0.0000000  1.0000000  0.0000000 )
                  (  1.0000000  0.0000000  0.0000000 )


      isym =  6     inv. 180 deg rotation - cart. axis [0,1,-1]  

 cryst.   s( 6) = (     1          0          0      )
                  (     0          0          1      )
                  (     0          1          0      )

 cart.    s( 6) = (  1.0000000  0.0000000  0.0000000 )
                  (  0.0000000  0.0000000  1.0000000 )
                  (  0.0000000  1.0000000  0.0000000 )


     point group C_3v (3m)  
     there are  3 classes
     the character table:

       E     2C3   3s_v 
A_1    1.00  1.00  1.00
A_2    1.00  1.00 -1.00
E      2.00 -1.00  0.00

     the symmetry operations in each class and the name of the first element:

     E        1
          identity                                               
     2C3      2    3
          120 deg rotation - cart. axis [-1,-1,-1]               
     3s_v     4    5    6
          inv. 180 deg rotation - cart. axis [1,-1,0]            

   Cartesian axes

     site n.     atom                  positions (alat units)
         1           Zn  tau(   1) = (   0.0000000   0.0000000   0.0000000  )
         2           Zn  tau(   2) = (   0.0000000   0.2500000   0.2500000  )
         3           Zn  tau(   3) = (   0.2500000   0.0000000   0.2500000  )
         4           Zn  tau(   4) = (   0.2500000   0.2500000   0.0000000  )
         5           S   tau(   5) = (   0.1250000   0.3750000   0.3750000  )
         6           S   tau(   6) = (   0.1250000   0.1250000   0.1250000  )
         7           S   tau(   7) = (   0.3750000   0.3750000   0.1250000  )
         8           S   tau(   8) = (   0.3750000   0.1250000   0.3750000  )
         9           Zn  tau(   9) = (   0.0000000   0.0000000   0.5000000  )
        10           Zn  tau(  10) = (   0.0000000   0.2500000   0.7500000  )
        11           Zn  tau(  11) = (   0.2500000   0.0000000   0.7500000  )
        12           Zn  tau(  12) = (   0.2500000   0.2500000   0.5000000  )
        13           S   tau(  13) = (   0.1250000   0.3750000   0.8750000  )
        14           S   tau(  14) = (   0.1250000   0.1250000   0.6250000  )
        15           S   tau(  15) = (   0.3750000   0.3750000   0.6250000  )
        16           S   tau(  16) = (   0.3750000   0.1250000   0.8750000  )
        17           Zn  tau(  17) = (   0.0000000   0.5000000   0.0000000  )
        18           Zn  tau(  18) = (   0.0000000   0.7500000   0.2500000  )
        19           Zn  tau(  19) = (   0.2500000   0.5000000   0.2500000  )
        20           Zn  tau(  20) = (   0.2500000   0.7500000   0.0000000  )
        21           S   tau(  21) = (   0.1250000   0.8750000   0.3750000  )
        22           S   tau(  22) = (   0.1250000   0.6250000   0.1250000  )
        23           S   tau(  23) = (   0.3750000   0.8750000   0.1250000  )
        24           S   tau(  24) = (   0.3750000   0.6250000   0.3750000  )
        25           Zn  tau(  25) = (   0.0000000   0.5000000   0.5000000  )
        26           Zn  tau(  26) = (   0.0000000   0.7500000   0.7500000  )
        27           Zn  tau(  27) = (   0.2500000   0.5000000   0.7500000  )
        28           Zn  tau(  28) = (   0.2500000   0.7500000   0.5000000  )
        29           S   tau(  29) = (   0.1250000   0.8750000   0.8750000  )
        30           S   tau(  30) = (   0.1250000   0.6250000   0.6250000  )
        31           S   tau(  31) = (   0.3750000   0.8750000   0.6250000  )
        32           S   tau(  32) = (   0.3750000   0.6250000   0.8750000  )
        33           Zn  tau(  33) = (   0.5000000   0.0000000   0.0000000  )
        34           Zn  tau(  34) = (   0.5000000   0.2500000   0.2500000  )
        35           Zn  tau(  35) = (   0.7500000   0.0000000   0.2500000  )
        36           Zn  tau(  36) = (   0.7500000   0.2500000   0.0000000  )
        37           S   tau(  37) = (   0.6250000   0.3750000   0.3750000  )
        38           S   tau(  38) = (   0.6250000   0.1250000   0.1250000  )
        39           S   tau(  39) = (   0.8750000   0.3750000   0.1250000  )
        40           S   tau(  40) = (   0.8750000   0.1250000   0.3750000  )
        41           Zn  tau(  41) = (   0.5000000   0.0000000   0.5000000  )
        42           Zn  tau(  42) = (   0.5000000   0.2500000   0.7500000  )
        43           Zn  tau(  43) = (   0.7500000   0.0000000   0.7500000  )
        44           Zn  tau(  44) = (   0.7500000   0.2500000   0.5000000  )
        45           S   tau(  45) = (   0.6250000   0.3750000   0.8750000  )
        46           S   tau(  46) = (   0.6250000   0.1250000   0.6250000  )
        47           S   tau(  47) = (   0.8750000   0.3750000   0.6250000  )
        48           S   tau(  48) = (   0.8750000   0.1250000   0.8750000  )
        49           Zn  tau(  49) = (   0.5000000   0.5000000   0.0000000  )
        50           Zn  tau(  50) = (   0.5000000   0.7500000   0.2500000  )
        51           Zn  tau(  51) = (   0.7500000   0.5000000   0.2500000  )
        52           Zn  tau(  52) = (   0.7500000   0.7500000   0.0000000  )
        53           S   tau(  53) = (   0.6250000   0.8750000   0.3750000  )
        54           S   tau(  54) = (   0.6250000   0.6250000   0.1250000  )
        55           S   tau(  55) = (   0.8750000   0.8750000   0.1250000  )
        56           S   tau(  56) = (   0.8750000   0.6250000   0.3750000  )
        57           Cu  tau(  57) = (   0.5000000   0.5000000   0.5000000  )
        58           Zn  tau(  58) = (   0.5000000   0.7500000   0.7500000  )
        59           Zn  tau(  59) = (   0.7500000   0.5000000   0.7500000  )
        60           Zn  tau(  60) = (   0.7500000   0.7500000   0.5000000  )
        61           S   tau(  61) = (   0.6250000   0.8750000   0.8750000  )
        62           S   tau(  62) = (   0.8750000   0.8750000   0.6250000  )
        63           S   tau(  63) = (   0.8750000   0.6250000   0.8750000  )

   Crystallographic axes

     site n.     atom                  positions (cryst. coord.)
         1           Zn  tau(   1) = (  0.0000000  0.0000000  0.0000000  )
         2           Zn  tau(   2) = (  0.0000000  0.2500000  0.2500000  )
         3           Zn  tau(   3) = (  0.2500000  0.0000000  0.2500000  )
         4           Zn  tau(   4) = (  0.2500000  0.2500000  0.0000000  )
         5           S   tau(   5) = (  0.1250000  0.3750000  0.3750000  )
         6           S   tau(   6) = (  0.1250000  0.1250000  0.1250000  )
         7           S   tau(   7) = (  0.3750000  0.3750000  0.1250000  )
         8           S   tau(   8) = (  0.3750000  0.1250000  0.3750000  )
         9           Zn  tau(   9) = (  0.0000000  0.0000000  0.5000000  )
        10           Zn  tau(  10) = (  0.0000000  0.2500000  0.7500000  )
        11           Zn  tau(  11) = (  0.2500000  0.0000000  0.7500000  )
        12           Zn  tau(  12) = (  0.2500000  0.2500000  0.5000000  )
        13           S   tau(  13) = (  0.1250000  0.3750000  0.8750000  )
        14           S   tau(  14) = (  0.1250000  0.1250000  0.6250000  )
        15           S   tau(  15) = (  0.3750000  0.3750000  0.6250000  )
        16           S   tau(  16) = (  0.3750000  0.1250000  0.8750000  )
        17           Zn  tau(  17) = (  0.0000000  0.5000000  0.0000000  )
        18           Zn  tau(  18) = (  0.0000000  0.7500000  0.2500000  )
        19           Zn  tau(  19) = (  0.2500000  0.5000000  0.2500000  )
        20           Zn  tau(  20) = (  0.2500000  0.7500000  0.0000000  )
        21           S   tau(  21) = (  0.1250000  0.8750000  0.3750000  )
        22           S   tau(  22) = (  0.1250000  0.6250000  0.1250000  )
        23           S   tau(  23) = (  0.3750000  0.8750000  0.1250000  )
        24           S   tau(  24) = (  0.3750000  0.6250000  0.3750000  )
        25           Zn  tau(  25) = (  0.0000000  0.5000000  0.5000000  )
        26           Zn  tau(  26) = (  0.0000000  0.7500000  0.7500000  )
        27           Zn  tau(  27) = (  0.2500000  0.5000000  0.7500000  )
        28           Zn  tau(  28) = (  0.2500000  0.7500000  0.5000000  )
        29           S   tau(  29) = (  0.1250000  0.8750000  0.8750000  )
        30           S   tau(  30) = (  0.1250000  0.6250000  0.6250000  )
        31           S   tau(  31) = (  0.3750000  0.8750000  0.6250000  )
        32           S   tau(  32) = (  0.3750000  0.6250000  0.8750000  )
        33           Zn  tau(  33) = (  0.5000000  0.0000000  0.0000000  )
        34           Zn  tau(  34) = (  0.5000000  0.2500000  0.2500000  )
        35           Zn  tau(  35) = (  0.7500000  0.0000000  0.2500000  )
        36           Zn  tau(  36) = (  0.7500000  0.2500000  0.0000000  )
        37           S   tau(  37) = (  0.6250000  0.3750000  0.3750000  )
        38           S   tau(  38) = (  0.6250000  0.1250000  0.1250000  )
        39           S   tau(  39) = (  0.8750000  0.3750000  0.1250000  )
        40           S   tau(  40) = (  0.8750000  0.1250000  0.3750000  )
        41           Zn  tau(  41) = (  0.5000000  0.0000000  0.5000000  )
        42           Zn  tau(  42) = (  0.5000000  0.2500000  0.7500000  )
        43           Zn  tau(  43) = (  0.7500000  0.0000000  0.7500000  )
        44           Zn  tau(  44) = (  0.7500000  0.2500000  0.5000000  )
        45           S   tau(  45) = (  0.6250000  0.3750000  0.8750000  )
        46           S   tau(  46) = (  0.6250000  0.1250000  0.6250000  )
        47           S   tau(  47) = (  0.8750000  0.3750000  0.6250000  )
        48           S   tau(  48) = (  0.8750000  0.1250000  0.8750000  )
        49           Zn  tau(  49) = (  0.5000000  0.5000000  0.0000000  )
        50           Zn  tau(  50) = (  0.5000000  0.7500000  0.2500000  )
        51           Zn  tau(  51) = (  0.7500000  0.5000000  0.2500000  )
        52           Zn  tau(  52) = (  0.7500000  0.7500000  0.0000000  )
        53           S   tau(  53) = (  0.6250000  0.8750000  0.3750000  )
        54           S   tau(  54) = (  0.6250000  0.6250000  0.1250000  )
        55           S   tau(  55) = (  0.8750000  0.8750000  0.1250000  )
        56           S   tau(  56) = (  0.8750000  0.6250000  0.3750000  )
        57           Cu  tau(  57) = (  0.5000000  0.5000000  0.5000000  )
        58           Zn  tau(  58) = (  0.5000000  0.7500000  0.7500000  )
        59           Zn  tau(  59) = (  0.7500000  0.5000000  0.7500000  )
        60           Zn  tau(  60) = (  0.7500000  0.7500000  0.5000000  )
        61           S   tau(  61) = (  0.6250000  0.8750000  0.8750000  )
        62           S   tau(  62) = (  0.8750000  0.8750000  0.6250000  )
        63           S   tau(  63) = (  0.8750000  0.6250000  0.8750000  )

     number of k points=    13 (tetrahedron method)
                       cart. coord. in units 2pi/alat
        k(    1) = (   0.0000000   0.0000000   0.0000000), wk =   0.0156250
        k(    2) = (   0.0000000   0.0000000   0.2500000), wk =   0.0937500
        k(    3) = (   0.0000000   0.0000000  -0.5000000), wk =   0.0468750
        k(    4) = (   0.0000000   0.2500000   0.2500000), wk =   0.0937500
        k(    5) = (   0.0000000   0.2500000  -0.5000000), wk =   0.1875000
        k(    6) = (   0.0000000  -0.5000000  -0.5000000), wk =   0.0468750
        k(    7) = (   0.2500000   0.2500000   0.2500000), wk =   0.0312500
        k(    8) = (   0.2500000   0.2500000  -0.5000000), wk =   0.0937500
        k(    9) = (   0.2500000  -0.5000000  -0.5000000), wk =   0.0937500
        k(   10) = (  -0.5000000  -0.5000000  -0.5000000), wk =   0.0156250
        k(   11) = (  -0.2500000   0.0000000   0.2500000), wk =   0.0937500
        k(   12) = (   0.2500000  -0.2500000   0.2500000), wk =   0.0937500
        k(   13) = (   0.2500000  -0.2500000  -0.5000000), wk =   0.0937500

                       cryst. coord.
        k(    1) = (   0.0000000   0.0000000   0.0000000), wk =   0.0156250
        k(    2) = (   0.0000000   0.0000000   0.2500000), wk =   0.0937500
        k(    3) = (   0.0000000   0.0000000  -0.5000000), wk =   0.0468750
        k(    4) = (   0.0000000   0.2500000   0.2500000), wk =   0.0937500
        k(    5) = (   0.0000000   0.2500000  -0.5000000), wk =   0.1875000
        k(    6) = (   0.0000000  -0.5000000  -0.5000000), wk =   0.0468750
        k(    7) = (   0.2500000   0.2500000   0.2500000), wk =   0.0312500
        k(    8) = (   0.2500000   0.2500000  -0.5000000), wk =   0.0937500
        k(    9) = (   0.2500000  -0.5000000  -0.5000000), wk =   0.0937500
        k(   10) = (  -0.5000000  -0.5000000  -0.5000000), wk =   0.0156250
        k(   11) = (  -0.2500000   0.0000000   0.2500000), wk =   0.0937500
        k(   12) = (   0.2500000  -0.2500000   0.2500000), wk =   0.0937500
        k(   13) = (   0.2500000  -0.2500000  -0.5000000), wk =   0.0937500

     Dense  grid:  2160009 G-vectors     FFT dimensions: ( 162, 162, 162)

     Dynamical RAM for                 wfc:      12.76 MB

     Dynamical RAM for     wfc (w. buffer):      38.28 MB

     Dynamical RAM for             U proj.:       5.88 MB

     Dynamical RAM for  U proj. (w. buff.):      17.65 MB

     Dynamical RAM for           str. fact:       0.88 MB

     Dynamical RAM for           local pot:       0.00 MB

     Dynamical RAM for          nlocal pot:      41.70 MB

     Dynamical RAM for                qrad:       5.90 MB

     Dynamical RAM for          rho,v,vnew:       4.17 MB

     Dynamical RAM for           G-vectors:       1.25 MB

     Dynamical RAM for          h,s,v(r/c):       2.44 MB

     Dynamical RAM for          <psi|beta>:       6.00 MB

     Dynamical RAM for                 psi:      25.52 MB

     Dynamical RAM for                hpsi:      25.52 MB

     Dynamical RAM for                spsi:      25.52 MB

     Dynamical RAM for      wfcinit/wfcrot:      34.28 MB

     Dynamical RAM for           addusdens:       5.48 MB

     Estimated static dynamical RAM per process >     113.41 MB

     Estimated max dynamical RAM per process >     198.42 MB

     Estimated total dynamical RAM >     282.13 GB
     Generating pointlists ...
     new r_m :   0.0893 (alat units)  1.8370 (a.u.) for type    1
     new r_m :   0.0893 (alat units)  1.8370 (a.u.) for type    2
     new r_m :   0.0893 (alat units)  1.8370 (a.u.) for type    3

     The potential is recalculated from file :
     ./out/Cu_vac_qn1_U8_unrlxd.save/charge-density


     HUBBARD ENERGY =    0.2773  (Ry)

     STARTING HUBBARD OCCUPATIONS:

     =================== HUBBARD OCCUPATIONS ===================
     ------------------------ ATOM    1 ------------------------
     Tr[ns(  1)] (up, down, total) =   4.98377  4.98377  9.96755
     Atomic magnetic moment for atom   1 =   0.00000
     SPIN  1
     eigenvalues:
       0.996  0.996  0.996  0.998  0.998
     eigenvectors (columns):
       0.001  0.000 -0.000  0.178  0.984
      -0.062 -0.814 -0.577 -0.000  0.000
      -0.674  0.461 -0.577  0.000  0.000
      -0.000  0.001  0.000 -0.984  0.178
      -0.736 -0.353  0.577  0.000  0.000
     occupation matrix ns (before diag.):
       0.998  0.000  0.000  0.000  0.000
       0.000  0.996  0.000  0.000 -0.000
       0.000  0.000  0.996 -0.000 -0.000
       0.000  0.000 -0.000  0.998 -0.000
       0.000 -0.000 -0.000 -0.000  0.996
     SPIN  2
     eigenvalues:
       0.996  0.996  0.996  0.998  0.998
     eigenvectors (columns):
       0.001  0.000 -0.000  0.105  0.994
      -0.088 -0.812 -0.577 -0.000  0.000
      -0.659  0.482 -0.577  0.000  0.000
      -0.000  0.001  0.000 -0.994  0.105
      -0.747 -0.329  0.577  0.000  0.000
     occupation matrix ns (before diag.):
       0.998  0.000  0.000  0.000  0.000
       0.000  0.996  0.000  0.000 -0.000
       0.000  0.000  0.996 -0.000 -0.000
       0.000  0.000 -0.000  0.998 -0.000
       0.000 -0.000 -0.000 -0.000  0.996
     ------------------------ ATOM    2 ------------------------
     Tr[ns(  2)] (up, down, total) =   4.98377  4.98377  9.96754
     Atomic magnetic moment for atom   2 =  -0.00000
     SPIN  1
     eigenvalues:
       0.996  0.996  0.996  0.998  0.998
     eigenvectors (columns):
       0.002  0.009 -0.001 -0.500 -0.866
      -0.554  0.707 -0.439 -0.001  0.007
      -0.621  0.000  0.784 -0.004  0.000
      -0.003  0.005  0.002  0.866 -0.500
       0.554  0.707  0.439  0.001  0.007
     occupation matrix ns (before diag.):
       0.998 -0.000  0.000  0.000 -0.000
      -0.000  0.996 -0.000 -0.000 -0.000
       0.000 -0.000  0.996 -0.000  0.000
       0.000 -0.000 -0.000  0.998 -0.000
      -0.000 -0.000  0.000 -0.000  0.996
     SPIN  2
     eigenvalues:
       0.996  0.996  0.996  0.998  0.998
     eigenvectors (columns):
       0.002  0.009 -0.001 -0.500 -0.866
      -0.554  0.707 -0.439 -0.001  0.007
      -0.621  0.000  0.784 -0.004  0.000
      -0.003  0.005  0.002  0.866 -0.500
       0.554  0.707  0.439  0.001  0.007
     occupation matrix ns (before diag.):
       0.998 -0.000  0.000  0.000 -0.000
      -0.000  0.996 -0.000 -0.000 -0.000
       0.000 -0.000  0.996 -0.000  0.000
       0.000 -0.000 -0.000  0.998 -0.000
      -0.000 -0.000  0.000 -0.000  0.996
     ------------------------ ATOM    3 ------------------------
     Tr[ns(  3)] (up, down, total) =   4.98377  4.98377  9.96754
     Atomic magnetic moment for atom   3 =  -0.00000
     SPIN  1
     eigenvalues:
       0.996  0.996  0.996  0.998  0.998
     eigenvectors (columns):
       0.002  0.009 -0.001 -0.500 -0.866
      -0.621 -0.000  0.784 -0.004  0.000
      -0.554  0.707 -0.439 -0.001  0.007
       0.003 -0.005 -0.002 -0.866  0.500
       0.554  0.707  0.439  0.001  0.007
     occupation matrix ns (before diag.):
       0.998  0.000 -0.000 -0.000 -0.000
       0.000  0.996 -0.000  0.000  0.000
      -0.000 -0.000  0.996  0.000 -0.000
      -0.000  0.000  0.000  0.998  0.000
      -0.000  0.000 -0.000  0.000  0.996
     SPIN  2
     eigenvalues:
       0.996  0.996  0.996  0.998  0.998
     eigenvectors (columns):
       0.002  0.009 -0.001 -0.500 -0.866
      -0.621  0.000  0.784 -0.004  0.000
      -0.554  0.707 -0.439 -0.001  0.007
       0.003 -0.005 -0.002 -0.866  0.500
       0.554  0.707  0.439  0.001  0.007
     occupation matrix ns (before diag.):
       0.998  0.000 -0.000 -0.000 -0.000
       0.000  0.996 -0.000  0.000  0.000
      -0.000 -0.000  0.996  0.000 -0.000
      -0.000  0.000  0.000  0.998  0.000
      -0.000  0.000 -0.000  0.000  0.996
     ------------------------ ATOM    4 ------------------------
     Tr[ns(  4)] (up, down, total) =   4.98377  4.98377  9.96754
     Atomic magnetic moment for atom   4 =  -0.00000
     SPIN  1
     eigenvalues:
       0.996  0.996  0.996  0.998  0.998
     eigenvectors (columns):
      -0.004  0.000  0.002  1.000 -0.000
      -0.554  0.707 -0.439 -0.001  0.007
      -0.554 -0.707 -0.439 -0.001 -0.007
       0.000  0.011 -0.000 -0.000 -1.000
       0.621 -0.000 -0.784  0.004  0.000
     occupation matrix ns (before diag.):
       0.998 -0.000 -0.000  0.000  0.000
      -0.000  0.996  0.000 -0.000  0.000
      -0.000  0.000  0.996  0.000  0.000
       0.000 -0.000  0.000  0.998 -0.000
       0.000  0.000  0.000 -0.000  0.996
     SPIN  2
     eigenvalues:
       0.996  0.996  0.996  0.998  0.998
     eigenvectors (columns):
      -0.004  0.000  0.002  1.000 -0.000
      -0.554  0.707 -0.439 -0.001  0.007
      -0.554 -0.707 -0.439 -0.001 -0.007
       0.000  0.011 -0.000 -0.000 -1.000
       0.621 -0.000 -0.784  0.004  0.000
     occupation matrix ns (before diag.):
       0.998 -0.000 -0.000  0.000  0.000
      -0.000  0.996  0.000 -0.000  0.000
      -0.000  0.000  0.996  0.000  0.000
       0.000 -0.000  0.000  0.998 -0.000
       0.000  0.000  0.000 -0.000  0.996
     ------------------------ ATOM    9 ------------------------
     Tr[ns(  9)] (up, down, total) =   4.98367  4.98367  9.96734
     Atomic magnetic moment for atom   9 =  -0.00000
     SPIN  1
     eigenvalues:
       0.996  0.996  0.996  0.998  0.998
     eigenvectors (columns):
      -0.011  0.002  0.000 -0.000  1.000
      -0.674 -0.214  0.707  0.001 -0.007
      -0.674 -0.214 -0.707 -0.001 -0.007
       0.000  0.000 -0.001  1.000  0.000
      -0.302  0.953 -0.000 -0.000 -0.005
     occupation matrix ns (before diag.):
       0.998 -0.000 -0.000  0.000 -0.000
      -0.000  0.996 -0.000  0.000 -0.000
      -0.000 -0.000  0.996 -0.000 -0.000
       0.000  0.000 -0.000  0.998 -0.000
      -0.000 -0.000 -0.000 -0.000  0.996
     SPIN  2
     eigenvalues:
       0.996  0.996  0.996  0.998  0.998
     eigenvectors (columns):
      -0.011  0.002  0.000 -0.000  1.000
      -0.674 -0.214  0.707  0.001 -0.007
      -0.674 -0.214 -0.707 -0.001 -0.007
       0.000  0.000 -0.001  1.000  0.000
      -0.302  0.953 -0.000 -0.000 -0.005
     occupation matrix ns (before diag.):
       0.998 -0.000 -0.000  0.000 -0.000
      -0.000  0.996 -0.000  0.000 -0.000
      -0.000 -0.000  0.996 -0.000 -0.000
       0.000  0.000 -0.000  0.998 -0.000
      -0.000 -0.000 -0.000 -0.000  0.996
     ------------------------ ATOM   10 ------------------------
     Tr[ns( 10)] (up, down, total) =   4.98370  4.98370  9.96739
     Atomic magnetic moment for atom  10 =  -0.00000
     SPIN  1
     eigenvalues:
       0.996  0.996  0.996  0.998  0.998
     eigenvectors (columns):
      -0.011 -0.012  0.001  0.893  0.450
       0.718 -0.424  0.552  0.004 -0.003
      -0.674 -0.228  0.703 -0.011 -0.001
       0.006 -0.004 -0.002 -0.450  0.893
       0.172  0.877  0.449  0.009  0.008
     occupation matrix ns (before diag.):
       0.998  0.000 -0.000  0.000  0.000
       0.000  0.996  0.000 -0.000 -0.000
      -0.000  0.000  0.996  0.000  0.000
       0.000 -0.000  0.000  0.998  0.000
       0.000 -0.000  0.000  0.000  0.996
     SPIN  2
     eigenvalues:
       0.996  0.996  0.996  0.998  0.998
     eigenvectors (columns):
      -0.011 -0.012  0.001  0.893  0.450
       0.718 -0.424  0.552  0.004 -0.003
      -0.674 -0.228  0.703 -0.011 -0.001
       0.006 -0.004 -0.002 -0.450  0.893
       0.172  0.877  0.449  0.009  0.008
     occupation matrix ns (before diag.):
       0.998  0.000 -0.000  0.000  0.000
       0.000  0.996  0.000 -0.000 -0.000
      -0.000  0.000  0.996  0.000  0.000
       0.000 -0.000  0.000  0.998  0.000
       0.000 -0.000  0.000  0.000  0.996
     ------------------------ ATOM   11 ------------------------
     Tr[ns( 11)] (up, down, total) =   4.98370  4.98370  9.96739
     Atomic magnetic moment for atom  11 =  -0.00000
     SPIN  1
     eigenvalues:
       0.996  0.996  0.996  0.998  0.998
     eigenvectors (columns):
      -0.011 -0.012  0.001  0.893  0.450
      -0.674 -0.228  0.703 -0.011 -0.001
       0.718 -0.424  0.552  0.004 -0.003
      -0.006  0.004  0.002  0.450 -0.893
       0.172  0.877  0.449  0.009  0.008
     occupation matrix ns (before diag.):
       0.998 -0.000  0.000 -0.000  0.000
      -0.000  0.996  0.000 -0.000  0.000
       0.000  0.000  0.996  0.000 -0.000
      -0.000 -0.000  0.000  0.998 -0.000
       0.000  0.000 -0.000 -0.000  0.996
     SPIN  2
     eigenvalues:
       0.996  0.996  0.996  0.998  0.998
     eigenvectors (columns):
      -0.011 -0.012  0.001  0.893  0.450
      -0.674 -0.228  0.703 -0.011 -0.001
       0.718 -0.424  0.552  0.004 -0.003
      -0.006  0.004  0.002  0.450 -0.893
       0.172  0.877  0.449  0.009  0.008
     occupation matrix ns (before diag.):
       0.998 -0.000  0.000 -0.000  0.000
      -0.000  0.996  0.000 -0.000  0.000
       0.000  0.000  0.996  0.000 -0.000
      -0.000 -0.000  0.000  0.998 -0.000
       0.000  0.000 -0.000 -0.000  0.996
     ------------------------ ATOM   12 ------------------------
     Tr[ns( 12)] (up, down, total) =   4.98375  4.98375  9.96750
     Atomic magnetic moment for atom  12 =   0.00000
     SPIN  1
     eigenvalues:
       0.996  0.996  0.996  0.998  0.998
     eigenvectors (columns):
      -0.003 -0.000  0.071 -0.000 -0.997
      -0.480  0.707  0.517 -0.025  0.038
      -0.480 -0.707  0.517  0.025  0.038
       0.000  0.035  0.000  0.999 -0.000
       0.734 -0.000  0.678 -0.000  0.046
     occupation matrix ns (before diag.):
       0.998 -0.000 -0.000  0.000 -0.000
      -0.000  0.996 -0.000 -0.000  0.000
      -0.000 -0.000  0.996  0.000  0.000
       0.000 -0.000  0.000  0.998 -0.000
      -0.000  0.000  0.000 -0.000  0.996
     SPIN  2
     eigenvalues:
       0.996  0.996  0.996  0.998  0.998
     eigenvectors (columns):
      -0.003 -0.000  0.071 -0.000 -0.997
      -0.480  0.707  0.517 -0.025  0.038
      -0.480 -0.707  0.517  0.025  0.038
       0.000  0.035  0.000  0.999 -0.000
       0.734 -0.000  0.678 -0.000  0.046
     occupation matrix ns (before diag.):
       0.998 -0.000 -0.000  0.000 -0.000
      -0.000  0.996 -0.000 -0.000  0.000
      -0.000 -0.000  0.996  0.000  0.000
       0.000 -0.000  0.000  0.998 -0.000
      -0.000  0.000  0.000 -0.000  0.996
     ------------------------ ATOM   17 ------------------------
     Tr[ns( 17)] (up, down, total) =   4.98367  4.98367  9.96734
     Atomic magnetic moment for atom  17 =  -0.00000
     SPIN  1
     eigenvalues:
       0.996  0.996  0.996  0.998  0.998
     eigenvectors (columns):
       0.005 -0.001  0.001 -0.866  0.500
       0.302 -0.953 -0.000  0.000 -0.005
      -0.674 -0.214 -0.707 -0.001  0.007
       0.009 -0.001 -0.000  0.500  0.866
       0.674  0.214 -0.707 -0.001 -0.007
     occupation matrix ns (before diag.):
       0.998 -0.000  0.000  0.000 -0.000
      -0.000  0.996  0.000 -0.000 -0.000
       0.000  0.000  0.996  0.000  0.000
       0.000 -0.000  0.000  0.998 -0.000
      -0.000 -0.000  0.000 -0.000  0.996
     SPIN  2
     eigenvalues:
       0.996  0.996  0.996  0.998  0.998
     eigenvectors (columns):
       0.005 -0.001  0.001 -0.866  0.500
       0.302 -0.953 -0.000  0.000 -0.005
      -0.674 -0.214 -0.707 -0.001  0.007
       0.009 -0.001 -0.000  0.500  0.866
       0.674  0.214 -0.707 -0.001 -0.007
     occupation matrix ns (before diag.):
       0.998 -0.000  0.000  0.000 -0.000
      -0.000  0.996  0.000 -0.000 -0.000
       0.000  0.000  0.996  0.000  0.000
       0.000 -0.000  0.000  0.998 -0.000
      -0.000 -0.000  0.000 -0.000  0.996
     ------------------------ ATOM   18 ------------------------
     Tr[ns( 18)] (up, down, total) =   4.98370  4.98370  9.96739
     Atomic magnetic moment for atom  18 =  -0.00000
     SPIN  1
     eigenvalues:
       0.996  0.996  0.996  0.998  0.998
     eigenvectors (columns):
       0.001  0.009 -0.001  0.056 -0.998
      -0.172 -0.877  0.449  0.009 -0.008
      -0.674 -0.228 -0.703  0.011 -0.001
       0.012  0.008  0.002  0.998  0.056
      -0.718  0.424  0.552  0.004  0.003
     occupation matrix ns (before diag.):
       0.998  0.000  0.000 -0.000 -0.000
       0.000  0.996 -0.000  0.000 -0.000
       0.000 -0.000  0.996  0.000 -0.000
      -0.000  0.000  0.000  0.998  0.000
      -0.000 -0.000 -0.000  0.000  0.996
     SPIN  2
     eigenvalues:
       0.996  0.996  0.996  0.998  0.998
     eigenvectors (columns):
       0.001  0.009 -0.001  0.056 -0.998
      -0.172 -0.877  0.449  0.009 -0.008
      -0.674 -0.228 -0.703  0.011 -0.001
       0.012  0.008  0.002  0.998  0.057
      -0.718  0.424  0.552  0.004  0.003
     occupation matrix ns (before diag.):
       0.998  0.000  0.000 -0.000 -0.000
       0.000  0.996 -0.000  0.000 -0.000
       0.000 -0.000  0.996  0.000 -0.000
      -0.000  0.000  0.000  0.998  0.000
      -0.000 -0.000 -0.000  0.000  0.996
     ------------------------ ATOM   19 ------------------------
     Tr[ns( 19)] (up, down, total) =   4.98375  4.98375  9.96750
     Atomic magnetic moment for atom  19 =   0.00000
     SPIN  1
     eigenvalues:
       0.996  0.996  0.996  0.998  0.998
     eigenvectors (columns):
       0.002 -0.031 -0.035 -0.865 -0.499
      -0.734 -0.000 -0.678  0.000  0.046
      -0.480 -0.707  0.517  0.025 -0.038
       0.003  0.018 -0.061  0.500 -0.864
       0.480 -0.707 -0.517  0.025  0.038
     occupation matrix ns (before diag.):
       0.998 -0.000 -0.000  0.000 -0.000
      -0.000  0.996 -0.000 -0.000  0.000
      -0.000 -0.000  0.996  0.000  0.000
       0.000 -0.000  0.000  0.998 -0.000
      -0.000  0.000  0.000 -0.000  0.996
     SPIN  2
     eigenvalues:
       0.996  0.996  0.996  0.998  0.998
     eigenvectors (columns):
       0.002 -0.031 -0.035 -0.865 -0.499
      -0.734 -0.000 -0.678  0.000  0.046
      -0.480 -0.707  0.517  0.025 -0.038
       0.003  0.018 -0.061  0.500 -0.864
       0.480 -0.707 -0.517  0.025  0.038
     occupation matrix ns (before diag.):
       0.998 -0.000 -0.000  0.000 -0.000
      -0.000  0.996 -0.000 -0.000  0.000
      -0.000 -0.000  0.996  0.000  0.000
       0.000 -0.000  0.000  0.998 -0.000
      -0.000  0.000  0.000 -0.000  0.996
     ------------------------ ATOM   20 ------------------------
     Tr[ns( 20)] (up, down, total) =   4.98370  4.98370  9.96739
     Atomic magnetic moment for atom  20 =  -0.00000
     SPIN  1
     eigenvalues:
       0.996  0.996  0.996  0.998  0.998
     eigenvectors (columns):
      -0.010 -0.003 -0.002  0.836 -0.548
       0.172  0.877 -0.449  0.009  0.008
      -0.718  0.424  0.552 -0.004  0.003
      -0.007 -0.012 -0.000  0.548  0.836
      -0.674 -0.228 -0.703 -0.011 -0.001
     occupation matrix ns (before diag.):
       0.998  0.000 -0.000 -0.000 -0.000
       0.000  0.996  0.000  0.000  0.000
      -0.000  0.000  0.996  0.000 -0.000
      -0.000  0.000  0.000  0.998 -0.000
      -0.000  0.000 -0.000 -0.000  0.996
     SPIN  2
     eigenvalues:
       0.996  0.996  0.996  0.998  0.998
     eigenvectors (columns):
      -0.010 -0.003 -0.002  0.836 -0.548
       0.172  0.877 -0.449  0.009  0.008
      -0.718  0.424  0.552 -0.004  0.003
      -0.007 -0.012 -0.000  0.548  0.836
      -0.674 -0.228 -0.703 -0.011 -0.001
     occupation matrix ns (before diag.):
       0.998  0.000 -0.000 -0.000 -0.000
       0.000  0.996  0.000  0.000  0.000
      -0.000  0.000  0.996  0.000 -0.000
      -0.000  0.000  0.000  0.998 -0.000
      -0.000  0.000 -0.000 -0.000  0.996
     ------------------------ ATOM   25 ------------------------
     Tr[ns( 25)] (up, down, total) =   4.98386  4.98386  9.96771
     Atomic magnetic moment for atom  25 =   0.00000
     SPIN  1
     eigenvalues:
       0.996  0.996  0.996  0.998  0.998
     eigenvectors (columns):
       0.006 -0.001 -0.002  0.866 -0.500
       0.707  0.630 -0.321 -0.005  0.001
      -0.000  0.454  0.891 -0.000 -0.005
       0.003  0.001  0.004  0.500  0.866
       0.707 -0.630  0.321 -0.005 -0.001
     occupation matrix ns (before diag.):
       0.998 -0.000  0.000 -0.000 -0.000
      -0.000  0.996 -0.000 -0.000 -0.000
       0.000 -0.000  0.996 -0.000  0.000
      -0.000 -0.000 -0.000  0.998 -0.000
      -0.000 -0.000  0.000 -0.000  0.996
     SPIN  2
     eigenvalues:
       0.996  0.996  0.996  0.998  0.998
     eigenvectors (columns):
       0.006 -0.001 -0.002  0.866 -0.500
       0.707  0.630 -0.321 -0.005  0.001
      -0.000  0.454  0.891 -0.000 -0.005
       0.003  0.001  0.004  0.500  0.866
       0.707 -0.630  0.321 -0.005 -0.001
     occupation matrix ns (before diag.):
       0.998 -0.000  0.000 -0.000 -0.000
      -0.000  0.996 -0.000 -0.000 -0.000
       0.000 -0.000  0.996 -0.000  0.000
      -0.000 -0.000 -0.000  0.998 -0.000
      -0.000 -0.000  0.000 -0.000  0.996
     ------------------------ ATOM   26 ------------------------
     Tr[ns( 26)] (up, down, total) =   4.98379  4.98379  9.96759
     Atomic magnetic moment for atom  26 =  -0.00000
     SPIN  1
     eigenvalues:
       0.996  0.996  0.996  0.998  0.998
     eigenvectors (columns):
      -0.015 -0.003 -0.005  0.866 -0.500
       0.707 -0.534  0.464  0.012 -0.001
       0.000  0.655  0.755 -0.000 -0.012
      -0.008  0.006  0.009  0.500  0.866
       0.707  0.534 -0.464  0.012  0.001
     occupation matrix ns (before diag.):
       0.998  0.000  0.000 -0.000  0.000
       0.000  0.996  0.000  0.000 -0.000
       0.000  0.000  0.996 -0.000 -0.000
      -0.000  0.000 -0.000  0.998  0.000
       0.000 -0.000 -0.000  0.000  0.996
     SPIN  2
     eigenvalues:
       0.996  0.996  0.996  0.998  0.998
     eigenvectors (columns):
      -0.015 -0.003 -0.005  0.866 -0.500
       0.707 -0.534  0.463  0.012 -0.001
       0.000  0.655  0.755 -0.000 -0.012
      -0.008  0.006  0.009  0.500  0.866
       0.707  0.534 -0.463  0.012  0.001
     occupation matrix ns (before diag.):
       0.998  0.000  0.000 -0.000  0.000
       0.000  0.996  0.000  0.000 -0.000
       0.000  0.000  0.996 -0.000 -0.000
      -0.000  0.000 -0.000  0.998  0.000
       0.000 -0.000 -0.000  0.000  0.996
     ------------------------ ATOM   27 ------------------------
     Tr[ns( 27)] (up, down, total) =   4.98381  4.98381  9.96762
     Atomic magnetic moment for atom  27 =   0.00000
     SPIN  1
     eigenvalues:
       0.996  0.996  0.996  0.998  0.998
     eigenvectors (columns):
       0.006 -0.037  0.042 -0.878 -0.475
       0.778  0.045 -0.625  0.001 -0.050
      -0.424 -0.697 -0.574  0.028 -0.053
       0.006  0.017  0.079  0.477 -0.875
      -0.464  0.714 -0.521 -0.029 -0.052
     occupation matrix ns (before diag.):
       0.998  0.000 -0.000  0.000  0.000
       0.000  0.996  0.000  0.000  0.000
      -0.000  0.000  0.996  0.000  0.000
       0.000  0.000  0.000  0.998  0.000
       0.000  0.000  0.000  0.000  0.996
     SPIN  2
     eigenvalues:
       0.996  0.996  0.996  0.998  0.998
     eigenvectors (columns):
       0.006 -0.037  0.042 -0.878 -0.475
       0.778  0.045 -0.625  0.001 -0.050
      -0.424 -0.697 -0.574  0.028 -0.053
       0.006  0.017  0.079  0.477 -0.875
      -0.464  0.714 -0.521 -0.029 -0.052
     occupation matrix ns (before diag.):
       0.998  0.000 -0.000  0.000  0.000
       0.000  0.996  0.000  0.000  0.000
      -0.000  0.000  0.996  0.000  0.000
       0.000  0.000  0.000  0.998  0.000
       0.000  0.000  0.000  0.000  0.996
     ------------------------ ATOM   28 ------------------------
     Tr[ns( 28)] (up, down, total) =   4.98381  4.98381  9.96762
     Atomic magnetic moment for atom  28 =   0.00000
     SPIN  1
     eigenvalues:
       0.996  0.996  0.996  0.998  0.998
     eigenvectors (columns):
      -0.008  0.004  0.089 -0.026  0.996
       0.464 -0.714 -0.521 -0.029  0.052
      -0.424 -0.697  0.574 -0.028 -0.053
      -0.002  0.040 -0.004 -0.999 -0.026
      -0.778 -0.045 -0.625  0.001  0.050
     occupation matrix ns (before diag.):
       0.998  0.000 -0.000 -0.000  0.000
       0.000  0.996 -0.000  0.000  0.000
      -0.000 -0.000  0.996  0.000 -0.000
      -0.000  0.000  0.000  0.998 -0.000
       0.000  0.000 -0.000 -0.000  0.996
     SPIN  2
     eigenvalues:
       0.996  0.996  0.996  0.998  0.998
     eigenvectors (columns):
      -0.008  0.004  0.089 -0.026  0.996
       0.464 -0.714 -0.521 -0.029  0.052
      -0.424 -0.697  0.574 -0.028 -0.053
      -0.002  0.040 -0.004 -0.999 -0.026
      -0.778 -0.045 -0.625  0.001  0.050
     occupation matrix ns (before diag.):
       0.998  0.000 -0.000 -0.000  0.000
       0.000  0.996 -0.000  0.000  0.000
      -0.000 -0.000  0.996  0.000 -0.000
      -0.000  0.000  0.000  0.998 -0.000
       0.000  0.000 -0.000 -0.000  0.996
     ------------------------ ATOM   33 ------------------------
     Tr[ns( 33)] (up, down, total) =   4.98367  4.98367  9.96734
     Atomic magnetic moment for atom  33 =  -0.00000
     SPIN  1
     eigenvalues:
       0.996  0.996  0.996  0.998  0.998
     eigenvectors (columns):
       0.005 -0.001  0.001 -0.866  0.500
      -0.674 -0.214 -0.707 -0.001  0.007
       0.302 -0.953 -0.000  0.000 -0.005
      -0.009  0.001  0.000 -0.500 -0.866
       0.674  0.214 -0.707 -0.001 -0.007
     occupation matrix ns (before diag.):
       0.998  0.000 -0.000 -0.000 -0.000
       0.000  0.996  0.000 -0.000  0.000
      -0.000  0.000  0.996  0.000 -0.000
      -0.000 -0.000  0.000  0.998  0.000
      -0.000  0.000 -0.000  0.000  0.996
     SPIN  2
     eigenvalues:
       0.996  0.996  0.996  0.998  0.998
     eigenvectors (columns):
       0.005 -0.001  0.001 -0.866  0.500
      -0.674 -0.214 -0.707 -0.001  0.007
       0.302 -0.953 -0.000  0.000 -0.005
      -0.009  0.001  0.000 -0.500 -0.866
       0.674  0.214 -0.707 -0.001 -0.007
     occupation matrix ns (before diag.):
       0.998  0.000 -0.000 -0.000 -0.000
       0.000  0.996  0.000 -0.000  0.000
      -0.000  0.000  0.996  0.000 -0.000
      -0.000 -0.000  0.000  0.998  0.000
      -0.000  0.000 -0.000  0.000  0.996
     ------------------------ ATOM   34 ------------------------
     Tr[ns( 34)] (up, down, total) =   4.98375  4.98375  9.96750
     Atomic magnetic moment for atom  34 =   0.00000
     SPIN  1
     eigenvalues:
       0.996  0.996  0.996  0.998  0.998
     eigenvectors (columns):
       0.002 -0.031 -0.035 -0.865 -0.499
      -0.480 -0.707  0.517  0.025 -0.038
      -0.734 -0.000 -0.678  0.000  0.046
      -0.003 -0.018  0.061 -0.500  0.864
       0.480 -0.707 -0.517  0.025  0.038
     occupation matrix ns (before diag.):
       0.998 -0.000 -0.000 -0.000 -0.000
      -0.000  0.996 -0.000 -0.000  0.000
      -0.000 -0.000  0.996  0.000  0.000
      -0.000 -0.000  0.000  0.998  0.000
      -0.000  0.000  0.000  0.000  0.996
     SPIN  2
     eigenvalues:
       0.996  0.996  0.996  0.998  0.998
     eigenvectors (columns):
       0.002 -0.031 -0.035 -0.865 -0.499
      -0.480 -0.707  0.517  0.025 -0.038
      -0.734 -0.000 -0.678 -0.000  0.046
      -0.003 -0.018  0.061 -0.500  0.864
       0.480 -0.707 -0.517  0.025  0.038
     occupation matrix ns (before diag.):
       0.998 -0.000 -0.000 -0.000 -0.000
      -0.000  0.996 -0.000 -0.000  0.000
      -0.000 -0.000  0.996  0.000  0.000
      -0.000 -0.000  0.000  0.998  0.000
      -0.000  0.000  0.000  0.000  0.996
     ------------------------ ATOM   35 ------------------------
     Tr[ns( 35)] (up, down, total) =   4.98370  4.98370  9.96739
     Atomic magnetic moment for atom  35 =  -0.00000
     SPIN  1
     eigenvalues:
       0.996  0.996  0.996  0.998  0.998
     eigenvectors (columns):
       0.001 -0.009  0.001  0.056 -0.998
      -0.674  0.228  0.703  0.011 -0.001
      -0.172  0.877 -0.449  0.009 -0.008
      -0.012  0.008  0.002 -0.998 -0.056
      -0.718 -0.424 -0.552  0.004  0.003
     occupation matrix ns (before diag.):
       0.998  0.000  0.000  0.000 -0.000
       0.000  0.996 -0.000 -0.000 -0.000
       0.000 -0.000  0.996 -0.000 -0.000
       0.000 -0.000 -0.000  0.998 -0.000
      -0.000 -0.000 -0.000 -0.000  0.996
     SPIN  2
     eigenvalues:
       0.996  0.996  0.996  0.998  0.998
     eigenvectors (columns):
       0.001 -0.009  0.001  0.056 -0.998
      -0.674  0.228  0.703  0.011 -0.001
      -0.172  0.877 -0.449  0.009 -0.008
      -0.012  0.008  0.002 -0.998 -0.057
      -0.718 -0.424 -0.552  0.004  0.003
     occupation matrix ns (before diag.):
       0.998  0.000  0.000  0.000 -0.000
       0.000  0.996 -0.000 -0.000 -0.000
       0.000 -0.000  0.996 -0.000 -0.000
       0.000 -0.000 -0.000  0.998 -0.000
      -0.000 -0.000 -0.000 -0.000  0.996
     ------------------------ ATOM   36 ------------------------
     Tr[ns( 36)] (up, down, total) =   4.98370  4.98370  9.96739
     Atomic magnetic moment for atom  36 =  -0.00000
     SPIN  1
     eigenvalues:
       0.996  0.996  0.996  0.998  0.998
     eigenvectors (columns):
      -0.010  0.003  0.002  0.836 -0.548
      -0.718 -0.424 -0.552 -0.004  0.003
       0.172 -0.877  0.449  0.009  0.008
       0.007 -0.012 -0.000 -0.548 -0.836
      -0.674  0.228  0.703 -0.011 -0.001
     occupation matrix ns (before diag.):
       0.998 -0.000  0.000  0.000 -0.000
      -0.000  0.996  0.000 -0.000 -0.000
       0.000  0.000  0.996 -0.000  0.000
       0.000 -0.000 -0.000  0.998  0.000
      -0.000 -0.000  0.000  0.000  0.996
     SPIN  2
     eigenvalues:
       0.996  0.996  0.996  0.998  0.998
     eigenvectors (columns):
      -0.010  0.003  0.002  0.836 -0.548
      -0.718 -0.424 -0.552 -0.004  0.003
       0.172 -0.877  0.449  0.009  0.008
       0.007 -0.012 -0.000 -0.548 -0.836
      -0.674  0.228  0.703 -0.011 -0.001
     occupation matrix ns (before diag.):
       0.998 -0.000  0.000  0.000 -0.000
      -0.000  0.996  0.000 -0.000 -0.000
       0.000  0.000  0.996 -0.000  0.000
       0.000 -0.000 -0.000  0.998  0.000
      -0.000 -0.000  0.000  0.000  0.996
     ------------------------ ATOM   41 ------------------------
     Tr[ns( 41)] (up, down, total) =   4.98386  4.98386  9.96771
     Atomic magnetic moment for atom  41 =   0.00000
     SPIN  1
     eigenvalues:
       0.996  0.996  0.996  0.998  0.998
     eigenvectors (columns):
       0.006 -0.001 -0.002  0.866 -0.500
      -0.000  0.454  0.891 -0.000 -0.005
       0.707  0.630 -0.321 -0.005  0.001
      -0.003 -0.001 -0.004 -0.500 -0.866
       0.707 -0.630  0.321 -0.005 -0.001
     occupation matrix ns (before diag.):
       0.998  0.000 -0.000  0.000 -0.000
       0.000  0.996 -0.000  0.000  0.000
      -0.000 -0.000  0.996  0.000 -0.000
       0.000  0.000  0.000  0.998  0.000
      -0.000  0.000 -0.000  0.000  0.996
     SPIN  2
     eigenvalues:
       0.996  0.996  0.996  0.998  0.998
     eigenvectors (columns):
       0.006 -0.001 -0.002  0.866 -0.500
      -0.000  0.454  0.891 -0.000 -0.005
       0.707  0.630 -0.321 -0.005  0.001
      -0.003 -0.001 -0.004 -0.500 -0.866
       0.707 -0.630  0.321 -0.005 -0.001
     occupation matrix ns (before diag.):
       0.998  0.000 -0.000  0.000 -0.000
       0.000  0.996 -0.000  0.000  0.000
      -0.000 -0.000  0.996  0.000 -0.000
       0.000  0.000  0.000  0.998  0.000
      -0.000  0.000 -0.000  0.000  0.996
     ------------------------ ATOM   42 ------------------------
     Tr[ns( 42)] (up, down, total) =   4.98381  4.98381  9.96762
     Atomic magnetic moment for atom  42 =   0.00000
     SPIN  1
     eigenvalues:
       0.996  0.996  0.996  0.998  0.998
     eigenvectors (columns):
       0.006 -0.037  0.042 -0.878 -0.475
      -0.424 -0.697 -0.574  0.028 -0.053
       0.778  0.045 -0.625  0.001 -0.050
      -0.006 -0.017 -0.079 -0.477  0.875
      -0.464  0.714 -0.521 -0.029 -0.052
     occupation matrix ns (before diag.):
       0.998 -0.000  0.000 -0.000  0.000
      -0.000  0.996  0.000 -0.000  0.000
       0.000  0.000  0.996 -0.000  0.000
      -0.000 -0.000 -0.000  0.998 -0.000
       0.000  0.000  0.000 -0.000  0.996
     SPIN  2
     eigenvalues:
       0.996  0.996  0.996  0.998  0.998
     eigenvectors (columns):
       0.006 -0.037  0.042 -0.878 -0.475
      -0.424 -0.697 -0.574  0.028 -0.053
       0.778  0.045 -0.625  0.001 -0.050
      -0.006 -0.017 -0.079 -0.477  0.875
      -0.464  0.714 -0.521 -0.029 -0.052
     occupation matrix ns (before diag.):
       0.998 -0.000  0.000 -0.000  0.000
      -0.000  0.996  0.000 -0.000  0.000
       0.000  0.000  0.996 -0.000  0.000
      -0.000 -0.000 -0.000  0.998 -0.000
       0.000  0.000  0.000 -0.000  0.996
     ------------------------ ATOM   43 ------------------------
     Tr[ns( 43)] (up, down, total) =   4.98379  4.98379  9.96759
     Atomic magnetic moment for atom  43 =  -0.00000
     SPIN  1
     eigenvalues:
       0.996  0.996  0.996  0.998  0.998
     eigenvectors (columns):
      -0.015 -0.003 -0.005  0.866 -0.500
      -0.000  0.655  0.755 -0.000 -0.012
       0.707 -0.534  0.464  0.012 -0.001
       0.008 -0.006 -0.009 -0.500 -0.866
       0.707  0.534 -0.464  0.012  0.001
     occupation matrix ns (before diag.):
       0.998  0.000  0.000  0.000  0.000
       0.000  0.996  0.000  0.000 -0.000
       0.000  0.000  0.996 -0.000 -0.000
       0.000  0.000 -0.000  0.998 -0.000
       0.000 -0.000 -0.000 -0.000  0.996
     SPIN  2
     eigenvalues:
       0.996  0.996  0.996  0.998  0.998
     eigenvectors (columns):
      -0.015 -0.003 -0.005  0.866 -0.500
       0.000  0.655  0.755 -0.000 -0.012
       0.707 -0.534  0.463  0.012 -0.001
       0.008 -0.006 -0.009 -0.500 -0.866
       0.707  0.534 -0.463  0.012  0.001
     occupation matrix ns (before diag.):
       0.998  0.000  0.000  0.000  0.000
       0.000  0.996  0.000  0.000 -0.000
       0.000  0.000  0.996 -0.000 -0.000
       0.000  0.000 -0.000  0.998 -0.000
       0.000 -0.000 -0.000 -0.000  0.996
     ------------------------ ATOM   44 ------------------------
     Tr[ns( 44)] (up, down, total) =   4.98381  4.98381  9.96762
     Atomic magnetic moment for atom  44 =   0.00000
     SPIN  1
     eigenvalues:
       0.996  0.996  0.996  0.998  0.998
     eigenvectors (columns):
      -0.008 -0.004 -0.089 -0.026  0.996
      -0.424  0.697 -0.574 -0.028 -0.053
       0.464  0.714  0.521 -0.029  0.052
       0.002  0.040 -0.004  0.999  0.026
      -0.778  0.045  0.625  0.001  0.050
     occupation matrix ns (before diag.):
       0.998 -0.000  0.000  0.000  0.000
      -0.000  0.996 -0.000 -0.000 -0.000
       0.000 -0.000  0.996 -0.000  0.000
       0.000 -0.000 -0.000  0.998  0.000
       0.000 -0.000  0.000  0.000  0.996
     SPIN  2
     eigenvalues:
       0.996  0.996  0.996  0.998  0.998
     eigenvectors (columns):
      -0.008 -0.004 -0.089 -0.026  0.996
      -0.424  0.697 -0.574 -0.028 -0.053
       0.464  0.714  0.521 -0.029  0.052
       0.002  0.040 -0.004  0.999  0.026
      -0.778  0.045  0.625  0.001  0.050
     occupation matrix ns (before diag.):
       0.998 -0.000  0.000  0.000  0.000
      -0.000  0.996 -0.000 -0.000 -0.000
       0.000 -0.000  0.996 -0.000  0.000
       0.000 -0.000 -0.000  0.998  0.000
       0.000 -0.000  0.000  0.000  0.996
     ------------------------ ATOM   49 ------------------------
     Tr[ns( 49)] (up, down, total) =   4.98386  4.98386  9.96771
     Atomic magnetic moment for atom  49 =   0.00000
     SPIN  1
     eigenvalues:
       0.996  0.996  0.996  0.998  0.998
     eigenvectors (columns):
      -0.000  0.001 -0.005 -0.000  1.000
      -0.707  0.630  0.321 -0.005  0.001
       0.707  0.630  0.321  0.005  0.001
      -0.007 -0.000  0.000  1.000  0.000
      -0.000 -0.454  0.891 -0.000  0.005
     occupation matrix ns (before diag.):
       0.998  0.000  0.000  0.000  0.000
       0.000  0.996  0.000 -0.000  0.000
       0.000  0.000  0.996  0.000  0.000
       0.000 -0.000  0.000  0.998 -0.000
       0.000  0.000  0.000 -0.000  0.996
     SPIN  2
     eigenvalues:
       0.996  0.996  0.996  0.998  0.998
     eigenvectors (columns):
      -0.000  0.001 -0.005 -0.000  1.000
      -0.707  0.630  0.321 -0.005  0.001
       0.707  0.630  0.321  0.005  0.001
      -0.007 -0.000  0.000  1.000  0.000
      -0.000 -0.454  0.891 -0.000  0.005
     occupation matrix ns (before diag.):
       0.998  0.000  0.000  0.000  0.000
       0.000  0.996  0.000 -0.000  0.000
       0.000  0.000  0.996  0.000  0.000
       0.000 -0.000  0.000  0.998 -0.000
       0.000  0.000  0.000 -0.000  0.996
     ------------------------ ATOM   50 ------------------------
     Tr[ns( 50)] (up, down, total) =   4.98381  4.98381  9.96762
     Atomic magnetic moment for atom  50 =   0.00000
     SPIN  1
     eigenvalues:
       0.996  0.996  0.996  0.998  0.998
     eigenvectors (columns):
      -0.002 -0.033  0.048 -0.852 -0.520
      -0.464  0.714  0.521 -0.029  0.052
      -0.778 -0.045 -0.625 -0.001 -0.050
       0.008 -0.024 -0.076 -0.522  0.849
      -0.424 -0.697  0.574  0.028  0.053
     occupation matrix ns (before diag.):
       0.998 -0.000  0.000 -0.000 -0.000
      -0.000  0.996 -0.000  0.000  0.000
       0.000 -0.000  0.996 -0.000 -0.000
      -0.000  0.000 -0.000  0.998  0.000
      -0.000  0.000 -0.000  0.000  0.996
     SPIN  2
     eigenvalues:
       0.996  0.996  0.996  0.998  0.998
     eigenvectors (columns):
      -0.002 -0.033  0.048 -0.852 -0.520
      -0.464  0.714  0.521 -0.029  0.052
      -0.778 -0.045 -0.625 -0.001 -0.050
       0.008 -0.024 -0.076 -0.522  0.849
      -0.424 -0.697  0.574  0.028  0.053
     occupation matrix ns (before diag.):
       0.998 -0.000  0.000 -0.000 -0.000
      -0.000  0.996 -0.000  0.000  0.000
       0.000 -0.000  0.996 -0.000 -0.000
      -0.000  0.000 -0.000  0.998  0.000
      -0.000  0.000 -0.000  0.000  0.996
     ------------------------ ATOM   51 ------------------------
     Tr[ns( 51)] (up, down, total) =   4.98381  4.98381  9.96762
     Atomic magnetic moment for atom  51 =   0.00000
     SPIN  1
     eigenvalues:
       0.996  0.996  0.996  0.998  0.998
     eigenvectors (columns):
      -0.002 -0.033  0.048 -0.852 -0.520
      -0.778 -0.045 -0.625 -0.001 -0.050
      -0.464  0.714  0.521 -0.029  0.052
      -0.008  0.024  0.076  0.522 -0.849
      -0.424 -0.697  0.574  0.028  0.053
     occupation matrix ns (before diag.):
       0.998  0.000 -0.000  0.000 -0.000
       0.000  0.996 -0.000  0.000 -0.000
      -0.000 -0.000  0.996 -0.000  0.000
       0.000  0.000 -0.000  0.998 -0.000
      -0.000 -0.000  0.000 -0.000  0.996
     SPIN  2
     eigenvalues:
       0.996  0.996  0.996  0.998  0.998
     eigenvectors (columns):
      -0.002 -0.033  0.048 -0.852 -0.520
      -0.778 -0.045 -0.625 -0.001 -0.050
      -0.464  0.714  0.521 -0.029  0.052
      -0.008  0.024  0.076  0.522 -0.849
      -0.424 -0.697  0.574  0.028  0.053
     occupation matrix ns (before diag.):
       0.998  0.000 -0.000  0.000 -0.000
       0.000  0.996 -0.000  0.000 -0.000
      -0.000 -0.000  0.996 -0.000  0.000
       0.000  0.000 -0.000  0.998 -0.000
      -0.000 -0.000  0.000 -0.000  0.996
     ------------------------ ATOM   52 ------------------------
     Tr[ns( 52)] (up, down, total) =   4.98379  4.98379  9.96759
     Atomic magnetic moment for atom  52 =  -0.00000
     SPIN  1
     eigenvalues:
       0.996  0.996  0.996  0.998  0.998
     eigenvectors (columns):
       0.000  0.007 -0.010  0.000 -1.000
       0.707 -0.534 -0.464 -0.012  0.001
      -0.707 -0.534 -0.464  0.012  0.001
      -0.017  0.000  0.000 -1.000 -0.000
      -0.000 -0.655  0.755  0.000 -0.012
     occupation matrix ns (before diag.):
       0.998 -0.000 -0.000  0.000  0.000
      -0.000  0.996  0.000  0.000 -0.000
      -0.000  0.000  0.996 -0.000 -0.000
       0.000  0.000 -0.000  0.998 -0.000
       0.000 -0.000 -0.000 -0.000  0.996
     SPIN  2
     eigenvalues:
       0.996  0.996  0.996  0.998  0.998
     eigenvectors (columns):
       0.000  0.007 -0.010  0.000 -1.000
       0.707 -0.534 -0.463 -0.012  0.001
      -0.707 -0.534 -0.463  0.012  0.001
      -0.017  0.000  0.000 -1.000 -0.000
      -0.000 -0.655  0.755  0.000 -0.012
     occupation matrix ns (before diag.):
       0.998 -0.000 -0.000  0.000  0.000
      -0.000  0.996  0.000  0.000 -0.000
      -0.000  0.000  0.996 -0.000 -0.000
       0.000  0.000 -0.000  0.998 -0.000
       0.000 -0.000 -0.000 -0.000  0.996
     ------------------------ ATOM   57 ------------------------
     Tr[ns( 57)] (up, down, total) =   4.96047  4.96047  9.92093
     Atomic magnetic moment for atom  57 =   0.00000
     SPIN  1
     eigenvalues:
       0.989  0.989  0.994  0.994  0.994
     eigenvectors (columns):
       0.091  0.050 -0.000 -0.181 -0.978
       0.018  0.812 -0.577 -0.065  0.055
       0.694 -0.421 -0.577  0.080  0.028
      -0.050  0.091  0.000  0.978 -0.181
       0.712  0.391  0.577  0.015  0.083
     occupation matrix ns (before diag.):
       0.994 -0.000 -0.000  0.000 -0.000
      -0.000  0.991  0.001 -0.000 -0.001
      -0.000  0.001  0.991  0.000 -0.001
       0.000 -0.000  0.000  0.994 -0.000
      -0.000 -0.001 -0.001 -0.000  0.991
     SPIN  2
     eigenvalues:
       0.989  0.989  0.994  0.994  0.994
     eigenvectors (columns):
       0.096  0.041 -0.000 -0.324 -0.940
       0.099  0.806 -0.577 -0.056  0.064
       0.649 -0.489 -0.577  0.083  0.016
      -0.041  0.096  0.000  0.940 -0.324
       0.747  0.318  0.577  0.028  0.080
     occupation matrix ns (before diag.):
       0.994 -0.000 -0.000  0.000 -0.000
      -0.000  0.991  0.001 -0.000 -0.001
      -0.000  0.001  0.991  0.000 -0.001
       0.000 -0.000  0.000  0.994 -0.000
      -0.000 -0.001 -0.001 -0.000  0.991
     ------------------------ ATOM   58 ------------------------
     Tr[ns( 58)] (up, down, total) =   4.98628  4.98628  9.97256
     Atomic magnetic moment for atom  58 =   0.00000
     SPIN  1
     eigenvalues:
       0.996  0.996  0.998  0.998  0.998
     eigenvectors (columns):
       0.091 -0.069  0.004 -0.861 -0.495
      -0.703 -0.398 -0.582 -0.075  0.050
       0.000 -0.815  0.567 -0.000  0.119
       0.053  0.120 -0.008 -0.497  0.858
      -0.703  0.398  0.582 -0.075 -0.050
     occupation matrix ns (before diag.):
       0.998  0.000 -0.000 -0.000  0.000
       0.000  0.997 -0.001  0.000 -0.001
      -0.000 -0.001  0.997  0.000  0.001
      -0.000  0.000  0.000  0.998 -0.000
       0.000 -0.001  0.001 -0.000  0.997
     SPIN  2
     eigenvalues:
       0.996  0.996  0.998  0.998  0.998
     eigenvectors (columns):
       0.091 -0.069  0.004 -0.861 -0.495
      -0.703 -0.398 -0.582 -0.075  0.050
       0.000 -0.815  0.567 -0.000  0.119
       0.053  0.120 -0.008 -0.497  0.858
      -0.703  0.398  0.582 -0.075 -0.050
     occupation matrix ns (before diag.):
       0.998  0.000 -0.000 -0.000  0.000
       0.000  0.997 -0.001  0.000 -0.001
      -0.000 -0.001  0.997  0.000  0.001
      -0.000  0.000  0.000  0.998 -0.000
       0.000 -0.001  0.001 -0.000  0.997
     ------------------------ ATOM   59 ------------------------
     Tr[ns( 59)] (up, down, total) =   4.98628  4.98628  9.97256
     Atomic magnetic moment for atom  59 =   0.00000
     SPIN  1
     eigenvalues:
       0.996  0.996  0.998  0.998  0.998
     eigenvectors (columns):
       0.091  0.069 -0.004  0.861  0.495
       0.000  0.815 -0.567  0.000 -0.119
      -0.703  0.398  0.582  0.075 -0.050
      -0.053  0.120 -0.008 -0.497  0.858
      -0.703 -0.398 -0.582  0.075  0.050
     occupation matrix ns (before diag.):
       0.998 -0.000  0.000  0.000  0.000
      -0.000  0.997 -0.001 -0.000  0.001
       0.000 -0.001  0.997 -0.000 -0.001
       0.000 -0.000 -0.000  0.998  0.000
       0.000  0.001 -0.001  0.000  0.997
     SPIN  2
     eigenvalues:
       0.996  0.996  0.998  0.998  0.998
     eigenvectors (columns):
       0.091  0.069 -0.004  0.861  0.495
       0.000  0.815 -0.567  0.000 -0.119
      -0.703  0.398  0.582  0.075 -0.050
      -0.053  0.120 -0.008 -0.497  0.858
      -0.703 -0.398 -0.582  0.075  0.050
     occupation matrix ns (before diag.):
       0.998 -0.000  0.000  0.000  0.000
      -0.000  0.997 -0.001 -0.000  0.001
       0.000 -0.001  0.997 -0.000 -0.001
       0.000 -0.000 -0.000  0.998  0.000
       0.000  0.001 -0.001  0.000  0.997
     ------------------------ ATOM   60 ------------------------
     Tr[ns( 60)] (up, down, total) =   4.98628  4.98628  9.97256
     Atomic magnetic moment for atom  60 =   0.00000
     SPIN  1
     eigenvalues:
       0.996  0.996  0.998  0.998  0.998
     eigenvectors (columns):
       0.000  0.138  0.009 -0.000 -0.990
       0.703 -0.398  0.582  0.075 -0.050
      -0.703 -0.398  0.582 -0.075 -0.050
      -0.106  0.000 -0.000  0.994 -0.000
       0.000  0.815  0.567  0.000  0.119
     occupation matrix ns (before diag.):
       0.998  0.000  0.000  0.000 -0.000
       0.000  0.997  0.001  0.000  0.001
       0.000  0.001  0.997 -0.000  0.001
       0.000  0.000 -0.000  0.998 -0.000
      -0.000  0.001  0.001 -0.000  0.997
     SPIN  2
     eigenvalues:
       0.996  0.996  0.998  0.998  0.998
     eigenvectors (columns):
       0.000  0.138  0.009 -0.000 -0.990
       0.703 -0.398  0.582  0.075 -0.050
      -0.703 -0.398  0.582 -0.075 -0.050
      -0.106  0.000 -0.000  0.994 -0.000
       0.000  0.815  0.567  0.000  0.119
     occupation matrix ns (before diag.):
       0.998  0.000  0.000  0.000 -0.000
       0.000  0.997  0.001  0.000  0.001
       0.000  0.001  0.997 -0.000  0.001
       0.000  0.000 -0.000  0.998 -0.000
      -0.000  0.001  0.001 -0.000  0.997

     Number of occupied Hubbard levels =  318.9292

     Atomic wfc used for Hubbard projectors are orthogonalized

     Starting wfcs are  413 randomized atomic wfcs
     Checking if some PAW data can be deallocated... 
       PAW data deallocated on  740 nodes for type:  1
       PAW data deallocated on  739 nodes for type:  2
       PAW data deallocated on 1433 nodes for type:  3

     Band Structure Calculation
     Davidson diagonalization with overlap

     Computing kpt #:     1  of     2 on this pool
     total cpu time spent up to now is      110.5 secs

     Computing kpt #:     2  of     2 on this pool
     c_bands:  1 eigenvalues not converged
     total cpu time spent up to now is      191.8 secs

     ethr =  1.73E-12,  avg # of iterations = 93.3

     total cpu time spent up to now is      192.0 secs

     End of band structure calculation

 ------ SPIN UP ------------


          k = 0.0000 0.0000 0.0000 (269825 PWs)   bands (ev):

  -103.3585 -60.8061 -60.7782 -60.7782  -7.6364  -7.2187  -7.2187  -7.2124
    -7.2124  -7.2061  -7.1726  -7.0199  -7.0199  -7.0195  -7.0065  -6.9841
    -6.9815  -6.9815  -6.9795  -6.9795  -6.9780  -6.9780  -6.9779  -6.8777
    -6.8777  -6.8591  -6.7984  -6.7961  -6.7961  -6.7608  -6.7578  -6.7578
    -6.4616  -6.3367  -6.3367  -3.8771  -3.8759  -3.8759  -3.8369  -3.8361
    -3.8361  -3.8344  -3.8344  -3.8185  -3.8185  -3.8125  -3.8106  -3.8106
    -3.8085  -3.7974  -3.7972  -3.7972  -3.7936  -3.7936  -3.7902  -3.7884
    -3.7884  -3.7810  -3.7792  -3.7792  -3.7768  -3.7725  -3.7700  -3.7700
    -3.7647  -3.7645  -3.7642  -3.7642  -3.7498  -3.7498  -3.7497  -3.7380
    -3.7359  -3.7359  -3.7290  -3.7290  -3.7260  -3.7260  -3.7236  -3.7196
    -3.7196  -3.7150  -3.7112  -3.7112  -3.7034  -3.7014  -3.7014  -3.6967
    -3.6914  -3.6883  -3.6883  -3.6830  -3.6830  -3.6816  -3.6781  -3.6726
    -3.6726  -3.6566  -3.6554  -3.6508  -3.6504  -3.6504  -3.6470  -3.6470
    -3.6400  -3.6400  -3.6379  -3.6339  -3.6339  -3.6305  -3.6305  -3.6303
    -3.6232  -3.6216  -3.6216  -3.6211  -3.6143  -3.6143  -3.6140  -3.6140
    -3.6132  -3.6132  -3.6114  -3.6066  -3.5910  -3.5862  -3.5862  -3.5824
    -3.5824  -3.5707  -3.5688  -3.5688  -3.5688  -3.5518  -3.5518  -3.5463
    -3.5359  -3.5359  -3.5345  -3.5333  -3.5241  -3.5241  -3.5086  -3.5086
    -3.5057  -3.4937  -3.4879  -3.4878  -3.4865  -3.4865  -3.4836  -3.4836
    -3.4825  -3.4683  -3.4658  -3.4658  -3.4617  -3.4456  -3.4456  -3.4222
    -3.4151  -3.4151  -3.4074  -3.4001  -3.3979  -3.3979  -3.2883  -3.2883
    -3.2446  -3.2421  -3.2421  -3.2265  -3.2209  -3.2209  -3.2139  -3.2033
    -3.1984  -3.1984  -3.1441  -3.1441  -3.0957  -3.0412  -3.0192  -3.0192
    -2.9691  -2.9074  -2.9074  -2.8766  -2.8766  -2.8709   0.2145   0.2332
     0.2601   0.2601   0.5878   0.5957   0.5957   0.8057   0.8057   0.8201
     0.8825   0.8825   0.8982   1.0713   1.1243   1.1243   1.2123   1.2123
     1.2540   1.2558   1.2649   1.2649   1.4706   1.4706   1.7914   1.8807
     1.8807   2.0272   2.0272   2.2245   2.4501   2.4844   2.4969   2.4969
     2.5182   2.5198   2.5198   2.6075   2.6075   2.6160   2.6160   2.6659
     2.6726   2.6761   2.6761   2.6855   2.7009   2.7009   2.7763   2.7980
     2.7980   2.8655   2.9481   2.9530   2.9530   2.9585   2.9585   3.1253
     3.1253   3.1622   3.1673   3.2311   3.2311   3.5150   3.5150   3.6701
     3.9961   4.0016   4.0016   4.0254   4.0369   4.0369   4.0911   4.0911
     4.1042   4.1703   4.2276   4.2276   4.2986   4.3014   4.3014   4.3016
     4.3036   4.3036   4.3124   4.3125   4.3125   4.3154   4.3287   4.3287
     4.5087   4.5601   4.5601   4.8646   4.8646   5.1133   5.3142   5.3142
     6.5442   7.7801   8.6055   8.6055   8.6919   8.7506   8.8105   8.8105
     8.9312   8.9312   9.0943   9.4756   9.4783   9.4783   9.5466   9.8311
     9.8311   9.9141   9.9376   9.9376   9.9606   9.9816   9.9816   9.9852
     9.9952   9.9952  10.1536  10.1536  10.1553  10.1770  10.1770  10.2087
    10.2087  10.2340  10.3435  10.6351  10.6351  10.7028  11.0157  11.1112
    11.1112  11.1466  11.1466  11.2860  11.3175  11.3175  11.3312  11.6494
    11.6494  11.6837  11.8161  11.8444  11.8444  11.8455  11.9895  11.9895
    12.0001  12.0043  12.0043

     occupation numbers 
     1.0000   1.0000   1.0000   1.0000   1.0000   1.0000   1.0000   1.0000
     1.0000   1.0000   1.0000   1.0000   1.0000   1.0000   1.0000   1.0000
     1.0000   1.0000   1.0000   1.0000   1.0000   1.0000   1.0000   1.0000
     1.0000   1.0000   1.0000   1.0000   1.0000   1.0000   1.0000   1.0000
     1.0000   1.0000   1.0000   1.0000   1.0000   1.0000   1.0000   1.0000
     1.0000   1.0000   1.0000   1.0000   1.0000   1.0000   1.0000   1.0000
     1.0000   1.0000   1.0000   1.0000   1.0000   1.0000   1.0000   1.0000
     1.0000   1.0000   1.0000   1.0000   1.0000   1.0000   1.0000   1.0000
     1.0000   1.0000   1.0000   1.0000   1.0000   1.0000   1.0000   1.0000
     1.0000   1.0000   1.0000   1.0000   1.0000   1.0000   1.0000   1.0000
     1.0000   1.0000   1.0000   1.0000   1.0000   1.0000   1.0000   1.0000
     1.0000   1.0000   1.0000   1.0000   1.0000   1.0000   1.0000   1.0000
     1.0000   1.0000   1.0000   1.0000   1.0000   1.0000   1.0000   1.0000
     1.0000   1.0000   1.0000   1.0000   1.0000   1.0000   1.0000   1.0000
     1.0000   1.0000   1.0000   1.0000   1.0000   1.0000   1.0000   1.0000
     1.0000   1.0000   1.0000   1.0000   1.0000   1.0000   1.0000   1.0000
     1.0000   1.0000   1.0000   1.0000   1.0000   1.0000   1.0000   1.0000
     1.0000   1.0000   1.0000   1.0000   1.0000   1.0000   1.0000   1.0000
     1.0000   1.0000   1.0000   1.0000   1.0000   1.0000   1.0000   1.0000
     1.0000   1.0000   1.0000   1.0000   1.0000   1.0000   1.0000   1.0000
     1.0000   1.0000   1.0000   1.0000   1.0000   1.0000   1.0000   1.0000
     1.0000   1.0000   1.0000   1.0000   1.0000   1.0000   1.0000   1.0000
     1.0000   1.0000   1.0000   1.0000   1.0000   1.0000   1.0000   1.0000
     1.0000   1.0000   1.0000   1.0000   1.0000   1.0000   1.0000   1.0000
     1.0000   1.0000   1.0000   1.0000   1.0000   1.0000   1.0000   1.0000
     1.0000   1.0000   1.0000   1.0000   1.0000   1.0000   1.0000   1.0000
     1.0000   1.0000   1.0000   1.0000   1.0000   1.0000   1.0000   1.0000
     1.0000   1.0000   1.0000   1.0000   1.0000   1.0000   1.0000   1.0000
     1.0000   1.0000   1.0000   1.0000   1.0000   1.0000   1.0000   1.0000
     1.0000   1.0000   1.0000   1.0000   1.0000   1.0000   1.0000   1.0000
     1.0000   1.0000   1.0000   1.0000   1.0000   1.0000   1.0000   1.0000
     1.0000   1.0000   1.0000   1.0000   1.0000   1.0000   1.0000   1.0000
     1.0000   1.0000   1.0000   1.0000   1.0000   1.0000   1.0000   1.0000
     1.0000   1.0000   1.0000   1.0000   1.0000   1.0000   1.0000   1.0000
     1.0000   1.0000   1.0000   1.0000   1.0000   1.0000   1.0000   1.0000
     1.0000   1.0000   1.0000   1.0000   1.0000   1.0000   1.0000   1.0000
     1.0000   0.0000   0.0000   0.0000   0.0000   0.0000   0.0000   0.0000
     0.0000   0.0000   0.0000   0.0000   0.0000   0.0000   0.0000   0.0000
     0.0000   0.0000   0.0000   0.0000   0.0000   0.0000   0.0000   0.0000
     0.0000   0.0000   0.0000   0.0000   0.0000   0.0000   0.0000   0.0000
     0.0000   0.0000   0.0000   0.0000   0.0000   0.0000   0.0000   0.0000
     0.0000   0.0000   0.0000   0.0000   0.0000   0.0000   0.0000   0.0000
     0.0000   0.0000   0.0000   0.0000   0.0000   0.0000   0.0000   0.0000
     0.0000   0.0000   0.0000

          k = 0.0000 0.0000 0.2500 (269876 PWs)   bands (ev):

  -103.3585 -60.8061 -60.7782 -60.7782  -7.6069  -7.3669  -7.2006  -7.1977
    -7.1956  -7.1787  -7.0702  -7.0638  -7.0585  -7.0530  -7.0411  -7.0060
    -7.0005  -7.0004  -6.9949  -6.9487  -6.9357  -6.9284  -6.8939  -6.8749
    -6.8645  -6.8554  -6.8241  -6.7967  -6.7963  -6.7751  -6.7676  -6.7669
    -6.4588  -6.3395  -6.3370  -3.8752  -3.8742  -3.8727  -3.8357  -3.8349
    -3.8343  -3.8335  -3.8314  -3.8200  -3.8198  -3.8145  -3.8135  -3.8121
    -3.8099  -3.8037  -3.8034  -3.8019  -3.7995  -3.7952  -3.7939  -3.7885
    -3.7873  -3.7822  -3.7814  -3.7777  -3.7766  -3.7715  -3.7709  -3.7677
    -3.7655  -3.7655  -3.7608  -3.7550  -3.7505  -3.7497  -3.7483  -3.7388
    -3.7360  -3.7336  -3.7325  -3.7306  -3.7281  -3.7261  -3.7255  -3.7177
    -3.7129  -3.7121  -3.7083  -3.7078  -3.7041  -3.7014  -3.6998  -3.6946
    -3.6941  -3.6904  -3.6902  -3.6852  -3.6847  -3.6833  -3.6786  -3.6748
    -3.6733  -3.6624  -3.6559  -3.6554  -3.6518  -3.6479  -3.6446  -3.6444
    -3.6434  -3.6398  -3.6349  -3.6323  -3.6311  -3.6290  -3.6256  -3.6236
    -3.6219  -3.6203  -3.6195  -3.6180  -3.6151  -3.6151  -3.6122  -3.6111
    -3.6084  -3.6080  -3.6051  -3.6003  -3.5918  -3.5904  -3.5856  -3.5832
    -3.5819  -3.5764  -3.5736  -3.5680  -3.5679  -3.5580  -3.5491  -3.5415
    -3.5355  -3.5334  -3.5261  -3.5212  -3.5202  -3.5176  -3.5085  -3.5029
    -3.4994  -3.4927  -3.4907  -3.4878  -3.4865  -3.4835  -3.4816  -3.4794
    -3.4724  -3.4711  -3.4645  -3.4625  -3.4621  -3.4472  -3.4464  -3.4213
    -3.4196  -3.4167  -3.4037  -3.3994  -3.3990  -3.3835  -3.3640  -3.3566
    -3.3344  -3.3027  -3.2417  -3.2224  -3.2204  -3.2059  -3.1651  -3.1623
    -3.1439  -3.1240  -3.1158  -3.0951  -3.0903  -3.0755  -3.0128  -3.0004
    -2.9823  -2.9284  -2.9277  -2.9011  -2.8988  -2.8928   0.3170   0.3325
     0.3547   0.3571   0.6083   0.6206   0.7188   0.7823   0.7831   0.8003
     0.8144   0.8415   0.8552   0.9684   0.9851   0.9871   1.0044   1.0286
     1.1477   1.1774   1.3369   1.5151   1.5528   1.6192   1.6236   1.8895
     1.9019   1.9939   2.0185   2.0817   2.2429   2.3311   2.3506   2.3683
     2.3756   2.4103   2.4586   2.4694   2.5120   2.5270   2.5941   2.6558
     2.6684   2.7695   2.7810   2.8420   2.8928   3.0112   3.0114   3.0147
     3.0179   3.0589   3.0695   3.1000   3.1323   3.1557   3.1589   3.1797
     3.2000   3.2272   3.2776   3.3041   3.4116   3.5311   3.5359   3.6729
     3.7823   3.7828   3.9079   3.9301   3.9412   3.9993   4.0285   4.0421
     4.0780   4.0898   4.1197   4.1449   4.1849   4.1909   4.2074   4.2579
     4.2968   4.3007   4.3090   4.3185   4.3196   4.3862   4.4097   4.4207
     4.4876   4.4948   4.5634   4.6832   4.8231   4.9507   5.1707   5.2631
     6.7606   7.9993   8.5894   8.6710   8.8733   8.8998   8.9307   8.9860
     9.0123   9.0945   9.2475   9.4144   9.4642   9.6186   9.6464   9.6673
     9.7261   9.8816   9.8829   9.9227   9.9251   9.9487  10.0388  10.0509
    10.0659  10.1200  10.1267  10.1790  10.1815  10.1957  10.2412  10.2599
    10.3078  10.3586  10.4845  10.5468  10.5485  10.6524  10.6774  10.7896
    10.8739  10.9173  10.9667  11.1217  11.2023  11.2502  11.4160  11.5455
    11.5791  11.6052  11.6474  11.6915  11.7063  11.7358  11.7772  11.8398
    11.8527  11.8750  11.8825

     occupation numbers 
     1.0000   1.0000   1.0000   1.0000   1.0000   1.0000   1.0000   1.0000
     1.0000   1.0000   1.0000   1.0000   1.0000   1.0000   1.0000   1.0000
     1.0000   1.0000   1.0000   1.0000   1.0000   1.0000   1.0000   1.0000
     1.0000   1.0000   1.0000   1.0000   1.0000   1.0000   1.0000   1.0000
     1.0000   1.0000   1.0000   1.0000   1.0000   1.0000   1.0000   1.0000
     1.0000   1.0000   1.0000   1.0000   1.0000   1.0000   1.0000   1.0000
     1.0000   1.0000   1.0000   1.0000   1.0000   1.0000   1.0000   1.0000
     1.0000   1.0000   1.0000   1.0000   1.0000   1.0000   1.0000   1.0000
     1.0000   1.0000   1.0000   1.0000   1.0000   1.0000   1.0000   1.0000
     1.0000   1.0000   1.0000   1.0000   1.0000   1.0000   1.0000   1.0000
     1.0000   1.0000   1.0000   1.0000   1.0000   1.0000   1.0000   1.0000
     1.0000   1.0000   1.0000   1.0000   1.0000   1.0000   1.0000   1.0000
     1.0000   1.0000   1.0000   1.0000   1.0000   1.0000   1.0000   1.0000
     1.0000   1.0000   1.0000   1.0000   1.0000   1.0000   1.0000   1.0000
     1.0000   1.0000   1.0000   1.0000   1.0000   1.0000   1.0000   1.0000
     1.0000   1.0000   1.0000   1.0000   1.0000   1.0000   1.0000   1.0000
     1.0000   1.0000   1.0000   1.0000   1.0000   1.0000   1.0000   1.0000
     1.0000   1.0000   1.0000   1.0000   1.0000   1.0000   1.0000   1.0000
     1.0000   1.0000   1.0000   1.0000   1.0000   1.0000   1.0000   1.0000
     1.0000   1.0000   1.0000   1.0000   1.0000   1.0000   1.0000   1.0000
     1.0000   1.0000   1.0000   1.0000   1.0000   1.0000   1.0000   1.0000
     1.0000   1.0000   1.0000   1.0000   1.0000   1.0000   1.0000   1.0000
     1.0000   1.0000   1.0000   1.0000   1.0000   1.0000   1.0000   1.0000
     1.0000   1.0000   1.0000   1.0000   1.0000   1.0000   1.0000   1.0000
     1.0000   1.0000   1.0000   1.0000   1.0000   1.0000   1.0000   1.0000
     1.0000   1.0000   1.0000   1.0000   1.0000   1.0000   1.0000   1.0000
     1.0000   1.0000   1.0000   1.0000   1.0000   1.0000   1.0000   1.0000
     1.0000   1.0000   1.0000   1.0000   1.0000   1.0000   1.0000   1.0000
     1.0000   1.0000   1.0000   1.0000   1.0000   1.0000   1.0000   1.0000
     1.0000   1.0000   1.0000   1.0000   1.0000   1.0000   1.0000   1.0000
     1.0000   1.0000   1.0000   1.0000   1.0000   1.0000   1.0000   1.0000
     1.0000   1.0000   1.0000   1.0000   1.0000   1.0000   1.0000   1.0000
     1.0000   1.0000   1.0000   1.0000   1.0000   1.0000   1.0000   1.0000
     1.0000   1.0000   1.0000   1.0000   1.0000   1.0000   1.0000   1.0000
     1.0000   1.0000   1.0000   1.0000   1.0000   1.0000   1.0000   1.0000
     1.0000   1.0000   1.0000   1.0000   1.0000   1.0000   1.0000   1.0000
     1.0000   0.0000   0.0000   0.0000   0.0000   0.0000   0.0000   0.0000
     0.0000   0.0000   0.0000   0.0000   0.0000   0.0000   0.0000   0.0000
     0.0000   0.0000   0.0000   0.0000   0.0000   0.0000   0.0000   0.0000
     0.0000   0.0000   0.0000   0.0000   0.0000   0.0000   0.0000   0.0000
     0.0000   0.0000   0.0000   0.0000   0.0000   0.0000   0.0000   0.0000
     0.0000   0.0000   0.0000   0.0000   0.0000   0.0000   0.0000   0.0000
     0.0000   0.0000   0.0000   0.0000   0.0000   0.0000   0.0000   0.0000
     0.0000   0.0000   0.0000

          k = 0.0000 0.0000-0.5000 (270152 PWs)   bands (ev):

  -103.3585 -60.8061 -60.7782 -60.7782  -7.5485  -7.4706  -7.1764  -7.1748
    -7.1694  -7.1557  -7.1393  -7.1067  -7.0949  -7.0620  -7.0121  -7.0059
    -7.0012  -6.9977  -6.9438  -6.9264  -6.9228  -6.9103  -6.8865  -6.8719
    -6.8459  -6.8444  -6.8290  -6.8152  -6.7980  -6.7901  -6.7830  -6.7788
    -6.4560  -6.3424  -6.3373  -3.8733  -3.8724  -3.8686  -3.8349  -3.8307
    -3.8304  -3.8272  -3.8261  -3.8252  -3.8245  -3.8214  -3.8170  -3.8153
    -3.8126  -3.8100  -3.8091  -3.8060  -3.8051  -3.7981  -3.7979  -3.7882
    -3.7869  -3.7853  -3.7838  -3.7812  -3.7754  -3.7708  -3.7644  -3.7634
    -3.7587  -3.7586  -3.7543  -3.7536  -3.7523  -3.7481  -3.7458  -3.7452
    -3.7401  -3.7363  -3.7352  -3.7313  -3.7290  -3.7264  -3.7206  -3.7176
    -3.7139  -3.7121  -3.7059  -3.7053  -3.7032  -3.7029  -3.7005  -3.6935
    -3.6925  -3.6887  -3.6881  -3.6849  -3.6836  -3.6811  -3.6798  -3.6768
    -3.6755  -3.6698  -3.6608  -3.6596  -3.6479  -3.6460  -3.6454  -3.6420
    -3.6407  -3.6381  -3.6300  -3.6299  -3.6272  -3.6265  -3.6246  -3.6233
    -3.6217  -3.6189  -3.6185  -3.6171  -3.6168  -3.6139  -3.6061  -3.6060
    -3.6036  -3.6013  -3.6006  -3.5961  -3.5946  -3.5928  -3.5885  -3.5858
    -3.5850  -3.5815  -3.5743  -3.5688  -3.5650  -3.5554  -3.5461  -3.5403
    -3.5331  -3.5307  -3.5181  -3.5163  -3.5143  -3.5089  -3.5038  -3.5007
    -3.4936  -3.4900  -3.4898  -3.4880  -3.4856  -3.4843  -3.4802  -3.4780
    -3.4723  -3.4698  -3.4666  -3.4629  -3.4626  -3.4603  -3.4478  -3.4342
    -3.4220  -3.4178  -3.4125  -3.4047  -3.4039  -3.3937  -3.3880  -3.3819
    -3.3436  -3.2781  -3.2313  -3.2251  -3.2078  -3.2076  -3.1955  -3.1798
    -3.1797  -3.1386  -3.0838  -3.0222  -3.0120  -3.0018  -3.0002  -2.9896
    -2.9787  -2.9637  -2.9586  -2.9481  -2.9405  -2.9389   0.5342   0.5527
     0.5656   0.5683   0.6279   0.6340   0.6474   0.6569   0.6745   0.6943
     0.7298   0.7690   0.8341   0.8404   0.8621   0.8771   0.9043   1.0217
     1.0902   1.0925   1.2178   1.5130   1.6129   1.6883   1.8099   1.9022
     1.9635   1.9766   2.0330   2.0724   2.0746   2.2239   2.2255   2.2428
     2.2813   2.3460   2.3954   2.4070   2.4298   2.4983   2.5060   2.5525
[...]
    10.0147  10.0397  10.0744  10.0930  10.1627  10.1786  10.2672  10.2896
    10.4197  10.5116  10.5458  10.5564  10.6030  10.7019  10.7179  10.7325
    10.7847  10.8645  10.8946  10.9720  11.1181  11.2077  11.2732  11.3327
    11.3979  11.4796  11.5494  11.5987  11.6495  11.6613  11.6741  11.7324
    11.7620  11.7840  11.8137

     occupation numbers 
     1.0000   1.0000   1.0000   1.0000   1.0000   1.0000   1.0000   1.0000
     1.0000   1.0000   1.0000   1.0000   1.0000   1.0000   1.0000   1.0000
     1.0000   1.0000   1.0000   1.0000   1.0000   1.0000   1.0000   1.0000
     1.0000   1.0000   1.0000   1.0000   1.0000   1.0000   1.0000   1.0000
     1.0000   1.0000   1.0000   1.0000   1.0000   1.0000   1.0000   1.0000
     1.0000   1.0000   1.0000   1.0000   1.0000   1.0000   1.0000   1.0000
     1.0000   1.0000   1.0000   1.0000   1.0000   1.0000   1.0000   1.0000
     1.0000   1.0000   1.0000   1.0000   1.0000   1.0000   1.0000   1.0000
     1.0000   1.0000   1.0000   1.0000   1.0000   1.0000   1.0000   1.0000
     1.0000   1.0000   1.0000   1.0000   1.0000   1.0000   1.0000   1.0000
     1.0000   1.0000   1.0000   1.0000   1.0000   1.0000   1.0000   1.0000
     1.0000   1.0000   1.0000   1.0000   1.0000   1.0000   1.0000   1.0000
     1.0000   1.0000   1.0000   1.0000   1.0000   1.0000   1.0000   1.0000
     1.0000   1.0000   1.0000   1.0000   1.0000   1.0000   1.0000   1.0000
     1.0000   1.0000   1.0000   1.0000   1.0000   1.0000   1.0000   1.0000
     1.0000   1.0000   1.0000   1.0000   1.0000   1.0000   1.0000   1.0000
     1.0000   1.0000   1.0000   1.0000   1.0000   1.0000   1.0000   1.0000
     1.0000   1.0000   1.0000   1.0000   1.0000   1.0000   1.0000   1.0000
     1.0000   1.0000   1.0000   1.0000   1.0000   1.0000   1.0000   1.0000
     1.0000   1.0000   1.0000   1.0000   1.0000   1.0000   1.0000   1.0000
     1.0000   1.0000   1.0000   1.0000   1.0000   1.0000   1.0000   1.0000
     1.0000   1.0000   1.0000   1.0000   1.0000   1.0000   1.0000   1.0000
     1.0000   1.0000   1.0000   1.0000   1.0000   1.0000   1.0000   1.0000
     1.0000   1.0000   1.0000   1.0000   1.0000   1.0000   1.0000   1.0000
     1.0000   1.0000   1.0000   1.0000   1.0000   1.0000   1.0000   1.0000
     1.0000   1.0000   1.0000   1.0000   1.0000   1.0000   1.0000   1.0000
     1.0000   1.0000   1.0000   1.0000   1.0000   1.0000   1.0000   1.0000
     1.0000   1.0000   1.0000   1.0000   1.0000   1.0000   1.0000   1.0000
     1.0000   1.0000   1.0000   1.0000   1.0000   1.0000   1.0000   1.0000
     1.0000   1.0000   1.0000   1.0000   1.0000   1.0000   1.0000   1.0000
     1.0000   1.0000   1.0000   1.0000   1.0000   1.0000   1.0000   1.0000
     1.0000   1.0000   1.0000   1.0000   1.0000   1.0000   1.0000   1.0000
     1.0000   1.0000   1.0000   1.0000   1.0000   1.0000   1.0000   1.0000
     1.0000   1.0000   1.0000   1.0000   1.0000   1.0000   1.0000   1.0000
     1.0000   1.0000   1.0000   1.0000   1.0000   1.0000   1.0000   1.0000
     1.0000   1.0000   1.0000   1.0000   1.0000   1.0000   1.0000   1.0000
     1.0000   0.0000   0.0000   0.0000   0.0000   0.0000   0.0000   0.0000
     0.0000   0.0000   0.0000   0.0000   0.0000   0.0000   0.0000   0.0000
     0.0000   0.0000   0.0000   0.0000   0.0000   0.0000   0.0000   0.0000
     0.0000   0.0000   0.0000   0.0000   0.0000   0.0000   0.0000   0.0000
     0.0000   0.0000   0.0000   0.0000   0.0000   0.0000   0.0000   0.0000
     0.0000   0.0000   0.0000   0.0000   0.0000   0.0000   0.0000   0.0000
     0.0000   0.0000   0.0000   0.0000   0.0000   0.0000   0.0000   0.0000
     0.0000   0.0000   0.0000

          k = 0.2500-0.2500 0.2500 (269935 PWs)   bands (ev):

  -103.3585 -60.8061 -60.7782 -60.7782  -7.5504  -7.3365  -7.3321  -7.3126
    -7.1707  -7.1642  -7.1387  -7.0412  -7.0327  -7.0316  -7.0089  -6.9791
    -6.9789  -6.9635  -6.9497  -6.9485  -6.9466  -6.8875  -6.8795  -6.8685
    -6.8520  -6.8509  -6.8211  -6.8206  -6.8199  -6.7931  -6.7906  -6.7904
    -6.4540  -6.3414  -6.3412  -3.8727  -3.8716  -3.8696  -3.8358  -3.8356
    -3.8328  -3.8325  -3.8262  -3.8243  -3.8219  -3.8190  -3.8156  -3.8149
    -3.8143  -3.8129  -3.8079  -3.8074  -3.7965  -3.7948  -3.7885  -3.7820
    -3.7813  -3.7777  -3.7763  -3.7752  -3.7712  -3.7709  -3.7677  -3.7661
    -3.7639  -3.7618  -3.7616  -3.7574  -3.7525  -3.7448  -3.7444  -3.7402
    -3.7389  -3.7377  -3.7337  -3.7332  -3.7282  -3.7269  -3.7213  -3.7140
    -3.7104  -3.7098  -3.7079  -3.7058  -3.7036  -3.7024  -3.6970  -3.6964
    -3.6939  -3.6915  -3.6878  -3.6878  -3.6842  -3.6837  -3.6788  -3.6754
    -3.6728  -3.6675  -3.6671  -3.6599  -3.6514  -3.6491  -3.6462  -3.6435
    -3.6418  -3.6397  -3.6390  -3.6329  -3.6312  -3.6283  -3.6279  -3.6262
    -3.6245  -3.6222  -3.6197  -3.6150  -3.6139  -3.6121  -3.6104  -3.6092
    -3.6065  -3.6064  -3.5981  -3.5948  -3.5930  -3.5921  -3.5902  -3.5874
    -3.5848  -3.5792  -3.5746  -3.5726  -3.5698  -3.5681  -3.5577  -3.5430
    -3.5404  -3.5374  -3.5196  -3.5183  -3.5161  -3.5137  -3.5085  -3.5071
    -3.5021  -3.4995  -3.4906  -3.4844  -3.4827  -3.4801  -3.4785  -3.4766
    -3.4751  -3.4711  -3.4670  -3.4634  -3.4579  -3.4550  -3.4313  -3.4223
    -3.4194  -3.4148  -3.4014  -3.3989  -3.3943  -3.3937  -3.3686  -3.3616
    -3.3242  -3.2919  -3.2346  -3.2111  -3.2004  -3.1909  -3.1827  -3.1734
    -3.1294  -3.1001  -3.0882  -3.0572  -3.0499  -3.0394  -3.0162  -3.0153
    -2.9988  -2.9703  -2.9506  -2.9423  -2.9396  -2.9319   0.4006   0.4192
     0.4347   0.6629   0.6804   0.6847   0.7165   0.7244   0.7251   0.7728
     0.7840   0.7921   0.8274   0.8574   0.8737   0.9433   0.9769   1.0450
     1.0454   1.1112   1.2379   1.3611   1.5150   1.5657   1.6098   1.7158
     1.7861   2.0138   2.0374   2.0609   2.0825   2.1542   2.3517   2.4319
     2.4505   2.4658   2.4996   2.5372   2.5379   2.6243   2.6430   2.6460
     2.7796   2.8836   2.8892   2.9298   2.9449   2.9596   3.0596   3.0797
     3.1156   3.1295   3.1499   3.2238   3.2260   3.2518   3.2666   3.3000
     3.3320   3.3848   3.4029   3.4880   3.4974   3.6129   3.6626   3.6918
     3.7441   3.7575   3.7616   3.7784   3.8429   3.8468   3.8852   3.8880
     3.9396   3.9410   3.9767   3.9790   4.0149   4.0443   4.0469   4.1032
     4.1655   4.2714   4.2817   4.3597   4.3846   4.4415   4.4636   4.4767
     4.5061   4.5534   4.6721   4.6760   4.8851   4.9628   5.0615   5.2421
     6.9001   8.1360   8.6599   8.6617   8.8310   9.1294   9.1980   9.2033
     9.2280   9.3368   9.3396   9.3923   9.4517   9.5206   9.5572   9.5627
     9.6546   9.7594   9.7774   9.8608   9.9044   9.9719   9.9766  10.0356
    10.0837  10.0853  10.1533  10.1618  10.1784  10.1962  10.2098  10.2233
    10.2346  10.2744  10.2748  10.3026  10.3817  10.5306  10.7388  10.8129
    10.9549  11.0148  11.0492  11.1001  11.2613  11.2717  11.2873  11.3089
    11.3288  11.3694  11.3954  11.5037  11.5092  11.5725  11.6886  11.7053
    11.7235  11.7751  11.8114

     occupation numbers 
     1.0000   1.0000   1.0000   1.0000   1.0000   1.0000   1.0000   1.0000
     1.0000   1.0000   1.0000   1.0000   1.0000   1.0000   1.0000   1.0000
     1.0000   1.0000   1.0000   1.0000   1.0000   1.0000   1.0000   1.0000
     1.0000   1.0000   1.0000   1.0000   1.0000   1.0000   1.0000   1.0000
     1.0000   1.0000   1.0000   1.0000   1.0000   1.0000   1.0000   1.0000
     1.0000   1.0000   1.0000   1.0000   1.0000   1.0000   1.0000   1.0000
     1.0000   1.0000   1.0000   1.0000   1.0000   1.0000   1.0000   1.0000
     1.0000   1.0000   1.0000   1.0000   1.0000   1.0000   1.0000   1.0000
     1.0000   1.0000   1.0000   1.0000   1.0000   1.0000   1.0000   1.0000
     1.0000   1.0000   1.0000   1.0000   1.0000   1.0000   1.0000   1.0000
     1.0000   1.0000   1.0000   1.0000   1.0000   1.0000   1.0000   1.0000
     1.0000   1.0000   1.0000   1.0000   1.0000   1.0000   1.0000   1.0000
     1.0000   1.0000   1.0000   1.0000   1.0000   1.0000   1.0000   1.0000
     1.0000   1.0000   1.0000   1.0000   1.0000   1.0000   1.0000   1.0000
     1.0000   1.0000   1.0000   1.0000   1.0000   1.0000   1.0000   1.0000
     1.0000   1.0000   1.0000   1.0000   1.0000   1.0000   1.0000   1.0000
     1.0000   1.0000   1.0000   1.0000   1.0000   1.0000   1.0000   1.0000
     1.0000   1.0000   1.0000   1.0000   1.0000   1.0000   1.0000   1.0000
     1.0000   1.0000   1.0000   1.0000   1.0000   1.0000   1.0000   1.0000
     1.0000   1.0000   1.0000   1.0000   1.0000   1.0000   1.0000   1.0000
     1.0000   1.0000   1.0000   1.0000   1.0000   1.0000   1.0000   1.0000
     1.0000   1.0000   1.0000   1.0000   1.0000   1.0000   1.0000   1.0000
     1.0000   1.0000   1.0000   1.0000   1.0000   1.0000   1.0000   1.0000
     1.0000   1.0000   1.0000   1.0000   1.0000   1.0000   1.0000   1.0000
     1.0000   1.0000   1.0000   1.0000   1.0000   1.0000   1.0000   1.0000
     1.0000   1.0000   1.0000   1.0000   1.0000   1.0000   1.0000   1.0000
     1.0000   1.0000   1.0000   1.0000   1.0000   1.0000   1.0000   1.0000
     1.0000   1.0000   1.0000   1.0000   1.0000   1.0000   1.0000   1.0000
     1.0000   1.0000   1.0000   1.0000   1.0000   1.0000   1.0000   1.0000
     1.0000   1.0000   1.0000   1.0000   1.0000   1.0000   1.0000   1.0000
     1.0000   1.0000   1.0000   1.0000   1.0000   1.0000   1.0000   1.0000
     1.0000   1.0000   1.0000   1.0000   1.0000   1.0000   1.0000   1.0000
     1.0000   1.0000   1.0000   1.0000   1.0000   1.0000   1.0000   1.0000
     1.0000   1.0000   1.0000   1.0000   1.0000   1.0000   1.0000   1.0000
     1.0000   1.0000   1.0000   1.0000   1.0000   1.0000   1.0000   1.0000
     1.0000   1.0000   1.0000   1.0000   1.0000   1.0000   1.0000   1.0000
     1.0000   0.0000   0.0000   0.0000   0.0000   0.0000   0.0000   0.0000
     0.0000   0.0000   0.0000   0.0000   0.0000   0.0000   0.0000   0.0000
     0.0000   0.0000   0.0000   0.0000   0.0000   0.0000   0.0000   0.0000
     0.0000   0.0000   0.0000   0.0000   0.0000   0.0000   0.0000   0.0000
     0.0000   0.0000   0.0000   0.0000   0.0000   0.0000   0.0000   0.0000
     0.0000   0.0000   0.0000   0.0000   0.0000   0.0000   0.0000   0.0000
     0.0000   0.0000   0.0000   0.0000   0.0000   0.0000   0.0000   0.0000
     0.0000   0.0000   0.0000

          k = 0.2500-0.2500-0.5000 (269988 PWs)   bands (ev):

  -103.3585 -60.8061 -60.7782 -60.7782  -7.4944  -7.4265  -7.2940  -7.2935
    -7.2348  -7.2049  -7.1468  -7.0438  -7.0216  -7.0195  -6.9822  -6.9773
    -6.9682  -6.9613  -6.9229  -6.9029  -6.9014  -6.8948  -6.8838  -6.8697
    -6.8623  -6.8485  -6.8363  -6.8311  -6.8177  -6.8083  -6.8053  -6.8038
    -6.4515  -6.3443  -6.3415  -3.8717  -3.8708  -3.8678  -3.8365  -3.8358
    -3.8328  -3.8314  -3.8303  -3.8274  -3.8228  -3.8188  -3.8162  -3.8148
    -3.8120  -3.8114  -3.8086  -3.8014  -3.8007  -3.7932  -3.7875  -3.7859
    -3.7809  -3.7795  -3.7771  -3.7729  -3.7710  -3.7682  -3.7670  -3.7644
    -3.7606  -3.7579  -3.7566  -3.7519  -3.7492  -3.7481  -3.7453  -3.7411
    -3.7409  -3.7397  -3.7377  -3.7363  -3.7294  -3.7221  -3.7193  -3.7142
    -3.7102  -3.7099  -3.7076  -3.7056  -3.7034  -3.7013  -3.6984  -3.6970
    -3.6960  -3.6909  -3.6886  -3.6860  -3.6847  -3.6833  -3.6792  -3.6746
    -3.6721  -3.6659  -3.6631  -3.6552  -3.6545  -3.6492  -3.6451  -3.6440
    -3.6409  -3.6398  -3.6393  -3.6374  -3.6327  -3.6312  -3.6294  -3.6270
    -3.6228  -3.6196  -3.6176  -3.6158  -3.6148  -3.6124  -3.6092  -3.6086
    -3.6068  -3.6045  -3.6020  -3.5998  -3.5946  -3.5907  -3.5905  -3.5889
    -3.5837  -3.5805  -3.5749  -3.5743  -3.5694  -3.5683  -3.5616  -3.5541
    -3.5424  -3.5392  -3.5343  -3.5182  -3.5163  -3.5141  -3.5128  -3.5087
    -3.5023  -3.4979  -3.4935  -3.4905  -3.4853  -3.4816  -3.4788  -3.4762
    -3.4748  -3.4711  -3.4678  -3.4632  -3.4590  -3.4515  -3.4409  -3.4252
    -3.4192  -3.4149  -3.4126  -3.3971  -3.3962  -3.3943  -3.3335  -3.3152
    -3.3070  -3.2891  -3.2427  -3.2240  -3.2016  -3.1836  -3.1637  -3.1373
    -3.1050  -3.0975  -3.0699  -3.0639  -3.0533  -3.0395  -3.0221  -3.0103
    -3.0005  -2.9891  -2.9803  -2.9708  -2.9595  -2.9477   0.4628   0.5284
     0.5950   0.6201   0.6689   0.6776   0.6969   0.7223   0.7241   0.7389
     0.7553   0.7717   0.7950   0.8253   0.8659   0.8975   0.9444   1.0320
     1.1216   1.1905   1.2271   1.2595   1.3096   1.4063   1.5599   1.7836
     1.8345   2.0108   2.0535   2.0835   2.1613   2.2612   2.3575   2.3627
     2.3849   2.4558   2.5036   2.5149   2.5783   2.6412   2.6669   2.6787
     2.7159   2.7766   2.8336   2.8906   2.9844   3.1098   3.1300   3.1945
     3.2522   3.2944   3.3036   3.3052   3.3202   3.3381   3.3839   3.4111
     3.4277   3.4386   3.4503   3.4785   3.4860   3.5022   3.5187   3.5591
     3.5857   3.5965   3.6378   3.6658   3.7199   3.7356   3.8075   3.8167
     3.8787   3.9207   3.9477   3.9669   4.0177   4.0339   4.1291   4.1620
     4.1856   4.1971   4.2192   4.2701   4.3488   4.4402   4.5323   4.6040
     4.6200   4.6662   4.7219   4.7960   4.8057   4.8330   5.1229   5.1981
     6.9259   8.3464   8.4442   8.8853   8.9431   9.0409   9.0913   9.2395
     9.2977   9.3268   9.3937   9.4860   9.5091   9.5379   9.5605   9.5786
     9.6381   9.6952   9.7126   9.7479   9.7866   9.8232   9.8441   9.8969
     9.9394   9.9630  10.0279  10.0484  10.0653  10.1367  10.1788  10.2769
    10.2937  10.3929  10.4256  10.5820  10.6613  10.7063  10.7308  10.7895
    10.8190  10.9126  11.0137  11.1042  11.1695  11.2189  11.3197  11.3834
    11.4179  11.4398  11.4527  11.4954  11.5281  11.5529  11.5809  11.5981
    11.6172  11.6211  11.6560

     occupation numbers 
     1.0000   1.0000   1.0000   1.0000   1.0000   1.0000   1.0000   1.0000
     1.0000   1.0000   1.0000   1.0000   1.0000   1.0000   1.0000   1.0000
     1.0000   1.0000   1.0000   1.0000   1.0000   1.0000   1.0000   1.0000
     1.0000   1.0000   1.0000   1.0000   1.0000   1.0000   1.0000   1.0000
     1.0000   1.0000   1.0000   1.0000   1.0000   1.0000   1.0000   1.0000
     1.0000   1.0000   1.0000   1.0000   1.0000   1.0000   1.0000   1.0000
     1.0000   1.0000   1.0000   1.0000   1.0000   1.0000   1.0000   1.0000
     1.0000   1.0000   1.0000   1.0000   1.0000   1.0000   1.0000   1.0000
     1.0000   1.0000   1.0000   1.0000   1.0000   1.0000   1.0000   1.0000
     1.0000   1.0000   1.0000   1.0000   1.0000   1.0000   1.0000   1.0000
     1.0000   1.0000   1.0000   1.0000   1.0000   1.0000   1.0000   1.0000
     1.0000   1.0000   1.0000   1.0000   1.0000   1.0000   1.0000   1.0000
     1.0000   1.0000   1.0000   1.0000   1.0000   1.0000   1.0000   1.0000
     1.0000   1.0000   1.0000   1.0000   1.0000   1.0000   1.0000   1.0000
     1.0000   1.0000   1.0000   1.0000   1.0000   1.0000   1.0000   1.0000
     1.0000   1.0000   1.0000   1.0000   1.0000   1.0000   1.0000   1.0000
     1.0000   1.0000   1.0000   1.0000   1.0000   1.0000   1.0000   1.0000
     1.0000   1.0000   1.0000   1.0000   1.0000   1.0000   1.0000   1.0000
     1.0000   1.0000   1.0000   1.0000   1.0000   1.0000   1.0000   1.0000
     1.0000   1.0000   1.0000   1.0000   1.0000   1.0000   1.0000   1.0000
     1.0000   1.0000   1.0000   1.0000   1.0000   1.0000   1.0000   1.0000
     1.0000   1.0000   1.0000   1.0000   1.0000   1.0000   1.0000   1.0000
     1.0000   1.0000   1.0000   1.0000   1.0000   1.0000   1.0000   1.0000
     1.0000   1.0000   1.0000   1.0000   1.0000   1.0000   1.0000   1.0000
     1.0000   1.0000   1.0000   1.0000   1.0000   1.0000   1.0000   1.0000
     1.0000   1.0000   1.0000   1.0000   1.0000   1.0000   1.0000   1.0000
     1.0000   1.0000   1.0000   1.0000   1.0000   1.0000   1.0000   1.0000
     1.0000   1.0000   1.0000   1.0000   1.0000   1.0000   1.0000   1.0000
     1.0000   1.0000   1.0000   1.0000   1.0000   1.0000   1.0000   1.0000
     1.0000   1.0000   1.0000   1.0000   1.0000   1.0000   1.0000   1.0000
     1.0000   1.0000   1.0000   1.0000   1.0000   1.0000   1.0000   1.0000
     1.0000   1.0000   1.0000   1.0000   1.0000   1.0000   1.0000   1.0000
     1.0000   1.0000   1.0000   1.0000   1.0000   1.0000   1.0000   1.0000
     1.0000   1.0000   1.0000   1.0000   1.0000   1.0000   1.0000   1.0000
     1.0000   1.0000   1.0000   1.0000   1.0000   1.0000   1.0000   1.0000
     1.0000   1.0000   1.0000   1.0000   1.0000   1.0000   1.0000   1.0000
     1.0000   0.0000   0.0000   0.0000   0.0000   0.0000   0.0000   0.0000
     0.0000   0.0000   0.0000   0.0000   0.0000   0.0000   0.0000   0.0000
     0.0000   0.0000   0.0000   0.0000   0.0000   0.0000   0.0000   0.0000
     0.0000   0.0000   0.0000   0.0000   0.0000   0.0000   0.0000   0.0000
     0.0000   0.0000   0.0000   0.0000   0.0000   0.0000   0.0000   0.0000
     0.0000   0.0000   0.0000   0.0000   0.0000   0.0000   0.0000   0.0000
     0.0000   0.0000   0.0000   0.0000   0.0000   0.0000   0.0000   0.0000
     0.0000   0.0000   0.0000

     the Fermi energy is     7.4979 ev
     (compare with:     7.6243 eV, computed in scf)

     Writing all to output data dir ./out/Cu_vac_qn1_U8_unrlxd.save/
 
     init_run     :      8.20s CPU     11.26s WALL (       1 calls)
     electrons    :    169.67s CPU    171.80s WALL (       1 calls)

     Called by init_run:
     wfcinit      :      2.06s CPU      4.60s WALL (       1 calls)
     wfcinit:atom :      0.03s CPU      0.03s WALL (       2 calls)
     wfcinit:wfcr :      3.13s CPU      3.24s WALL (       2 calls)
     potinit      :      1.36s CPU      1.59s WALL (       1 calls)
     hinit0       :      0.45s CPU      0.56s WALL (       1 calls)

     Called by electrons:
     c_bands      :    169.45s CPU    171.55s WALL (       1 calls)
     v_of_rho     :      0.35s CPU      0.43s WALL (       1 calls)
     v_h          :      0.01s CPU      0.01s WALL (       1 calls)
     v_xc         :      0.34s CPU      0.41s WALL (       1 calls)
     newd         :      0.07s CPU      0.07s WALL (       1 calls)
     PAW_pot      :      0.51s CPU      0.52s WALL (       1 calls)

     Called by c_bands:
     init_us_2    :      0.10s CPU      0.13s WALL (       4 calls)
     init_us_2:cp :      0.10s CPU      0.13s WALL (       4 calls)
     cegterg      :    140.83s CPU    142.68s WALL (      12 calls)

     Called by sum_band:

     Called by *egterg:
     cdiaghg      :     14.11s CPU     14.20s WALL (     224 calls)
     cegterg:over :     11.02s CPU     11.11s WALL (     222 calls)
     cegterg:upda :     10.79s CPU     10.99s WALL (     222 calls)
     cegterg:last :     19.62s CPU     19.75s WALL (      67 calls)
     cdiaghg:chol :      0.93s CPU      0.94s WALL (     224 calls)
     cdiaghg:inve :      1.35s CPU      1.35s WALL (     224 calls)
     cdiaghg:para :      2.12s CPU      2.14s WALL (     448 calls)
     h_psi        :     73.41s CPU     74.47s WALL (     236 calls)
     s_psi        :     12.63s CPU     12.84s WALL (     238 calls)
     g_psi        :      0.40s CPU      0.40s WALL (     222 calls)

     Called by h_psi:
     h_psi:calbec :     12.25s CPU     12.42s WALL (     236 calls)
     vloc_psi     :     29.87s CPU     30.28s WALL (     236 calls)
     add_vuspsi   :     12.83s CPU     12.93s WALL (     236 calls)
     vhpsi        :     17.87s CPU     18.11s WALL (     236 calls)

     General routines
     calbec       :     14.77s CPU     14.97s WALL (     474 calls)
     fft          :      0.55s CPU      0.73s WALL (      21 calls)
     fftw         :     27.69s CPU     28.07s WALL (   50774 calls)
     davcio       :      0.00s CPU      0.01s WALL (       2 calls)
 
     Parallel routines

     Hubbard U routines
     vhpsi        :     17.87s CPU     18.11s WALL (     236 calls)

     PAW routines
     PAW_pot      :      0.51s CPU      0.52s WALL (       1 calls)
 
     PWSCF        :   3m36.12s CPU   4m41.11s WALL

 
   This run was terminated on:   1: 0:40  19Jul2024            

=------------------------------------------------------------------------------=
   JOB DONE.
=------------------------------------------------------------------------------=
