
     Program PWSCF v.7.2 starts on 18Jul2024 at 17:44:59 

     This program is part of the open-source Quantum ESPRESSO suite
     for quantum simulation of materials; please cite
         "P. Giannozzi et al., J. Phys.:Condens. Matter 21 395502 (2009);
         "P. Giannozzi et al., J. Phys.:Condens. Matter 29 465901 (2017);
         "P. Giannozzi et al., J. Chem. Phys. 152 154105 (2020);
          URL http://www.quantum-espresso.org", 
     in publications or presentations arising from this work. More details at
     http://www.quantum-espresso.org/quote

     Parallel version (MPI), running on  1456 processors

     MPI processes distributed on    13 nodes
     236350 MiB available memory on the printing compute node when the environment starts
 
     Reading input from 1.Cu_vac_in_ZnS.scf.qn1.unrlxd.U4.in

     Current dimensions of program PWSCF are:
     Max number of different atomic species (ntypx) = 10
     Max number of k-points (npk) =  40000
     Max angular momentum in pseudopotentials (lmaxx) =  4
     file S.pbe-n-kjpaw_psl.1.0.0.UPF: wavefunction(s)  3S 3P renormalized
     file Zn.pbe-dnl-kjpaw_psl.1.0.0.UPF: wavefunction(s)  4S 3D renormalized
     file Cu.pbe-spn-kjpaw_psl.1.0.0.UPF: wavefunction(s)  4S 3P 3D renormalized
 
     K-points division:     npool     =      13
     R & G space division:  proc/nbgrp/npool/nimage =     112
     Subspace diagonalization in iterative solution of the eigenvalue problem:
     one sub-group per band group will be used
     scalapack distributed-memory algorithm (size of sub-group:  3*  3 procs)

 
     Parallelization info
     --------------------
     sticks:   dense  smooth     PW     G-vecs:    dense   smooth      PW
     Min         180     180     46                19282    19282    2562
     Max         181     181     47                19291    19291    2573
     Sum       20217   20217   5249              2160009  2160009  287777
 
     Using Slab Decomposition
 


     bravais-lattice index     =            1
     lattice parameter (alat)  =      20.5686  a.u.
     unit-cell volume          =    8701.8437 (a.u.)^3
     number of atoms/cell      =           63
     number of atomic types    =            3
     number of electrons       =       578.00
     number of Kohn-Sham states=          347
     kinetic-energy cutoff     =     150.0000  Ry
     charge density cutoff     =     600.0000  Ry
     scf convergence threshold =      1.0E-08
     mixing beta               =       0.7000
     number of iterations used =            8  plain     mixing
     Exchange-correlation= SLA  PW   PBX  PBC
                           (   1   4   3   4   0   0   0)
     Hubbard projectors: ortho-atomic
     Hubbard parameters of DFT+U (Dudarev formulation) in eV:
     U(Zn-3d) =  7.0000
     U(Cu-3d) =  4.0000

     Internal variables: lda_plus_u = T, lda_plus_u_kind = 0

     celldm(1)=  20.568554  celldm(2)=   0.000000  celldm(3)=   0.000000
     celldm(4)=   0.000000  celldm(5)=   0.000000  celldm(6)=   0.000000

     crystal axes: (cart. coord. in units of alat)
               a(1) = (   1.000000   0.000000   0.000000 )  
               a(2) = (   0.000000   1.000000   0.000000 )  
               a(3) = (   0.000000   0.000000   1.000000 )  

     reciprocal axes: (cart. coord. in units 2 pi/alat)
               b(1) = (  1.000000  0.000000  0.000000 )  
               b(2) = (  0.000000  1.000000  0.000000 )  
               b(3) = (  0.000000  0.000000  1.000000 )  


     PseudoPot. # 1 for S  read from file:
     /arf/home/amuhaymin/pseudo/S.pbe-n-kjpaw_psl.1.0.0.UPF
     MD5 check sum: fb45dfebcf3e72a4e1bd4a866ec2e262
     Pseudo is Projector augmented-wave + core cor, Zval =  6.0
     Generated using &quot;atomic&quot; code by A. Dal Corso  v.6.3
     Shape of augmentation charge: PSQ
     Using radial grid of 1151 points,  6 beta functions with: 
                l(1) =   0
                l(2) =   0
                l(3) =   1
                l(4) =   1
                l(5) =   2
                l(6) =   2
     Q(r) pseudized with 0 coefficients 


     PseudoPot. # 2 for Zn read from file:
     /arf/home/amuhaymin/pseudo/Zn.pbe-dnl-kjpaw_psl.1.0.0.UPF
     MD5 check sum: c608214d9520ac179f507641260889e3
     Pseudo is Projector augmented-wave + core cor, Zval = 12.0
     Generated using &quot;atomic&quot; code by A. Dal Corso  v.6.2.2
     Shape of augmentation charge: PSQ
     Using radial grid of 1201 points,  6 beta functions with: 
                l(1) =   0
                l(2) =   0
                l(3) =   1
                l(4) =   1
                l(5) =   2
                l(6) =   2
     Q(r) pseudized with 0 coefficients 


     PseudoPot. # 3 for Cu read from file:
     /arf/home/amuhaymin/pseudo/Cu.pbe-spn-kjpaw_psl.1.0.0.UPF
     MD5 check sum: e7cbaad2f97193e5fe23251a619a52b0
     Pseudo is Projector augmented-wave + core cor, Zval = 19.0
     Generated using &quot;atomic&quot; code by A. Dal Corso  v.6.3
     Shape of augmentation charge: PSQ
     Using radial grid of 1199 points,  6 beta functions with: 
                l(1) =   0
                l(2) =   0
                l(3) =   1
                l(4) =   1
                l(5) =   2
                l(6) =   2
     Q(r) pseudized with 0 coefficients 


     atomic species   valence    mass     pseudopotential
        S              6.00    32.06500     S ( 1.00)
        Zn            12.00    65.38000     Zn( 1.00)
        Cu            19.00    63.54600     Cu( 1.00)

     Starting magnetic structure 
     atomic species   magnetization
        S            0.000
        Zn           0.000
        Cu           0.000

      6 Sym. Ops. (no inversion) found


                                    s                        frac. trans.

      isym =  1     identity                                     

 cryst.   s( 1) = (     1          0          0      )
                  (     0          1          0      )
                  (     0          0          1      )

 cart.    s( 1) = (  1.0000000  0.0000000  0.0000000 )
                  (  0.0000000  1.0000000  0.0000000 )
                  (  0.0000000  0.0000000  1.0000000 )


      isym =  2     120 deg rotation - cart. axis [-1,-1,-1]     

 cryst.   s( 2) = (     0          0          1      )
                  (     1          0          0      )
                  (     0          1          0      )

 cart.    s( 2) = (  0.0000000  1.0000000  0.0000000 )
                  (  0.0000000  0.0000000  1.0000000 )
                  (  1.0000000  0.0000000  0.0000000 )


      isym =  3     120 deg rotation - cart. axis [1,1,1]        

 cryst.   s( 3) = (     0          1          0      )
                  (     0          0          1      )
                  (     1          0          0      )

 cart.    s( 3) = (  0.0000000  0.0000000  1.0000000 )
                  (  1.0000000  0.0000000  0.0000000 )
                  (  0.0000000  1.0000000  0.0000000 )


      isym =  4     inv. 180 deg rotation - cart. axis [1,-1,0]  

 cryst.   s( 4) = (     0          1          0      )
                  (     1          0          0      )
                  (     0          0          1      )

 cart.    s( 4) = (  0.0000000  1.0000000  0.0000000 )
                  (  1.0000000  0.0000000  0.0000000 )
                  (  0.0000000  0.0000000  1.0000000 )


      isym =  5     inv. 180 deg rotation - cart. axis [-1,0,1]  

 cryst.   s( 5) = (     0          0          1      )
                  (     0          1          0      )
                  (     1          0          0      )

 cart.    s( 5) = (  0.0000000  0.0000000  1.0000000 )
                  (  0.0000000  1.0000000  0.0000000 )
                  (  1.0000000  0.0000000  0.0000000 )


      isym =  6     inv. 180 deg rotation - cart. axis [0,1,-1]  

 cryst.   s( 6) = (     1          0          0      )
                  (     0          0          1      )
                  (     0          1          0      )

 cart.    s( 6) = (  1.0000000  0.0000000  0.0000000 )
                  (  0.0000000  0.0000000  1.0000000 )
                  (  0.0000000  1.0000000  0.0000000 )


     point group C_3v (3m)  
     there are  3 classes
     the character table:

       E     2C3   3s_v 
A_1    1.00  1.00  1.00
A_2    1.00  1.00 -1.00
E      2.00 -1.00  0.00

     the symmetry operations in each class and the name of the first element:

     E        1
          identity                                               
     2C3      2    3
          120 deg rotation - cart. axis [-1,-1,-1]               
     3s_v     4    5    6
          inv. 180 deg rotation - cart. axis [1,-1,0]            

   Cartesian axes

     site n.     atom                  positions (alat units)
         1           Zn  tau(   1) = (   0.0000000   0.0000000   0.0000000  )
         2           Zn  tau(   2) = (   0.0000000   0.2500000   0.2500000  )
         3           Zn  tau(   3) = (   0.2500000   0.0000000   0.2500000  )
         4           Zn  tau(   4) = (   0.2500000   0.2500000   0.0000000  )
         5           S   tau(   5) = (   0.1250000   0.3750000   0.3750000  )
         6           S   tau(   6) = (   0.1250000   0.1250000   0.1250000  )
         7           S   tau(   7) = (   0.3750000   0.3750000   0.1250000  )
         8           S   tau(   8) = (   0.3750000   0.1250000   0.3750000  )
         9           Zn  tau(   9) = (   0.0000000   0.0000000   0.5000000  )
        10           Zn  tau(  10) = (   0.0000000   0.2500000   0.7500000  )
        11           Zn  tau(  11) = (   0.2500000   0.0000000   0.7500000  )
        12           Zn  tau(  12) = (   0.2500000   0.2500000   0.5000000  )
        13           S   tau(  13) = (   0.1250000   0.3750000   0.8750000  )
        14           S   tau(  14) = (   0.1250000   0.1250000   0.6250000  )
        15           S   tau(  15) = (   0.3750000   0.3750000   0.6250000  )
        16           S   tau(  16) = (   0.3750000   0.1250000   0.8750000  )
        17           Zn  tau(  17) = (   0.0000000   0.5000000   0.0000000  )
        18           Zn  tau(  18) = (   0.0000000   0.7500000   0.2500000  )
        19           Zn  tau(  19) = (   0.2500000   0.5000000   0.2500000  )
        20           Zn  tau(  20) = (   0.2500000   0.7500000   0.0000000  )
        21           S   tau(  21) = (   0.1250000   0.8750000   0.3750000  )
        22           S   tau(  22) = (   0.1250000   0.6250000   0.1250000  )
        23           S   tau(  23) = (   0.3750000   0.8750000   0.1250000  )
        24           S   tau(  24) = (   0.3750000   0.6250000   0.3750000  )
        25           Zn  tau(  25) = (   0.0000000   0.5000000   0.5000000  )
        26           Zn  tau(  26) = (   0.0000000   0.7500000   0.7500000  )
        27           Zn  tau(  27) = (   0.2500000   0.5000000   0.7500000  )
        28           Zn  tau(  28) = (   0.2500000   0.7500000   0.5000000  )
        29           S   tau(  29) = (   0.1250000   0.8750000   0.8750000  )
        30           S   tau(  30) = (   0.1250000   0.6250000   0.6250000  )
        31           S   tau(  31) = (   0.3750000   0.8750000   0.6250000  )
        32           S   tau(  32) = (   0.3750000   0.6250000   0.8750000  )
        33           Zn  tau(  33) = (   0.5000000   0.0000000   0.0000000  )
        34           Zn  tau(  34) = (   0.5000000   0.2500000   0.2500000  )
        35           Zn  tau(  35) = (   0.7500000   0.0000000   0.2500000  )
        36           Zn  tau(  36) = (   0.7500000   0.2500000   0.0000000  )
        37           S   tau(  37) = (   0.6250000   0.3750000   0.3750000  )
        38           S   tau(  38) = (   0.6250000   0.1250000   0.1250000  )
        39           S   tau(  39) = (   0.8750000   0.3750000   0.1250000  )
        40           S   tau(  40) = (   0.8750000   0.1250000   0.3750000  )
        41           Zn  tau(  41) = (   0.5000000   0.0000000   0.5000000  )
        42           Zn  tau(  42) = (   0.5000000   0.2500000   0.7500000  )
        43           Zn  tau(  43) = (   0.7500000   0.0000000   0.7500000  )
        44           Zn  tau(  44) = (   0.7500000   0.2500000   0.5000000  )
        45           S   tau(  45) = (   0.6250000   0.3750000   0.8750000  )
        46           S   tau(  46) = (   0.6250000   0.1250000   0.6250000  )
        47           S   tau(  47) = (   0.8750000   0.3750000   0.6250000  )
        48           S   tau(  48) = (   0.8750000   0.1250000   0.8750000  )
        49           Zn  tau(  49) = (   0.5000000   0.5000000   0.0000000  )
        50           Zn  tau(  50) = (   0.5000000   0.7500000   0.2500000  )
        51           Zn  tau(  51) = (   0.7500000   0.5000000   0.2500000  )
        52           Zn  tau(  52) = (   0.7500000   0.7500000   0.0000000  )
        53           S   tau(  53) = (   0.6250000   0.8750000   0.3750000  )
        54           S   tau(  54) = (   0.6250000   0.6250000   0.1250000  )
        55           S   tau(  55) = (   0.8750000   0.8750000   0.1250000  )
        56           S   tau(  56) = (   0.8750000   0.6250000   0.3750000  )
        57           Cu  tau(  57) = (   0.5000000   0.5000000   0.5000000  )
        58           Zn  tau(  58) = (   0.5000000   0.7500000   0.7500000  )
        59           Zn  tau(  59) = (   0.7500000   0.5000000   0.7500000  )
        60           Zn  tau(  60) = (   0.7500000   0.7500000   0.5000000  )
        61           S   tau(  61) = (   0.6250000   0.8750000   0.8750000  )
        62           S   tau(  62) = (   0.8750000   0.8750000   0.6250000  )
        63           S   tau(  63) = (   0.8750000   0.6250000   0.8750000  )

   Crystallographic axes

     site n.     atom                  positions (cryst. coord.)
         1           Zn  tau(   1) = (  0.0000000  0.0000000  0.0000000  )
         2           Zn  tau(   2) = (  0.0000000  0.2500000  0.2500000  )
         3           Zn  tau(   3) = (  0.2500000  0.0000000  0.2500000  )
         4           Zn  tau(   4) = (  0.2500000  0.2500000  0.0000000  )
         5           S   tau(   5) = (  0.1250000  0.3750000  0.3750000  )
         6           S   tau(   6) = (  0.1250000  0.1250000  0.1250000  )
         7           S   tau(   7) = (  0.3750000  0.3750000  0.1250000  )
         8           S   tau(   8) = (  0.3750000  0.1250000  0.3750000  )
         9           Zn  tau(   9) = (  0.0000000  0.0000000  0.5000000  )
        10           Zn  tau(  10) = (  0.0000000  0.2500000  0.7500000  )
        11           Zn  tau(  11) = (  0.2500000  0.0000000  0.7500000  )
        12           Zn  tau(  12) = (  0.2500000  0.2500000  0.5000000  )
        13           S   tau(  13) = (  0.1250000  0.3750000  0.8750000  )
        14           S   tau(  14) = (  0.1250000  0.1250000  0.6250000  )
        15           S   tau(  15) = (  0.3750000  0.3750000  0.6250000  )
        16           S   tau(  16) = (  0.3750000  0.1250000  0.8750000  )
        17           Zn  tau(  17) = (  0.0000000  0.5000000  0.0000000  )
        18           Zn  tau(  18) = (  0.0000000  0.7500000  0.2500000  )
        19           Zn  tau(  19) = (  0.2500000  0.5000000  0.2500000  )
        20           Zn  tau(  20) = (  0.2500000  0.7500000  0.0000000  )
        21           S   tau(  21) = (  0.1250000  0.8750000  0.3750000  )
        22           S   tau(  22) = (  0.1250000  0.6250000  0.1250000  )
        23           S   tau(  23) = (  0.3750000  0.8750000  0.1250000  )
        24           S   tau(  24) = (  0.3750000  0.6250000  0.3750000  )
        25           Zn  tau(  25) = (  0.0000000  0.5000000  0.5000000  )
        26           Zn  tau(  26) = (  0.0000000  0.7500000  0.7500000  )
        27           Zn  tau(  27) = (  0.2500000  0.5000000  0.7500000  )
        28           Zn  tau(  28) = (  0.2500000  0.7500000  0.5000000  )
        29           S   tau(  29) = (  0.1250000  0.8750000  0.8750000  )
        30           S   tau(  30) = (  0.1250000  0.6250000  0.6250000  )
        31           S   tau(  31) = (  0.3750000  0.8750000  0.6250000  )
        32           S   tau(  32) = (  0.3750000  0.6250000  0.8750000  )
        33           Zn  tau(  33) = (  0.5000000  0.0000000  0.0000000  )
        34           Zn  tau(  34) = (  0.5000000  0.2500000  0.2500000  )
        35           Zn  tau(  35) = (  0.7500000  0.0000000  0.2500000  )
        36           Zn  tau(  36) = (  0.7500000  0.2500000  0.0000000  )
        37           S   tau(  37) = (  0.6250000  0.3750000  0.3750000  )
        38           S   tau(  38) = (  0.6250000  0.1250000  0.1250000  )
        39           S   tau(  39) = (  0.8750000  0.3750000  0.1250000  )
        40           S   tau(  40) = (  0.8750000  0.1250000  0.3750000  )
        41           Zn  tau(  41) = (  0.5000000  0.0000000  0.5000000  )
        42           Zn  tau(  42) = (  0.5000000  0.2500000  0.7500000  )
        43           Zn  tau(  43) = (  0.7500000  0.0000000  0.7500000  )
        44           Zn  tau(  44) = (  0.7500000  0.2500000  0.5000000  )
        45           S   tau(  45) = (  0.6250000  0.3750000  0.8750000  )
        46           S   tau(  46) = (  0.6250000  0.1250000  0.6250000  )
        47           S   tau(  47) = (  0.8750000  0.3750000  0.6250000  )
        48           S   tau(  48) = (  0.8750000  0.1250000  0.8750000  )
        49           Zn  tau(  49) = (  0.5000000  0.5000000  0.0000000  )
        50           Zn  tau(  50) = (  0.5000000  0.7500000  0.2500000  )
        51           Zn  tau(  51) = (  0.7500000  0.5000000  0.2500000  )
        52           Zn  tau(  52) = (  0.7500000  0.7500000  0.0000000  )
        53           S   tau(  53) = (  0.6250000  0.8750000  0.3750000  )
        54           S   tau(  54) = (  0.6250000  0.6250000  0.1250000  )
        55           S   tau(  55) = (  0.8750000  0.8750000  0.1250000  )
        56           S   tau(  56) = (  0.8750000  0.6250000  0.3750000  )
        57           Cu  tau(  57) = (  0.5000000  0.5000000  0.5000000  )
        58           Zn  tau(  58) = (  0.5000000  0.7500000  0.7500000  )
        59           Zn  tau(  59) = (  0.7500000  0.5000000  0.7500000  )
        60           Zn  tau(  60) = (  0.7500000  0.7500000  0.5000000  )
        61           S   tau(  61) = (  0.6250000  0.8750000  0.8750000  )
        62           S   tau(  62) = (  0.8750000  0.8750000  0.6250000  )
        63           S   tau(  63) = (  0.8750000  0.6250000  0.8750000  )

     number of k points=    13  Gaussian smearing, width (Ry)=  0.0010
                       cart. coord. in units 2pi/alat
        k(    1) = (   0.0000000   0.0000000   0.0000000), wk =   0.0156250
        k(    2) = (   0.0000000   0.0000000   0.2500000), wk =   0.0937500
        k(    3) = (   0.0000000   0.0000000  -0.5000000), wk =   0.0468750
        k(    4) = (   0.0000000   0.2500000   0.2500000), wk =   0.0937500
        k(    5) = (   0.0000000   0.2500000  -0.5000000), wk =   0.1875000
        k(    6) = (   0.0000000  -0.5000000  -0.5000000), wk =   0.0468750
        k(    7) = (   0.2500000   0.2500000   0.2500000), wk =   0.0312500
        k(    8) = (   0.2500000   0.2500000  -0.5000000), wk =   0.0937500
        k(    9) = (   0.2500000  -0.5000000  -0.5000000), wk =   0.0937500
        k(   10) = (  -0.5000000  -0.5000000  -0.5000000), wk =   0.0156250
        k(   11) = (  -0.2500000   0.0000000   0.2500000), wk =   0.0937500
        k(   12) = (   0.2500000  -0.2500000   0.2500000), wk =   0.0937500
        k(   13) = (   0.2500000  -0.2500000  -0.5000000), wk =   0.0937500

                       cryst. coord.
        k(    1) = (   0.0000000   0.0000000   0.0000000), wk =   0.0156250
        k(    2) = (   0.0000000   0.0000000   0.2500000), wk =   0.0937500
        k(    3) = (   0.0000000   0.0000000  -0.5000000), wk =   0.0468750
        k(    4) = (   0.0000000   0.2500000   0.2500000), wk =   0.0937500
        k(    5) = (   0.0000000   0.2500000  -0.5000000), wk =   0.1875000
        k(    6) = (   0.0000000  -0.5000000  -0.5000000), wk =   0.0468750
        k(    7) = (   0.2500000   0.2500000   0.2500000), wk =   0.0312500
        k(    8) = (   0.2500000   0.2500000  -0.5000000), wk =   0.0937500
        k(    9) = (   0.2500000  -0.5000000  -0.5000000), wk =   0.0937500
        k(   10) = (  -0.5000000  -0.5000000  -0.5000000), wk =   0.0156250
        k(   11) = (  -0.2500000   0.0000000   0.2500000), wk =   0.0937500
        k(   12) = (   0.2500000  -0.2500000   0.2500000), wk =   0.0937500
        k(   13) = (   0.2500000  -0.2500000  -0.5000000), wk =   0.0937500

     Dense  grid:  2160009 G-vectors     FFT dimensions: ( 162, 162, 162)

     Dynamical RAM for                 wfc:      12.76 MB

     Dynamical RAM for     wfc (w. buffer):      38.28 MB

     Dynamical RAM for             U proj.:       5.88 MB

     Dynamical RAM for  U proj. (w. buff.):      17.65 MB

     Dynamical RAM for           str. fact:       0.88 MB

     Dynamical RAM for           local pot:       0.00 MB

     Dynamical RAM for          nlocal pot:      41.70 MB

     Dynamical RAM for                qrad:       5.90 MB

     Dynamical RAM for          rho,v,vnew:       4.17 MB

     Dynamical RAM for               rhoin:       1.39 MB

     Dynamical RAM for            rho*nmix:       9.42 MB

     Dynamical RAM for           G-vectors:       1.25 MB

     Dynamical RAM for          h,s,v(r/c):       2.44 MB

     Dynamical RAM for          <psi|beta>:       6.00 MB

     Dynamical RAM for                 psi:      25.52 MB

     Dynamical RAM for                hpsi:      25.52 MB

     Dynamical RAM for                spsi:      25.52 MB

     Dynamical RAM for      wfcinit/wfcrot:      34.28 MB

     Dynamical RAM for           addusdens:       5.48 MB

     Estimated static dynamical RAM per process >     114.80 MB

     Estimated max dynamical RAM per process >     209.23 MB

     Estimated total dynamical RAM >     285.13 GB
     Generating pointlists ...
     new r_m :   0.0893 (alat units)  1.8370 (a.u.) for type    1
     new r_m :   0.0893 (alat units)  1.8370 (a.u.) for type    2
     new r_m :   0.0893 (alat units)  1.8370 (a.u.) for type    3

     Initial potential from superposition of free atoms

     starting charge     576.8832, renormalised to     578.0000

     HUBBARD ENERGY =    2.3206  (Ry)

     STARTING HUBBARD OCCUPATIONS:

     =================== HUBBARD OCCUPATIONS ===================
     ------------------------ ATOM    1 ------------------------
     Tr[ns(  1)] (up, down, total) =   4.85000  4.85000  9.70000
     Atomic magnetic moment for atom   1 =   0.00000
     SPIN  1
     eigenvalues:
       0.970  0.970  0.970  0.970  0.970
     eigenvectors (columns):
       1.000  0.000  0.000  0.000  0.000
       0.000  1.000  0.000  0.000  0.000
       0.000  0.000  1.000  0.000  0.000
       0.000  0.000  0.000  1.000  0.000
       0.000  0.000  0.000  0.000  1.000
     occupation matrix ns (before diag.):
       0.970  0.000  0.000  0.000  0.000
       0.000  0.970  0.000  0.000  0.000
       0.000  0.000  0.970  0.000  0.000
       0.000  0.000  0.000  0.970  0.000
       0.000  0.000  0.000  0.000  0.970
     SPIN  2
     eigenvalues:
       0.970  0.970  0.970  0.970  0.970
     eigenvectors (columns):
       1.000  0.000  0.000  0.000  0.000
       0.000  1.000  0.000  0.000  0.000
       0.000  0.000  1.000  0.000  0.000
       0.000  0.000  0.000  1.000  0.000
       0.000  0.000  0.000  0.000  1.000
     occupation matrix ns (before diag.):
       0.970  0.000  0.000  0.000  0.000
       0.000  0.970  0.000  0.000  0.000
       0.000  0.000  0.970  0.000  0.000
       0.000  0.000  0.000  0.970  0.000
       0.000  0.000  0.000  0.000  0.970
     ------------------------ ATOM    2 ------------------------
     Tr[ns(  2)] (up, down, total) =   4.85000  4.85000  9.70000
     Atomic magnetic moment for atom   2 =   0.00000
     SPIN  1
     eigenvalues:
       0.970  0.970  0.970  0.970  0.970
     eigenvectors (columns):
       1.000  0.000  0.000  0.000  0.000
       0.000  1.000  0.000  0.000  0.000
       0.000  0.000  1.000  0.000  0.000
       0.000  0.000  0.000  1.000  0.000
       0.000  0.000  0.000  0.000  1.000
     occupation matrix ns (before diag.):
       0.970  0.000  0.000  0.000  0.000
       0.000  0.970  0.000  0.000  0.000
       0.000  0.000  0.970  0.000  0.000
       0.000  0.000  0.000  0.970  0.000
       0.000  0.000  0.000  0.000  0.970
     SPIN  2
     eigenvalues:
       0.970  0.970  0.970  0.970  0.970
     eigenvectors (columns):
       1.000  0.000  0.000  0.000  0.000
       0.000  1.000  0.000  0.000  0.000
       0.000  0.000  1.000  0.000  0.000
       0.000  0.000  0.000  1.000  0.000
       0.000  0.000  0.000  0.000  1.000
     occupation matrix ns (before diag.):
       0.970  0.000  0.000  0.000  0.000
       0.000  0.970  0.000  0.000  0.000
       0.000  0.000  0.970  0.000  0.000
       0.000  0.000  0.000  0.970  0.000
       0.000  0.000  0.000  0.000  0.970
     ------------------------ ATOM    3 ------------------------
     Tr[ns(  3)] (up, down, total) =   4.85000  4.85000  9.70000
     Atomic magnetic moment for atom   3 =   0.00000
     SPIN  1
     eigenvalues:
       0.970  0.970  0.970  0.970  0.970
     eigenvectors (columns):
       1.000  0.000  0.000  0.000  0.000
       0.000  1.000  0.000  0.000  0.000
       0.000  0.000  1.000  0.000  0.000
       0.000  0.000  0.000  1.000  0.000
       0.000  0.000  0.000  0.000  1.000
     occupation matrix ns (before diag.):
       0.970  0.000  0.000  0.000  0.000
       0.000  0.970  0.000  0.000  0.000
       0.000  0.000  0.970  0.000  0.000
       0.000  0.000  0.000  0.970  0.000
       0.000  0.000  0.000  0.000  0.970
     SPIN  2
     eigenvalues:
       0.970  0.970  0.970  0.970  0.970
     eigenvectors (columns):
       1.000  0.000  0.000  0.000  0.000
       0.000  1.000  0.000  0.000  0.000
       0.000  0.000  1.000  0.000  0.000
       0.000  0.000  0.000  1.000  0.000
       0.000  0.000  0.000  0.000  1.000
     occupation matrix ns (before diag.):
       0.970  0.000  0.000  0.000  0.000
       0.000  0.970  0.000  0.000  0.000
       0.000  0.000  0.970  0.000  0.000
       0.000  0.000  0.000  0.970  0.000
       0.000  0.000  0.000  0.000  0.970
     ------------------------ ATOM    4 ------------------------
     Tr[ns(  4)] (up, down, total) =   4.85000  4.85000  9.70000
     Atomic magnetic moment for atom   4 =   0.00000
     SPIN  1
     eigenvalues:
       0.970  0.970  0.970  0.970  0.970
     eigenvectors (columns):
       1.000  0.000  0.000  0.000  0.000
       0.000  1.000  0.000  0.000  0.000
       0.000  0.000  1.000  0.000  0.000
       0.000  0.000  0.000  1.000  0.000
       0.000  0.000  0.000  0.000  1.000
     occupation matrix ns (before diag.):
       0.970  0.000  0.000  0.000  0.000
       0.000  0.970  0.000  0.000  0.000
       0.000  0.000  0.970  0.000  0.000
       0.000  0.000  0.000  0.970  0.000
       0.000  0.000  0.000  0.000  0.970
     SPIN  2
     eigenvalues:
       0.970  0.970  0.970  0.970  0.970
     eigenvectors (columns):
       1.000  0.000  0.000  0.000  0.000
       0.000  1.000  0.000  0.000  0.000
       0.000  0.000  1.000  0.000  0.000
       0.000  0.000  0.000  1.000  0.000
       0.000  0.000  0.000  0.000  1.000
     occupation matrix ns (before diag.):
       0.970  0.000  0.000  0.000  0.000
       0.000  0.970  0.000  0.000  0.000
       0.000  0.000  0.970  0.000  0.000
       0.000  0.000  0.000  0.970  0.000
       0.000  0.000  0.000  0.000  0.970
     ------------------------ ATOM    9 ------------------------
     Tr[ns(  9)] (up, down, total) =   4.85000  4.85000  9.70000
     Atomic magnetic moment for atom   9 =   0.00000
     SPIN  1
     eigenvalues:
       0.970  0.970  0.970  0.970  0.970
     eigenvectors (columns):
       1.000  0.000  0.000  0.000  0.000
       0.000  1.000  0.000  0.000  0.000
       0.000  0.000  1.000  0.000  0.000
       0.000  0.000  0.000  1.000  0.000
       0.000  0.000  0.000  0.000  1.000
     occupation matrix ns (before diag.):
       0.970  0.000  0.000  0.000  0.000
       0.000  0.970  0.000  0.000  0.000
       0.000  0.000  0.970  0.000  0.000
       0.000  0.000  0.000  0.970  0.000
       0.000  0.000  0.000  0.000  0.970
     SPIN  2
     eigenvalues:
       0.970  0.970  0.970  0.970  0.970
     eigenvectors (columns):
       1.000  0.000  0.000  0.000  0.000
       0.000  1.000  0.000  0.000  0.000
       0.000  0.000  1.000  0.000  0.000
       0.000  0.000  0.000  1.000  0.000
       0.000  0.000  0.000  0.000  1.000
     occupation matrix ns (before diag.):
       0.970  0.000  0.000  0.000  0.000
       0.000  0.970  0.000  0.000  0.000
       0.000  0.000  0.970  0.000  0.000
       0.000  0.000  0.000  0.970  0.000
       0.000  0.000  0.000  0.000  0.970
     ------------------------ ATOM   10 ------------------------
     Tr[ns( 10)] (up, down, total) =   4.85000  4.85000  9.70000
     Atomic magnetic moment for atom  10 =   0.00000
     SPIN  1
     eigenvalues:
       0.970  0.970  0.970  0.970  0.970
     eigenvectors (columns):
       1.000  0.000  0.000  0.000  0.000
       0.000  1.000  0.000  0.000  0.000
       0.000  0.000  1.000  0.000  0.000
       0.000  0.000  0.000  1.000  0.000
       0.000  0.000  0.000  0.000  1.000
     occupation matrix ns (before diag.):
       0.970  0.000  0.000  0.000  0.000
       0.000  0.970  0.000  0.000  0.000
       0.000  0.000  0.970  0.000  0.000
       0.000  0.000  0.000  0.970  0.000
       0.000  0.000  0.000  0.000  0.970
     SPIN  2
     eigenvalues:
       0.970  0.970  0.970  0.970  0.970
     eigenvectors (columns):
       1.000  0.000  0.000  0.000  0.000
       0.000  1.000  0.000  0.000  0.000
       0.000  0.000  1.000  0.000  0.000
       0.000  0.000  0.000  1.000  0.000
       0.000  0.000  0.000  0.000  1.000
     occupation matrix ns (before diag.):
       0.970  0.000  0.000  0.000  0.000
       0.000  0.970  0.000  0.000  0.000
       0.000  0.000  0.970  0.000  0.000
       0.000  0.000  0.000  0.970  0.000
       0.000  0.000  0.000  0.000  0.970
     ------------------------ ATOM   11 ------------------------
     Tr[ns( 11)] (up, down, total) =   4.85000  4.85000  9.70000
     Atomic magnetic moment for atom  11 =   0.00000
     SPIN  1
     eigenvalues:
       0.970  0.970  0.970  0.970  0.970
     eigenvectors (columns):
       1.000  0.000  0.000  0.000  0.000
       0.000  1.000  0.000  0.000  0.000
       0.000  0.000  1.000  0.000  0.000
       0.000  0.000  0.000  1.000  0.000
       0.000  0.000  0.000  0.000  1.000
     occupation matrix ns (before diag.):
       0.970  0.000  0.000  0.000  0.000
       0.000  0.970  0.000  0.000  0.000
       0.000  0.000  0.970  0.000  0.000
       0.000  0.000  0.000  0.970  0.000
       0.000  0.000  0.000  0.000  0.970
     SPIN  2
     eigenvalues:
       0.970  0.970  0.970  0.970  0.970
     eigenvectors (columns):
       1.000  0.000  0.000  0.000  0.000
       0.000  1.000  0.000  0.000  0.000
       0.000  0.000  1.000  0.000  0.000
       0.000  0.000  0.000  1.000  0.000
       0.000  0.000  0.000  0.000  1.000
     occupation matrix ns (before diag.):
       0.970  0.000  0.000  0.000  0.000
       0.000  0.970  0.000  0.000  0.000
       0.000  0.000  0.970  0.000  0.000
       0.000  0.000  0.000  0.970  0.000
       0.000  0.000  0.000  0.000  0.970
     ------------------------ ATOM   12 ------------------------
     Tr[ns( 12)] (up, down, total) =   4.85000  4.85000  9.70000
     Atomic magnetic moment for atom  12 =   0.00000
     SPIN  1
     eigenvalues:
       0.970  0.970  0.970  0.970  0.970
     eigenvectors (columns):
       1.000  0.000  0.000  0.000  0.000
       0.000  1.000  0.000  0.000  0.000
       0.000  0.000  1.000  0.000  0.000
       0.000  0.000  0.000  1.000  0.000
       0.000  0.000  0.000  0.000  1.000
     occupation matrix ns (before diag.):
       0.970  0.000  0.000  0.000  0.000
       0.000  0.970  0.000  0.000  0.000
       0.000  0.000  0.970  0.000  0.000
       0.000  0.000  0.000  0.970  0.000
       0.000  0.000  0.000  0.000  0.970
     SPIN  2
     eigenvalues:
       0.970  0.970  0.970  0.970  0.970
     eigenvectors (columns):
       1.000  0.000  0.000  0.000  0.000
       0.000  1.000  0.000  0.000  0.000
       0.000  0.000  1.000  0.000  0.000
       0.000  0.000  0.000  1.000  0.000
       0.000  0.000  0.000  0.000  1.000
     occupation matrix ns (before diag.):
       0.970  0.000  0.000  0.000  0.000
       0.000  0.970  0.000  0.000  0.000
       0.000  0.000  0.970  0.000  0.000
       0.000  0.000  0.000  0.970  0.000
       0.000  0.000  0.000  0.000  0.970
     ------------------------ ATOM   17 ------------------------
     Tr[ns( 17)] (up, down, total) =   4.85000  4.85000  9.70000
     Atomic magnetic moment for atom  17 =   0.00000
     SPIN  1
     eigenvalues:
       0.970  0.970  0.970  0.970  0.970
     eigenvectors (columns):
       1.000  0.000  0.000  0.000  0.000
       0.000  1.000  0.000  0.000  0.000
       0.000  0.000  1.000  0.000  0.000
       0.000  0.000  0.000  1.000  0.000
       0.000  0.000  0.000  0.000  1.000
     occupation matrix ns (before diag.):
       0.970  0.000  0.000  0.000  0.000
       0.000  0.970  0.000  0.000  0.000
       0.000  0.000  0.970  0.000  0.000
       0.000  0.000  0.000  0.970  0.000
       0.000  0.000  0.000  0.000  0.970
     SPIN  2
     eigenvalues:
       0.970  0.970  0.970  0.970  0.970
     eigenvectors (columns):
       1.000  0.000  0.000  0.000  0.000
       0.000  1.000  0.000  0.000  0.000
       0.000  0.000  1.000  0.000  0.000
       0.000  0.000  0.000  1.000  0.000
       0.000  0.000  0.000  0.000  1.000
     occupation matrix ns (before diag.):
       0.970  0.000  0.000  0.000  0.000
       0.000  0.970  0.000  0.000  0.000
       0.000  0.000  0.970  0.000  0.000
       0.000  0.000  0.000  0.970  0.000
       0.000  0.000  0.000  0.000  0.970
     ------------------------ ATOM   18 ------------------------
     Tr[ns( 18)] (up, down, total) =   4.85000  4.85000  9.70000
     Atomic magnetic moment for atom  18 =   0.00000
     SPIN  1
     eigenvalues:
       0.970  0.970  0.970  0.970  0.970
     eigenvectors (columns):
       1.000  0.000  0.000  0.000  0.000
       0.000  1.000  0.000  0.000  0.000
       0.000  0.000  1.000  0.000  0.000
       0.000  0.000  0.000  1.000  0.000
       0.000  0.000  0.000  0.000  1.000
     occupation matrix ns (before diag.):
       0.970  0.000  0.000  0.000  0.000
       0.000  0.970  0.000  0.000  0.000
       0.000  0.000  0.970  0.000  0.000
       0.000  0.000  0.000  0.970  0.000
       0.000  0.000  0.000  0.000  0.970
     SPIN  2
     eigenvalues:
       0.970  0.970  0.970  0.970  0.970
     eigenvectors (columns):
       1.000  0.000  0.000  0.000  0.000
       0.000  1.000  0.000  0.000  0.000
       0.000  0.000  1.000  0.000  0.000
       0.000  0.000  0.000  1.000  0.000
       0.000  0.000  0.000  0.000  1.000
     occupation matrix ns (before diag.):
       0.970  0.000  0.000  0.000  0.000
       0.000  0.970  0.000  0.000  0.000
       0.000  0.000  0.970  0.000  0.000
       0.000  0.000  0.000  0.970  0.000
       0.000  0.000  0.000  0.000  0.970
     ------------------------ ATOM   19 ------------------------
     Tr[ns( 19)] (up, down, total) =   4.85000  4.85000  9.70000
     Atomic magnetic moment for atom  19 =   0.00000
     SPIN  1
     eigenvalues:
       0.970  0.970  0.970  0.970  0.970
     eigenvectors (columns):
       1.000  0.000  0.000  0.000  0.000
       0.000  1.000  0.000  0.000  0.000
       0.000  0.000  1.000  0.000  0.000
       0.000  0.000  0.000  1.000  0.000
       0.000  0.000  0.000  0.000  1.000
     occupation matrix ns (before diag.):
       0.970  0.000  0.000  0.000  0.000
       0.000  0.970  0.000  0.000  0.000
       0.000  0.000  0.970  0.000  0.000
       0.000  0.000  0.000  0.970  0.000
       0.000  0.000  0.000  0.000  0.970
     SPIN  2
     eigenvalues:
       0.970  0.970  0.970  0.970  0.970
     eigenvectors (columns):
       1.000  0.000  0.000  0.000  0.000
       0.000  1.000  0.000  0.000  0.000
       0.000  0.000  1.000  0.000  0.000
       0.000  0.000  0.000  1.000  0.000
       0.000  0.000  0.000  0.000  1.000
     occupation matrix ns (before diag.):
       0.970  0.000  0.000  0.000  0.000
       0.000  0.970  0.000  0.000  0.000
       0.000  0.000  0.970  0.000  0.000
       0.000  0.000  0.000  0.970  0.000
       0.000  0.000  0.000  0.000  0.970
     ------------------------ ATOM   20 ------------------------
     Tr[ns( 20)] (up, down, total) =   4.85000  4.85000  9.70000
     Atomic magnetic moment for atom  20 =   0.00000
     SPIN  1
     eigenvalues:
       0.970  0.970  0.970  0.970  0.970
     eigenvectors (columns):
       1.000  0.000  0.000  0.000  0.000
       0.000  1.000  0.000  0.000  0.000
       0.000  0.000  1.000  0.000  0.000
       0.000  0.000  0.000  1.000  0.000
       0.000  0.000  0.000  0.000  1.000
     occupation matrix ns (before diag.):
       0.970  0.000  0.000  0.000  0.000
       0.000  0.970  0.000  0.000  0.000
       0.000  0.000  0.970  0.000  0.000
       0.000  0.000  0.000  0.970  0.000
       0.000  0.000  0.000  0.000  0.970
     SPIN  2
     eigenvalues:
       0.970  0.970  0.970  0.970  0.970
     eigenvectors (columns):
       1.000  0.000  0.000  0.000  0.000
       0.000  1.000  0.000  0.000  0.000
       0.000  0.000  1.000  0.000  0.000
       0.000  0.000  0.000  1.000  0.000
       0.000  0.000  0.000  0.000  1.000
     occupation matrix ns (before diag.):
       0.970  0.000  0.000  0.000  0.000
       0.000  0.970  0.000  0.000  0.000
       0.000  0.000  0.970  0.000  0.000
       0.000  0.000  0.000  0.970  0.000
       0.000  0.000  0.000  0.000  0.970
     ------------------------ ATOM   25 ------------------------
     Tr[ns( 25)] (up, down, total) =   4.85000  4.85000  9.70000
     Atomic magnetic moment for atom  25 =   0.00000
     SPIN  1
     eigenvalues:
       0.970  0.970  0.970  0.970  0.970
     eigenvectors (columns):
       1.000  0.000  0.000  0.000  0.000
       0.000  1.000  0.000  0.000  0.000
       0.000  0.000  1.000  0.000  0.000
       0.000  0.000  0.000  1.000  0.000
       0.000  0.000  0.000  0.000  1.000
     occupation matrix ns (before diag.):
       0.970  0.000  0.000  0.000  0.000
       0.000  0.970  0.000  0.000  0.000
       0.000  0.000  0.970  0.000  0.000
       0.000  0.000  0.000  0.970  0.000
       0.000  0.000  0.000  0.000  0.970
     SPIN  2
     eigenvalues:
       0.970  0.970  0.970  0.970  0.970
     eigenvectors (columns):
       1.000  0.000  0.000  0.000  0.000
       0.000  1.000  0.000  0.000  0.000
       0.000  0.000  1.000  0.000  0.000
       0.000  0.000  0.000  1.000  0.000
       0.000  0.000  0.000  0.000  1.000
     occupation matrix ns (before diag.):
       0.970  0.000  0.000  0.000  0.000
       0.000  0.970  0.000  0.000  0.000
       0.000  0.000  0.970  0.000  0.000
       0.000  0.000  0.000  0.970  0.000
       0.000  0.000  0.000  0.000  0.970
     ------------------------ ATOM   26 ------------------------
     Tr[ns( 26)] (up, down, total) =   4.85000  4.85000  9.70000
     Atomic magnetic moment for atom  26 =   0.00000
     SPIN  1
     eigenvalues:
       0.970  0.970  0.970  0.970  0.970
     eigenvectors (columns):
       1.000  0.000  0.000  0.000  0.000
       0.000  1.000  0.000  0.000  0.000
       0.000  0.000  1.000  0.000  0.000
       0.000  0.000  0.000  1.000  0.000
       0.000  0.000  0.000  0.000  1.000
     occupation matrix ns (before diag.):
       0.970  0.000  0.000  0.000  0.000
       0.000  0.970  0.000  0.000  0.000
       0.000  0.000  0.970  0.000  0.000
       0.000  0.000  0.000  0.970  0.000
       0.000  0.000  0.000  0.000  0.970
     SPIN  2
     eigenvalues:
       0.970  0.970  0.970  0.970  0.970
     eigenvectors (columns):
       1.000  0.000  0.000  0.000  0.000
       0.000  1.000  0.000  0.000  0.000
       0.000  0.000  1.000  0.000  0.000
       0.000  0.000  0.000  1.000  0.000
       0.000  0.000  0.000  0.000  1.000
     occupation matrix ns (before diag.):
       0.970  0.000  0.000  0.000  0.000
       0.000  0.970  0.000  0.000  0.000
       0.000  0.000  0.970  0.000  0.000
       0.000  0.000  0.000  0.970  0.000
       0.000  0.000  0.000  0.000  0.970
     ------------------------ ATOM   27 ------------------------
     Tr[ns( 27)] (up, down, total) =   4.85000  4.85000  9.70000
     Atomic magnetic moment for atom  27 =   0.00000
     SPIN  1
     eigenvalues:
       0.970  0.970  0.970  0.970  0.970
     eigenvectors (columns):
       1.000  0.000  0.000  0.000  0.000
       0.000  1.000  0.000  0.000  0.000
       0.000  0.000  1.000  0.000  0.000
       0.000  0.000  0.000  1.000  0.000
       0.000  0.000  0.000  0.000  1.000
     occupation matrix ns (before diag.):
       0.970  0.000  0.000  0.000  0.000
       0.000  0.970  0.000  0.000  0.000
       0.000  0.000  0.970  0.000  0.000
       0.000  0.000  0.000  0.970  0.000
       0.000  0.000  0.000  0.000  0.970
     SPIN  2
     eigenvalues:
       0.970  0.970  0.970  0.970  0.970
     eigenvectors (columns):
       1.000  0.000  0.000  0.000  0.000
       0.000  1.000  0.000  0.000  0.000
       0.000  0.000  1.000  0.000  0.000
       0.000  0.000  0.000  1.000  0.000
       0.000  0.000  0.000  0.000  1.000
     occupation matrix ns (before diag.):
       0.970  0.000  0.000  0.000  0.000
       0.000  0.970  0.000  0.000  0.000
       0.000  0.000  0.970  0.000  0.000
       0.000  0.000  0.000  0.970  0.000
       0.000  0.000  0.000  0.000  0.970
     ------------------------ ATOM   28 ------------------------
     Tr[ns( 28)] (up, down, total) =   4.85000  4.85000  9.70000
     Atomic magnetic moment for atom  28 =   0.00000
     SPIN  1
     eigenvalues:
       0.970  0.970  0.970  0.970  0.970
     eigenvectors (columns):
       1.000  0.000  0.000  0.000  0.000
       0.000  1.000  0.000  0.000  0.000
       0.000  0.000  1.000  0.000  0.000
       0.000  0.000  0.000  1.000  0.000
       0.000  0.000  0.000  0.000  1.000
     occupation matrix ns (before diag.):
       0.970  0.000  0.000  0.000  0.000
       0.000  0.970  0.000  0.000  0.000
       0.000  0.000  0.970  0.000  0.000
       0.000  0.000  0.000  0.970  0.000
       0.000  0.000  0.000  0.000  0.970
     SPIN  2
     eigenvalues:
       0.970  0.970  0.970  0.970  0.970
     eigenvectors (columns):
       1.000  0.000  0.000  0.000  0.000
       0.000  1.000  0.000  0.000  0.000
       0.000  0.000  1.000  0.000  0.000
       0.000  0.000  0.000  1.000  0.000
       0.000  0.000  0.000  0.000  1.000
     occupation matrix ns (before diag.):
       0.970  0.000  0.000  0.000  0.000
       0.000  0.970  0.000  0.000  0.000
       0.000  0.000  0.970  0.000  0.000
       0.000  0.000  0.000  0.970  0.000
       0.000  0.000  0.000  0.000  0.970
     ------------------------ ATOM   33 ------------------------
     Tr[ns( 33)] (up, down, total) =   4.85000  4.85000  9.70000
     Atomic magnetic moment for atom  33 =   0.00000
     SPIN  1
     eigenvalues:
       0.970  0.970  0.970  0.970  0.970
     eigenvectors (columns):
       1.000  0.000  0.000  0.000  0.000
       0.000  1.000  0.000  0.000  0.000
       0.000  0.000  1.000  0.000  0.000
       0.000  0.000  0.000  1.000  0.000
       0.000  0.000  0.000  0.000  1.000
     occupation matrix ns (before diag.):
       0.970  0.000  0.000  0.000  0.000
       0.000  0.970  0.000  0.000  0.000
       0.000  0.000  0.970  0.000  0.000
       0.000  0.000  0.000  0.970  0.000
       0.000  0.000  0.000  0.000  0.970
     SPIN  2
     eigenvalues:
       0.970  0.970  0.970  0.970  0.970
     eigenvectors (columns):
       1.000  0.000  0.000  0.000  0.000
       0.000  1.000  0.000  0.000  0.000
       0.000  0.000  1.000  0.000  0.000
       0.000  0.000  0.000  1.000  0.000
       0.000  0.000  0.000  0.000  1.000
     occupation matrix ns (before diag.):
       0.970  0.000  0.000  0.000  0.000
       0.000  0.970  0.000  0.000  0.000
       0.000  0.000  0.970  0.000  0.000
       0.000  0.000  0.000  0.970  0.000
       0.000  0.000  0.000  0.000  0.970
     ------------------------ ATOM   34 ------------------------
     Tr[ns( 34)] (up, down, total) =   4.85000  4.85000  9.70000
     Atomic magnetic moment for atom  34 =   0.00000
     SPIN  1
     eigenvalues:
       0.970  0.970  0.970  0.970  0.970
     eigenvectors (columns):
       1.000  0.000  0.000  0.000  0.000
       0.000  1.000  0.000  0.000  0.000
       0.000  0.000  1.000  0.000  0.000
       0.000  0.000  0.000  1.000  0.000
       0.000  0.000  0.000  0.000  1.000
     occupation matrix ns (before diag.):
       0.970  0.000  0.000  0.000  0.000
       0.000  0.970  0.000  0.000  0.000
       0.000  0.000  0.970  0.000  0.000
       0.000  0.000  0.000  0.970  0.000
       0.000  0.000  0.000  0.000  0.970
     SPIN  2
     eigenvalues:
       0.970  0.970  0.970  0.970  0.970
     eigenvectors (columns):
       1.000  0.000  0.000  0.000  0.000
       0.000  1.000  0.000  0.000  0.000
       0.000  0.000  1.000  0.000  0.000
       0.000  0.000  0.000  1.000  0.000
       0.000  0.000  0.000  0.000  1.000
     occupation matrix ns (before diag.):
       0.970  0.000  0.000  0.000  0.000
       0.000  0.970  0.000  0.000  0.000
       0.000  0.000  0.970  0.000  0.000
       0.000  0.000  0.000  0.970  0.000
       0.000  0.000  0.000  0.000  0.970
     ------------------------ ATOM   35 ------------------------
     Tr[ns( 35)] (up, down, total) =   4.85000  4.85000  9.70000
     Atomic magnetic moment for atom  35 =   0.00000
     SPIN  1
     eigenvalues:
       0.970  0.970  0.970  0.970  0.970
     eigenvectors (columns):
       1.000  0.000  0.000  0.000  0.000
       0.000  1.000  0.000  0.000  0.000
       0.000  0.000  1.000  0.000  0.000
       0.000  0.000  0.000  1.000  0.000
       0.000  0.000  0.000  0.000  1.000
     occupation matrix ns (before diag.):
       0.970  0.000  0.000  0.000  0.000
       0.000  0.970  0.000  0.000  0.000
       0.000  0.000  0.970  0.000  0.000
       0.000  0.000  0.000  0.970  0.000
       0.000  0.000  0.000  0.000  0.970
     SPIN  2
     eigenvalues:
       0.970  0.970  0.970  0.970  0.970
     eigenvectors (columns):
       1.000  0.000  0.000  0.000  0.000
       0.000  1.000  0.000  0.000  0.000
       0.000  0.000  1.000  0.000  0.000
       0.000  0.000  0.000  1.000  0.000
       0.000  0.000  0.000  0.000  1.000
     occupation matrix ns (before diag.):
       0.970  0.000  0.000  0.000  0.000
       0.000  0.970  0.000  0.000  0.000
       0.000  0.000  0.970  0.000  0.000
       0.000  0.000  0.000  0.970  0.000
       0.000  0.000  0.000  0.000  0.970
     ------------------------ ATOM   36 ------------------------
     Tr[ns( 36)] (up, down, total) =   4.85000  4.85000  9.70000
     Atomic magnetic moment for atom  36 =   0.00000
     SPIN  1
     eigenvalues:
       0.970  0.970  0.970  0.970  0.970
     eigenvectors (columns):
       1.000  0.000  0.000  0.000  0.000
       0.000  1.000  0.000  0.000  0.000
       0.000  0.000  1.000  0.000  0.000
       0.000  0.000  0.000  1.000  0.000
       0.000  0.000  0.000  0.000  1.000
     occupation matrix ns (before diag.):
       0.970  0.000  0.000  0.000  0.000
       0.000  0.970  0.000  0.000  0.000
       0.000  0.000  0.970  0.000  0.000
       0.000  0.000  0.000  0.970  0.000
       0.000  0.000  0.000  0.000  0.970
     SPIN  2
     eigenvalues:
       0.970  0.970  0.970  0.970  0.970
     eigenvectors (columns):
       1.000  0.000  0.000  0.000  0.000
       0.000  1.000  0.000  0.000  0.000
       0.000  0.000  1.000  0.000  0.000
       0.000  0.000  0.000  1.000  0.000
       0.000  0.000  0.000  0.000  1.000
     occupation matrix ns (before diag.):
       0.970  0.000  0.000  0.000  0.000
       0.000  0.970  0.000  0.000  0.000
       0.000  0.000  0.970  0.000  0.000
       0.000  0.000  0.000  0.970  0.000
       0.000  0.000  0.000  0.000  0.970
     ------------------------ ATOM   41 ------------------------
     Tr[ns( 41)] (up, down, total) =   4.85000  4.85000  9.70000
     Atomic magnetic moment for atom  41 =   0.00000
     SPIN  1
     eigenvalues:
       0.970  0.970  0.970  0.970  0.970
     eigenvectors (columns):
       1.000  0.000  0.000  0.000  0.000
       0.000  1.000  0.000  0.000  0.000
       0.000  0.000  1.000  0.000  0.000
       0.000  0.000  0.000  1.000  0.000
       0.000  0.000  0.000  0.000  1.000
     occupation matrix ns (before diag.):
       0.970  0.000  0.000  0.000  0.000
       0.000  0.970  0.000  0.000  0.000
       0.000  0.000  0.970  0.000  0.000
       0.000  0.000  0.000  0.970  0.000
       0.000  0.000  0.000  0.000  0.970
     SPIN  2
     eigenvalues:
       0.970  0.970  0.970  0.970  0.970
     eigenvectors (columns):
       1.000  0.000  0.000  0.000  0.000
       0.000  1.000  0.000  0.000  0.000
       0.000  0.000  1.000  0.000  0.000
       0.000  0.000  0.000  1.000  0.000
       0.000  0.000  0.000  0.000  1.000
     occupation matrix ns (before diag.):
       0.970  0.000  0.000  0.000  0.000
       0.000  0.970  0.000  0.000  0.000
       0.000  0.000  0.970  0.000  0.000
       0.000  0.000  0.000  0.970  0.000
       0.000  0.000  0.000  0.000  0.970
     ------------------------ ATOM   42 ------------------------
     Tr[ns( 42)] (up, down, total) =   4.85000  4.85000  9.70000
     Atomic magnetic moment for atom  42 =   0.00000
     SPIN  1
     eigenvalues:
       0.970  0.970  0.970  0.970  0.970
     eigenvectors (columns):
       1.000  0.000  0.000  0.000  0.000
       0.000  1.000  0.000  0.000  0.000
       0.000  0.000  1.000  0.000  0.000
       0.000  0.000  0.000  1.000  0.000
       0.000  0.000  0.000  0.000  1.000
     occupation matrix ns (before diag.):
       0.970  0.000  0.000  0.000  0.000
       0.000  0.970  0.000  0.000  0.000
       0.000  0.000  0.970  0.000  0.000
       0.000  0.000  0.000  0.970  0.000
       0.000  0.000  0.000  0.000  0.970
     SPIN  2
     eigenvalues:
       0.970  0.970  0.970  0.970  0.970
     eigenvectors (columns):
       1.000  0.000  0.000  0.000  0.000
       0.000  1.000  0.000  0.000  0.000
       0.000  0.000  1.000  0.000  0.000
       0.000  0.000  0.000  1.000  0.000
       0.000  0.000  0.000  0.000  1.000
     occupation matrix ns (before diag.):
       0.970  0.000  0.000  0.000  0.000
       0.000  0.970  0.000  0.000  0.000
       0.000  0.000  0.970  0.000  0.000
       0.000  0.000  0.000  0.970  0.000
       0.000  0.000  0.000  0.000  0.970
     ------------------------ ATOM   43 ------------------------
     Tr[ns( 43)] (up, down, total) =   4.85000  4.85000  9.70000
     Atomic magnetic moment for atom  43 =   0.00000
     SPIN  1
     eigenvalues:
       0.970  0.970  0.970  0.970  0.970
     eigenvectors (columns):
       1.000  0.000  0.000  0.000  0.000
       0.000  1.000  0.000  0.000  0.000
       0.000  0.000  1.000  0.000  0.000
       0.000  0.000  0.000  1.000  0.000
       0.000  0.000  0.000  0.000  1.000
     occupation matrix ns (before diag.):
       0.970  0.000  0.000  0.000  0.000
       0.000  0.970  0.000  0.000  0.000
       0.000  0.000  0.970  0.000  0.000
       0.000  0.000  0.000  0.970  0.000
       0.000  0.000  0.000  0.000  0.970
     SPIN  2
     eigenvalues:
       0.970  0.970  0.970  0.970  0.970
     eigenvectors (columns):
       1.000  0.000  0.000  0.000  0.000
       0.000  1.000  0.000  0.000  0.000
       0.000  0.000  1.000  0.000  0.000
       0.000  0.000  0.000  1.000  0.000
       0.000  0.000  0.000  0.000  1.000
     occupation matrix ns (before diag.):
       0.970  0.000  0.000  0.000  0.000
       0.000  0.970  0.000  0.000  0.000
       0.000  0.000  0.970  0.000  0.000
       0.000  0.000  0.000  0.970  0.000
       0.000  0.000  0.000  0.000  0.970
     ------------------------ ATOM   44 ------------------------
     Tr[ns( 44)] (up, down, total) =   4.85000  4.85000  9.70000
     Atomic magnetic moment for atom  44 =   0.00000
     SPIN  1
     eigenvalues:
       0.970  0.970  0.970  0.970  0.970
     eigenvectors (columns):
       1.000  0.000  0.000  0.000  0.000
       0.000  1.000  0.000  0.000  0.000
       0.000  0.000  1.000  0.000  0.000
       0.000  0.000  0.000  1.000  0.000
       0.000  0.000  0.000  0.000  1.000
     occupation matrix ns (before diag.):
       0.970  0.000  0.000  0.000  0.000
       0.000  0.970  0.000  0.000  0.000
       0.000  0.000  0.970  0.000  0.000
       0.000  0.000  0.000  0.970  0.000
       0.000  0.000  0.000  0.000  0.970
     SPIN  2
     eigenvalues:
       0.970  0.970  0.970  0.970  0.970
     eigenvectors (columns):
       1.000  0.000  0.000  0.000  0.000
       0.000  1.000  0.000  0.000  0.000
       0.000  0.000  1.000  0.000  0.000
       0.000  0.000  0.000  1.000  0.000
       0.000  0.000  0.000  0.000  1.000
     occupation matrix ns (before diag.):
       0.970  0.000  0.000  0.000  0.000
       0.000  0.970  0.000  0.000  0.000
       0.000  0.000  0.970  0.000  0.000
       0.000  0.000  0.000  0.970  0.000
       0.000  0.000  0.000  0.000  0.970
     ------------------------ ATOM   49 ------------------------
     Tr[ns( 49)] (up, down, total) =   4.85000  4.85000  9.70000
     Atomic magnetic moment for atom  49 =   0.00000
     SPIN  1
     eigenvalues:
       0.970  0.970  0.970  0.970  0.970
     eigenvectors (columns):
       1.000  0.000  0.000  0.000  0.000
       0.000  1.000  0.000  0.000  0.000
       0.000  0.000  1.000  0.000  0.000
       0.000  0.000  0.000  1.000  0.000
       0.000  0.000  0.000  0.000  1.000
     occupation matrix ns (before diag.):
       0.970  0.000  0.000  0.000  0.000
       0.000  0.970  0.000  0.000  0.000
       0.000  0.000  0.970  0.000  0.000
       0.000  0.000  0.000  0.970  0.000
       0.000  0.000  0.000  0.000  0.970
     SPIN  2
     eigenvalues:
       0.970  0.970  0.970  0.970  0.970
     eigenvectors (columns):
       1.000  0.000  0.000  0.000  0.000
       0.000  1.000  0.000  0.000  0.000
       0.000  0.000  1.000  0.000  0.000
       0.000  0.000  0.000  1.000  0.000
       0.000  0.000  0.000  0.000  1.000
     occupation matrix ns (before diag.):
       0.970  0.000  0.000  0.000  0.000
       0.000  0.970  0.000  0.000  0.000
       0.000  0.000  0.970  0.000  0.000
       0.000  0.000  0.000  0.970  0.000
       0.000  0.000  0.000  0.000  0.970
     ------------------------ ATOM   50 ------------------------
     Tr[ns( 50)] (up, down, total) =   4.85000  4.85000  9.70000
     Atomic magnetic moment for atom  50 =   0.00000
     SPIN  1
     eigenvalues:
       0.970  0.970  0.970  0.970  0.970
     eigenvectors (columns):
       1.000  0.000  0.000  0.000  0.000
       0.000  1.000  0.000  0.000  0.000
       0.000  0.000  1.000  0.000  0.000
       0.000  0.000  0.000  1.000  0.000
       0.000  0.000  0.000  0.000  1.000
     occupation matrix ns (before diag.):
       0.970  0.000  0.000  0.000  0.000
       0.000  0.970  0.000  0.000  0.000
       0.000  0.000  0.970  0.000  0.000
       0.000  0.000  0.000  0.970  0.000
       0.000  0.000  0.000  0.000  0.970
     SPIN  2
     eigenvalues:
       0.970  0.970  0.970  0.970  0.970
     eigenvectors (columns):
       1.000  0.000  0.000  0.000  0.000
       0.000  1.000  0.000  0.000  0.000
       0.000  0.000  1.000  0.000  0.000
       0.000  0.000  0.000  1.000  0.000
       0.000  0.000  0.000  0.000  1.000
     occupation matrix ns (before diag.):
       0.970  0.000  0.000  0.000  0.000
       0.000  0.970  0.000  0.000  0.000
       0.000  0.000  0.970  0.000  0.000
       0.000  0.000  0.000  0.970  0.000
       0.000  0.000  0.000  0.000  0.970
     ------------------------ ATOM   51 ------------------------
     Tr[ns( 51)] (up, down, total) =   4.85000  4.85000  9.70000
     Atomic magnetic moment for atom  51 =   0.00000
     SPIN  1
     eigenvalues:
       0.970  0.970  0.970  0.970  0.970
     eigenvectors (columns):
       1.000  0.000  0.000  0.000  0.000
       0.000  1.000  0.000  0.000  0.000
       0.000  0.000  1.000  0.000  0.000
       0.000  0.000  0.000  1.000  0.000
       0.000  0.000  0.000  0.000  1.000
     occupation matrix ns (before diag.):
       0.970  0.000  0.000  0.000  0.000
       0.000  0.970  0.000  0.000  0.000
       0.000  0.000  0.970  0.000  0.000
       0.000  0.000  0.000  0.970  0.000
       0.000  0.000  0.000  0.000  0.970
     SPIN  2
     eigenvalues:
       0.970  0.970  0.970  0.970  0.970
     eigenvectors (columns):
       1.000  0.000  0.000  0.000  0.000
       0.000  1.000  0.000  0.000  0.000
       0.000  0.000  1.000  0.000  0.000
       0.000  0.000  0.000  1.000  0.000
       0.000  0.000  0.000  0.000  1.000
     occupation matrix ns (before diag.):
       0.970  0.000  0.000  0.000  0.000
       0.000  0.970  0.000  0.000  0.000
       0.000  0.000  0.970  0.000  0.000
       0.000  0.000  0.000  0.970  0.000
       0.000  0.000  0.000  0.000  0.970
     ------------------------ ATOM   52 ------------------------
     Tr[ns( 52)] (up, down, total) =   4.85000  4.85000  9.70000
     Atomic magnetic moment for atom  52 =   0.00000
     SPIN  1
     eigenvalues:
       0.970  0.970  0.970  0.970  0.970
     eigenvectors (columns):
       1.000  0.000  0.000  0.000  0.000
       0.000  1.000  0.000  0.000  0.000
       0.000  0.000  1.000  0.000  0.000
       0.000  0.000  0.000  1.000  0.000
       0.000  0.000  0.000  0.000  1.000
     occupation matrix ns (before diag.):
       0.970  0.000  0.000  0.000  0.000
       0.000  0.970  0.000  0.000  0.000
       0.000  0.000  0.970  0.000  0.000
       0.000  0.000  0.000  0.970  0.000
       0.000  0.000  0.000  0.000  0.970
     SPIN  2
     eigenvalues:
       0.970  0.970  0.970  0.970  0.970
     eigenvectors (columns):
       1.000  0.000  0.000  0.000  0.000
       0.000  1.000  0.000  0.000  0.000
       0.000  0.000  1.000  0.000  0.000
       0.000  0.000  0.000  1.000  0.000
       0.000  0.000  0.000  0.000  1.000
     occupation matrix ns (before diag.):
       0.970  0.000  0.000  0.000  0.000
       0.000  0.970  0.000  0.000  0.000
       0.000  0.000  0.970  0.000  0.000
       0.000  0.000  0.000  0.970  0.000
       0.000  0.000  0.000  0.000  0.970
     ------------------------ ATOM   57 ------------------------
     Tr[ns( 57)] (up, down, total) =   5.00000  5.00000 10.00000
     Atomic magnetic moment for atom  57 =   0.00000
     SPIN  1
     eigenvalues:
       1.000  1.000  1.000  1.000  1.000
     eigenvectors (columns):
       1.000  0.000  0.000  0.000  0.000
       0.000  1.000  0.000  0.000  0.000
       0.000  0.000  1.000  0.000  0.000
       0.000  0.000  0.000  1.000  0.000
       0.000  0.000  0.000  0.000  1.000
     occupation matrix ns (before diag.):
       1.000  0.000  0.000  0.000  0.000
       0.000  1.000  0.000  0.000  0.000
       0.000  0.000  1.000  0.000  0.000
       0.000  0.000  0.000  1.000  0.000
       0.000  0.000  0.000  0.000  1.000
     SPIN  2
     eigenvalues:
       1.000  1.000  1.000  1.000  1.000
     eigenvectors (columns):
       1.000  0.000  0.000  0.000  0.000
       0.000  1.000  0.000  0.000  0.000
       0.000  0.000  1.000  0.000  0.000
       0.000  0.000  0.000  1.000  0.000
       0.000  0.000  0.000  0.000  1.000
     occupation matrix ns (before diag.):
       1.000  0.000  0.000  0.000  0.000
       0.000  1.000  0.000  0.000  0.000
       0.000  0.000  1.000  0.000  0.000
       0.000  0.000  0.000  1.000  0.000
       0.000  0.000  0.000  0.000  1.000
     ------------------------ ATOM   58 ------------------------
     Tr[ns( 58)] (up, down, total) =   4.85000  4.85000  9.70000
     Atomic magnetic moment for atom  58 =   0.00000
     SPIN  1
     eigenvalues:
       0.970  0.970  0.970  0.970  0.970
     eigenvectors (columns):
       1.000  0.000  0.000  0.000  0.000
       0.000  1.000  0.000  0.000  0.000
       0.000  0.000  1.000  0.000  0.000
       0.000  0.000  0.000  1.000  0.000
       0.000  0.000  0.000  0.000  1.000
     occupation matrix ns (before diag.):
       0.970  0.000  0.000  0.000  0.000
       0.000  0.970  0.000  0.000  0.000
       0.000  0.000  0.970  0.000  0.000
       0.000  0.000  0.000  0.970  0.000
       0.000  0.000  0.000  0.000  0.970
     SPIN  2
     eigenvalues:
       0.970  0.970  0.970  0.970  0.970
     eigenvectors (columns):
       1.000  0.000  0.000  0.000  0.000
       0.000  1.000  0.000  0.000  0.000
       0.000  0.000  1.000  0.000  0.000
       0.000  0.000  0.000  1.000  0.000
       0.000  0.000  0.000  0.000  1.000
     occupation matrix ns (before diag.):
       0.970  0.000  0.000  0.000  0.000
       0.000  0.970  0.000  0.000  0.000
       0.000  0.000  0.970  0.000  0.000
       0.000  0.000  0.000  0.970  0.000
       0.000  0.000  0.000  0.000  0.970
     ------------------------ ATOM   59 ------------------------
     Tr[ns( 59)] (up, down, total) =   4.85000  4.85000  9.70000
     Atomic magnetic moment for atom  59 =   0.00000
     SPIN  1
     eigenvalues:
       0.970  0.970  0.970  0.970  0.970
     eigenvectors (columns):
       1.000  0.000  0.000  0.000  0.000
       0.000  1.000  0.000  0.000  0.000
       0.000  0.000  1.000  0.000  0.000
       0.000  0.000  0.000  1.000  0.000
       0.000  0.000  0.000  0.000  1.000
     occupation matrix ns (before diag.):
       0.970  0.000  0.000  0.000  0.000
       0.000  0.970  0.000  0.000  0.000
       0.000  0.000  0.970  0.000  0.000
       0.000  0.000  0.000  0.970  0.000
       0.000  0.000  0.000  0.000  0.970
     SPIN  2
     eigenvalues:
       0.970  0.970  0.970  0.970  0.970
     eigenvectors (columns):
       1.000  0.000  0.000  0.000  0.000
       0.000  1.000  0.000  0.000  0.000
       0.000  0.000  1.000  0.000  0.000
       0.000  0.000  0.000  1.000  0.000
       0.000  0.000  0.000  0.000  1.000
     occupation matrix ns (before diag.):
       0.970  0.000  0.000  0.000  0.000
       0.000  0.970  0.000  0.000  0.000
       0.000  0.000  0.970  0.000  0.000
       0.000  0.000  0.000  0.970  0.000
       0.000  0.000  0.000  0.000  0.970
     ------------------------ ATOM   60 ------------------------
     Tr[ns( 60)] (up, down, total) =   4.85000  4.85000  9.70000
     Atomic magnetic moment for atom  60 =   0.00000
     SPIN  1
     eigenvalues:
       0.970  0.970  0.970  0.970  0.970
     eigenvectors (columns):
       1.000  0.000  0.000  0.000  0.000
       0.000  1.000  0.000  0.000  0.000
       0.000  0.000  1.000  0.000  0.000
       0.000  0.000  0.000  1.000  0.000
       0.000  0.000  0.000  0.000  1.000
     occupation matrix ns (before diag.):
       0.970  0.000  0.000  0.000  0.000
       0.000  0.970  0.000  0.000  0.000
       0.000  0.000  0.970  0.000  0.000
       0.000  0.000  0.000  0.970  0.000
       0.000  0.000  0.000  0.000  0.970
     SPIN  2
     eigenvalues:
       0.970  0.970  0.970  0.970  0.970
     eigenvectors (columns):
       1.000  0.000  0.000  0.000  0.000
       0.000  1.000  0.000  0.000  0.000
       0.000  0.000  1.000  0.000  0.000
       0.000  0.000  0.000  1.000  0.000
       0.000  0.000  0.000  0.000  1.000
     occupation matrix ns (before diag.):
       0.970  0.000  0.000  0.000  0.000
       0.000  0.970  0.000  0.000  0.000
       0.000  0.000  0.970  0.000  0.000
       0.000  0.000  0.000  0.970  0.000
       0.000  0.000  0.000  0.000  0.970

     Number of occupied Hubbard levels =  310.7000

     Atomic wfc used for Hubbard projectors are orthogonalized

     Starting wfcs are  413 randomized atomic wfcs
     Checking if some PAW data can be deallocated... 
       PAW data deallocated on  740 nodes for type:  1
       PAW data deallocated on  739 nodes for type:  2
       PAW data deallocated on 1433 nodes for type:  3

     total cpu time spent up to now is       15.9 secs

     Self-consistent Calculation

     iteration #  1     ecut=   150.00 Ry     beta= 0.70
     Davidson diagonalization with overlap

---- Real-time Memory Report at c_bands before calling an iterative solver
          1239 MiB given to the printing process from OS
             0 MiB allocation reported by mallinfo(arena+hblkhd)
        209150 MiB available memory on the node where the printing process lives
------------------
     ethr =  1.00E-02,  avg # of iterations =  4.4

     =================== HUBBARD OCCUPATIONS ===================
     ------------------------ ATOM    1 ------------------------
     Tr[ns(  1)] (up, down, total) =   4.98894  4.98894  9.97788
     Atomic magnetic moment for atom   1 =   0.00000
     SPIN  1
     eigenvalues:
       0.997  0.997  0.997  0.999  0.999
     eigenvectors (columns):
       0.000 -0.000  0.000 -0.226 -0.974
       0.577  0.104  0.810 -0.000  0.000
       0.577 -0.753 -0.315  0.000  0.000
      -0.000  0.000  0.000  0.974 -0.226
      -0.577 -0.649  0.495  0.000  0.000
     occupation matrix ns (before diag.):
       0.999 -0.000 -0.000  0.000 -0.000
      -0.000  0.997 -0.000 -0.000  0.000
      -0.000 -0.000  0.997  0.000  0.000
       0.000 -0.000  0.000  0.999 -0.000
      -0.000  0.000  0.000 -0.000  0.997
     SPIN  2
     eigenvalues:
       0.997  0.997  0.997  0.999  0.999
     eigenvectors (columns):
       0.013  0.008 -0.000  0.185  0.983
       0.005 -0.816 -0.577 -0.010  0.008
      -0.709  0.404 -0.577  0.012  0.004
      -0.008  0.013  0.000 -0.983  0.185
      -0.705 -0.412  0.577  0.002  0.012
     occupation matrix ns (before diag.):
       0.999  0.000  0.000  0.000  0.000
       0.000  0.997  0.000  0.000 -0.000
       0.000  0.000  0.997 -0.000 -0.000
       0.000  0.000 -0.000  0.999 -0.000
       0.000 -0.000 -0.000 -0.000  0.997
     ------------------------ ATOM    2 ------------------------
     Tr[ns(  2)] (up, down, total) =   4.98891  4.98893  9.97784
     Atomic magnetic moment for atom   2 =  -0.00002
     SPIN  1
     eigenvalues:
       0.997  0.997  0.997  0.999  0.999
     eigenvectors (columns):
      -0.001  0.003  0.002 -0.866  0.500
      -0.470  0.707  0.528  0.002 -0.003
      -0.747  0.000 -0.664  0.000  0.001
       0.002  0.002 -0.003 -0.500 -0.866
       0.470  0.707 -0.528  0.002  0.003
     occupation matrix ns (before diag.):
       0.999 -0.000  0.000 -0.000 -0.000
      -0.000  0.997 -0.000  0.000  0.000
       0.000 -0.000  0.997 -0.000  0.000
      -0.000  0.000 -0.000  0.999 -0.000
      -0.000  0.000  0.000 -0.000  0.997
     SPIN  2
     eigenvalues:
       0.997  0.997  0.997  0.999  0.999
     eigenvectors (columns):
      -0.001  0.001  0.002 -0.866 -0.500
       0.163 -0.688  0.707  0.001 -0.002
       0.973  0.231 -0.000  0.000 -0.001
       0.002 -0.002  0.001 -0.500  0.866
      -0.163  0.688  0.707  0.001  0.002
     occupation matrix ns (before diag.):
       0.999 -0.000  0.000 -0.000 -0.000
      -0.000  0.997 -0.000 -0.000  0.000
       0.000 -0.000  0.997 -0.000  0.000
      -0.000 -0.000 -0.000  0.999  0.000
      -0.000  0.000  0.000  0.000  0.997
     ------------------------ ATOM    3 ------------------------
     Tr[ns(  3)] (up, down, total) =   4.98891  4.98893  9.97784
     Atomic magnetic moment for atom   3 =  -0.00002
     SPIN  1
     eigenvalues:
       0.997  0.997  0.997  0.999  0.999
     eigenvectors (columns):
      -0.001  0.003  0.002 -0.866  0.500
      -0.747  0.000 -0.664  0.000  0.001
      -0.470  0.707  0.528  0.002 -0.003
      -0.002 -0.002  0.003  0.500  0.866
       0.470  0.707 -0.528  0.002  0.003
     occupation matrix ns (before diag.):
       0.999  0.000 -0.000  0.000 -0.000
       0.000  0.997 -0.000  0.000  0.000
      -0.000 -0.000  0.997 -0.000  0.000
       0.000  0.000 -0.000  0.999  0.000
      -0.000  0.000  0.000  0.000  0.997
     SPIN  2
     eigenvalues:
       0.997  0.997  0.997  0.999  0.999
     eigenvectors (columns):
      -0.001  0.001  0.002 -0.866 -0.500
       0.973  0.231  0.000  0.000 -0.001
       0.163 -0.688  0.707  0.001 -0.002
      -0.002  0.002 -0.001  0.500 -0.866
      -0.163  0.688  0.707  0.001  0.002
     occupation matrix ns (before diag.):
       0.999  0.000 -0.000  0.000 -0.000
       0.000  0.997 -0.000  0.000  0.000
      -0.000 -0.000  0.997  0.000  0.000
       0.000  0.000  0.000  0.999 -0.000
      -0.000  0.000  0.000 -0.000  0.997
     ------------------------ ATOM    4 ------------------------
     Tr[ns(  4)] (up, down, total) =   4.98891  4.98893  9.97784
     Atomic magnetic moment for atom   4 =  -0.00002
     SPIN  1
     eigenvalues:
       0.997  0.997  0.997  0.999  0.999
     eigenvectors (columns):
       0.002  0.000 -0.003  0.000  1.000
      -0.470  0.707  0.528  0.002  0.003
      -0.470 -0.707  0.528 -0.002  0.003
       0.000  0.003  0.000 -1.000  0.000
       0.747 -0.000  0.664  0.000  0.001
     occupation matrix ns (before diag.):
       0.999  0.000  0.000  0.000  0.000
       0.000  0.997 -0.000 -0.000  0.000
       0.000 -0.000  0.997  0.000  0.000
       0.000 -0.000  0.000  0.999 -0.000
       0.000  0.000  0.000 -0.000  0.997
     SPIN  2
     eigenvalues:
       0.997  0.997  0.997  0.999  0.999
     eigenvectors (columns):
      -0.002  0.002 -0.000 -0.000  1.000
      -0.163  0.688 -0.707 -0.001 -0.002
      -0.163  0.688  0.707  0.001 -0.002
       0.000 -0.000 -0.002  1.000  0.000
       0.973  0.231 -0.000 -0.000  0.001
     occupation matrix ns (before diag.):
       0.999 -0.000 -0.000  0.000  0.000
      -0.000  0.997 -0.000 -0.000  0.000
      -0.000 -0.000  0.997  0.000  0.000
       0.000 -0.000  0.000  0.999 -0.000
       0.000  0.000  0.000 -0.000  0.997
     ------------------------ ATOM    9 ------------------------
     Tr[ns(  9)] (up, down, total) =   4.98899  4.98898  9.97797
     Atomic magnetic moment for atom   9 =   0.00002
     SPIN  1
     eigenvalues:
       0.997  0.997  0.997  0.999  0.999
     eigenvectors (columns):
       0.008 -0.000  0.014 -0.000 -1.000
       0.100  0.707  0.700  0.005  0.010
       0.100 -0.707  0.700 -0.005  0.010
       0.000 -0.007 -0.000  1.000 -0.000
       0.990 -0.000 -0.141 -0.000  0.006
     occupation matrix ns (before diag.):
       0.999 -0.000 -0.000  0.000 -0.000
      -0.000  0.997  0.000  0.000 -0.000
      -0.000  0.000  0.997 -0.000 -0.000
       0.000  0.000 -0.000  0.999 -0.000
      -0.000 -0.000 -0.000 -0.000  0.997
     SPIN  2
     eigenvalues:
       0.997  0.997  0.997  0.999  0.999
     eigenvectors (columns):
       0.014 -0.002  0.000 -0.000  1.000
       0.275 -0.651  0.707 -0.004 -0.005
       0.275 -0.651 -0.707  0.004 -0.005
       0.000  0.000  0.005  1.000  0.000
       0.921  0.389 -0.000 -0.000 -0.012
     occupation matrix ns (before diag.):
       0.999 -0.000 -0.000  0.000 -0.000
      -0.000  0.997 -0.000 -0.000 -0.000
      -0.000 -0.000  0.997  0.000 -0.000
       0.000 -0.000  0.000  0.999 -0.000
      -0.000 -0.000 -0.000 -0.000  0.997
     ------------------------ ATOM   10 ------------------------
     Tr[ns( 10)] (up, down, total) =   4.98891  4.98890  9.97781
     Atomic magnetic moment for atom  10 =   0.00001
     SPIN  1
     eigenvalues:
       0.997  0.997  0.997  0.999  0.999
     eigenvectors (columns):
       0.009 -0.001  0.000 -0.913  0.408
      -0.464  0.851 -0.244 -0.007 -0.003
       0.882  0.420 -0.212  0.007 -0.002
      -0.004  0.004 -0.004  0.408  0.913
       0.078  0.314  0.946  0.002  0.002
     occupation matrix ns (before diag.):
       0.999  0.000 -0.000  0.000 -0.000
       0.000  0.997  0.000 -0.000 -0.000
      -0.000  0.000  0.997  0.000 -0.000
       0.000 -0.000  0.000  0.999  0.000
      -0.000 -0.000 -0.000  0.000  0.997
     SPIN  2
     eigenvalues:
       0.997  0.997  0.997  0.999  0.999
     eigenvectors (columns):
       0.009 -0.001 -0.009 -0.943 -0.332
      -0.797  0.534 -0.281 -0.003 -0.006
       0.599  0.757 -0.261  0.008 -0.000
      -0.002  0.004 -0.003 -0.332  0.943
      -0.073  0.377  0.923 -0.009 -0.002
     occupation matrix ns (before diag.):
       0.999  0.000 -0.000 -0.000  0.000
       0.000  0.997  0.000 -0.000 -0.000
      -0.000  0.000  0.997 -0.000  0.000
      -0.000 -0.000 -0.000  0.999  0.000
       0.000 -0.000  0.000  0.000  0.997
     ------------------------ ATOM   11 ------------------------
     Tr[ns( 11)] (up, down, total) =   4.98891  4.98890  9.97781
     Atomic magnetic moment for atom  11 =   0.00001
     SPIN  1
     eigenvalues:
       0.997  0.997  0.997  0.999  0.999
     eigenvectors (columns):
      -0.009  0.001  0.000 -0.913  0.408
      -0.882 -0.420 -0.212  0.007 -0.002
       0.464 -0.851 -0.244 -0.007 -0.003
      -0.004  0.004  0.004 -0.408 -0.913
      -0.078 -0.314  0.946  0.002  0.002
     occupation matrix ns (before diag.):
       0.999 -0.000  0.000 -0.000 -0.000
      -0.000  0.997  0.000 -0.000 -0.000
       0.000  0.000  0.997  0.000 -0.000
      -0.000 -0.000  0.000  0.999 -0.000
      -0.000 -0.000 -0.000 -0.000  0.997
     SPIN  2
     eigenvalues:
       0.997  0.997  0.997  0.999  0.999
     eigenvectors (columns):
       0.009 -0.001 -0.009 -0.943 -0.332
       0.599  0.757 -0.261  0.008 -0.000
      -0.797  0.534 -0.281 -0.003 -0.006
       0.002 -0.004  0.003  0.332 -0.943
      -0.073  0.377  0.923 -0.009 -0.002
     occupation matrix ns (before diag.):
       0.999 -0.000  0.000  0.000  0.000
      -0.000  0.997  0.000  0.000  0.000
       0.000  0.000  0.997  0.000 -0.000
       0.000  0.000  0.000  0.999 -0.000
       0.000  0.000 -0.000 -0.000  0.997
     ------------------------ ATOM   12 ------------------------
     Tr[ns( 12)] (up, down, total) =   4.98911  4.98912  9.97822
     Atomic magnetic moment for atom  12 =  -0.00001
     SPIN  1
     eigenvalues:
       0.997  0.997  0.997  0.999  0.999
     eigenvectors (columns):
      -0.003 -0.000  0.056 -0.000 -0.998
      -0.395  0.707  0.585 -0.003  0.034
      -0.395 -0.707  0.585  0.003  0.034
       0.000  0.005 -0.000  1.000 -0.000
       0.829 -0.000  0.558 -0.000  0.029
     occupation matrix ns (before diag.):
       0.999 -0.000 -0.000  0.000 -0.000
      -0.000  0.997  0.000 -0.000  0.000
      -0.000  0.000  0.997  0.000  0.000
       0.000 -0.000  0.000  0.999 -0.000
      -0.000  0.000  0.000 -0.000  0.997
     SPIN  2
     eigenvalues:
       0.997  0.997  0.997  0.999  0.999
     eigenvectors (columns):
      -0.001 -0.000  0.054 -0.000 -0.999
      -0.353  0.707  0.612 -0.003  0.033
      -0.353 -0.707  0.612  0.003  0.033
       0.000  0.004 -0.000  1.000 -0.000
       0.866 -0.000  0.499 -0.000  0.026
     occupation matrix ns (before diag.):
       0.999 -0.000 -0.000  0.000 -0.000
      -0.000  0.997  0.000 -0.000  0.000
      -0.000  0.000  0.997  0.000  0.000
       0.000 -0.000  0.000  0.999 -0.000
      -0.000  0.000  0.000 -0.000  0.997
     ------------------------ ATOM   17 ------------------------
     Tr[ns( 17)] (up, down, total) =   4.98899  4.98898  9.97797
     Atomic magnetic moment for atom  17 =   0.00002
     SPIN  1
     eigenvalues:
       0.997  0.997  0.997  0.999  0.999
     eigenvectors (columns):
      -0.004 -0.006  0.007  0.866 -0.500
      -0.990  0.000 -0.141 -0.000  0.006
       0.100  0.707 -0.700  0.005 -0.010
      -0.007  0.004  0.012 -0.500 -0.866
      -0.100  0.707  0.700  0.005  0.010
     occupation matrix ns (before diag.):
       0.999 -0.000  0.000  0.000 -0.000
      -0.000  0.997  0.000 -0.000 -0.000
       0.000  0.000  0.997  0.000 -0.000
       0.000 -0.000  0.000  0.999 -0.000
      -0.000 -0.000 -0.000 -0.000  0.997
     SPIN  2
     eigenvalues:
       0.997  0.997  0.997  0.999  0.999
     eigenvectors (columns):
      -0.007 -0.001  0.005 -0.866 -0.500
      -0.921  0.389  0.000  0.000  0.012
       0.275  0.651  0.707  0.004 -0.005
      -0.012 -0.002 -0.003  0.500 -0.866
      -0.275 -0.651  0.707  0.004  0.005
     occupation matrix ns (before diag.):
       0.999 -0.000 -0.000  0.000 -0.000
      -0.000  0.997  0.000 -0.000 -0.000
      -0.000  0.000  0.997  0.000  0.000
       0.000 -0.000  0.000  0.999 -0.000
      -0.000 -0.000  0.000 -0.000  0.997
     ------------------------ ATOM   18 ------------------------
     Tr[ns( 18)] (up, down, total) =   4.98891  4.98890  9.97781
     Atomic magnetic moment for atom  18 =   0.00001
     SPIN  1
     eigenvalues:
       0.997  0.997  0.997  0.999  0.999
     eigenvectors (columns):
      -0.001  0.003 -0.003  0.103 -0.995
      -0.078  0.314  0.946 -0.002 -0.002
       0.882 -0.420  0.212  0.007 -0.002
      -0.009 -0.002  0.002  0.995  0.103
       0.464  0.851 -0.244  0.007  0.003
     occupation matrix ns (before diag.):
       0.999  0.000  0.000 -0.000 -0.000
       0.000  0.997  0.000 -0.000 -0.000
       0.000  0.000  0.997  0.000 -0.000
      -0.000 -0.000  0.000  0.999  0.000
      -0.000 -0.000 -0.000  0.000  0.997
     SPIN  2
     eigenvalues:
       0.997  0.997  0.997  0.999  0.999
     eigenvectors (columns):
      -0.003 -0.003 -0.007 -0.759  0.651
       0.073 -0.377  0.923 -0.009 -0.002
       0.599  0.757  0.261 -0.008  0.000
      -0.009  0.003 -0.006 -0.651 -0.759
       0.797 -0.534 -0.281 -0.003 -0.006
     occupation matrix ns (before diag.):
       0.999  0.000  0.000 -0.000 -0.000
       0.000  0.997 -0.000  0.000 -0.000
       0.000 -0.000  0.997  0.000 -0.000
      -0.000  0.000  0.000  0.999  0.000
      -0.000 -0.000 -0.000  0.000  0.997
     ------------------------ ATOM   19 ------------------------
     Tr[ns( 19)] (up, down, total) =   4.98911  4.98912  9.97822
     Atomic magnetic moment for atom  19 =  -0.00001
     SPIN  1
     eigenvalues:
       0.997  0.997  0.997  0.999  0.999
     eigenvectors (columns):
       0.001 -0.004  0.028 -0.866 -0.499
      -0.829 -0.000  0.558  0.000  0.029
      -0.395 -0.707 -0.585  0.003 -0.034
       0.002  0.002  0.049  0.500 -0.865
       0.395 -0.707  0.585  0.003  0.034
     occupation matrix ns (before diag.):
       0.999 -0.000  0.000  0.000 -0.000
      -0.000  0.997 -0.000 -0.000  0.000
       0.000 -0.000  0.997  0.000 -0.000
       0.000 -0.000  0.000  0.999 -0.000
      -0.000  0.000 -0.000 -0.000  0.997
     SPIN  2
     eigenvalues:
       0.997  0.997  0.997  0.999  0.999
     eigenvectors (columns):
       0.001 -0.004  0.027 -0.866 -0.499
      -0.866 -0.000  0.499  0.000  0.026
      -0.353 -0.707 -0.612  0.003 -0.033
       0.001  0.002  0.046  0.500 -0.865
       0.353 -0.707  0.612  0.003  0.033
     occupation matrix ns (before diag.):
       0.999 -0.000  0.000  0.000 -0.000
      -0.000  0.997 -0.000 -0.000  0.000
       0.000 -0.000  0.997  0.000 -0.000
       0.000 -0.000  0.000  0.999 -0.000
      -0.000  0.000 -0.000 -0.000  0.997
     ------------------------ ATOM   20 ------------------------
     Tr[ns( 20)] (up, down, total) =   4.98891  4.98890  9.97781
     Atomic magnetic moment for atom  20 =   0.00001
     SPIN  1
     eigenvalues:
       0.997  0.997  0.997  0.999  0.999
     eigenvectors (columns):
       0.007 -0.004 -0.004  0.810 -0.587
       0.078  0.314 -0.946 -0.002  0.002
       0.464 -0.851 -0.244 -0.007  0.003
       0.006  0.001  0.002  0.587  0.810
       0.882  0.420  0.212 -0.007 -0.002
     occupation matrix ns (before diag.):
       0.999 -0.000 -0.000 -0.000 -0.000
      -0.000  0.997  0.000  0.000 -0.000
      -0.000  0.000  0.997 -0.000 -0.000
      -0.000  0.000 -0.000  0.999 -0.000
      -0.000 -0.000 -0.000 -0.000  0.997
     SPIN  2
     eigenvalues:
       0.997  0.997  0.997  0.999  0.999
     eigenvectors (columns):
      -0.006 -0.004 -0.002  0.184 -0.983
       0.073  0.377  0.923  0.009 -0.002
      -0.797 -0.534  0.281 -0.003  0.006
      -0.007  0.002 -0.009  0.983  0.184
      -0.599  0.757 -0.261 -0.008 -0.000
[...]
     1.0000   1.0000   1.0000   1.0000   1.0000   1.0000   1.0000   1.0000
     1.0000   1.0000   1.0000   1.0000   1.0000   1.0000   1.0000   1.0000
     1.0000   1.0000   1.0000   1.0000   1.0000   1.0000   1.0000   1.0000
     1.0000   1.0000   1.0000   1.0000   1.0000   1.0000   1.0000   1.0000
     1.0000   1.0000   1.0000   1.0000   1.0000   1.0000   1.0000   1.0000
     1.0000   1.0000   1.0000   1.0000   1.0000   1.0000   1.0000   1.0000
     1.0000   1.0000   1.0000   1.0000   1.0000   1.0000   1.0000   1.0000
     1.0000   1.0000   1.0000   1.0000   1.0000   1.0000   1.0000   1.0000
     1.0000   1.0000   1.0000   1.0000   1.0000   1.0000   1.0000   1.0000
     1.0000   1.0000   1.0000   1.0000   1.0000   1.0000   1.0000   1.0000
     1.0000   1.0000   1.0000   1.0000   1.0000   1.0000   1.0000   1.0000
     1.0000   1.0000   1.0000   1.0000   1.0000   1.0000   1.0000   1.0000
     1.0000   1.0000   1.0000   1.0000   1.0000   1.0000   1.0000   1.0000
     1.0000   0.0000   0.0000   0.0000   0.0000   0.0000   0.0000   0.0000
     0.0000   0.0000   0.0000   0.0000   0.0000   0.0000   0.0000   0.0000
     0.0000   0.0000   0.0000   0.0000   0.0000   0.0000   0.0000   0.0000
     0.0000   0.0000   0.0000   0.0000   0.0000   0.0000   0.0000   0.0000
     0.0000   0.0000   0.0000   0.0000   0.0000   0.0000   0.0000   0.0000
     0.0000   0.0000   0.0000   0.0000   0.0000   0.0000   0.0000   0.0000
     0.0000   0.0000   0.0000   0.0000   0.0000   0.0000   0.0000   0.0000
     0.0000   0.0000   0.0000

          k = 0.2500-0.2500 0.2500 (269935 PWs)   bands (ev):

  -103.7581 -61.1889 -61.1722 -61.1722  -7.5486  -7.3345  -7.3305  -7.3107
    -7.1686  -7.1625  -7.1369  -7.0391  -7.0308  -7.0296  -7.0071  -6.9772
    -6.9771  -6.9616  -6.9473  -6.9468  -6.9450  -6.8854  -6.8777  -6.8665
    -6.8500  -6.8489  -6.8192  -6.8187  -6.8181  -6.7906  -6.7890  -6.7887
    -6.4627  -6.3358  -6.3357  -3.8708  -3.8697  -3.8676  -3.8338  -3.8337
    -3.8308  -3.8305  -3.8242  -3.8225  -3.8200  -3.8173  -3.8137  -3.8129
    -3.8125  -3.8109  -3.8061  -3.8056  -3.7945  -3.7930  -3.7865  -3.7801
    -3.7794  -3.7757  -3.7744  -3.7733  -3.7692  -3.7690  -3.7658  -3.7644
    -3.7620  -3.7600  -3.7597  -3.7556  -3.7506  -3.7429  -3.7425  -3.7383
    -3.7368  -3.7358  -3.7319  -3.7313  -3.7263  -3.7251  -3.7194  -3.7121
    -3.7086  -3.7079  -3.7060  -3.7037  -3.7016  -3.7004  -3.6950  -3.6947
    -3.6920  -3.6896  -3.6859  -3.6858  -3.6823  -3.6818  -3.6770  -3.6735
    -3.6711  -3.6657  -3.6654  -3.6581  -3.6495  -3.6473  -3.6444  -3.6415
    -3.6399  -3.6378  -3.6370  -3.6310  -3.6293  -3.6264  -3.6262  -3.6243
    -3.6227  -3.6204  -3.6181  -3.6131  -3.6120  -3.6102  -3.6086  -3.6073
    -3.6046  -3.6045  -3.5963  -3.5932  -3.5913  -3.5904  -3.5885  -3.5857
    -3.5833  -3.5775  -3.5730  -3.5710  -3.5681  -3.5663  -3.5560  -3.5415
    -3.5387  -3.5360  -3.5180  -3.5165  -3.5145  -3.5121  -3.5070  -3.5055
    -3.5003  -3.4978  -3.4887  -3.4827  -3.4812  -3.4785  -3.4765  -3.4748
    -3.4735  -3.4694  -3.4654  -3.4615  -3.4559  -3.4533  -3.4296  -3.4210
    -3.4177  -3.4132  -3.3998  -3.3975  -3.3929  -3.3924  -3.3671  -3.3600
    -3.3225  -3.2902  -3.2323  -3.2093  -3.1986  -3.1892  -3.1810  -3.1715
    -3.1265  -3.0979  -3.0855  -3.0551  -3.0480  -3.0375  -3.0140  -3.0131
    -2.9963  -2.9666  -2.9480  -2.9406  -2.9378  -2.9299   0.4040   0.4226
     0.4396   0.6697   0.6851   0.6872   0.7198   0.7274   0.7285   0.7828
     0.7987   0.8001   0.8310   0.8679   0.8827   0.9562   1.0077   1.0507
     1.0541   1.1246   1.2460   1.3926   1.5742   1.6080   1.7096   1.8295
     1.8416   2.1487   2.4075   2.4307   2.4368   2.4527   2.4894   2.4913
     2.5648   2.5747   2.5816   2.6829   2.7126   2.8464   2.8503   2.8889
     2.9189   2.9895   3.0480   3.0605   3.0644   3.0990   3.1158   3.2098
     3.2212   3.2272   3.2322   3.2595   3.2902   3.3085   3.3795   3.4052
     3.4502   3.5150   3.5406   3.6171   3.6557   3.7251   3.7555   3.7613
     3.7643   3.7789   3.8165   3.8480   3.8557   3.8681   3.9062   3.9473
     3.9558   3.9841   3.9927   4.0271   4.0422   4.0503   4.1496   4.1869
     4.2581   4.3232   4.3381   4.3837   4.4072   4.4764   4.4807   4.5188
     4.5448   4.6113   4.7220   4.7660   4.9304   5.0116   5.4009   5.5245
     6.9019   8.1372   8.6622   8.6643   8.8326   9.1233   9.1998   9.2049
     9.2282   9.3384   9.3413   9.3932   9.4530   9.5196   9.5591   9.5643
     9.6508   9.7601   9.7787   9.8605   9.8998   9.9732   9.9774  10.0370
    10.0839  10.0862  10.1547  10.1633  10.1805  10.1968  10.2111  10.2250
    10.2359  10.2753  10.2761  10.3026  10.3817  10.5204  10.7397  10.8118
    10.9529  11.0159  11.0494  11.0977  11.2627  11.2731  11.2887  11.3097
    11.3301  11.3701  11.3948  11.5036  11.5084  11.5698  11.6897  11.7061
    11.7240  11.7756  11.8114

     occupation numbers 
     1.0000   1.0000   1.0000   1.0000   1.0000   1.0000   1.0000   1.0000
     1.0000   1.0000   1.0000   1.0000   1.0000   1.0000   1.0000   1.0000
     1.0000   1.0000   1.0000   1.0000   1.0000   1.0000   1.0000   1.0000
     1.0000   1.0000   1.0000   1.0000   1.0000   1.0000   1.0000   1.0000
     1.0000   1.0000   1.0000   1.0000   1.0000   1.0000   1.0000   1.0000
     1.0000   1.0000   1.0000   1.0000   1.0000   1.0000   1.0000   1.0000
     1.0000   1.0000   1.0000   1.0000   1.0000   1.0000   1.0000   1.0000
     1.0000   1.0000   1.0000   1.0000   1.0000   1.0000   1.0000   1.0000
     1.0000   1.0000   1.0000   1.0000   1.0000   1.0000   1.0000   1.0000
     1.0000   1.0000   1.0000   1.0000   1.0000   1.0000   1.0000   1.0000
     1.0000   1.0000   1.0000   1.0000   1.0000   1.0000   1.0000   1.0000
     1.0000   1.0000   1.0000   1.0000   1.0000   1.0000   1.0000   1.0000
     1.0000   1.0000   1.0000   1.0000   1.0000   1.0000   1.0000   1.0000
     1.0000   1.0000   1.0000   1.0000   1.0000   1.0000   1.0000   1.0000
     1.0000   1.0000   1.0000   1.0000   1.0000   1.0000   1.0000   1.0000
     1.0000   1.0000   1.0000   1.0000   1.0000   1.0000   1.0000   1.0000
     1.0000   1.0000   1.0000   1.0000   1.0000   1.0000   1.0000   1.0000
     1.0000   1.0000   1.0000   1.0000   1.0000   1.0000   1.0000   1.0000
     1.0000   1.0000   1.0000   1.0000   1.0000   1.0000   1.0000   1.0000
     1.0000   1.0000   1.0000   1.0000   1.0000   1.0000   1.0000   1.0000
     1.0000   1.0000   1.0000   1.0000   1.0000   1.0000   1.0000   1.0000
     1.0000   1.0000   1.0000   1.0000   1.0000   1.0000   1.0000   1.0000
     1.0000   1.0000   1.0000   1.0000   1.0000   1.0000   1.0000   1.0000
     1.0000   1.0000   1.0000   1.0000   1.0000   1.0000   1.0000   1.0000
     1.0000   1.0000   1.0000   1.0000   1.0000   1.0000   1.0000   1.0000
     1.0000   1.0000   1.0000   1.0000   1.0000   1.0000   1.0000   1.0000
     1.0000   1.0000   1.0000   1.0000   1.0000   1.0000   1.0000   1.0000
     1.0000   1.0000   1.0000   1.0000   1.0000   1.0000   1.0000   1.0000
     1.0000   1.0000   1.0000   1.0000   1.0000   1.0000   1.0000   1.0000
     1.0000   1.0000   1.0000   1.0000   1.0000   1.0000   1.0000   1.0000
     1.0000   1.0000   1.0000   1.0000   1.0000   1.0000   1.0000   1.0000
     1.0000   1.0000   1.0000   1.0000   1.0000   1.0000   1.0000   1.0000
     1.0000   1.0000   1.0000   1.0000   1.0000   1.0000   1.0000   1.0000
     1.0000   1.0000   1.0000   1.0000   1.0000   1.0000   1.0000   1.0000
     1.0000   1.0000   1.0000   1.0000   1.0000   1.0000   1.0000   1.0000
     1.0000   1.0000   1.0000   1.0000   1.0000   1.0000   1.0000   1.0000
     1.0000   0.0000   0.0000   0.0000   0.0000   0.0000   0.0000   0.0000
     0.0000   0.0000   0.0000   0.0000   0.0000   0.0000   0.0000   0.0000
     0.0000   0.0000   0.0000   0.0000   0.0000   0.0000   0.0000   0.0000
     0.0000   0.0000   0.0000   0.0000   0.0000   0.0000   0.0000   0.0000
     0.0000   0.0000   0.0000   0.0000   0.0000   0.0000   0.0000   0.0000
     0.0000   0.0000   0.0000   0.0000   0.0000   0.0000   0.0000   0.0000
     0.0000   0.0000   0.0000   0.0000   0.0000   0.0000   0.0000   0.0000
     0.0000   0.0000   0.0000

          k = 0.2500-0.2500-0.5000 (269988 PWs)   bands (ev):

  -103.7581 -61.1889 -61.1722 -61.1722  -7.4925  -7.4248  -7.2920  -7.2917
    -7.2332  -7.2031  -7.1448  -7.0420  -7.0196  -7.0178  -6.9802  -6.9758
    -6.9663  -6.9592  -6.9210  -6.9009  -6.8993  -6.8931  -6.8821  -6.8678
    -6.8602  -6.8466  -6.8345  -6.8291  -6.8155  -6.8065  -6.8034  -6.8021
    -6.4601  -6.3387  -6.3359  -3.8698  -3.8688  -3.8659  -3.8344  -3.8338
    -3.8308  -3.8295  -3.8284  -3.8256  -3.8208  -3.8168  -3.8144  -3.8129
    -3.8100  -3.8095  -3.8067  -3.7995  -3.7988  -3.7913  -3.7855  -3.7840
    -3.7789  -3.7775  -3.7751  -3.7710  -3.7691  -3.7662  -3.7652  -3.7625
    -3.7587  -3.7561  -3.7547  -3.7500  -3.7473  -3.7463  -3.7433  -3.7392
    -3.7390  -3.7378  -3.7357  -3.7345  -3.7275  -3.7202  -3.7175  -3.7122
    -3.7083  -3.7080  -3.7057  -3.7038  -3.7015  -3.6993  -3.6964  -3.6951
    -3.6941  -3.6892  -3.6867  -3.6842  -3.6828  -3.6813  -3.6773  -3.6726
    -3.6703  -3.6641  -3.6614  -3.6532  -3.6527  -3.6473  -3.6433  -3.6421
    -3.6389  -3.6380  -3.6376  -3.6356  -3.6310  -3.6293  -3.6274  -3.6252
    -3.6209  -3.6179  -3.6157  -3.6139  -3.6131  -3.6106  -3.6074  -3.6066
    -3.6050  -3.6027  -3.6003  -3.5981  -3.5930  -3.5893  -3.5887  -3.5873
    -3.5820  -3.5789  -3.5732  -3.5726  -3.5677  -3.5666  -3.5598  -3.5525
    -3.5409  -3.5376  -3.5327  -3.5167  -3.5149  -3.5124  -3.5111  -3.5068
    -3.5007  -3.4961  -3.4917  -3.4888  -3.4835  -3.4800  -3.4773  -3.4743
    -3.4729  -3.4694  -3.4662  -3.4613  -3.4570  -3.4499  -3.4393  -3.4237
    -3.4177  -3.4133  -3.4111  -3.3958  -3.3947  -3.3931  -3.3318  -3.3135
    -3.3051  -3.2874  -3.2411  -3.2221  -3.1998  -3.1811  -3.1620  -3.1354
    -3.1026  -3.0954  -3.0679  -3.0598  -3.0509  -3.0377  -3.0203  -3.0082
    -2.9981  -2.9857  -2.9783  -2.9691  -2.9576  -2.9457   0.4656   0.5307
     0.6024   0.6245   0.6714   0.6816   0.7011   0.7271   0.7290   0.7435
     0.7618   0.7798   0.8079   0.8348   0.8781   0.8998   0.9527   1.0601
     1.1590   1.2158   1.2501   1.2917   1.3206   1.4238   1.5908   1.8890
     2.1940   2.2532   2.2912   2.3612   2.3751   2.4125   2.4699   2.5538
     2.5645   2.6039   2.6434   2.6561   2.7129   2.7499   2.8221   2.8473
     3.0114   3.0480   3.1294   3.1492   3.1785   3.2265   3.2795   3.2975
     3.3051   3.3091   3.3328   3.3543   3.4011   3.4110   3.4252   3.4372
     3.4445   3.4766   3.4816   3.5011   3.5276   3.5598   3.5845   3.6146
     3.6333   3.6918   3.6975   3.7478   3.7909   3.8034   3.8830   3.9280
     3.9308   3.9546   3.9785   4.0308   4.1170   4.1379   4.1489   4.1995
     4.2202   4.2649   4.2716   4.3360   4.4528   4.4914   4.5622   4.6310
     4.6470   4.7132   4.7711   4.8053   4.8726   4.8782   5.4403   5.4977
     6.9278   8.3484   8.4459   8.8866   8.9444   9.0422   9.0920   9.2350
     9.2976   9.3280   9.3954   9.4862   9.5086   9.5392   9.5619   9.5796
     9.6383   9.6968   9.7129   9.7500   9.7875   9.8249   9.8425   9.8982
     9.9400   9.9639  10.0262  10.0489  10.0647  10.1377  10.1781  10.2780
    10.2949  10.3905  10.4254  10.5781  10.6627  10.7068  10.7263  10.7901
    10.8187  10.9137  11.0133  11.1023  11.1706  11.2199  11.3206  11.3845
    11.4192  11.4412  11.4532  11.4964  11.5295  11.5542  11.5812  11.5989
    11.6191  11.6220  11.6555

     occupation numbers 
     1.0000   1.0000   1.0000   1.0000   1.0000   1.0000   1.0000   1.0000
     1.0000   1.0000   1.0000   1.0000   1.0000   1.0000   1.0000   1.0000
     1.0000   1.0000   1.0000   1.0000   1.0000   1.0000   1.0000   1.0000
     1.0000   1.0000   1.0000   1.0000   1.0000   1.0000   1.0000   1.0000
     1.0000   1.0000   1.0000   1.0000   1.0000   1.0000   1.0000   1.0000
     1.0000   1.0000   1.0000   1.0000   1.0000   1.0000   1.0000   1.0000
     1.0000   1.0000   1.0000   1.0000   1.0000   1.0000   1.0000   1.0000
     1.0000   1.0000   1.0000   1.0000   1.0000   1.0000   1.0000   1.0000
     1.0000   1.0000   1.0000   1.0000   1.0000   1.0000   1.0000   1.0000
     1.0000   1.0000   1.0000   1.0000   1.0000   1.0000   1.0000   1.0000
     1.0000   1.0000   1.0000   1.0000   1.0000   1.0000   1.0000   1.0000
     1.0000   1.0000   1.0000   1.0000   1.0000   1.0000   1.0000   1.0000
     1.0000   1.0000   1.0000   1.0000   1.0000   1.0000   1.0000   1.0000
     1.0000   1.0000   1.0000   1.0000   1.0000   1.0000   1.0000   1.0000
     1.0000   1.0000   1.0000   1.0000   1.0000   1.0000   1.0000   1.0000
     1.0000   1.0000   1.0000   1.0000   1.0000   1.0000   1.0000   1.0000
     1.0000   1.0000   1.0000   1.0000   1.0000   1.0000   1.0000   1.0000
     1.0000   1.0000   1.0000   1.0000   1.0000   1.0000   1.0000   1.0000
     1.0000   1.0000   1.0000   1.0000   1.0000   1.0000   1.0000   1.0000
     1.0000   1.0000   1.0000   1.0000   1.0000   1.0000   1.0000   1.0000
     1.0000   1.0000   1.0000   1.0000   1.0000   1.0000   1.0000   1.0000
     1.0000   1.0000   1.0000   1.0000   1.0000   1.0000   1.0000   1.0000
     1.0000   1.0000   1.0000   1.0000   1.0000   1.0000   1.0000   1.0000
     1.0000   1.0000   1.0000   1.0000   1.0000   1.0000   1.0000   1.0000
     1.0000   1.0000   1.0000   1.0000   1.0000   1.0000   1.0000   1.0000
     1.0000   1.0000   1.0000   1.0000   1.0000   1.0000   1.0000   1.0000
     1.0000   1.0000   1.0000   1.0000   1.0000   1.0000   1.0000   1.0000
     1.0000   1.0000   1.0000   1.0000   1.0000   1.0000   1.0000   1.0000
     1.0000   1.0000   1.0000   1.0000   1.0000   1.0000   1.0000   1.0000
     1.0000   1.0000   1.0000   1.0000   1.0000   1.0000   1.0000   1.0000
     1.0000   1.0000   1.0000   1.0000   1.0000   1.0000   1.0000   1.0000
     1.0000   1.0000   1.0000   1.0000   1.0000   1.0000   1.0000   1.0000
     1.0000   1.0000   1.0000   1.0000   1.0000   1.0000   1.0000   1.0000
     1.0000   1.0000   1.0000   1.0000   1.0000   1.0000   1.0000   1.0000
     1.0000   1.0000   1.0000   1.0000   1.0000   1.0000   1.0000   1.0000
     1.0000   1.0000   1.0000   1.0000   1.0000   1.0000   1.0000   1.0000
     1.0000   0.0000   0.0000   0.0000   0.0000   0.0000   0.0000   0.0000
     0.0000   0.0000   0.0000   0.0000   0.0000   0.0000   0.0000   0.0000
     0.0000   0.0000   0.0000   0.0000   0.0000   0.0000   0.0000   0.0000
     0.0000   0.0000   0.0000   0.0000   0.0000   0.0000   0.0000   0.0000
     0.0000   0.0000   0.0000   0.0000   0.0000   0.0000   0.0000   0.0000
     0.0000   0.0000   0.0000   0.0000   0.0000   0.0000   0.0000   0.0000
     0.0000   0.0000   0.0000   0.0000   0.0000   0.0000   0.0000   0.0000
     0.0000   0.0000   0.0000

     the Fermi energy is     7.6104 ev

!    total energy              =  -10100.07212553 Ry
     total all-electron energy =   -139418.601174 Ry
     estimated scf accuracy    <          2.3E-09 Ry
     smearing contrib. (-TS)   =      -0.00000000 Ry
     internal energy E=F+TS    =  -10100.07212553 Ry

     The total energy is F=E-TS. E is the sum of the following terms:
     one-electron contribution =   -3087.52804625 Ry
     hartree contribution      =    2121.24284808 Ry
     xc contribution           =   -1662.44685074 Ry
     ewald contribution        =   -2984.70201120 Ry
     Hubbard energy            =       0.27014729 Ry
     one-center paw contrib.   =   -4486.90821272 Ry
      -> PAW hartree energy AE =     123.90661969 Ry
      -> PAW hartree energy PS =    -123.25981581 Ry
      -> PAW xc energy AE      =    -143.27797891 Ry
      -> PAW xc energy PS      =      47.21448915 Ry
      -> total E_H with PAW    =    2121.88965196 Ry
      -> total E_XC with PAW   =   -1758.51034049 Ry

     total magnetization       =    -0.00 Bohr mag/cell
     absolute magnetization    =     0.00 Bohr mag/cell

     convergence has been achieved in  14 iterations

     Writing all to output data dir ./out/Cu_vac_qn1_U4_unrlxd.save/
 
     init_run     :     10.85s CPU     12.53s WALL (       1 calls)
     electrons    :    181.36s CPU    186.07s WALL (       1 calls)

     Called by init_run:
     wfcinit      :      5.79s CPU      6.65s WALL (       1 calls)
     wfcinit:atom :      0.02s CPU      0.02s WALL (       2 calls)
     wfcinit:wfcr :      3.63s CPU      3.83s WALL (       2 calls)
     potinit      :      1.06s CPU      1.23s WALL (       1 calls)
     hinit0       :      1.24s CPU      1.40s WALL (       1 calls)

     Called by electrons:
     c_bands      :    159.81s CPU    161.94s WALL (      15 calls)
     sum_band     :     17.36s CPU     17.58s WALL (      15 calls)
     v_of_rho     :      1.21s CPU      1.31s WALL (      15 calls)
     v_h          :      0.05s CPU      0.05s WALL (      15 calls)
     v_xc         :      1.16s CPU      1.24s WALL (      15 calls)
     newd         :      0.46s CPU      0.54s WALL (      15 calls)
     PAW_pot      :      2.02s CPU      2.08s WALL (      15 calls)
     mix_rho      :      0.35s CPU      0.40s WALL (      15 calls)

     Called by c_bands:
     init_us_2    :      1.73s CPU      1.77s WALL (      64 calls)
     init_us_2:cp :      1.73s CPU      1.77s WALL (      64 calls)
     cegterg      :    126.46s CPU    128.21s WALL (      30 calls)

     Called by sum_band:
     sum_band:wei :      0.04s CPU      0.04s WALL (      15 calls)
     sum_band:loo :     11.48s CPU     11.58s WALL (      15 calls)
     sum_band:buf :      0.25s CPU      0.26s WALL (      30 calls)
     sum_band:ini :      0.83s CPU      0.84s WALL (      30 calls)
     sum_band:cal :      4.30s CPU      4.33s WALL (      30 calls)
     sum_band:bec :      0.08s CPU      0.09s WALL (      30 calls)
     addusdens    :      0.41s CPU      0.43s WALL (      15 calls)
                                        0.00s GPU  (      15 calls)
     addusd:skk   :      0.01s CPU      0.01s WALL (      45 calls)
                                        0.00s GPU  (      45 calls)

     Called by *egterg:
     cdiaghg      :     11.84s CPU     12.00s WALL (     181 calls)
     cegterg:over :      7.95s CPU      8.01s WALL (     153 calls)
     cegterg:upda :      8.48s CPU      8.56s WALL (     153 calls)
     cegterg:last :     12.70s CPU     12.78s WALL (      60 calls)
     cdiaghg:chol :      0.76s CPU      0.79s WALL (     181 calls)
     cdiaghg:inve :      1.13s CPU      1.13s WALL (     181 calls)
     cdiaghg:para :      1.83s CPU      1.84s WALL (     362 calls)
     h_psi        :     73.46s CPU     74.52s WALL (     185 calls)
     s_psi        :     12.30s CPU     12.40s WALL (     187 calls)
     g_psi        :      0.28s CPU      0.28s WALL (     153 calls)

     Called by h_psi:
     h_psi:calbec :     11.96s CPU     12.05s WALL (     185 calls)
     vloc_psi     :     30.41s CPU     30.73s WALL (     185 calls)
     add_vuspsi   :     12.46s CPU     12.62s WALL (     185 calls)
     vhpsi        :     18.16s CPU     18.32s WALL (     185 calls)

     General routines
     calbec       :     19.59s CPU     19.75s WALL (     432 calls)
     fft          :      0.99s CPU      1.24s WALL (     315 calls)
     ffts         :      0.09s CPU      0.09s WALL (      30 calls)
     fftw         :     33.60s CPU     33.95s WALL (   61992 calls)
     davcio       :      0.00s CPU      0.01s WALL (       2 calls)
 
     Parallel routines

     Hubbard U routines
     new_ns       :      1.24s CPU      1.28s WALL (      15 calls)
     vhpsi        :     18.16s CPU     18.32s WALL (     185 calls)

     PAW routines
     PAW_pot      :      2.02s CPU      2.08s WALL (      15 calls)
     PAW_symme    :      0.07s CPU      0.07s WALL (      30 calls)
 
     PWSCF        :   3m20.80s CPU   3m47.67s WALL

 
   This run was terminated on:  17:48:46  18Jul2024            

=------------------------------------------------------------------------------=
   JOB DONE.
=------------------------------------------------------------------------------=
