
     Program PWSCF v.7.2 starts on 28Jun2024 at 10: 6:15 

     This program is part of the open-source Quantum ESPRESSO suite
     for quantum simulation of materials; please cite
         "P. Giannozzi et al., J. Phys.:Condens. Matter 21 395502 (2009);
         "P. Giannozzi et al., J. Phys.:Condens. Matter 29 465901 (2017);
         "P. Giannozzi et al., J. Chem. Phys. 152 154105 (2020);
          URL http://www.quantum-espresso.org", 
     in publications or presentations arising from this work. More details at
     http://www.quantum-espresso.org/quote

     Parallel version (MPI), running on   560 processors

     MPI processes distributed on     5 nodes
     235791 MiB available memory on the printing compute node when the environment starts
 
     Reading input from 1.Cu_in_ZnS.relax.q0.in

     Current dimensions of program PWSCF are:
     Max number of different atomic species (ntypx) = 10
     Max number of k-points (npk) =  40000
     Max angular momentum in pseudopotentials (lmaxx) =  4
     file S.pbe-n-kjpaw_psl.1.0.0.UPF: wavefunction(s)  3S 3P renormalized
     file Zn.pbe-dnl-kjpaw_psl.1.0.0.UPF: wavefunction(s)  4S 3D renormalized
     file Cu.pbe-spn-kjpaw_psl.1.0.0.UPF: wavefunction(s)  4S 3P 3D renormalized
 
     K-points division:     npool     =       5
     R & G space division:  proc/nbgrp/npool/nimage =     112
     Subspace diagonalization in iterative solution of the eigenvalue problem:
     one sub-group per band group will be used
     scalapack distributed-memory algorithm (size of sub-group:  4*  4 procs)

 
     Parallelization info
     --------------------
     sticks:   dense  smooth     PW     G-vecs:    dense   smooth      PW
     Min         180     180     46                19282    19282    2562
     Max         181     181     47                19291    19291    2573
     Sum       20217   20217   5249              2160009  2160009  287777
 
     Using Slab Decomposition
 


     bravais-lattice index     =            1
     lattice parameter (alat)  =      20.5686  a.u.
     unit-cell volume          =    8701.8437 (a.u.)^3
     number of atoms/cell      =           64
     number of atomic types    =            3
     number of electrons       =       583.00
     number of Kohn-Sham states=          350
     kinetic-energy cutoff     =     150.0000  Ry
     charge density cutoff     =     600.0000  Ry
     scf convergence threshold =      1.0E-08
     mixing beta               =       0.7000
     number of iterations used =            8  plain     mixing
     energy convergence thresh.=      1.0E-05
     force convergence thresh. =      1.0E-04
     Exchange-correlation= SLA  PW   PBX  PBC
                           (   1   4   3   4   0   0   0)
     nstep                     =           50


     celldm(1)=  20.568554  celldm(2)=   0.000000  celldm(3)=   0.000000
     celldm(4)=   0.000000  celldm(5)=   0.000000  celldm(6)=   0.000000

     crystal axes: (cart. coord. in units of alat)
               a(1) = (   1.000000   0.000000   0.000000 )  
               a(2) = (   0.000000   1.000000   0.000000 )  
               a(3) = (   0.000000   0.000000   1.000000 )  

     reciprocal axes: (cart. coord. in units 2 pi/alat)
               b(1) = (  1.000000  0.000000  0.000000 )  
               b(2) = (  0.000000  1.000000  0.000000 )  
               b(3) = (  0.000000  0.000000  1.000000 )  


     PseudoPot. # 1 for S  read from file:
     /arf/home/amuhaymin/pseudo/S.pbe-n-kjpaw_psl.1.0.0.UPF
     MD5 check sum: fb45dfebcf3e72a4e1bd4a866ec2e262
     Pseudo is Projector augmented-wave + core cor, Zval =  6.0
     Generated using &quot;atomic&quot; code by A. Dal Corso  v.6.3
     Shape of augmentation charge: PSQ
     Using radial grid of 1151 points,  6 beta functions with: 
                l(1) =   0
                l(2) =   0
                l(3) =   1
                l(4) =   1
                l(5) =   2
                l(6) =   2
     Q(r) pseudized with 0 coefficients 


     PseudoPot. # 2 for Zn read from file:
     /arf/home/amuhaymin/pseudo/Zn.pbe-dnl-kjpaw_psl.1.0.0.UPF
     MD5 check sum: c608214d9520ac179f507641260889e3
     Pseudo is Projector augmented-wave + core cor, Zval = 12.0
     Generated using &quot;atomic&quot; code by A. Dal Corso  v.6.2.2
     Shape of augmentation charge: PSQ
     Using radial grid of 1201 points,  6 beta functions with: 
                l(1) =   0
                l(2) =   0
                l(3) =   1
                l(4) =   1
                l(5) =   2
                l(6) =   2
     Q(r) pseudized with 0 coefficients 


     PseudoPot. # 3 for Cu read from file:
     /arf/home/amuhaymin/pseudo/Cu.pbe-spn-kjpaw_psl.1.0.0.UPF
     MD5 check sum: e7cbaad2f97193e5fe23251a619a52b0
     Pseudo is Projector augmented-wave + core cor, Zval = 19.0
     Generated using &quot;atomic&quot; code by A. Dal Corso  v.6.3
     Shape of augmentation charge: PSQ
     Using radial grid of 1199 points,  6 beta functions with: 
                l(1) =   0
                l(2) =   0
                l(3) =   1
                l(4) =   1
                l(5) =   2
                l(6) =   2
     Q(r) pseudized with 0 coefficients 


     atomic species   valence    mass     pseudopotential
        S              6.00    32.06500     S ( 1.00)
        Zn            12.00    65.38000     Zn( 1.00)
        Cu            19.00    63.54600     Cu( 1.00)

     Starting magnetic structure 
     atomic species   magnetization
        S            0.000
        Zn           0.000
        Cu           0.053

     24 Sym. Ops. (no inversion) found


                                    s                        frac. trans.

      isym =  1     identity                                     

 cryst.   s( 1) = (     1          0          0      )
                  (     0          1          0      )
                  (     0          0          1      )

 cart.    s( 1) = (  1.0000000  0.0000000  0.0000000 )
                  (  0.0000000  1.0000000  0.0000000 )
                  (  0.0000000  0.0000000  1.0000000 )


      isym =  2     180 deg rotation - cart. axis [0,0,1]        

 cryst.   s( 2) = (    -1          0          0      )
                  (     0         -1          0      )
                  (     0          0          1      )

 cart.    s( 2) = ( -1.0000000  0.0000000  0.0000000 )
                  (  0.0000000 -1.0000000  0.0000000 )
                  (  0.0000000  0.0000000  1.0000000 )


      isym =  3     180 deg rotation - cart. axis [0,1,0]        

 cryst.   s( 3) = (    -1          0          0      )
                  (     0          1          0      )
                  (     0          0         -1      )

 cart.    s( 3) = ( -1.0000000  0.0000000  0.0000000 )
                  (  0.0000000  1.0000000  0.0000000 )
                  (  0.0000000  0.0000000 -1.0000000 )


      isym =  4     180 deg rotation - cart. axis [1,0,0]        

 cryst.   s( 4) = (     1          0          0      )
                  (     0         -1          0      )
                  (     0          0         -1      )

 cart.    s( 4) = (  1.0000000  0.0000000  0.0000000 )
                  (  0.0000000 -1.0000000  0.0000000 )
                  (  0.0000000  0.0000000 -1.0000000 )


      isym =  5     120 deg rotation - cart. axis [-1,-1,-1]     

 cryst.   s( 5) = (     0          0          1      )
                  (     1          0          0      )
                  (     0          1          0      )

 cart.    s( 5) = (  0.0000000  1.0000000  0.0000000 )
                  (  0.0000000  0.0000000  1.0000000 )
                  (  1.0000000  0.0000000  0.0000000 )


      isym =  6     120 deg rotation - cart. axis [-1,1,1]       

 cryst.   s( 6) = (     0          0         -1      )
                  (    -1          0          0      )
                  (     0          1          0      )

 cart.    s( 6) = (  0.0000000 -1.0000000  0.0000000 )
                  (  0.0000000  0.0000000  1.0000000 )
                  ( -1.0000000  0.0000000  0.0000000 )


      isym =  7     120 deg rotation - cart. axis [1,1,-1]       

 cryst.   s( 7) = (     0          0         -1      )
                  (     1          0          0      )
                  (     0         -1          0      )

 cart.    s( 7) = (  0.0000000  1.0000000  0.0000000 )
                  (  0.0000000  0.0000000 -1.0000000 )
                  ( -1.0000000  0.0000000  0.0000000 )


      isym =  8     120 deg rotation - cart. axis [1,-1,1]       

 cryst.   s( 8) = (     0          0          1      )
                  (    -1          0          0      )
                  (     0         -1          0      )

 cart.    s( 8) = (  0.0000000 -1.0000000  0.0000000 )
                  (  0.0000000  0.0000000 -1.0000000 )
                  (  1.0000000  0.0000000  0.0000000 )


      isym =  9     120 deg rotation - cart. axis [1,1,1]        

 cryst.   s( 9) = (     0          1          0      )
                  (     0          0          1      )
                  (     1          0          0      )

 cart.    s( 9) = (  0.0000000  0.0000000  1.0000000 )
                  (  1.0000000  0.0000000  0.0000000 )
                  (  0.0000000  1.0000000  0.0000000 )


      isym = 10     120 deg rotation - cart. axis [-1,1,-1]      

 cryst.   s(10) = (     0         -1          0      )
                  (     0          0         -1      )
                  (     1          0          0      )

 cart.    s(10) = (  0.0000000  0.0000000  1.0000000 )
                  ( -1.0000000  0.0000000  0.0000000 )
                  (  0.0000000 -1.0000000  0.0000000 )


      isym = 11     120 deg rotation - cart. axis [1,-1,-1]      

 cryst.   s(11) = (     0         -1          0      )
                  (     0          0          1      )
                  (    -1          0          0      )

 cart.    s(11) = (  0.0000000  0.0000000 -1.0000000 )
                  ( -1.0000000  0.0000000  0.0000000 )
                  (  0.0000000  1.0000000  0.0000000 )


      isym = 12     120 deg rotation - cart. axis [-1,-1,1]      

 cryst.   s(12) = (     0          1          0      )
                  (     0          0         -1      )
                  (    -1          0          0      )

 cart.    s(12) = (  0.0000000  0.0000000 -1.0000000 )
                  (  1.0000000  0.0000000  0.0000000 )
                  (  0.0000000 -1.0000000  0.0000000 )


      isym = 13     inv. 180 deg rotation - cart. axis [1,1,0]   

 cryst.   s(13) = (     0         -1          0      )
                  (    -1          0          0      )
                  (     0          0          1      )

 cart.    s(13) = (  0.0000000 -1.0000000  0.0000000 )
                  ( -1.0000000  0.0000000  0.0000000 )
                  (  0.0000000  0.0000000  1.0000000 )


      isym = 14     inv. 180 deg rotation - cart. axis [1,-1,0]  

 cryst.   s(14) = (     0          1          0      )
                  (     1          0          0      )
                  (     0          0          1      )

 cart.    s(14) = (  0.0000000  1.0000000  0.0000000 )
                  (  1.0000000  0.0000000  0.0000000 )
                  (  0.0000000  0.0000000  1.0000000 )


      isym = 15     inv.  90 deg rotation - cart. axis [0,0,-1]  

 cryst.   s(15) = (     0          1          0      )
                  (    -1          0          0      )
                  (     0          0         -1      )

 cart.    s(15) = (  0.0000000 -1.0000000  0.0000000 )
                  (  1.0000000  0.0000000  0.0000000 )
                  (  0.0000000  0.0000000 -1.0000000 )


      isym = 16     inv.  90 deg rotation - cart. axis [0,0,1]   

 cryst.   s(16) = (     0         -1          0      )
                  (     1          0          0      )
                  (     0          0         -1      )

 cart.    s(16) = (  0.0000000  1.0000000  0.0000000 )
                  ( -1.0000000  0.0000000  0.0000000 )
                  (  0.0000000  0.0000000 -1.0000000 )


      isym = 17     inv. 180 deg rotation - cart. axis [1,0,1]   

 cryst.   s(17) = (     0          0         -1      )
                  (     0          1          0      )
                  (    -1          0          0      )

 cart.    s(17) = (  0.0000000  0.0000000 -1.0000000 )
                  (  0.0000000  1.0000000  0.0000000 )
                  ( -1.0000000  0.0000000  0.0000000 )


      isym = 18     inv. 180 deg rotation - cart. axis [-1,0,1]  

 cryst.   s(18) = (     0          0          1      )
                  (     0          1          0      )
                  (     1          0          0      )

 cart.    s(18) = (  0.0000000  0.0000000  1.0000000 )
                  (  0.0000000  1.0000000  0.0000000 )
                  (  1.0000000  0.0000000  0.0000000 )


      isym = 19     inv.  90 deg rotation - cart. axis [0,1,0]   

 cryst.   s(19) = (     0          0          1      )
                  (     0         -1          0      )
                  (    -1          0          0      )

 cart.    s(19) = (  0.0000000  0.0000000 -1.0000000 )
                  (  0.0000000 -1.0000000  0.0000000 )
                  (  1.0000000  0.0000000  0.0000000 )


      isym = 20     inv.  90 deg rotation - cart. axis [0,-1,0]  

 cryst.   s(20) = (     0          0         -1      )
                  (     0         -1          0      )
                  (     1          0          0      )

 cart.    s(20) = (  0.0000000  0.0000000  1.0000000 )
                  (  0.0000000 -1.0000000  0.0000000 )
                  ( -1.0000000  0.0000000  0.0000000 )


      isym = 21     inv. 180 deg rotation - cart. axis [0,1,1]   

 cryst.   s(21) = (     1          0          0      )
                  (     0          0         -1      )
                  (     0         -1          0      )

 cart.    s(21) = (  1.0000000  0.0000000  0.0000000 )
                  (  0.0000000  0.0000000 -1.0000000 )
                  (  0.0000000 -1.0000000  0.0000000 )


      isym = 22     inv. 180 deg rotation - cart. axis [0,1,-1]  

 cryst.   s(22) = (     1          0          0      )
                  (     0          0          1      )
                  (     0          1          0      )

 cart.    s(22) = (  1.0000000  0.0000000  0.0000000 )
                  (  0.0000000  0.0000000  1.0000000 )
                  (  0.0000000  1.0000000  0.0000000 )


      isym = 23     inv.  90 deg rotation - cart. axis [-1,0,0]  

 cryst.   s(23) = (    -1          0          0      )
                  (     0          0          1      )
                  (     0         -1          0      )

 cart.    s(23) = ( -1.0000000  0.0000000  0.0000000 )
                  (  0.0000000  0.0000000 -1.0000000 )
                  (  0.0000000  1.0000000  0.0000000 )


      isym = 24     inv.  90 deg rotation - cart. axis [1,0,0]   

 cryst.   s(24) = (    -1          0          0      )
                  (     0          0         -1      )
                  (     0          1          0      )

 cart.    s(24) = ( -1.0000000  0.0000000  0.0000000 )
                  (  0.0000000  0.0000000  1.0000000 )
                  (  0.0000000 -1.0000000  0.0000000 )


     point group T_d (-43m) 
     there are  5 classes
     the character table:

       E     8C3   3C2   6S4   6s_d 
A_1    1.00  1.00  1.00  1.00  1.00
A_2    1.00  1.00  1.00 -1.00 -1.00
E      2.00 -1.00  2.00  0.00  0.00
T_1    3.00  0.00 -1.00  1.00 -1.00
T_2    3.00  0.00 -1.00 -1.00  1.00

     the symmetry operations in each class and the name of the first element:

     E        1
          identity                                               
     8C3      5    7    8    6   12    9   10   11
          120 deg rotation - cart. axis [-1,-1,-1]               
     3C2      2    3    4
          180 deg rotation - cart. axis [0,0,1]                  
     6S4     15   16   20   19   23   24
          inv.  90 deg rotation - cart. axis [0,0,-1]            
     6s_d    13   14   17   18   21   22
          inv. 180 deg rotation - cart. axis [1,1,0]             

   Cartesian axes

     site n.     atom                  positions (alat units)
         1           Zn  tau(   1) = (   0.0000000   0.0000000   0.0000000  )
         2           Zn  tau(   2) = (   0.0000000   0.2500000   0.2500000  )
         3           Zn  tau(   3) = (   0.2500000   0.0000000   0.2500000  )
         4           Zn  tau(   4) = (   0.2500000   0.2500000   0.0000000  )
         5           S   tau(   5) = (   0.1250000   0.3750000   0.3750000  )
         6           S   tau(   6) = (   0.1250000   0.1250000   0.1250000  )
         7           S   tau(   7) = (   0.3750000   0.3750000   0.1250000  )
         8           S   tau(   8) = (   0.3750000   0.1250000   0.3750000  )
         9           Zn  tau(   9) = (   0.0000000   0.0000000   0.5000000  )
        10           Zn  tau(  10) = (   0.0000000   0.2500000   0.7500000  )
        11           Zn  tau(  11) = (   0.2500000   0.0000000   0.7500000  )
        12           Zn  tau(  12) = (   0.2500000   0.2500000   0.5000000  )
        13           S   tau(  13) = (   0.1250000   0.3750000   0.8750000  )
        14           S   tau(  14) = (   0.1250000   0.1250000   0.6250000  )
        15           S   tau(  15) = (   0.3750000   0.3750000   0.6250000  )
        16           S   tau(  16) = (   0.3750000   0.1250000   0.8750000  )
        17           Zn  tau(  17) = (   0.0000000   0.5000000   0.0000000  )
        18           Zn  tau(  18) = (   0.0000000   0.7500000   0.2500000  )
        19           Zn  tau(  19) = (   0.2500000   0.5000000   0.2500000  )
        20           Zn  tau(  20) = (   0.2500000   0.7500000   0.0000000  )
        21           S   tau(  21) = (   0.1250000   0.8750000   0.3750000  )
        22           S   tau(  22) = (   0.1250000   0.6250000   0.1250000  )
        23           S   tau(  23) = (   0.3750000   0.8750000   0.1250000  )
        24           S   tau(  24) = (   0.3750000   0.6250000   0.3750000  )
        25           Zn  tau(  25) = (   0.0000000   0.5000000   0.5000000  )
        26           Zn  tau(  26) = (   0.0000000   0.7500000   0.7500000  )
        27           Zn  tau(  27) = (   0.2500000   0.5000000   0.7500000  )
        28           Zn  tau(  28) = (   0.2500000   0.7500000   0.5000000  )
        29           S   tau(  29) = (   0.1250000   0.8750000   0.8750000  )
        30           S   tau(  30) = (   0.1250000   0.6250000   0.6250000  )
        31           S   tau(  31) = (   0.3750000   0.8750000   0.6250000  )
        32           S   tau(  32) = (   0.3750000   0.6250000   0.8750000  )
        33           Zn  tau(  33) = (   0.5000000   0.0000000   0.0000000  )
        34           Zn  tau(  34) = (   0.5000000   0.2500000   0.2500000  )
        35           Zn  tau(  35) = (   0.7500000   0.0000000   0.2500000  )
        36           Zn  tau(  36) = (   0.7500000   0.2500000   0.0000000  )
        37           S   tau(  37) = (   0.6250000   0.3750000   0.3750000  )
        38           S   tau(  38) = (   0.6250000   0.1250000   0.1250000  )
        39           S   tau(  39) = (   0.8750000   0.3750000   0.1250000  )
        40           S   tau(  40) = (   0.8750000   0.1250000   0.3750000  )
        41           Zn  tau(  41) = (   0.5000000   0.0000000   0.5000000  )
        42           Zn  tau(  42) = (   0.5000000   0.2500000   0.7500000  )
        43           Zn  tau(  43) = (   0.7500000   0.0000000   0.7500000  )
        44           Zn  tau(  44) = (   0.7500000   0.2500000   0.5000000  )
        45           S   tau(  45) = (   0.6250000   0.3750000   0.8750000  )
        46           S   tau(  46) = (   0.6250000   0.1250000   0.6250000  )
        47           S   tau(  47) = (   0.8750000   0.3750000   0.6250000  )
        48           S   tau(  48) = (   0.8750000   0.1250000   0.8750000  )
        49           Zn  tau(  49) = (   0.5000000   0.5000000   0.0000000  )
        50           Zn  tau(  50) = (   0.5000000   0.7500000   0.2500000  )
        51           Zn  tau(  51) = (   0.7500000   0.5000000   0.2500000  )
        52           Zn  tau(  52) = (   0.7500000   0.7500000   0.0000000  )
        53           S   tau(  53) = (   0.6250000   0.8750000   0.3750000  )
        54           S   tau(  54) = (   0.6250000   0.6250000   0.1250000  )
        55           S   tau(  55) = (   0.8750000   0.8750000   0.1250000  )
        56           S   tau(  56) = (   0.8750000   0.6250000   0.3750000  )
        57           Cu  tau(  57) = (   0.5000000   0.5000000   0.5000000  )
        58           Zn  tau(  58) = (   0.5000000   0.7500000   0.7500000  )
        59           Zn  tau(  59) = (   0.7500000   0.5000000   0.7500000  )
        60           Zn  tau(  60) = (   0.7500000   0.7500000   0.5000000  )
        61           S   tau(  61) = (   0.6250000   0.8750000   0.8750000  )
        62           S   tau(  62) = (   0.6250000   0.6250000   0.6250000  )
        63           S   tau(  63) = (   0.8750000   0.8750000   0.6250000  )
        64           S   tau(  64) = (   0.8750000   0.6250000   0.8750000  )

   Crystallographic axes

     site n.     atom                  positions (cryst. coord.)
         1           Zn  tau(   1) = (  0.0000000  0.0000000  0.0000000  )
         2           Zn  tau(   2) = (  0.0000000  0.2500000  0.2500000  )
         3           Zn  tau(   3) = (  0.2500000  0.0000000  0.2500000  )
         4           Zn  tau(   4) = (  0.2500000  0.2500000  0.0000000  )
         5           S   tau(   5) = (  0.1250000  0.3750000  0.3750000  )
         6           S   tau(   6) = (  0.1250000  0.1250000  0.1250000  )
         7           S   tau(   7) = (  0.3750000  0.3750000  0.1250000  )
         8           S   tau(   8) = (  0.3750000  0.1250000  0.3750000  )
         9           Zn  tau(   9) = (  0.0000000  0.0000000  0.5000000  )
        10           Zn  tau(  10) = (  0.0000000  0.2500000  0.7500000  )
        11           Zn  tau(  11) = (  0.2500000  0.0000000  0.7500000  )
        12           Zn  tau(  12) = (  0.2500000  0.2500000  0.5000000  )
        13           S   tau(  13) = (  0.1250000  0.3750000  0.8750000  )
        14           S   tau(  14) = (  0.1250000  0.1250000  0.6250000  )
        15           S   tau(  15) = (  0.3750000  0.3750000  0.6250000  )
        16           S   tau(  16) = (  0.3750000  0.1250000  0.8750000  )
        17           Zn  tau(  17) = (  0.0000000  0.5000000  0.0000000  )
        18           Zn  tau(  18) = (  0.0000000  0.7500000  0.2500000  )
        19           Zn  tau(  19) = (  0.2500000  0.5000000  0.2500000  )
        20           Zn  tau(  20) = (  0.2500000  0.7500000  0.0000000  )
        21           S   tau(  21) = (  0.1250000  0.8750000  0.3750000  )
        22           S   tau(  22) = (  0.1250000  0.6250000  0.1250000  )
        23           S   tau(  23) = (  0.3750000  0.8750000  0.1250000  )
        24           S   tau(  24) = (  0.3750000  0.6250000  0.3750000  )
        25           Zn  tau(  25) = (  0.0000000  0.5000000  0.5000000  )
        26           Zn  tau(  26) = (  0.0000000  0.7500000  0.7500000  )
        27           Zn  tau(  27) = (  0.2500000  0.5000000  0.7500000  )
        28           Zn  tau(  28) = (  0.2500000  0.7500000  0.5000000  )
        29           S   tau(  29) = (  0.1250000  0.8750000  0.8750000  )
        30           S   tau(  30) = (  0.1250000  0.6250000  0.6250000  )
        31           S   tau(  31) = (  0.3750000  0.8750000  0.6250000  )
        32           S   tau(  32) = (  0.3750000  0.6250000  0.8750000  )
        33           Zn  tau(  33) = (  0.5000000  0.0000000  0.0000000  )
        34           Zn  tau(  34) = (  0.5000000  0.2500000  0.2500000  )
        35           Zn  tau(  35) = (  0.7500000  0.0000000  0.2500000  )
        36           Zn  tau(  36) = (  0.7500000  0.2500000  0.0000000  )
        37           S   tau(  37) = (  0.6250000  0.3750000  0.3750000  )
        38           S   tau(  38) = (  0.6250000  0.1250000  0.1250000  )
        39           S   tau(  39) = (  0.8750000  0.3750000  0.1250000  )
        40           S   tau(  40) = (  0.8750000  0.1250000  0.3750000  )
        41           Zn  tau(  41) = (  0.5000000  0.0000000  0.5000000  )
        42           Zn  tau(  42) = (  0.5000000  0.2500000  0.7500000  )
        43           Zn  tau(  43) = (  0.7500000  0.0000000  0.7500000  )
        44           Zn  tau(  44) = (  0.7500000  0.2500000  0.5000000  )
        45           S   tau(  45) = (  0.6250000  0.3750000  0.8750000  )
        46           S   tau(  46) = (  0.6250000  0.1250000  0.6250000  )
        47           S   tau(  47) = (  0.8750000  0.3750000  0.6250000  )
        48           S   tau(  48) = (  0.8750000  0.1250000  0.8750000  )
        49           Zn  tau(  49) = (  0.5000000  0.5000000  0.0000000  )
        50           Zn  tau(  50) = (  0.5000000  0.7500000  0.2500000  )
        51           Zn  tau(  51) = (  0.7500000  0.5000000  0.2500000  )
        52           Zn  tau(  52) = (  0.7500000  0.7500000  0.0000000  )
        53           S   tau(  53) = (  0.6250000  0.8750000  0.3750000  )
        54           S   tau(  54) = (  0.6250000  0.6250000  0.1250000  )
        55           S   tau(  55) = (  0.8750000  0.8750000  0.1250000  )
        56           S   tau(  56) = (  0.8750000  0.6250000  0.3750000  )
        57           Cu  tau(  57) = (  0.5000000  0.5000000  0.5000000  )
        58           Zn  tau(  58) = (  0.5000000  0.7500000  0.7500000  )
        59           Zn  tau(  59) = (  0.7500000  0.5000000  0.7500000  )
        60           Zn  tau(  60) = (  0.7500000  0.7500000  0.5000000  )
        61           S   tau(  61) = (  0.6250000  0.8750000  0.8750000  )
        62           S   tau(  62) = (  0.6250000  0.6250000  0.6250000  )
        63           S   tau(  63) = (  0.8750000  0.8750000  0.6250000  )
        64           S   tau(  64) = (  0.8750000  0.6250000  0.8750000  )

     number of k points=    10  Gaussian smearing, width (Ry)=  0.0010
                       cart. coord. in units 2pi/alat
        k(    1) = (   0.0000000   0.0000000   0.0000000), wk =   0.0156250
        k(    2) = (   0.0000000   0.0000000   0.2500000), wk =   0.0937500
        k(    3) = (   0.0000000   0.0000000  -0.5000000), wk =   0.0468750
        k(    4) = (   0.0000000   0.2500000   0.2500000), wk =   0.1875000
        k(    5) = (   0.0000000   0.2500000  -0.5000000), wk =   0.1875000
        k(    6) = (   0.0000000  -0.5000000  -0.5000000), wk =   0.0468750
        k(    7) = (   0.2500000   0.2500000   0.2500000), wk =   0.1250000
        k(    8) = (   0.2500000   0.2500000  -0.5000000), wk =   0.1875000
        k(    9) = (   0.2500000  -0.5000000  -0.5000000), wk =   0.0937500
        k(   10) = (  -0.5000000  -0.5000000  -0.5000000), wk =   0.0156250

                       cryst. coord.
        k(    1) = (   0.0000000   0.0000000   0.0000000), wk =   0.0156250
        k(    2) = (   0.0000000   0.0000000   0.2500000), wk =   0.0937500
        k(    3) = (   0.0000000   0.0000000  -0.5000000), wk =   0.0468750
        k(    4) = (   0.0000000   0.2500000   0.2500000), wk =   0.1875000
        k(    5) = (   0.0000000   0.2500000  -0.5000000), wk =   0.1875000
        k(    6) = (   0.0000000  -0.5000000  -0.5000000), wk =   0.0468750
        k(    7) = (   0.2500000   0.2500000   0.2500000), wk =   0.1250000
        k(    8) = (   0.2500000   0.2500000  -0.5000000), wk =   0.1875000
        k(    9) = (   0.2500000  -0.5000000  -0.5000000), wk =   0.0937500
        k(   10) = (  -0.5000000  -0.5000000  -0.5000000), wk =   0.0156250

     Dense  grid:  2160009 G-vectors     FFT dimensions: ( 162, 162, 162)

     Dynamical RAM for                 wfc:      12.87 MB

     Dynamical RAM for     wfc (w. buffer):      64.35 MB

     Dynamical RAM for           str. fact:       0.88 MB

     Dynamical RAM for           local pot:       0.00 MB

     Dynamical RAM for          nlocal pot:      42.36 MB

     Dynamical RAM for                qrad:       5.90 MB

     Dynamical RAM for          rho,v,vnew:       4.17 MB

     Dynamical RAM for               rhoin:       1.39 MB

     Dynamical RAM for            rho*nmix:       9.42 MB

     Dynamical RAM for           G-vectors:       1.25 MB

     Dynamical RAM for          h,s,v(r/c):       1.40 MB

     Dynamical RAM for          <psi|beta>:       6.15 MB

     Dynamical RAM for                 psi:      25.74 MB

     Dynamical RAM for                hpsi:      25.74 MB

     Dynamical RAM for                spsi:      25.74 MB

     Dynamical RAM for      wfcinit/wfcrot:      34.65 MB

     Dynamical RAM for           addusdens:      13.36 MB

     Dynamical RAM for          addusforce:      17.02 MB

     Dynamical RAM for         addusstress:      12.15 MB

     Estimated static dynamical RAM per process >     123.88 MB

     Estimated max dynamical RAM per process >     218.08 MB

     Estimated total dynamical RAM >     115.14 GB
     Generating pointlists ...
     new r_m :   0.0893 (alat units)  1.8370 (a.u.) for type    1
     new r_m :   0.0893 (alat units)  1.8370 (a.u.) for type    2
     new r_m :   0.0893 (alat units)  1.8370 (a.u.) for type    3

     Initial potential from superposition of free atoms

     starting charge     582.8832, renormalised to     583.0000
     Starting wfcs are  417 randomized atomic wfcs
     Checking if some PAW data can be deallocated... 
       PAW data deallocated on  280 nodes for type:  1
       PAW data deallocated on  288 nodes for type:  2
       PAW data deallocated on  552 nodes for type:  3

     total cpu time spent up to now is       12.9 secs

     Self-consistent Calculation

     iteration #  1     ecut=   150.00 Ry     beta= 0.70
     Davidson diagonalization with overlap

---- Real-time Memory Report at c_bands before calling an iterative solver
          1321 MiB given to the printing process from OS
             0 MiB allocation reported by mallinfo(arena+hblkhd)
        208405 MiB available memory on the node where the printing process lives
------------------
     ethr =  1.00E-02,  avg # of iterations =  4.8

     Threshold (ethr) on eigenvalues was too large:
     Diagonalizing with lowered threshold

     Davidson diagonalization with overlap

---- Real-time Memory Report at c_bands before calling an iterative solver
          1452 MiB given to the printing process from OS
             0 MiB allocation reported by mallinfo(arena+hblkhd)
        205317 MiB available memory on the node where the printing process lives
------------------
     ethr =  5.88E-04,  avg # of iterations =  2.0

     total cpu time spent up to now is       49.5 secs

     total energy              =  -10165.53654035 Ry
     estimated scf accuracy    <       3.48415574 Ry

     total magnetization       =     1.03 Bohr mag/cell
     absolute magnetization    =     1.19 Bohr mag/cell

     iteration #  2     ecut=   150.00 Ry     beta= 0.70
     Davidson diagonalization with overlap

---- Real-time Memory Report at c_bands before calling an iterative solver
          1466 MiB given to the printing process from OS
             0 MiB allocation reported by mallinfo(arena+hblkhd)
        205263 MiB available memory on the node where the printing process lives
------------------
     ethr =  5.98E-04,  avg # of iterations =  6.0

     total cpu time spent up to now is       73.4 secs

     total energy              =  -10166.18442293 Ry
     estimated scf accuracy    <       9.59986701 Ry

     total magnetization       =     0.00 Bohr mag/cell
     absolute magnetization    =     0.11 Bohr mag/cell

     iteration #  3     ecut=   150.00 Ry     beta= 0.70
     Davidson diagonalization with overlap

---- Real-time Memory Report at c_bands before calling an iterative solver
          1487 MiB given to the printing process from OS
             0 MiB allocation reported by mallinfo(arena+hblkhd)
        205026 MiB available memory on the node where the printing process lives
------------------
     ethr =  5.98E-04,  avg # of iterations =  5.8

     total cpu time spent up to now is       92.3 secs

     total energy              =  -10167.28845531 Ry
     estimated scf accuracy    <       0.40379037 Ry

     total magnetization       =     1.00 Bohr mag/cell
     absolute magnetization    =     1.00 Bohr mag/cell

     iteration #  4     ecut=   150.00 Ry     beta= 0.70
     Davidson diagonalization with overlap

---- Real-time Memory Report at c_bands before calling an iterative solver
          1501 MiB given to the printing process from OS
             0 MiB allocation reported by mallinfo(arena+hblkhd)
        204780 MiB available memory on the node where the printing process lives
------------------
     ethr =  6.93E-05,  avg # of iterations = 12.5

     total cpu time spent up to now is      118.8 secs

     total energy              =  -10167.32622458 Ry
     estimated scf accuracy    <       0.42356404 Ry

     total magnetization       =     0.28 Bohr mag/cell
     absolute magnetization    =     0.34 Bohr mag/cell

     iteration #  5     ecut=   150.00 Ry     beta= 0.70
     Davidson diagonalization with overlap

---- Real-time Memory Report at c_bands before calling an iterative solver
          1519 MiB given to the printing process from OS
             0 MiB allocation reported by mallinfo(arena+hblkhd)
        204553 MiB available memory on the node where the printing process lives
------------------
     ethr =  6.93E-05,  avg # of iterations =  8.7

     total cpu time spent up to now is      139.1 secs

     total energy              =  -10167.37533953 Ry
     estimated scf accuracy    <       0.14496050 Ry

     total magnetization       =     1.00 Bohr mag/cell
     absolute magnetization    =     1.01 Bohr mag/cell

     iteration #  6     ecut=   150.00 Ry     beta= 0.70
     Davidson diagonalization with overlap

---- Real-time Memory Report at c_bands before calling an iterative solver
          1530 MiB given to the printing process from OS
             0 MiB allocation reported by mallinfo(arena+hblkhd)
        204355 MiB available memory on the node where the printing process lives
------------------
     ethr =  2.49E-05,  avg # of iterations =  4.1

     total cpu time spent up to now is      155.9 secs

     total energy              =  -10167.39551000 Ry
     estimated scf accuracy    <       0.12675659 Ry

     total magnetization       =     0.53 Bohr mag/cell
     absolute magnetization    =     0.56 Bohr mag/cell

     iteration #  7     ecut=   150.00 Ry     beta= 0.70
     Davidson diagonalization with overlap

---- Real-time Memory Report at c_bands before calling an iterative solver
          1540 MiB given to the printing process from OS
             0 MiB allocation reported by mallinfo(arena+hblkhd)
        204129 MiB available memory on the node where the printing process lives
------------------
     ethr =  2.17E-05,  avg # of iterations =  2.0

     total cpu time spent up to now is      170.5 secs

     total energy              =  -10167.40681147 Ry
     estimated scf accuracy    <       0.00356536 Ry

     total magnetization       =     1.00 Bohr mag/cell
     absolute magnetization    =     1.01 Bohr mag/cell

     iteration #  8     ecut=   150.00 Ry     beta= 0.70
     Davidson diagonalization with overlap

---- Real-time Memory Report at c_bands before calling an iterative solver
          1545 MiB given to the printing process from OS
             0 MiB allocation reported by mallinfo(arena+hblkhd)
        203945 MiB available memory on the node where the printing process lives
------------------
     c_bands:  1 eigenvalues not converged
     c_bands:  1 eigenvalues not converged
     ethr =  6.12E-07,  avg # of iterations = 17.9

     total cpu time spent up to now is      196.5 secs

     total energy              =  -10167.40731370 Ry
     estimated scf accuracy    <       0.00032356 Ry

     total magnetization       =     1.00 Bohr mag/cell
     absolute magnetization    =     1.02 Bohr mag/cell

     iteration #  9     ecut=   150.00 Ry     beta= 0.70
     Davidson diagonalization with overlap

---- Real-time Memory Report at c_bands before calling an iterative solver
          1563 MiB given to the printing process from OS
             0 MiB allocation reported by mallinfo(arena+hblkhd)
        203702 MiB available memory on the node where the printing process lives
------------------
     ethr =  5.55E-08,  avg # of iterations =  3.5

     total cpu time spent up to now is      213.5 secs

     total energy              =  -10167.40738203 Ry
     estimated scf accuracy    <       0.00001998 Ry

     total magnetization       =     1.00 Bohr mag/cell
     absolute magnetization    =     1.02 Bohr mag/cell

     iteration # 10     ecut=   150.00 Ry     beta= 0.70
     Davidson diagonalization with overlap

---- Real-time Memory Report at c_bands before calling an iterative solver
          1570 MiB given to the printing process from OS
             0 MiB allocation reported by mallinfo(arena+hblkhd)
        203483 MiB available memory on the node where the printing process lives
------------------
     ethr =  3.43E-09,  avg # of iterations =  4.5

     total cpu time spent up to now is      235.9 secs

     total energy              =  -10167.40738721 Ry
     estimated scf accuracy    <       0.00006657 Ry

     total magnetization       =     1.00 Bohr mag/cell
     absolute magnetization    =     1.03 Bohr mag/cell

     iteration # 11     ecut=   150.00 Ry     beta= 0.70
     Davidson diagonalization with overlap

---- Real-time Memory Report at c_bands before calling an iterative solver
          1578 MiB given to the printing process from OS
             0 MiB allocation reported by mallinfo(arena+hblkhd)
        203272 MiB available memory on the node where the printing process lives
------------------
     ethr =  3.43E-09,  avg # of iterations =  3.0

     total cpu time spent up to now is      251.7 secs

     total energy              =  -10167.40739375 Ry
     estimated scf accuracy    <       0.00000107 Ry

     total magnetization       =     1.00 Bohr mag/cell
     absolute magnetization    =     1.03 Bohr mag/cell

     iteration # 12     ecut=   150.00 Ry     beta= 0.70
     Davidson diagonalization with overlap

---- Real-time Memory Report at c_bands before calling an iterative solver
          1582 MiB given to the printing process from OS
             0 MiB allocation reported by mallinfo(arena+hblkhd)
        203292 MiB available memory on the node where the printing process lives
------------------
     ethr =  1.83E-10,  avg # of iterations =  4.9

     total cpu time spent up to now is      273.3 secs

     total energy              =  -10167.40739427 Ry
     estimated scf accuracy    <       0.00000031 Ry

     total magnetization       =     1.00 Bohr mag/cell
     absolute magnetization    =     1.04 Bohr mag/cell

     iteration # 13     ecut=   150.00 Ry     beta= 0.70
     Davidson diagonalization with overlap

---- Real-time Memory Report at c_bands before calling an iterative solver
          1587 MiB given to the printing process from OS
             0 MiB allocation reported by mallinfo(arena+hblkhd)
        203267 MiB available memory on the node where the printing process lives
------------------
     ethr =  5.35E-11,  avg # of iterations =  2.2

     total cpu time spent up to now is      291.2 secs

     total energy              =  -10167.40739433 Ry
     estimated scf accuracy    <       0.00000011 Ry

     total magnetization       =     1.00 Bohr mag/cell
     absolute magnetization    =     1.04 Bohr mag/cell

     iteration # 14     ecut=   150.00 Ry     beta= 0.70
     Davidson diagonalization with overlap

---- Real-time Memory Report at c_bands before calling an iterative solver
          1590 MiB given to the printing process from OS
             0 MiB allocation reported by mallinfo(arena+hblkhd)
        203266 MiB available memory on the node where the printing process lives
------------------
     ethr =  1.94E-11,  avg # of iterations =  3.5
 
     Magnetic moment per site  (integrated on atomic sphere of radius R)
     atom   1 (R=0.089)  charge= 10.1597  magn=  0.0009
     atom   2 (R=0.089)  charge= 10.1594  magn=  0.0010
     atom   3 (R=0.089)  charge= 10.1594  magn=  0.0010
     atom   4 (R=0.089)  charge= 10.1594  magn=  0.0010
     atom   5 (R=0.089)  charge=  3.9924  magn=  0.0045
     atom   6 (R=0.089)  charge=  3.9925  magn=  0.0057
     atom   7 (R=0.089)  charge=  3.9924  magn=  0.0045
     atom   8 (R=0.089)  charge=  3.9924  magn=  0.0045
     atom   9 (R=0.089)  charge= 10.1599  magn=  0.0020
     atom  10 (R=0.089)  charge= 10.1594  magn=  0.0010
     atom  11 (R=0.089)  charge= 10.1594  magn=  0.0010
     atom  12 (R=0.089)  charge= 10.1590  magn=  0.0032
     atom  13 (R=0.089)  charge=  3.9919  magn=  0.0099
     atom  14 (R=0.089)  charge=  3.9919  magn=  0.0099
     atom  15 (R=0.089)  charge=  3.9751  magn=  0.0575
     atom  16 (R=0.089)  charge=  3.9919  magn=  0.0099
     atom  17 (R=0.089)  charge= 10.1599  magn=  0.0020
     atom  18 (R=0.089)  charge= 10.1594  magn=  0.0010
     atom  19 (R=0.089)  charge= 10.1590  magn=  0.0032
     atom  20 (R=0.089)  charge= 10.1594  magn=  0.0010
     atom  21 (R=0.089)  charge=  3.9919  magn=  0.0099
     atom  22 (R=0.089)  charge=  3.9919  magn=  0.0099
     atom  23 (R=0.089)  charge=  3.9919  magn=  0.0099
     atom  24 (R=0.089)  charge=  3.9751  magn=  0.0575
     atom  25 (R=0.089)  charge= 10.1596  magn=  0.0005
     atom  26 (R=0.089)  charge= 10.1594  magn=  0.0010
     atom  27 (R=0.089)  charge= 10.1590  magn=  0.0032
     atom  28 (R=0.089)  charge= 10.1590  magn=  0.0032
     atom  29 (R=0.089)  charge=  3.9925  magn=  0.0057
     atom  30 (R=0.089)  charge=  3.9924  magn=  0.0045
     atom  31 (R=0.089)  charge=  3.9924  magn=  0.0045
     atom  32 (R=0.089)  charge=  3.9924  magn=  0.0045
     atom  33 (R=0.089)  charge= 10.1599  magn=  0.0020
     atom  34 (R=0.089)  charge= 10.1590  magn=  0.0032
     atom  35 (R=0.089)  charge= 10.1594  magn=  0.0010
     atom  36 (R=0.089)  charge= 10.1594  magn=  0.0010
     atom  37 (R=0.089)  charge=  3.9751  magn=  0.0575
     atom  38 (R=0.089)  charge=  3.9919  magn=  0.0099
     atom  39 (R=0.089)  charge=  3.9919  magn=  0.0099
     atom  40 (R=0.089)  charge=  3.9919  magn=  0.0099
     atom  41 (R=0.089)  charge= 10.1596  magn=  0.0005
     atom  42 (R=0.089)  charge= 10.1590  magn=  0.0032
     atom  43 (R=0.089)  charge= 10.1594  magn=  0.0010
     atom  44 (R=0.089)  charge= 10.1590  magn=  0.0032
     atom  45 (R=0.089)  charge=  3.9924  magn=  0.0045
     atom  46 (R=0.089)  charge=  3.9924  magn=  0.0045
     atom  47 (R=0.089)  charge=  3.9924  magn=  0.0045
     atom  48 (R=0.089)  charge=  3.9925  magn=  0.0057
     atom  49 (R=0.089)  charge= 10.1596  magn=  0.0005
     atom  50 (R=0.089)  charge= 10.1590  magn=  0.0032
     atom  51 (R=0.089)  charge= 10.1590  magn=  0.0032
     atom  52 (R=0.089)  charge= 10.1594  magn=  0.0010
     atom  53 (R=0.089)  charge=  3.9924  magn=  0.0045
     atom  54 (R=0.089)  charge=  3.9924  magn=  0.0045
     atom  55 (R=0.089)  charge=  3.9925  magn=  0.0057
     atom  56 (R=0.089)  charge=  3.9924  magn=  0.0045
     atom  57 (R=0.089)  charge= 17.3190  magn=  0.3182
     atom  58 (R=0.089)  charge= 10.1590  magn=  0.0032
     atom  59 (R=0.089)  charge= 10.1590  magn=  0.0032
     atom  60 (R=0.089)  charge= 10.1590  magn=  0.0032
     atom  61 (R=0.089)  charge=  3.9919  magn=  0.0099
     atom  62 (R=0.089)  charge=  3.9751  magn=  0.0575
     atom  63 (R=0.089)  charge=  3.9919  magn=  0.0099
     atom  64 (R=0.089)  charge=  3.9919  magn=  0.0099

     total cpu time spent up to now is      307.7 secs

     End of self-consistent calculation

 ------ SPIN UP ------------


          k = 0.0000 0.0000 0.0000 (269825 PWs)   bands (ev):

  -106.0053 -63.3822 -63.3822 -63.3822  -7.4606  -6.9351  -6.9351  -6.9238
    -6.9238  -6.9238  -6.8843  -6.6140  -6.6140  -6.6140  -6.6119  -6.6119
    -6.6119  -6.6108  -6.6108  -6.6097  -6.6097  -6.6097  -6.6093  -6.5266
    -6.5266  -6.5266  -6.4660  -6.2996  -6.2996  -6.2996  -6.2818  -6.2818
    -6.2818  -6.1975  -6.1975  -6.1975  -0.7236  -0.7236  -0.7220  -0.7220
    -0.7220  -0.7215  -0.6842  -0.6842  -0.6776  -0.6703  -0.6703  -0.6703
    -0.5837  -0.5837  -0.5837  -0.5835  -0.5835  -0.5750  -0.5750  -0.5750
    -0.5695  -0.5695  -0.5695  -0.5625  -0.5625  -0.5625  -0.5592  -0.5592
    -0.5592  -0.5576  -0.5575  -0.5542  -0.5542  -0.5455  -0.5455  -0.5455
    -0.5455  -0.5455  -0.5455  -0.5409  -0.5409  -0.5409  -0.5333  -0.5333
    -0.5333  -0.5314  -0.5314  -0.5239  -0.5239  -0.5239  -0.5238  -0.5238
    -0.5238  -0.5180  -0.5081  -0.5081  -0.5081  -0.4768  -0.4768  -0.4448
    -0.4448  -0.4448  -0.4068  -0.4068  -0.4068  -0.4006  -0.4006  -0.4006
    -0.4000  -0.4000  -0.4000  -0.3921  -0.3921  -0.3921  -0.3906  -0.3906
    -0.3659  -0.3646  -0.3646  -0.3646  -0.3403  -0.3403  -0.3403  -0.2616
    -0.2616  -0.2616  -0.2574  -0.2574  -0.2567  -0.2567  -0.2567  -0.2486
    -0.2434  -0.2434  -0.2405  -0.2405  -0.2405  -0.2398  -0.2334  -0.2306
    -0.2306  -0.2156  -0.2156  -0.2156  -0.2133  -0.2060  -0.2060  -0.2060
    -0.2031  -0.2031  -0.2031  -0.2030  -0.2030  -0.1923  -0.1923  -0.1760
    -0.1760  -0.1760  -0.1689  -0.1660  -0.1660  -0.1619  -0.1619  -0.1619
    -0.1561  -0.1561  -0.1552  -0.1552  -0.1552  -0.1495  -0.1495  -0.1495
    -0.1338  -0.1319  -0.1319  -0.1319  -0.1242  -0.1242  -0.1240  -0.1240
    -0.1240  -0.1139  -0.0309  -0.0309  -0.0309   0.0040   0.0081   0.0081
     0.0081   0.1440   0.1440   0.1440   0.1833   0.1833   0.1833   0.3906
     0.3906   0.3906   0.4254   1.0316   1.0316   1.0435   1.0523   1.0523
     1.0536   1.0536   1.0536   1.2404   1.5513   1.5513   1.5513   1.6554
     1.6554   1.6645   1.6645   1.6645   1.6770   1.6770   1.6770   1.9175
     2.6907   2.6907   2.6907   2.7859   2.7859   2.8895   2.8895   2.8895
     2.8965   2.8965   2.8965   2.9037   2.9394   2.9394   2.9394   2.9759
     2.9759   3.0620   3.0620   3.0687   3.0687   3.0687   3.0692   3.1096
     3.1096   3.1096   3.1508   3.1508   3.1508   3.2049   3.3511   3.3511
     3.3511   3.3980   3.3980   3.3980   3.7010   3.7010   3.7010   4.0424
     4.0424   4.3398   4.3398   4.3398   4.3505   4.3505   4.3505   4.3723
     4.3723   4.3723   4.4627   4.4627   4.4627   4.6580   4.6580   4.6580
     4.6600   4.6621   4.6621   4.6621   4.6667   4.6667   4.6667   4.6719
     4.6719   4.7235   4.7235   4.7235   4.9076   4.9076   5.1652   5.1652
     5.1652   5.6874   5.6874   5.6874   7.5814   8.8123   8.8123   8.8123
     8.8716   9.0244   9.0244   9.0244   9.6266   9.6266   9.6408   9.9821
     9.9821   9.9821   9.9830   9.9830  10.0265  10.1147  10.1147  10.1334
    10.1334  10.1334  10.1442  10.3088  10.3088  10.3103  10.3103  10.3103
    10.3112  10.3112  10.3112  10.3473  10.3473  10.3473  10.6899  11.2392
    11.2392  11.2392  11.2885  11.2885  11.2885  11.4680  11.4680  11.4686
    11.4686  11.4686  11.7453  11.9486  11.9486  11.9487  12.1794  12.1794
    12.1794  12.1825  12.1825  12.1826  12.1968  12.1969

     occupation numbers 
     1.0000   1.0000   1.0000   1.0000   1.0000   1.0000   1.0000   1.0000
     1.0000   1.0000   1.0000   1.0000   1.0000   1.0000   1.0000   1.0000
     1.0000   1.0000   1.0000   1.0000   1.0000   1.0000   1.0000   1.0000
     1.0000   1.0000   1.0000   1.0000   1.0000   1.0000   1.0000   1.0000
     1.0000   1.0000   1.0000   1.0000   1.0000   1.0000   1.0000   1.0000
     1.0000   1.0000   1.0000   1.0000   1.0000   1.0000   1.0000   1.0000
     1.0000   1.0000   1.0000   1.0000   1.0000   1.0000   1.0000   1.0000
     1.0000   1.0000   1.0000   1.0000   1.0000   1.0000   1.0000   1.0000
     1.0000   1.0000   1.0000   1.0000   1.0000   1.0000   1.0000   1.0000
     1.0000   1.0000   1.0000   1.0000   1.0000   1.0000   1.0000   1.0000
     1.0000   1.0000   1.0000   1.0000   1.0000   1.0000   1.0000   1.0000
     1.0000   1.0000   1.0000   1.0000   1.0000   1.0000   1.0000   1.0000
     1.0000   1.0000   1.0000   1.0000   1.0000   1.0000   1.0000   1.0000
     1.0000   1.0000   1.0000   1.0000   1.0000   1.0000   1.0000   1.0000
     1.0000   1.0000   1.0000   1.0000   1.0000   1.0000   1.0000   1.0000
     1.0000   1.0000   1.0000   1.0000   1.0000   1.0000   1.0000   1.0000
     1.0000   1.0000   1.0000   1.0000   1.0000   1.0000   1.0000   1.0000
     1.0000   1.0000   1.0000   1.0000   1.0000   1.0000   1.0000   1.0000
     1.0000   1.0000   1.0000   1.0000   1.0000   1.0000   1.0000   1.0000
     1.0000   1.0000   1.0000   1.0000   1.0000   1.0000   1.0000   1.0000
     1.0000   1.0000   1.0000   1.0000   1.0000   1.0000   1.0000   1.0000
     1.0000   1.0000   1.0000   1.0000   1.0000   1.0000   1.0000   1.0000
     1.0000   1.0000   1.0000   1.0000   1.0000   1.0000   1.0000   1.0000
     1.0000   1.0000   1.0000   1.0000   1.0000   1.0000   1.0000   1.0000
     1.0000   1.0000   1.0000   1.0000   1.0000   1.0000   1.0000   1.0000
     1.0000   1.0000   1.0000   1.0000   1.0000   1.0000   1.0000   1.0000
     1.0000   1.0000   1.0000   1.0000   1.0000   1.0000   1.0000   1.0000
     1.0000   1.0000   1.0000   1.0000   1.0000   1.0000   1.0000   1.0000
     1.0000   1.0000   1.0000   1.0000   1.0000   1.0000   1.0000   1.0000
     1.0000   1.0000   1.0000   1.0000   1.0000   1.0000   1.0000   1.0000
     1.0000   1.0000   1.0000   1.0000   1.0000   1.0000   1.0000   1.0000
     1.0000   1.0000   1.0000   1.0000   1.0000   1.0000   1.0000   1.0000
     1.0000   1.0000   1.0000   1.0000   1.0000   1.0000   1.0000   1.0000
     1.0000   1.0000   1.0000   1.0000   1.0000   1.0000   1.0000   1.0000
     1.0000   1.0000   1.0000   1.0000   1.0000   1.0000   1.0000   1.0000
     1.0000   1.0000   1.0000   1.0000   1.0000   1.0000   1.0000   1.0000
     1.0000   0.9998   0.9998   0.9998   0.0000   0.0000   0.0000   0.0000
     0.0000   0.0000   0.0000   0.0000   0.0000   0.0000   0.0000   0.0000
     0.0000   0.0000   0.0000   0.0000   0.0000   0.0000   0.0000   0.0000
     0.0000   0.0000   0.0000   0.0000   0.0000   0.0000   0.0000   0.0000
     0.0000   0.0000   0.0000   0.0000   0.0000   0.0000   0.0000   0.0000
     0.0000   0.0000   0.0000   0.0000   0.0000   0.0000   0.0000   0.0000
     0.0000   0.0000   0.0000   0.0000   0.0000   0.0000   0.0000   0.0000
     0.0000   0.0000   0.0000   0.0000   0.0000   0.0000

          k = 0.0000 0.0000 0.2500 (269876 PWs)   bands (ev):

  -106.0053 -63.3822 -63.3822 -63.3822  -7.4229  -7.1370  -6.9111  -6.9003
    -6.9003  -6.8797  -6.7357  -6.7260  -6.7260  -6.7068  -6.6900  -6.6119
    -6.6105  -6.6105  -6.6093  -6.5703  -6.5614  -6.5614  -6.5260  -6.4861
    -6.4648  -6.4648  -6.4125  -6.3454  -6.3081  -6.3081  -6.3066  -6.2910
    -6.2910  -6.2264  -6.2027  -6.2027  -0.7209  -0.7169  -0.7065  -0.7065
    -0.7060  -0.7044  -0.6842  -0.6732  -0.6667  -0.6617  -0.6617  -0.6613
    -0.6038  -0.6038  -0.5884  -0.5874  -0.5835  -0.5814  -0.5814  -0.5786
    -0.5779  -0.5746  -0.5746  -0.5705  -0.5705  -0.5687  -0.5662  -0.5662
    -0.5657  -0.5633  -0.5610  -0.5564  -0.5554  -0.5553  -0.5553  -0.5526
    -0.5510  -0.5510  -0.5494  -0.5488  -0.5439  -0.5416  -0.5412  -0.5412
    -0.5364  -0.5364  -0.5322  -0.5289  -0.5289  -0.5278  -0.5205  -0.5163
    -0.5034  -0.4987  -0.4987  -0.4974  -0.4945  -0.4920  -0.4920  -0.4744
    -0.4744  -0.4666  -0.4657  -0.4394  -0.4365  -0.4365  -0.4250  -0.4122
    -0.4122  -0.3897  -0.3897  -0.3712  -0.3668  -0.3668  -0.3634  -0.3590
    -0.3539  -0.3539  -0.3373  -0.3072  -0.3030  -0.3030  -0.3024  -0.2898
    -0.2858  -0.2656  -0.2656  -0.2476  -0.2431  -0.2403  -0.2403  -0.2396
    -0.2375  -0.2357  -0.2357  -0.2343  -0.2322  -0.2257  -0.2249  -0.2183
    -0.2183  -0.2151  -0.2116  -0.2114  -0.2103  -0.2086  -0.2018  -0.2007
    -0.2007  -0.2001  -0.1964  -0.1959  -0.1938  -0.1938  -0.1922  -0.1876
    -0.1876  -0.1843  -0.1729  -0.1720  -0.1678  -0.1678  -0.1657  -0.1633
    -0.1633  -0.1628  -0.1588  -0.1585  -0.1510  -0.1463  -0.1463  -0.1432
    -0.1384  -0.1308  -0.1290  -0.1271  -0.1271  -0.1178  -0.1103  -0.1079
    -0.1079  -0.0944  -0.0924  -0.0861  -0.0861  -0.0699  -0.0589   0.0244
     0.0244   0.1119   0.1119   0.1124   0.1454   0.1529   0.1529   0.5791
     0.5791   0.5884   0.6087   1.0388   1.0421   1.0446   1.0522   1.0630
     1.0682   1.0682   1.1552   1.2451   1.3385   1.3385   1.3557   1.3786
     1.3930   1.3930   1.4231   1.5730   1.9932   1.9932   2.0350   2.0480
     2.3160   2.5937   2.5937   2.6181   2.6388   2.6990   2.6990   2.7572
     2.7943   2.8188   2.8194   2.8194   2.8266   2.9342   2.9615   2.9673
     2.9673   3.1308   3.1949   3.1949   3.2402   3.2914   3.3158   3.3158
     3.3369   3.3525   3.3756   3.3756   3.3806   3.4321   3.4321   3.4590
     3.4750   3.4750   3.5073   3.6133   3.7392   3.7392   3.8319   4.0130
     4.0130   4.0171   4.0655   4.2327   4.2568   4.2757   4.2757   4.3409
     4.3769   4.3769   4.3895   4.4727   4.4791   4.4791   4.4846   4.5354
     4.5354   4.5596   4.6647   4.6647   4.6649   4.6695   4.7125   4.7440
     4.7440   4.7443   4.7674   4.7674   4.8142   4.9279   5.0401   5.1465
     5.1465   5.4356   5.6034   5.6034   7.9776   9.0286   9.0302   9.0302
     9.0819   9.1027   9.2517   9.2517   9.5138   9.6528   9.7123   9.8270
     9.8336  10.0449  10.0495  10.0495  10.0585  10.0632  10.0844  10.0844
    10.1042  10.1644  10.2773  10.2856  10.2856  10.3269  10.3314  10.3602
    10.3602  10.3754  10.4377  10.4587  10.4587  10.6282  10.7059  10.7177
    10.7177  11.0470  11.0625  11.0709  11.0709  11.0758  11.2569  11.5803
    11.5912  11.5912  11.7125  11.7656  11.8272  11.8559  11.8613  11.8614
    12.0221  12.0232  12.0235  12.0361  12.0500  12.0515

     occupation numbers 
     1.0000   1.0000   1.0000   1.0000   1.0000   1.0000   1.0000   1.0000
     1.0000   1.0000   1.0000   1.0000   1.0000   1.0000   1.0000   1.0000
     1.0000   1.0000   1.0000   1.0000   1.0000   1.0000   1.0000   1.0000
     1.0000   1.0000   1.0000   1.0000   1.0000   1.0000   1.0000   1.0000
     1.0000   1.0000   1.0000   1.0000   1.0000   1.0000   1.0000   1.0000
     1.0000   1.0000   1.0000   1.0000   1.0000   1.0000   1.0000   1.0000
     1.0000   1.0000   1.0000   1.0000   1.0000   1.0000   1.0000   1.0000
     1.0000   1.0000   1.0000   1.0000   1.0000   1.0000   1.0000   1.0000
     1.0000   1.0000   1.0000   1.0000   1.0000   1.0000   1.0000   1.0000
     1.0000   1.0000   1.0000   1.0000   1.0000   1.0000   1.0000   1.0000
     1.0000   1.0000   1.0000   1.0000   1.0000   1.0000   1.0000   1.0000
     1.0000   1.0000   1.0000   1.0000   1.0000   1.0000   1.0000   1.0000
     1.0000   1.0000   1.0000   1.0000   1.0000   1.0000   1.0000   1.0000
     1.0000   1.0000   1.0000   1.0000   1.0000   1.0000   1.0000   1.0000
     1.0000   1.0000   1.0000   1.0000   1.0000   1.0000   1.0000   1.0000
     1.0000   1.0000   1.0000   1.0000   1.0000   1.0000   1.0000   1.0000
     1.0000   1.0000   1.0000   1.0000   1.0000   1.0000   1.0000   1.0000
     1.0000   1.0000   1.0000   1.0000   1.0000   1.0000   1.0000   1.0000
     1.0000   1.0000   1.0000   1.0000   1.0000   1.0000   1.0000   1.0000
     1.0000   1.0000   1.0000   1.0000   1.0000   1.0000   1.0000   1.0000
     1.0000   1.0000   1.0000   1.0000   1.0000   1.0000   1.0000   1.0000
     1.0000   1.0000   1.0000   1.0000   1.0000   1.0000   1.0000   1.0000
     1.0000   1.0000   1.0000   1.0000   1.0000   1.0000   1.0000   1.0000
     1.0000   1.0000   1.0000   1.0000   1.0000   1.0000   1.0000   1.0000
     1.0000   1.0000   1.0000   1.0000   1.0000   1.0000   1.0000   1.0000
     1.0000   1.0000   1.0000   1.0000   1.0000   1.0000   1.0000   1.0000
     1.0000   1.0000   1.0000   1.0000   1.0000   1.0000   1.0000   1.0000
     1.0000   1.0000   1.0000   1.0000   1.0000   1.0000   1.0000   1.0000
     1.0000   1.0000   1.0000   1.0000   1.0000   1.0000   1.0000   1.0000
     1.0000   1.0000   1.0000   1.0000   1.0000   1.0000   1.0000   1.0000
     1.0000   1.0000   1.0000   1.0000   1.0000   1.0000   1.0000   1.0000
     1.0000   1.0000   1.0000   1.0000   1.0000   1.0000   1.0000   1.0000
     1.0000   1.0000   1.0000   1.0000   1.0000   1.0000   1.0000   1.0000
     1.0000   1.0000   1.0000   1.0000   1.0000   1.0000   1.0000   1.0000
     1.0000   1.0000   1.0000   1.0000   1.0000   1.0000   1.0000   1.0000
     1.0000   1.0000   1.0000   1.0000   1.0000   1.0000   1.0000   1.0000
     1.0000   1.0000   1.0000   1.0000   0.0000   0.0000   0.0000   0.0000
     0.0000   0.0000   0.0000   0.0000   0.0000   0.0000   0.0000   0.0000
     0.0000   0.0000   0.0000   0.0000   0.0000   0.0000   0.0000   0.0000
     0.0000   0.0000   0.0000   0.0000   0.0000   0.0000   0.0000   0.0000
     0.0000   0.0000   0.0000   0.0000   0.0000   0.0000   0.0000   0.0000
     0.0000   0.0000   0.0000   0.0000   0.0000   0.0000   0.0000   0.0000
     0.0000   0.0000   0.0000   0.0000   0.0000   0.0000   0.0000   0.0000
     0.0000   0.0000   0.0000   0.0000   0.0000   0.0000

          k = 0.0000 0.0000-0.5000 (270152 PWs)   bands (ev):

  -106.0053 -63.3822 -63.3822 -63.3822  -7.3300  -7.2914  -6.8516  -6.8465
    -6.8465  -6.8383  -6.8304  -6.8136  -6.8136  -6.7769  -6.6101  -6.6091
    -6.6091  -6.6088  -6.5684  -6.5594  -6.5594  -6.5328  -6.4885  -6.4741
    -6.3890  -6.3833  -6.3833  -6.3684  -6.3514  -6.3514  -6.3458  -6.2941
    -6.2941  -6.2735  -6.2074  -6.2074  -0.7167  -0.7128  -0.6863  -0.6772
    -0.6693  -0.6693  -0.6648  -0.6639  -0.6529  -0.6529  -0.6456  -0.6456
    -0.6430  -0.6404  -0.6370  -0.6221  -0.6089  -0.6089  -0.6026  -0.5917
    -0.5836  -0.5790  -0.5759  -0.5759  -0.5708  -0.5708  -0.5694  -0.5689
    -0.5680  -0.5680  -0.5611  -0.5586  -0.5556  -0.5548  -0.5542  -0.5542
    -0.5537  -0.5537  -0.5511  -0.5509  -0.5476  -0.5464  -0.5464  -0.5370
    -0.5354  -0.5354  -0.5351  -0.5299  -0.5282  -0.5282  -0.5282  -0.5264
    -0.5136  -0.5104  -0.5104  -0.4932  -0.4858  -0.4824  -0.4789  -0.4789
    -0.4653  -0.4633  -0.4633  -0.4505  -0.4467  -0.4344  -0.4344  -0.4153
    -0.4153  -0.3901  -0.3901  -0.3763  -0.3763  -0.3647  -0.3390  -0.3241
    -0.3232  -0.3110  -0.3110  -0.2999  -0.2937  -0.2937  -0.2931  -0.2808
    -0.2733  -0.2733  -0.2685  -0.2669  -0.2626  -0.2626  -0.2625  -0.2483
    -0.2370  -0.2338  -0.2334  -0.2288  -0.2288  -0.2209  -0.2209  -0.2207
    -0.2182  -0.2155  -0.2148  -0.2147  -0.2147  -0.2101  -0.2085  -0.2048
    -0.1994  -0.1981  -0.1974  -0.1929  -0.1929  -0.1898  -0.1852  -0.1840
    -0.1840  -0.1813  -0.1759  -0.1759  -0.1718  -0.1697  -0.1682  -0.1682
    -0.1657  -0.1632  -0.1600  -0.1515  -0.1461  -0.1455  -0.1451  -0.1451
    -0.1441  -0.1440  -0.1439  -0.1336  -0.1317  -0.1231  -0.1231  -0.1227
    -0.1201  -0.1201  -0.1198  -0.0055  -0.0055   0.0009   0.0252   0.0285
     0.0285   0.0388   0.0421   0.0806   0.0806   0.0911   0.0911   0.9266
     0.9266   0.9380   0.9585   0.9855   0.9855   1.0007   1.0035   1.0416
     1.0435   1.0615   1.0758   1.1148   1.1469   1.1529   1.1540   1.1540
     1.1652   1.1652   1.4265   1.6768   1.7779   2.2684   2.2684   2.3383
     2.4297   2.4473   2.4555   2.4555   2.5759   2.5801   2.6263   2.6263
     2.6388   2.6473   2.6658   2.6658   2.6667   3.0222   3.0720   3.0792
     3.0792   3.1264   3.1347   3.1347   3.1470   3.2952   3.2952   3.3734
     3.5242   3.6572   3.6572   3.7080   3.7080   3.7811   3.8443   3.8498
     3.8531   3.8531   3.8660   3.8660   3.8694   3.8898   3.8964   3.8964
     3.9130   3.9228   3.9412   3.9634   3.9634   3.9738   3.9925   3.9943
     3.9943   4.0888   4.2245   4.2500   4.2500   4.3815   4.5237   4.5301
     4.6606   4.6614   4.6646   4.6646   4.6670   4.6670   4.6691   4.6728
     4.6904   4.6904   4.7103   4.7897   4.9269   4.9466   4.9466   5.1433
     5.1433   5.2845   5.4822   5.4822   8.7334   8.7729   9.2845   9.3375
     9.5234   9.5320   9.5350   9.5350   9.5587   9.5587   9.5971   9.6509
     9.8370   9.8370   9.8460   9.9055   9.9055   9.9287  10.1836  10.1847
    10.1922  10.1922  10.1959  10.2062  10.2062  10.2892  10.3453  10.3543
    10.3909  10.5065  10.7068  10.7176  10.7176  10.7228  10.7354  10.7354
    10.7383  10.9070  10.9365  10.9436  10.9498  10.9498  10.9633  11.0428
    11.0428  11.1232  11.2740  11.2791  11.7752  11.7865  11.7865  11.7962
    11.8141  11.8142  11.8434  11.9428  12.0753  12.0777

     occupation numbers 
     1.0000   1.0000   1.0000   1.0000   1.0000   1.0000   1.0000   1.0000
     1.0000   1.0000   1.0000   1.0000   1.0000   1.0000   1.0000   1.0000
     1.0000   1.0000   1.0000   1.0000   1.0000   1.0000   1.0000   1.0000
     1.0000   1.0000   1.0000   1.0000   1.0000   1.0000   1.0000   1.0000
     1.0000   1.0000   1.0000   1.0000   1.0000   1.0000   1.0000   1.0000
     1.0000   1.0000   1.0000   1.0000   1.0000   1.0000   1.0000   1.0000
     1.0000   1.0000   1.0000   1.0000   1.0000   1.0000   1.0000   1.0000
     1.0000   1.0000   1.0000   1.0000   1.0000   1.0000   1.0000   1.0000
     1.0000   1.0000   1.0000   1.0000   1.0000   1.0000   1.0000   1.0000
     1.0000   1.0000   1.0000   1.0000   1.0000   1.0000   1.0000   1.0000
     1.0000   1.0000   1.0000   1.0000   1.0000   1.0000   1.0000   1.0000
     1.0000   1.0000   1.0000   1.0000   1.0000   1.0000   1.0000   1.0000
     1.0000   1.0000   1.0000   1.0000   1.0000   1.0000   1.0000   1.0000
     1.0000   1.0000   1.0000   1.0000   1.0000   1.0000   1.0000   1.0000
     1.0000   1.0000   1.0000   1.0000   1.0000   1.0000   1.0000   1.0000
     1.0000   1.0000   1.0000   1.0000   1.0000   1.0000   1.0000   1.0000
     1.0000   1.0000   1.0000   1.0000   1.0000   1.0000   1.0000   1.0000
     1.0000   1.0000   1.0000   1.0000   1.0000   1.0000   1.0000   1.0000
     1.0000   1.0000   1.0000   1.0000   1.0000   1.0000   1.0000   1.0000
     1.0000   1.0000   1.0000   1.0000   1.0000   1.0000   1.0000   1.0000
     1.0000   1.0000   1.0000   1.0000   1.0000   1.0000   1.0000   1.0000
     1.0000   1.0000   1.0000   1.0000   1.0000   1.0000   1.0000   1.0000
     1.0000   1.0000   1.0000   1.0000   1.0000   1.0000   1.0000   1.0000
     1.0000   1.0000   1.0000   1.0000   1.0000   1.0000   1.0000   1.0000
     1.0000   1.0000   1.0000   1.0000   1.0000   1.0000   1.0000   1.0000
     1.0000   1.0000   1.0000   1.0000   1.0000   1.0000   1.0000   1.0000
     1.0000   1.0000   1.0000   1.0000   1.0000   1.0000   1.0000   1.0000
     1.0000   1.0000   1.0000   1.0000   1.0000   1.0000   1.0000   1.0000
     1.0000   1.0000   1.0000   1.0000   1.0000   1.0000   1.0000   1.0000
     1.0000   1.0000   1.0000   1.0000   1.0000   1.0000   1.0000   1.0000
     1.0000   1.0000   1.0000   1.0000   1.0000   1.0000   1.0000   1.0000
     1.0000   1.0000   1.0000   1.0000   1.0000   1.0000   1.0000   1.0000
     1.0000   1.0000   1.0000   1.0000   1.0000   1.0000   1.0000   1.0000
     1.0000   1.0000   1.0000   1.0000   1.0000   1.0000   1.0000   1.0000
     1.0000   1.0000   1.0000   1.0000   1.0000   1.0000   1.0000   1.0000
     1.0000   1.0000   1.0000   1.0000   1.0000   1.0000   1.0000   1.0000
     1.0000   1.0000   1.0000   1.0000   0.0000   0.0000   0.0000   0.0000
     0.0000   0.0000   0.0000   0.0000   0.0000   0.0000   0.0000   0.0000
     0.0000   0.0000   0.0000   0.0000   0.0000   0.0000   0.0000   0.0000
     0.0000   0.0000   0.0000   0.0000   0.0000   0.0000   0.0000   0.0000
     0.0000   0.0000   0.0000   0.0000   0.0000   0.0000   0.0000   0.0000
     0.0000   0.0000   0.0000   0.0000   0.0000   0.0000   0.0000   0.0000
     0.0000   0.0000   0.0000   0.0000   0.0000   0.0000   0.0000   0.0000
     0.0000   0.0000   0.0000   0.0000   0.0000   0.0000

          k = 0.0000 0.2500 0.2500 (269929 PWs)   bands (ev):

  -106.0053 -63.3822 -63.3822 -63.3822  -7.3861  -7.1156  -7.0984  -6.8880
    -6.8774  -6.8694  -6.7234  -6.7146  -6.7124  -6.7004  -6.6823  -6.6689
    -6.6242  -6.6118  -6.5683  -6.5675  -6.5274  -6.5162  -6.4921  -6.4674
    -6.4648  -6.4367  -6.3747  -6.3473  -6.3472  -6.3221  -6.3207  -6.3072
    -6.3040  -6.2316  -6.2311  -6.2084  -0.7053  -0.7028  -0.7009  -0.7008
    -0.6920  -0.6887  -0.6708  -0.6680  -0.6646  -0.6574  -0.6536  -0.6485
    -0.6084  -0.6043  -0.6033  -0.6020  -0.5924  -0.5899  -0.5877  -0.5869
    -0.5850  -0.5825  -0.5802  -0.5784  -0.5770  -0.5732  -0.5723  -0.5699
    -0.5692  -0.5679  -0.5656  -0.5647  -0.5646  -0.5609  -0.5594  -0.5587
    -0.5556  -0.5533  -0.5525  -0.5500  -0.5490  -0.5473  -0.5439  -0.5426
    -0.5412  -0.5337  -0.5332  -0.5300  -0.5261  -0.5242  -0.5170  -0.5072
    -0.5059  -0.4978  -0.4926  -0.4824  -0.4814  -0.4777  -0.4749  -0.4708
    -0.4663  -0.4637  -0.4633  -0.4567  -0.4436  -0.4406  -0.4340  -0.4271
    -0.4252  -0.4115  -0.4008  -0.3966  -0.3957  -0.3797  -0.3708  -0.3658
    -0.3541  -0.3446  -0.3139  -0.3098  -0.3038  -0.2923  -0.2904  -0.2860
    -0.2807  -0.2803  -0.2781  -0.2735  -0.2614  -0.2439  -0.2384  -0.2373
    -0.2369  -0.2308  -0.2290  -0.2288  -0.2228  -0.2215  -0.2185  -0.2185
    -0.2146  -0.2146  -0.2113  -0.2070  -0.2062  -0.2054  -0.2048  -0.2015
    -0.1991  -0.1976  -0.1938  -0.1933  -0.1929  -0.1881  -0.1873  -0.1859
    -0.1837  -0.1814  -0.1729  -0.1726  -0.1714  -0.1698  -0.1659  -0.1640
    -0.1629  -0.1609  -0.1596  -0.1578  -0.1561  -0.1533  -0.1506  -0.1442
    -0.1434  -0.1392  -0.1346  -0.1344  -0.1308  -0.1234  -0.1203  -0.0960
    -0.0904  -0.0801  -0.0736  -0.0437  -0.0412  -0.0157   0.0016   0.0084
     0.0515   0.0753   0.0813   0.1083   0.1123   0.1386   0.1474   0.5032
     0.5189   0.8902   0.8937   1.0087   1.0227   1.0353   1.0412   1.0660
     1.1030   1.1176   1.1267   1.1393   1.1398   1.1419   1.2051   1.2265
     1.4010   1.5914   1.6661   1.7265   1.7536   1.8044   1.8840   2.1842
     2.1868   2.4303   2.5115   2.5593   2.6061   2.6255   2.6401   2.6779
     2.7270   2.8178   2.8360   2.8963   2.9860   3.0220   3.0482   3.0826
     3.0990   3.1639   3.1927   3.1949   3.2668   3.2927   3.3036   3.3739
     3.4026   3.4084   3.4167   3.4354   3.4911   3.5018   3.5070   3.5456
     3.5982   3.6534   3.7321   3.7398   3.8179   3.8602   3.8767   3.9327
     3.9818   4.0247   4.0386   4.0886   4.1163   4.2016   4.2067   4.2567
     4.3248   4.3342   4.3499   4.3604   4.3649   4.4040   4.4323   4.4706
     4.4949   4.5515   4.5917   4.6018   4.6395   4.6432   4.6814   4.6836
     4.7293   4.7520   4.7708   4.8527   4.8860   4.8969   4.9848   5.0999
     5.2313   5.3598   5.5217   5.6514   8.2338   9.0540   9.0776   9.3196
     9.3223   9.3281   9.3757   9.3899   9.5410   9.5697   9.8736   9.8738
     9.9068   9.9085   9.9199   9.9298   9.9499   9.9661   9.9755   9.9865
    10.0476  10.1250  10.1576  10.1772  10.2064  10.2997  10.3076  10.3223
    10.3478  10.3877  10.4696  10.6835  10.6878  10.6992  10.7846  10.7939
    10.8089  10.8708  10.8905  10.9920  11.0084  11.0643  11.2253  11.4294
    11.4352  11.4704  11.5008  11.5127  11.6170  11.7800  11.8067  11.8126
    11.8406  11.8456  11.9312  11.9324  11.9363  11.9832

     occupation numbers 
     1.0000   1.0000   1.0000   1.0000   1.0000   1.0000   1.0000   1.0000
     1.0000   1.0000   1.0000   1.0000   1.0000   1.0000   1.0000   1.0000
     1.0000   1.0000   1.0000   1.0000   1.0000   1.0000   1.0000   1.0000
     1.0000   1.0000   1.0000   1.0000   1.0000   1.0000   1.0000   1.0000
     1.0000   1.0000   1.0000   1.0000   1.0000   1.0000   1.0000   1.0000
     1.0000   1.0000   1.0000   1.0000   1.0000   1.0000   1.0000   1.0000
     1.0000   1.0000   1.0000   1.0000   1.0000   1.0000   1.0000   1.0000
     1.0000   1.0000   1.0000   1.0000   1.0000   1.0000   1.0000   1.0000
     1.0000   1.0000   1.0000   1.0000   1.0000   1.0000   1.0000   1.0000
     1.0000   1.0000   1.0000   1.0000   1.0000   1.0000   1.0000   1.0000
     1.0000   1.0000   1.0000   1.0000   1.0000   1.0000   1.0000   1.0000
     1.0000   1.0000   1.0000   1.0000   1.0000   1.0000   1.0000   1.0000
     1.0000   1.0000   1.0000   1.0000   1.0000   1.0000   1.0000   1.0000
     1.0000   1.0000   1.0000   1.0000   1.0000   1.0000   1.0000   1.0000
     1.0000   1.0000   1.0000   1.0000   1.0000   1.0000   1.0000   1.0000
     1.0000   1.0000   1.0000   1.0000   1.0000   1.0000   1.0000   1.0000
     1.0000   1.0000   1.0000   1.0000   1.0000   1.0000   1.0000   1.0000
     1.0000   1.0000   1.0000   1.0000   1.0000   1.0000   1.0000   1.0000
     1.0000   1.0000   1.0000   1.0000   1.0000   1.0000   1.0000   1.0000
     1.0000   1.0000   1.0000   1.0000   1.0000   1.0000   1.0000   1.0000
     1.0000   1.0000   1.0000   1.0000   1.0000   1.0000   1.0000   1.0000
     1.0000   1.0000   1.0000   1.0000   1.0000   1.0000   1.0000   1.0000
     1.0000   1.0000   1.0000   1.0000   1.0000   1.0000   1.0000   1.0000
     1.0000   1.0000   1.0000   1.0000   1.0000   1.0000   1.0000   1.0000
     1.0000   1.0000   1.0000   1.0000   1.0000   1.0000   1.0000   1.0000
     1.0000   1.0000   1.0000   1.0000   1.0000   1.0000   1.0000   1.0000
     1.0000   1.0000   1.0000   1.0000   1.0000   1.0000   1.0000   1.0000
     1.0000   1.0000   1.0000   1.0000   1.0000   1.0000   1.0000   1.0000
     1.0000   1.0000   1.0000   1.0000   1.0000   1.0000   1.0000   1.0000
     1.0000   1.0000   1.0000   1.0000   1.0000   1.0000   1.0000   1.0000
     1.0000   1.0000   1.0000   1.0000   1.0000   1.0000   1.0000   1.0000
     1.0000   1.0000   1.0000   1.0000   1.0000   1.0000   1.0000   1.0000
     1.0000   1.0000   1.0000   1.0000   1.0000   1.0000   1.0000   1.0000
     1.0000   1.0000   1.0000   1.0000   1.0000   1.0000   1.0000   1.0000
     1.0000   1.0000   1.0000   1.0000   1.0000   1.0000   1.0000   1.0000
     1.0000   1.0000   1.0000   1.0000   1.0000   1.0000   1.0000   1.0000
     1.0000   1.0000   1.0000   1.0000   0.0000   0.0000   0.0000   0.0000
     0.0000   0.0000   0.0000   0.0000   0.0000   0.0000   0.0000   0.0000
     0.0000   0.0000   0.0000   0.0000   0.0000   0.0000   0.0000   0.0000
     0.0000   0.0000   0.0000   0.0000   0.0000   0.0000   0.0000   0.0000
     0.0000   0.0000   0.0000   0.0000   0.0000   0.0000   0.0000   0.0000
     0.0000   0.0000   0.0000   0.0000   0.0000   0.0000   0.0000   0.0000
     0.0000   0.0000   0.0000   0.0000   0.0000   0.0000   0.0000   0.0000
     0.0000   0.0000   0.0000   0.0000   0.0000   0.0000

          k = 0.0000 0.2500-0.5000 (269962 PWs)   bands (ev):

  -106.0053 -63.3822 -63.3822 -63.3822  -7.2953  -7.2580  -7.0377  -6.9984
    -6.8273  -6.8264  -6.7970  -6.7877  -6.6947  -6.6930  -6.6615  -6.6428
    -6.6409  -6.6090  -6.5149  -6.5126  -6.4912  -6.4898  -6.4682  -6.4617
    -6.4201  -6.4010  -6.3910  -6.3788  -6.3723  -6.3442  -6.3332  -6.3312
    -6.3072  -6.2716  -6.2359  -6.2133  -0.7008  -0.6965  -0.6732  -0.6722
    -0.6689  -0.6588  -0.6561  -0.6560  -0.6519  -0.6440  -0.6411  -0.6388
    -0.6368  -0.6337  -0.6311  -0.6178  -0.6111  -0.6061  -0.6056  -0.6006
    -0.5991  -0.5944  -0.5903  -0.5889  -0.5837  -0.5816  -0.5788  -0.5777
    -0.5727  -0.5702  -0.5699  -0.5694  -0.5656  -0.5648  -0.5591  -0.5578
    -0.5552  -0.5545  -0.5543  -0.5494  -0.5486  -0.5460  -0.5422  -0.5420
    -0.5393  -0.5322  -0.5300  -0.5276  -0.5236  -0.5194  -0.5150  -0.5096
    -0.5093  -0.4955  -0.4933  -0.4875  -0.4813  -0.4762  -0.4734  -0.4697
    -0.4591  -0.4500  -0.4479  -0.4438  -0.4436  -0.4365  -0.4246  -0.4239
    -0.4151  -0.4114  -0.4069  -0.4042  -0.4020  -0.3978  -0.3875  -0.3875
    -0.3797  -0.3560  -0.3424  -0.3350  -0.3306  -0.3263  -0.3208  -0.2851
    -0.2661  -0.2648  -0.2615  -0.2567  -0.2503  -0.2489  -0.2463  -0.2433
    -0.2344  -0.2297  -0.2260  -0.2235  -0.2188  -0.2186  -0.2156  -0.2138
    -0.2105  -0.2101  -0.2078  -0.2045  -0.2008  -0.1991  -0.1986  -0.1984
    -0.1946  -0.1935  -0.1907  -0.1888  -0.1880  -0.1852  -0.1835  -0.1826
    -0.1821  -0.1780  -0.1726  -0.1704  -0.1700  -0.1679  -0.1660  -0.1615
    -0.1594  -0.1585  -0.1574  -0.1556  -0.1542  -0.1505  -0.1485  -0.1441
    -0.1431  -0.1412  -0.1367  -0.1363  -0.1347  -0.1343  -0.1242  -0.0709
    -0.0471  -0.0454  -0.0428  -0.0303  -0.0222   0.0102   0.0113   0.0279
     0.0352   0.0392   0.0509   0.0883   0.1023   0.1030   0.1039   0.7528
     0.7548   0.7653   0.7717   0.9820   0.9986   1.0086   1.0097   1.0261
     1.0384   1.0433   1.0981   1.1965   1.2342   1.3038   1.3100   1.3292
     1.3322   1.3374   1.4493   1.6318   1.7211   1.9463   1.9690   2.1105
     2.1782   2.2210   2.2707   2.4671   2.4960   2.7260   2.7348   2.7753
     2.8067   2.8312   2.8608   2.8728   2.8987   2.9170   2.9417   3.0489
     3.0949   3.1942   3.2651   3.3013   3.3034   3.4025   3.4563   3.4951
     3.5342   3.5434   3.5577   3.5675   3.6344   3.6539   3.6680   3.6885
     3.7008   3.7498   3.7671   3.8077   3.8546   3.8746   3.9032   3.9274
     3.9718   3.9979   4.0049   4.1081   4.1142   4.1324   4.1508   4.1584
     4.1589   4.2284   4.2440   4.2548   4.2719   4.3098   4.3484   4.3798
     4.4165   4.4315   4.4754   4.4865   4.5459   4.6125   4.6435   4.6686
     4.7054   4.7145   4.8266   4.8675   4.9117   4.9227   5.0314   5.1975
     5.2139   5.3968   5.4829   5.5454   8.8321   8.8709   9.4263   9.4302
     9.4401   9.4680   9.5210   9.5795   9.6647   9.6711   9.7029   9.7091
     9.8688   9.8725   9.8938   9.8948   9.9076   9.9124   9.9228   9.9244
     9.9823   9.9952  10.0172  10.0823  10.1139  10.1878  10.3840  10.4166
    10.4639  10.5201  10.5421  10.5707  10.6490  10.6619  10.6875  10.7658
    10.7901  10.8559  10.9187  11.0102  11.1121  11.1368  11.3082  11.3263
    11.3483  11.3809  11.3842  11.3971  11.4278  11.4890  11.5658  11.5960
    11.6135  11.6243  11.7636  11.7772  11.8197  11.8234

     occupation numbers 
     1.0000   1.0000   1.0000   1.0000   1.0000   1.0000   1.0000   1.0000
     1.0000   1.0000   1.0000   1.0000   1.0000   1.0000   1.0000   1.0000
     1.0000   1.0000   1.0000   1.0000   1.0000   1.0000   1.0000   1.0000
     1.0000   1.0000   1.0000   1.0000   1.0000   1.0000   1.0000   1.0000
     1.0000   1.0000   1.0000   1.0000   1.0000   1.0000   1.0000   1.0000
     1.0000   1.0000   1.0000   1.0000   1.0000   1.0000   1.0000   1.0000
     1.0000   1.0000   1.0000   1.0000   1.0000   1.0000   1.0000   1.0000
     1.0000   1.0000   1.0000   1.0000   1.0000   1.0000   1.0000   1.0000
     1.0000   1.0000   1.0000   1.0000   1.0000   1.0000   1.0000   1.0000
     1.0000   1.0000   1.0000   1.0000   1.0000   1.0000   1.0000   1.0000
     1.0000   1.0000   1.0000   1.0000   1.0000   1.0000   1.0000   1.0000
     1.0000   1.0000   1.0000   1.0000   1.0000   1.0000   1.0000   1.0000
     1.0000   1.0000   1.0000   1.0000   1.0000   1.0000   1.0000   1.0000
     1.0000   1.0000   1.0000   1.0000   1.0000   1.0000   1.0000   1.0000
     1.0000   1.0000   1.0000   1.0000   1.0000   1.0000   1.0000   1.0000
     1.0000   1.0000   1.0000   1.0000   1.0000   1.0000   1.0000   1.0000
     1.0000   1.0000   1.0000   1.0000   1.0000   1.0000   1.0000   1.0000
     1.0000   1.0000   1.0000   1.0000   1.0000   1.0000   1.0000   1.0000
     1.0000   1.0000   1.0000   1.0000   1.0000   1.0000   1.0000   1.0000
     1.0000   1.0000   1.0000   1.0000   1.0000   1.0000   1.0000   1.0000
     1.0000   1.0000   1.0000   1.0000   1.0000   1.0000   1.0000   1.0000
     1.0000   1.0000   1.0000   1.0000   1.0000   1.0000   1.0000   1.0000
     1.0000   1.0000   1.0000   1.0000   1.0000   1.0000   1.0000   1.0000
     1.0000   1.0000   1.0000   1.0000   1.0000   1.0000   1.0000   1.0000
     1.0000   1.0000   1.0000   1.0000   1.0000   1.0000   1.0000   1.0000
     1.0000   1.0000   1.0000   1.0000   1.0000   1.0000   1.0000   1.0000
     1.0000   1.0000   1.0000   1.0000   1.0000   1.0000   1.0000   1.0000
     1.0000   1.0000   1.0000   1.0000   1.0000   1.0000   1.0000   1.0000
     1.0000   1.0000   1.0000   1.0000   1.0000   1.0000   1.0000   1.0000
     1.0000   1.0000   1.0000   1.0000   1.0000   1.0000   1.0000   1.0000
     1.0000   1.0000   1.0000   1.0000   1.0000   1.0000   1.0000   1.0000
     1.0000   1.0000   1.0000   1.0000   1.0000   1.0000   1.0000   1.0000
     1.0000   1.0000   1.0000   1.0000   1.0000   1.0000   1.0000   1.0000
     1.0000   1.0000   1.0000   1.0000   1.0000   1.0000   1.0000   1.0000
     1.0000   1.0000   1.0000   1.0000   1.0000   1.0000   1.0000   1.0000
     1.0000   1.0000   1.0000   1.0000   1.0000   1.0000   1.0000   1.0000
     1.0000   1.0000   1.0000   1.0000   0.0000   0.0000   0.0000   0.0000
     0.0000   0.0000   0.0000   0.0000   0.0000   0.0000   0.0000   0.0000
     0.0000   0.0000   0.0000   0.0000   0.0000   0.0000   0.0000   0.0000
     0.0000   0.0000   0.0000   0.0000   0.0000   0.0000   0.0000   0.0000
     0.0000   0.0000   0.0000   0.0000   0.0000   0.0000   0.0000   0.0000
     0.0000   0.0000   0.0000   0.0000   0.0000   0.0000   0.0000   0.0000
     0.0000   0.0000   0.0000   0.0000   0.0000   0.0000   0.0000   0.0000
     0.0000   0.0000   0.0000   0.0000   0.0000   0.0000

          k = 0.0000-0.5000-0.5000 (269920 PWs)   bands (ev):

  -106.0053 -63.3822 -63.3822 -63.3822  -7.2041  -7.1839  -7.1839  -7.1260
    -6.7834  -6.7829  -6.7681  -6.7681  -6.7575  -6.7575  -6.7156  -6.6882
    -6.4745  -6.4745  -6.4656  -6.4648  -6.4614  -6.4591  -6.4500  -6.4500
    -6.4428  -6.4428  -6.4316  -6.4312  -6.4093  -6.3753  -6.3440  -6.3440
    -6.3130  -6.2680  -6.2680  -6.2187  -0.6750  -0.6750  -0.6722  -0.6702
    -0.6490  -0.6437  -0.6406  -0.6395  -0.6356  -0.6356  -0.6318  -0.6318
    -0.6298  -0.6276  -0.6276  -0.6271  -0.6189  -0.6139  -0.6139  -0.6122
    -0.6047  -0.6047  -0.6025  -0.6020  -0.6020  -0.5980  -0.5955  -0.5902
    -0.5885  -0.5885  -0.5757  -0.5681  -0.5681  -0.5640  -0.5631  -0.5557
    -0.5555  -0.5555  -0.5529  -0.5529  -0.5524  -0.5492  -0.5421  -0.5396
    -0.5389  -0.5235  -0.5235  -0.5074  -0.5074  -0.5041  -0.5006  -0.5002
    -0.4928  -0.4915  -0.4915  -0.4808  -0.4783  -0.4783  -0.4771  -0.4766
    -0.4739  -0.4637  -0.4637  -0.4554  -0.4554  -0.4484  -0.4484  -0.4373
    -0.4261  -0.4234  -0.4234  -0.4082  -0.4001  -0.3945  -0.3945  -0.3820
    -0.3820  -0.3811  -0.3729  -0.3716  -0.3713  -0.3150  -0.3068  -0.3068
    -0.2851  -0.2623  -0.2591  -0.2543  -0.2534  -0.2534  -0.2481  -0.2481
    -0.2312  -0.2210  -0.2193  -0.2170  -0.2170  -0.2125  -0.2094  -0.2094
    -0.2055  -0.2055  -0.2049  -0.2013  -0.1962  -0.1962  -0.1952  -0.1952
    -0.1907  -0.1907  -0.1892  -0.1875  -0.1844  -0.1825  -0.1813  -0.1813
    -0.1767  -0.1740  -0.1740  -0.1690  -0.1612  -0.1612  -0.1611  -0.1594
    -0.1578  -0.1578  -0.1551  -0.1507  -0.1444  -0.1433  -0.1433  -0.1394
    -0.1394  -0.1386  -0.1347  -0.1231  -0.1066  -0.1066  -0.1020  -0.1020
    -0.0968  -0.0964  -0.0908   0.0158   0.0158   0.0199   0.0529   0.0529
     0.0577   0.0629   0.0708   0.1152   0.1248   0.1255   0.1255   0.7519
     0.7605   0.7605   0.7803   0.7868   0.7983   0.7983   0.8459   1.0082
     1.0199   1.0199   1.1092   1.4566   1.4566   1.5104   1.5135   1.5215
     1.5335   1.5335   1.6423   1.6648   1.7329   1.7329   1.7620   1.7742
     1.7909   1.7909   2.0069   2.4733   2.5311   2.5354   2.5354   2.9105
     2.9105   2.9416   3.1127   3.1588   3.2462   3.2462   3.2471   3.2567
     3.2628   3.2628   3.2725   3.2841   3.2970   3.2970   3.3050   3.3740
     3.3740   3.5219   3.5770   3.5939   3.6062   3.6395   3.6446   3.6446
     3.6910   3.6910   3.7138   3.7501   3.7692   3.7692   3.7734   3.7957
     3.9281   3.9948   4.0048   4.0048   4.1203   4.1241   4.1241   4.2101
[...]
     atom   18 type  2   force =     0.00000000    0.00000000    0.00000000
     atom   19 type  2   force =     0.00000000    0.00000000    0.00000000
     atom   20 type  2   force =     0.00000000    0.00000000    0.00000000
     atom   21 type  1   force =     0.00000000    0.00000000    0.00000000
     atom   22 type  1   force =     0.00000000    0.00000000    0.00000000
     atom   23 type  1   force =     0.00000000    0.00000000    0.00000000
     atom   24 type  1   force =     0.00000000    0.00000000    0.00000000
     atom   25 type  2   force =     0.00000000    0.00000000    0.00000000
     atom   26 type  2   force =     0.00000000    0.00000000    0.00000000
     atom   27 type  2   force =     0.00000000    0.00000000    0.00000000
     atom   28 type  2   force =     0.00000000    0.00000000    0.00000000
     atom   29 type  1   force =     0.00000000    0.00000000    0.00000000
     atom   30 type  1   force =     0.00000000    0.00000000    0.00000000
     atom   31 type  1   force =     0.00000000    0.00000000    0.00000000
     atom   32 type  1   force =     0.00000000    0.00000000    0.00000000
     atom   33 type  2   force =     0.00000000    0.00000000    0.00000000
     atom   34 type  2   force =     0.00000000    0.00000000    0.00000000
     atom   35 type  2   force =     0.00000000    0.00000000    0.00000000
     atom   36 type  2   force =     0.00000000    0.00000000    0.00000000
     atom   37 type  1   force =     0.00000000    0.00000000    0.00000000
     atom   38 type  1   force =     0.00000000    0.00000000    0.00000000
     atom   39 type  1   force =     0.00000000    0.00000000    0.00000000
     atom   40 type  1   force =     0.00000000    0.00000000    0.00000000
     atom   41 type  2   force =     0.00000000    0.00000000    0.00000000
     atom   42 type  2   force =     0.00000000    0.00000000    0.00000000
     atom   43 type  2   force =     0.00000000    0.00000000    0.00000000
     atom   44 type  2   force =     0.00000000    0.00000000    0.00000000
     atom   45 type  1   force =     0.00000000    0.00000000    0.00000000
     atom   46 type  1   force =     0.00000000    0.00000000    0.00000000
     atom   47 type  1   force =     0.00000000    0.00000000    0.00000000
     atom   48 type  1   force =     0.00000000    0.00000000    0.00000000
     atom   49 type  2   force =     0.00000000    0.00000000    0.00000000
     atom   50 type  2   force =     0.00000000    0.00000000    0.00000000
     atom   51 type  2   force =     0.00000000    0.00000000    0.00000000
     atom   52 type  2   force =     0.00000000    0.00000000    0.00000000
     atom   53 type  1   force =     0.00000000    0.00000000    0.00000000
     atom   54 type  1   force =     0.00000000    0.00000000    0.00000000
     atom   55 type  1   force =     0.00000000    0.00000000    0.00000000
     atom   56 type  1   force =     0.00000000    0.00000000    0.00000000
     atom   57 type  3   force =     0.00000000    0.00000000    0.00000000
     atom   58 type  2   force =     0.00000000    0.00000000    0.00000000
     atom   59 type  2   force =     0.00000000    0.00000000    0.00000000
     atom   60 type  2   force =     0.00000000    0.00000000    0.00000000
     atom   61 type  1   force =     0.00000000    0.00000000    0.00000000
     atom   62 type  1   force =     0.00000000    0.00000000    0.00000000
     atom   63 type  1   force =     0.00000000    0.00000000    0.00000000
     atom   64 type  1   force =     0.00000000    0.00000000    0.00000000
     The SCF correction term to forces
     atom    1 type  2   force =    -0.00000000    0.00000000   -0.00000000
     atom    2 type  2   force =     0.00000072    0.00000069    0.00000069
     atom    3 type  2   force =     0.00000069    0.00000072    0.00000069
     atom    4 type  2   force =     0.00000069    0.00000069    0.00000072
     atom    5 type  1   force =     0.00000104   -0.00000027   -0.00000027
     atom    6 type  1   force =    -0.00000138   -0.00000138   -0.00000138
     atom    7 type  1   force =    -0.00000027   -0.00000027    0.00000104
     atom    8 type  1   force =    -0.00000027    0.00000104   -0.00000027
     atom    9 type  2   force =    -0.00000000   -0.00000000    0.00000000
     atom   10 type  2   force =    -0.00000072    0.00000069   -0.00000069
     atom   11 type  2   force =     0.00000069   -0.00000072   -0.00000069
     atom   12 type  2   force =     0.00000120    0.00000120   -0.00000050
     atom   13 type  1   force =     0.00000054    0.00000042   -0.00000054
     atom   14 type  1   force =     0.00000054    0.00000054   -0.00000042
     atom   15 type  1   force =    -0.00000087   -0.00000087    0.00000087
     atom   16 type  1   force =     0.00000042    0.00000054   -0.00000054
     atom   17 type  2   force =    -0.00000000   -0.00000000   -0.00000000
     atom   18 type  2   force =    -0.00000072   -0.00000069    0.00000069
     atom   19 type  2   force =     0.00000120   -0.00000050    0.00000120
     atom   20 type  2   force =     0.00000069   -0.00000069   -0.00000072
     atom   21 type  1   force =     0.00000054   -0.00000054    0.00000042
     atom   22 type  1   force =     0.00000054   -0.00000042    0.00000054
     atom   23 type  1   force =     0.00000042   -0.00000054    0.00000054
     atom   24 type  1   force =    -0.00000087    0.00000087   -0.00000087
     atom   25 type  2   force =     0.00000000    0.00000000    0.00000000
     atom   26 type  2   force =     0.00000072   -0.00000069   -0.00000069
     atom   27 type  2   force =     0.00000120    0.00000050   -0.00000120
     atom   28 type  2   force =     0.00000120   -0.00000120    0.00000050
     atom   29 type  1   force =    -0.00000138    0.00000138    0.00000138
     atom   30 type  1   force =     0.00000104    0.00000027    0.00000027
     atom   31 type  1   force =    -0.00000027   -0.00000104    0.00000027
     atom   32 type  1   force =    -0.00000027    0.00000027   -0.00000104
     atom   33 type  2   force =    -0.00000000   -0.00000000   -0.00000000
     atom   34 type  2   force =    -0.00000050    0.00000120    0.00000120
     atom   35 type  2   force =    -0.00000069   -0.00000072    0.00000069
     atom   36 type  2   force =    -0.00000069    0.00000069   -0.00000072
     atom   37 type  1   force =     0.00000087   -0.00000087   -0.00000087
     atom   38 type  1   force =    -0.00000042    0.00000054    0.00000054
     atom   39 type  1   force =    -0.00000054    0.00000042    0.00000054
     atom   40 type  1   force =    -0.00000054    0.00000054    0.00000042
     atom   41 type  2   force =     0.00000000    0.00000000    0.00000000
     atom   42 type  2   force =     0.00000050    0.00000120   -0.00000120
     atom   43 type  2   force =    -0.00000069    0.00000072   -0.00000069
     atom   44 type  2   force =    -0.00000120    0.00000120    0.00000050
     atom   45 type  1   force =     0.00000027   -0.00000027   -0.00000104
     atom   46 type  1   force =     0.00000027    0.00000104    0.00000027
     atom   47 type  1   force =    -0.00000104   -0.00000027    0.00000027
     atom   48 type  1   force =     0.00000138   -0.00000138    0.00000138
     atom   49 type  2   force =    -0.00000000   -0.00000000   -0.00000000
     atom   50 type  2   force =     0.00000050   -0.00000120    0.00000120
     atom   51 type  2   force =    -0.00000120    0.00000050    0.00000120
     atom   52 type  2   force =    -0.00000069   -0.00000069    0.00000072
     atom   53 type  1   force =     0.00000027   -0.00000104   -0.00000027
     atom   54 type  1   force =     0.00000027    0.00000027    0.00000104
     atom   55 type  1   force =     0.00000138    0.00000138   -0.00000138
     atom   56 type  1   force =    -0.00000104    0.00000027   -0.00000027
     atom   57 type  3   force =    -0.00000000   -0.00000000   -0.00000000
     atom   58 type  2   force =    -0.00000050   -0.00000120   -0.00000120
     atom   59 type  2   force =    -0.00000120   -0.00000050   -0.00000120
     atom   60 type  2   force =    -0.00000120   -0.00000120   -0.00000050
     atom   61 type  1   force =    -0.00000042   -0.00000054   -0.00000054
     atom   62 type  1   force =     0.00000087    0.00000087    0.00000087
     atom   63 type  1   force =    -0.00000054   -0.00000054   -0.00000042
     atom   64 type  1   force =    -0.00000054   -0.00000042   -0.00000054

     Total force =     0.000668     Total SCF correction =     0.000011


     Computing stress (Cartesian axis) and pressure

          total   stress  (Ry/bohr**3)                   (kbar)     P=       -2.24
  -0.00001523   0.00000000   0.00000000           -2.24        0.00        0.00
   0.00000000  -0.00001523   0.00000000            0.00       -2.24        0.00
   0.00000000   0.00000000  -0.00001523            0.00        0.00       -2.24

     kinetic stress (kbar)  12318.19      0.00      0.00
                                0.00  12318.19      0.00
                                0.00      0.00  12318.19

     local   stress (kbar)   -899.13      0.00      0.00
                                0.00   -899.13      0.00
                                0.00      0.00   -899.13

     nonloc. stress (kbar)  -1044.80      0.00      0.00
                                0.00  -1044.80      0.00
                                0.00      0.00  -1044.80

     hartree stress (kbar)  11906.22      0.00      0.00
                                0.00  11906.22      0.00
                                0.00      0.00  11906.22

     exc-cor stress (kbar)   8216.33     -0.00      0.00
                               -0.00   8216.33     -0.00
                                0.00     -0.00   8216.33

     corecor stress (kbar) -13522.36     -0.00      0.00
                               -0.00 -13522.36     -0.00
                                0.00     -0.00 -13522.36

     ewald   stress (kbar) -16976.70     -0.00     -0.00
                               -0.00 -16976.70     -0.00
                               -0.00     -0.00 -16976.70

     hubbard stress (kbar)      0.00      0.00      0.00
                                0.00      0.00      0.00
                                0.00      0.00      0.00

     DFT-D   stress (kbar)      0.00      0.00      0.00
                                0.00      0.00      0.00
                                0.00      0.00      0.00

     XDM     stress (kbar)      0.00      0.00      0.00
                                0.00      0.00      0.00
                                0.00      0.00      0.00

     dft-nl  stress (kbar)      0.00      0.00      0.00
                                0.00      0.00      0.00
                                0.00      0.00      0.00

     TS-vdW  stress (kbar)      0.00      0.00      0.00
                                0.00      0.00      0.00
                                0.00      0.00      0.00

     MDB     stress (kbar)      0.00      0.00      0.00
                                0.00      0.00      0.00
                                0.00      0.00      0.00

     3D-RISM stress (kbar)      0.00      0.00      0.00
                                0.00      0.00      0.00
                                0.00      0.00      0.00

     Energy error            =      3.2E-06 Ry
     Gradient error          =      8.2E-05 Ry/Bohr

     bfgs converged in  12 scf cycles and  11 bfgs steps
     (criteria: energy <  1.0E-05 Ry, force <  1.0E-04 Ry/Bohr)

     End of BFGS Geometry Optimization

     Final energy             =  -10167.4096594360 Ry

     File ./out/Cu_q0.bfgs deleted, as requested
Begin final coordinates

ATOMIC_POSITIONS (crystal)
Zn            0.0000000000       -0.0000000000        0.0000000000
Zn            0.0001094573        0.2501791042        0.2501791042
Zn            0.2501791042        0.0001094573        0.2501791042
Zn            0.2501791042        0.2501791042        0.0001094573
S             0.1253015119        0.3750814365        0.3750814365
S             0.1249996043        0.1249996043        0.1249996043
S             0.3750814365        0.3750814365        0.1253015119
S             0.3750814365        0.1253015119        0.3750814365
Zn            0.0000000000        0.0000000000        0.5000000000
Zn           -0.0001094573        0.2501791042        0.7498208958
Zn            0.2501791042       -0.0001094573        0.7498208958
Zn            0.2513349838        0.2513349838        0.5009048173
S             0.1251847121        0.3750623115        0.8748152879
S             0.1251847121        0.1251847121        0.6249376885
S             0.3769191109        0.3769191109        0.6230808891
S             0.3750623115        0.1251847121        0.8748152879
Zn            0.0000000000        0.5000000000        0.0000000000
Zn           -0.0001094573        0.7498208958        0.2501791042
Zn            0.2513349838        0.5009048173        0.2513349838
Zn            0.2501791042        0.7498208958       -0.0001094573
S             0.1251847121        0.8748152879        0.3750623115
S             0.1251847121        0.6249376885        0.1251847121
S             0.3750623115        0.8748152879        0.1251847121
S             0.3769191109        0.6230808891        0.3769191109
Zn            0.0000000000        0.5000000000        0.5000000000
Zn            0.0001094573        0.7498208958        0.7498208958
Zn            0.2513349838        0.4990951827        0.7486650162
Zn            0.2513349838        0.7486650162        0.4990951827
S             0.1249996043        0.8750003957        0.8750003957
S             0.1253015119        0.6249185635        0.6249185635
S             0.3750814365        0.8746984881        0.6249185635
S             0.3750814365        0.6249185635        0.8746984881
Zn            0.5000000000        0.0000000000        0.0000000000
Zn            0.5009048173        0.2513349838        0.2513349838
Zn            0.7498208958       -0.0001094573        0.2501791042
Zn            0.7498208958        0.2501791042       -0.0001094573
S             0.6230808891        0.3769191109        0.3769191109
S             0.6249376885        0.1251847121        0.1251847121
S             0.8748152879        0.3750623115        0.1251847121
S             0.8748152879        0.1251847121        0.3750623115
Zn            0.5000000000        0.0000000000        0.5000000000
Zn            0.4990951827        0.2513349838        0.7486650162
Zn            0.7498208958        0.0001094573        0.7498208958
Zn            0.7486650162        0.2513349838        0.4990951827
S             0.6249185635        0.3750814365        0.8746984881
S             0.6249185635        0.1253015119        0.6249185635
S             0.8746984881        0.3750814365        0.6249185635
S             0.8750003957        0.1249996043        0.8750003957
Zn            0.5000000000        0.5000000000        0.0000000000
Zn            0.4990951827        0.7486650162        0.2513349838
Zn            0.7486650162        0.4990951827        0.2513349838
Zn            0.7498208958        0.7498208958        0.0001094573
S             0.6249185635        0.8746984881        0.3750814365
S             0.6249185635        0.6249185635        0.1253015119
S             0.8750003957        0.8750003957        0.1249996043
S             0.8746984881        0.6249185635        0.3750814365
Cu            0.5000000000        0.5000000000        0.5000000000
Zn            0.5009048173        0.7486650162        0.7486650162
Zn            0.7486650162        0.5009048173        0.7486650162
Zn            0.7486650162        0.7486650162        0.5009048173
S             0.6249376885        0.8748152879        0.8748152879
S             0.6230808891        0.6230808891        0.6230808891
S             0.8748152879        0.8748152879        0.6249376885
S             0.8748152879        0.6249376885        0.8748152879
End final coordinates


 
     init_run     :      8.67s CPU     10.02s WALL (       1 calls)
     electrons    :   2093.22s CPU   2199.89s WALL (      12 calls)
     update_pot   :     25.18s CPU     26.37s WALL (      11 calls)
     forces       :     41.91s CPU     42.62s WALL (      12 calls)
     stress       :   1402.93s CPU   1413.08s WALL (      12 calls)

     Called by init_run:
     wfcinit      :      6.43s CPU      7.27s WALL (       1 calls)
     wfcinit:atom :      0.04s CPU      0.06s WALL (       4 calls)
     wfcinit:wfcr :      6.17s CPU      6.46s WALL (       4 calls)
     potinit      :      0.56s CPU      0.70s WALL (       1 calls)
     hinit0       :      0.38s CPU      0.53s WALL (       1 calls)

     Called by electrons:
     c_bands      :   1864.97s CPU   1925.77s WALL (     115 calls)
     sum_band     :    203.34s CPU    205.77s WALL (     115 calls)
     v_of_rho     :      7.40s CPU      7.54s WALL (     115 calls)
     v_h          :      0.35s CPU      0.35s WALL (     115 calls)
     v_xc         :      8.47s CPU      8.62s WALL (     139 calls)
     newd         :      5.30s CPU      5.40s WALL (     115 calls)
     PAW_pot      :     10.89s CPU     11.18s WALL (     126 calls)
     mix_rho      :      2.09s CPU      2.18s WALL (     115 calls)

     Called by c_bands:
     init_us_2    :     29.50s CPU     29.86s WALL (    1064 calls)
     init_us_2:cp :     29.49s CPU     29.85s WALL (    1064 calls)
     cegterg      :   1752.17s CPU   1779.67s WALL (     460 calls)

     Called by sum_band:
     sum_band:wei :      0.43s CPU      0.44s WALL (     115 calls)
     sum_band:loo :    182.81s CPU    185.02s WALL (     115 calls)
     sum_band:buf :      3.89s CPU      4.55s WALL (     460 calls)
     sum_band:ini :     13.03s CPU     13.13s WALL (     460 calls)
     sum_band:cal :     74.07s CPU     74.62s WALL (     504 calls)
     sum_band:bec :      2.05s CPU      2.07s WALL (     504 calls)
     addusdens    :      8.93s CPU      9.02s WALL (     115 calls)
                                        0.00s GPU  (     115 calls)
     addusd:skk   :      0.17s CPU      0.17s WALL (     345 calls)
                                        0.00s GPU  (     345 calls)

     Called by *egterg:
     cdiaghg      :    125.48s CPU    126.36s WALL (    2201 calls)
     cegterg:over :    137.85s CPU    139.05s WALL (    1833 calls)
     cegterg:upda :    128.13s CPU    129.09s WALL (    1833 calls)
     cegterg:last :    235.97s CPU    237.65s WALL (    1022 calls)
     cdiaghg:chol :      7.51s CPU      7.59s WALL (    2201 calls)
     cdiaghg:inve :      6.95s CPU      6.99s WALL (    2201 calls)
     cdiaghg:para :     16.66s CPU     16.80s WALL (    4402 calls)
     h_psi        :    879.11s CPU    893.90s WALL (    2297 calls)
     s_psi        :    193.34s CPU    194.84s WALL (    2297 calls)
     g_psi        :      4.98s CPU      5.02s WALL (    1833 calls)

     Called by h_psi:
     h_psi:calbec :    187.37s CPU    188.95s WALL (    2297 calls)
     vloc_psi     :    489.45s CPU    494.34s WALL (    2297 calls)
     add_vuspsi   :    194.14s CPU    197.13s WALL (    2297 calls)

     General routines
     calbec       :    310.54s CPU    312.96s WALL (    3041 calls)
     fft          :     26.52s CPU     26.90s WALL (    2954 calls)
     ffts         :      0.38s CPU      0.39s WALL (     230 calls)
     fftw         :    542.09s CPU    547.45s WALL ( 1000416 calls)
 
     Parallel routines

     PAW routines
     PAW_pot      :     10.89s CPU     11.18s WALL (     126 calls)
     PAW_symme    :      0.27s CPU      0.27s WALL (     241 calls)
 
     PWSCF        :  59m44.77s CPU      1h 2m WALL

 
   This run was terminated on:  11: 8:27  28Jun2024            

=------------------------------------------------------------------------------=
   JOB DONE.
=------------------------------------------------------------------------------=
