
     Program PWSCF v.7.2 starts on 29Jun2024 at  1: 8:43 

     This program is part of the open-source Quantum ESPRESSO suite
     for quantum simulation of materials; please cite
         "P. Giannozzi et al., J. Phys.:Condens. Matter 21 395502 (2009);
         "P. Giannozzi et al., J. Phys.:Condens. Matter 29 465901 (2017);
         "P. Giannozzi et al., J. Chem. Phys. 152 154105 (2020);
          URL http://www.quantum-espresso.org", 
     in publications or presentations arising from this work. More details at
     http://www.quantum-espresso.org/quote

     Parallel version (MPI), running on   560 processors

     MPI processes distributed on     5 nodes
     225931 MiB available memory on the printing compute node when the environment starts
 
     Reading input from 2.Cu_in_ZnS.scf.q0.in

     Current dimensions of program PWSCF are:
     Max number of different atomic species (ntypx) = 10
     Max number of k-points (npk) =  40000
     Max angular momentum in pseudopotentials (lmaxx) =  4
     file S.pbe-n-kjpaw_psl.1.0.0.UPF: wavefunction(s)  3S 3P renormalized
     file Zn.pbe-dnl-kjpaw_psl.1.0.0.UPF: wavefunction(s)  4S 3D renormalized
     file Cu.pbe-spn-kjpaw_psl.1.0.0.UPF: wavefunction(s)  4S 3P 3D renormalized
 
     K-points division:     npool     =       5
     R & G space division:  proc/nbgrp/npool/nimage =     112
     Subspace diagonalization in iterative solution of the eigenvalue problem:
     one sub-group per band group will be used
     scalapack distributed-memory algorithm (size of sub-group:  4*  4 procs)

 
     Parallelization info
     --------------------
     sticks:   dense  smooth     PW     G-vecs:    dense   smooth      PW
     Min         180     180     46                19282    19282    2562
     Max         181     181     47                19291    19291    2573
     Sum       20217   20217   5249              2160009  2160009  287777
 
     Using Slab Decomposition
 


     bravais-lattice index     =            1
     lattice parameter (alat)  =      20.5686  a.u.
     unit-cell volume          =    8701.8437 (a.u.)^3
     number of atoms/cell      =           64
     number of atomic types    =            3
     number of electrons       =       583.00
     number of Kohn-Sham states=          350
     kinetic-energy cutoff     =     150.0000  Ry
     charge density cutoff     =     600.0000  Ry
     scf convergence threshold =      1.0E-08
     mixing beta               =       0.7000
     number of iterations used =            8  plain     mixing
     Exchange-correlation= SLA  PW   PBX  PBC
                           (   1   4   3   4   0   0   0)

     celldm(1)=  20.568554  celldm(2)=   0.000000  celldm(3)=   0.000000
     celldm(4)=   0.000000  celldm(5)=   0.000000  celldm(6)=   0.000000

     crystal axes: (cart. coord. in units of alat)
               a(1) = (   1.000000   0.000000   0.000000 )  
               a(2) = (   0.000000   1.000000   0.000000 )  
               a(3) = (   0.000000   0.000000   1.000000 )  

     reciprocal axes: (cart. coord. in units 2 pi/alat)
               b(1) = (  1.000000  0.000000  0.000000 )  
               b(2) = (  0.000000  1.000000  0.000000 )  
               b(3) = (  0.000000  0.000000  1.000000 )  


     PseudoPot. # 1 for S  read from file:
     /arf/home/amuhaymin/pseudo/S.pbe-n-kjpaw_psl.1.0.0.UPF
     MD5 check sum: fb45dfebcf3e72a4e1bd4a866ec2e262
     Pseudo is Projector augmented-wave + core cor, Zval =  6.0
     Generated using &quot;atomic&quot; code by A. Dal Corso  v.6.3
     Shape of augmentation charge: PSQ
     Using radial grid of 1151 points,  6 beta functions with: 
                l(1) =   0
                l(2) =   0
                l(3) =   1
                l(4) =   1
                l(5) =   2
                l(6) =   2
     Q(r) pseudized with 0 coefficients 


     PseudoPot. # 2 for Zn read from file:
     /arf/home/amuhaymin/pseudo/Zn.pbe-dnl-kjpaw_psl.1.0.0.UPF
     MD5 check sum: c608214d9520ac179f507641260889e3
     Pseudo is Projector augmented-wave + core cor, Zval = 12.0
     Generated using &quot;atomic&quot; code by A. Dal Corso  v.6.2.2
     Shape of augmentation charge: PSQ
     Using radial grid of 1201 points,  6 beta functions with: 
                l(1) =   0
                l(2) =   0
                l(3) =   1
                l(4) =   1
                l(5) =   2
                l(6) =   2
     Q(r) pseudized with 0 coefficients 


     PseudoPot. # 3 for Cu read from file:
     /arf/home/amuhaymin/pseudo/Cu.pbe-spn-kjpaw_psl.1.0.0.UPF
     MD5 check sum: e7cbaad2f97193e5fe23251a619a52b0
     Pseudo is Projector augmented-wave + core cor, Zval = 19.0
     Generated using &quot;atomic&quot; code by A. Dal Corso  v.6.3
     Shape of augmentation charge: PSQ
     Using radial grid of 1199 points,  6 beta functions with: 
                l(1) =   0
                l(2) =   0
                l(3) =   1
                l(4) =   1
                l(5) =   2
                l(6) =   2
     Q(r) pseudized with 0 coefficients 


     atomic species   valence    mass     pseudopotential
        S              6.00    32.06500     S ( 1.00)
        Zn            12.00    65.38000     Zn( 1.00)
        Cu            19.00    63.54600     Cu( 1.00)

     Starting magnetic structure 
     atomic species   magnetization
        S            0.000
        Zn           0.000
        Cu           0.053

     24 Sym. Ops. (no inversion) found


                                    s                        frac. trans.

      isym =  1     identity                                     

 cryst.   s( 1) = (     1          0          0      )
                  (     0          1          0      )
                  (     0          0          1      )

 cart.    s( 1) = (  1.0000000  0.0000000  0.0000000 )
                  (  0.0000000  1.0000000  0.0000000 )
                  (  0.0000000  0.0000000  1.0000000 )


      isym =  2     180 deg rotation - cart. axis [0,0,1]        

 cryst.   s( 2) = (    -1          0          0      )
                  (     0         -1          0      )
                  (     0          0          1      )

 cart.    s( 2) = ( -1.0000000  0.0000000  0.0000000 )
                  (  0.0000000 -1.0000000  0.0000000 )
                  (  0.0000000  0.0000000  1.0000000 )


      isym =  3     180 deg rotation - cart. axis [0,1,0]        

 cryst.   s( 3) = (    -1          0          0      )
                  (     0          1          0      )
                  (     0          0         -1      )

 cart.    s( 3) = ( -1.0000000  0.0000000  0.0000000 )
                  (  0.0000000  1.0000000  0.0000000 )
                  (  0.0000000  0.0000000 -1.0000000 )


      isym =  4     180 deg rotation - cart. axis [1,0,0]        

 cryst.   s( 4) = (     1          0          0      )
                  (     0         -1          0      )
                  (     0          0         -1      )

 cart.    s( 4) = (  1.0000000  0.0000000  0.0000000 )
                  (  0.0000000 -1.0000000  0.0000000 )
                  (  0.0000000  0.0000000 -1.0000000 )


      isym =  5     120 deg rotation - cart. axis [-1,-1,-1]     

 cryst.   s( 5) = (     0          0          1      )
                  (     1          0          0      )
                  (     0          1          0      )

 cart.    s( 5) = (  0.0000000  1.0000000  0.0000000 )
                  (  0.0000000  0.0000000  1.0000000 )
                  (  1.0000000  0.0000000  0.0000000 )


      isym =  6     120 deg rotation - cart. axis [-1,1,1]       

 cryst.   s( 6) = (     0          0         -1      )
                  (    -1          0          0      )
                  (     0          1          0      )

 cart.    s( 6) = (  0.0000000 -1.0000000  0.0000000 )
                  (  0.0000000  0.0000000  1.0000000 )
                  ( -1.0000000  0.0000000  0.0000000 )


      isym =  7     120 deg rotation - cart. axis [1,1,-1]       

 cryst.   s( 7) = (     0          0         -1      )
                  (     1          0          0      )
                  (     0         -1          0      )

 cart.    s( 7) = (  0.0000000  1.0000000  0.0000000 )
                  (  0.0000000  0.0000000 -1.0000000 )
                  ( -1.0000000  0.0000000  0.0000000 )


      isym =  8     120 deg rotation - cart. axis [1,-1,1]       

 cryst.   s( 8) = (     0          0          1      )
                  (    -1          0          0      )
                  (     0         -1          0      )

 cart.    s( 8) = (  0.0000000 -1.0000000  0.0000000 )
                  (  0.0000000  0.0000000 -1.0000000 )
                  (  1.0000000  0.0000000  0.0000000 )


      isym =  9     120 deg rotation - cart. axis [1,1,1]        

 cryst.   s( 9) = (     0          1          0      )
                  (     0          0          1      )
                  (     1          0          0      )

 cart.    s( 9) = (  0.0000000  0.0000000  1.0000000 )
                  (  1.0000000  0.0000000  0.0000000 )
                  (  0.0000000  1.0000000  0.0000000 )


      isym = 10     120 deg rotation - cart. axis [-1,1,-1]      

 cryst.   s(10) = (     0         -1          0      )
                  (     0          0         -1      )
                  (     1          0          0      )

 cart.    s(10) = (  0.0000000  0.0000000  1.0000000 )
                  ( -1.0000000  0.0000000  0.0000000 )
                  (  0.0000000 -1.0000000  0.0000000 )


      isym = 11     120 deg rotation - cart. axis [1,-1,-1]      

 cryst.   s(11) = (     0         -1          0      )
                  (     0          0          1      )
                  (    -1          0          0      )

 cart.    s(11) = (  0.0000000  0.0000000 -1.0000000 )
                  ( -1.0000000  0.0000000  0.0000000 )
                  (  0.0000000  1.0000000  0.0000000 )


      isym = 12     120 deg rotation - cart. axis [-1,-1,1]      

 cryst.   s(12) = (     0          1          0      )
                  (     0          0         -1      )
                  (    -1          0          0      )

 cart.    s(12) = (  0.0000000  0.0000000 -1.0000000 )
                  (  1.0000000  0.0000000  0.0000000 )
                  (  0.0000000 -1.0000000  0.0000000 )


      isym = 13     inv. 180 deg rotation - cart. axis [1,1,0]   

 cryst.   s(13) = (     0         -1          0      )
                  (    -1          0          0      )
                  (     0          0          1      )

 cart.    s(13) = (  0.0000000 -1.0000000  0.0000000 )
                  ( -1.0000000  0.0000000  0.0000000 )
                  (  0.0000000  0.0000000  1.0000000 )


      isym = 14     inv. 180 deg rotation - cart. axis [1,-1,0]  

 cryst.   s(14) = (     0          1          0      )
                  (     1          0          0      )
                  (     0          0          1      )

 cart.    s(14) = (  0.0000000  1.0000000  0.0000000 )
                  (  1.0000000  0.0000000  0.0000000 )
                  (  0.0000000  0.0000000  1.0000000 )


      isym = 15     inv.  90 deg rotation - cart. axis [0,0,-1]  

 cryst.   s(15) = (     0          1          0      )
                  (    -1          0          0      )
                  (     0          0         -1      )

 cart.    s(15) = (  0.0000000 -1.0000000  0.0000000 )
                  (  1.0000000  0.0000000  0.0000000 )
                  (  0.0000000  0.0000000 -1.0000000 )


      isym = 16     inv.  90 deg rotation - cart. axis [0,0,1]   

 cryst.   s(16) = (     0         -1          0      )
                  (     1          0          0      )
                  (     0          0         -1      )

 cart.    s(16) = (  0.0000000  1.0000000  0.0000000 )
                  ( -1.0000000  0.0000000  0.0000000 )
                  (  0.0000000  0.0000000 -1.0000000 )


      isym = 17     inv. 180 deg rotation - cart. axis [1,0,1]   

 cryst.   s(17) = (     0          0         -1      )
                  (     0          1          0      )
                  (    -1          0          0      )

 cart.    s(17) = (  0.0000000  0.0000000 -1.0000000 )
                  (  0.0000000  1.0000000  0.0000000 )
                  ( -1.0000000  0.0000000  0.0000000 )


      isym = 18     inv. 180 deg rotation - cart. axis [-1,0,1]  

 cryst.   s(18) = (     0          0          1      )
                  (     0          1          0      )
                  (     1          0          0      )

 cart.    s(18) = (  0.0000000  0.0000000  1.0000000 )
                  (  0.0000000  1.0000000  0.0000000 )
                  (  1.0000000  0.0000000  0.0000000 )


      isym = 19     inv.  90 deg rotation - cart. axis [0,1,0]   

 cryst.   s(19) = (     0          0          1      )
                  (     0         -1          0      )
                  (    -1          0          0      )

 cart.    s(19) = (  0.0000000  0.0000000 -1.0000000 )
                  (  0.0000000 -1.0000000  0.0000000 )
                  (  1.0000000  0.0000000  0.0000000 )


      isym = 20     inv.  90 deg rotation - cart. axis [0,-1,0]  

 cryst.   s(20) = (     0          0         -1      )
                  (     0         -1          0      )
                  (     1          0          0      )

 cart.    s(20) = (  0.0000000  0.0000000  1.0000000 )
                  (  0.0000000 -1.0000000  0.0000000 )
                  ( -1.0000000  0.0000000  0.0000000 )


      isym = 21     inv. 180 deg rotation - cart. axis [0,1,1]   

 cryst.   s(21) = (     1          0          0      )
                  (     0          0         -1      )
                  (     0         -1          0      )

 cart.    s(21) = (  1.0000000  0.0000000  0.0000000 )
                  (  0.0000000  0.0000000 -1.0000000 )
                  (  0.0000000 -1.0000000  0.0000000 )


      isym = 22     inv. 180 deg rotation - cart. axis [0,1,-1]  

 cryst.   s(22) = (     1          0          0      )
                  (     0          0          1      )
                  (     0          1          0      )

 cart.    s(22) = (  1.0000000  0.0000000  0.0000000 )
                  (  0.0000000  0.0000000  1.0000000 )
                  (  0.0000000  1.0000000  0.0000000 )


      isym = 23     inv.  90 deg rotation - cart. axis [-1,0,0]  

 cryst.   s(23) = (    -1          0          0      )
                  (     0          0          1      )
                  (     0         -1          0      )

 cart.    s(23) = ( -1.0000000  0.0000000  0.0000000 )
                  (  0.0000000  0.0000000 -1.0000000 )
                  (  0.0000000  1.0000000  0.0000000 )


      isym = 24     inv.  90 deg rotation - cart. axis [1,0,0]   

 cryst.   s(24) = (    -1          0          0      )
                  (     0          0         -1      )
                  (     0          1          0      )

 cart.    s(24) = ( -1.0000000  0.0000000  0.0000000 )
                  (  0.0000000  0.0000000  1.0000000 )
                  (  0.0000000 -1.0000000  0.0000000 )


     point group T_d (-43m) 
     there are  5 classes
     the character table:

       E     8C3   3C2   6S4   6s_d 
A_1    1.00  1.00  1.00  1.00  1.00
A_2    1.00  1.00  1.00 -1.00 -1.00
E      2.00 -1.00  2.00  0.00  0.00
T_1    3.00  0.00 -1.00  1.00 -1.00
T_2    3.00  0.00 -1.00 -1.00  1.00

     the symmetry operations in each class and the name of the first element:

     E        1
          identity                                               
     8C3      5    7    8    6   12    9   10   11
          120 deg rotation - cart. axis [-1,-1,-1]               
     3C2      2    3    4
          180 deg rotation - cart. axis [0,0,1]                  
     6S4     15   16   20   19   23   24
          inv.  90 deg rotation - cart. axis [0,0,-1]            
     6s_d    13   14   17   18   21   22
          inv. 180 deg rotation - cart. axis [1,1,0]             

   Cartesian axes

     site n.     atom                  positions (alat units)
         1           Zn  tau(   1) = (   0.0000000   0.0000000   0.0000000  )
         2           Zn  tau(   2) = (   0.0001095   0.2501791   0.2501791  )
         3           Zn  tau(   3) = (   0.2501791   0.0001095   0.2501791  )
         4           Zn  tau(   4) = (   0.2501791   0.2501791   0.0001095  )
         5           S   tau(   5) = (   0.1253015   0.3750814   0.3750814  )
         6           S   tau(   6) = (   0.1249996   0.1249996   0.1249996  )
         7           S   tau(   7) = (   0.3750814   0.3750814   0.1253015  )
         8           S   tau(   8) = (   0.3750814   0.1253015   0.3750814  )
         9           Zn  tau(   9) = (   0.0000000   0.0000000   0.5000000  )
        10           Zn  tau(  10) = (  -0.0001095   0.2501791   0.7498209  )
        11           Zn  tau(  11) = (   0.2501791  -0.0001095   0.7498209  )
        12           Zn  tau(  12) = (   0.2513350   0.2513350   0.5009048  )
        13           S   tau(  13) = (   0.1251847   0.3750623   0.8748153  )
        14           S   tau(  14) = (   0.1251847   0.1251847   0.6249377  )
        15           S   tau(  15) = (   0.3769191   0.3769191   0.6230809  )
        16           S   tau(  16) = (   0.3750623   0.1251847   0.8748153  )
        17           Zn  tau(  17) = (   0.0000000   0.5000000   0.0000000  )
        18           Zn  tau(  18) = (  -0.0001095   0.7498209   0.2501791  )
        19           Zn  tau(  19) = (   0.2513350   0.5009048   0.2513350  )
        20           Zn  tau(  20) = (   0.2501791   0.7498209  -0.0001095  )
        21           S   tau(  21) = (   0.1251847   0.8748153   0.3750623  )
        22           S   tau(  22) = (   0.1251847   0.6249377   0.1251847  )
        23           S   tau(  23) = (   0.3750623   0.8748153   0.1251847  )
        24           S   tau(  24) = (   0.3769191   0.6230809   0.3769191  )
        25           Zn  tau(  25) = (   0.0000000   0.5000000   0.5000000  )
        26           Zn  tau(  26) = (   0.0001095   0.7498209   0.7498209  )
        27           Zn  tau(  27) = (   0.2513350   0.4990952   0.7486650  )
        28           Zn  tau(  28) = (   0.2513350   0.7486650   0.4990952  )
        29           S   tau(  29) = (   0.1249996   0.8750004   0.8750004  )
        30           S   tau(  30) = (   0.1253015   0.6249186   0.6249186  )
        31           S   tau(  31) = (   0.3750814   0.8746985   0.6249186  )
        32           S   tau(  32) = (   0.3750814   0.6249186   0.8746985  )
        33           Zn  tau(  33) = (   0.5000000   0.0000000   0.0000000  )
        34           Zn  tau(  34) = (   0.5009048   0.2513350   0.2513350  )
        35           Zn  tau(  35) = (   0.7498209  -0.0001095   0.2501791  )
        36           Zn  tau(  36) = (   0.7498209   0.2501791  -0.0001095  )
        37           S   tau(  37) = (   0.6230809   0.3769191   0.3769191  )
        38           S   tau(  38) = (   0.6249377   0.1251847   0.1251847  )
        39           S   tau(  39) = (   0.8748153   0.3750623   0.1251847  )
        40           S   tau(  40) = (   0.8748153   0.1251847   0.3750623  )
        41           Zn  tau(  41) = (   0.5000000   0.0000000   0.5000000  )
        42           Zn  tau(  42) = (   0.4990952   0.2513350   0.7486650  )
        43           Zn  tau(  43) = (   0.7498209   0.0001095   0.7498209  )
        44           Zn  tau(  44) = (   0.7486650   0.2513350   0.4990952  )
        45           S   tau(  45) = (   0.6249186   0.3750814   0.8746985  )
        46           S   tau(  46) = (   0.6249186   0.1253015   0.6249186  )
        47           S   tau(  47) = (   0.8746985   0.3750814   0.6249186  )
        48           S   tau(  48) = (   0.8750004   0.1249996   0.8750004  )
        49           Zn  tau(  49) = (   0.5000000   0.5000000   0.0000000  )
        50           Zn  tau(  50) = (   0.4990952   0.7486650   0.2513350  )
        51           Zn  tau(  51) = (   0.7486650   0.4990952   0.2513350  )
        52           Zn  tau(  52) = (   0.7498209   0.7498209   0.0001095  )
        53           S   tau(  53) = (   0.6249186   0.8746985   0.3750814  )
        54           S   tau(  54) = (   0.6249186   0.6249186   0.1253015  )
        55           S   tau(  55) = (   0.8750004   0.8750004   0.1249996  )
        56           S   tau(  56) = (   0.8746985   0.6249186   0.3750814  )
        57           Cu  tau(  57) = (   0.5000000   0.5000000   0.5000000  )
        58           Zn  tau(  58) = (   0.5009048   0.7486650   0.7486650  )
        59           Zn  tau(  59) = (   0.7486650   0.5009048   0.7486650  )
        60           Zn  tau(  60) = (   0.7486650   0.7486650   0.5009048  )
        61           S   tau(  61) = (   0.6249377   0.8748153   0.8748153  )
        62           S   tau(  62) = (   0.6230809   0.6230809   0.6230809  )
        63           S   tau(  63) = (   0.8748153   0.8748153   0.6249377  )
        64           S   tau(  64) = (   0.8748153   0.6249377   0.8748153  )

   Crystallographic axes

     site n.     atom                  positions (cryst. coord.)
         1           Zn  tau(   1) = (  0.0000000  0.0000000  0.0000000  )
         2           Zn  tau(   2) = (  0.0001095  0.2501791  0.2501791  )
         3           Zn  tau(   3) = (  0.2501791  0.0001095  0.2501791  )
         4           Zn  tau(   4) = (  0.2501791  0.2501791  0.0001095  )
         5           S   tau(   5) = (  0.1253015  0.3750814  0.3750814  )
         6           S   tau(   6) = (  0.1249996  0.1249996  0.1249996  )
         7           S   tau(   7) = (  0.3750814  0.3750814  0.1253015  )
         8           S   tau(   8) = (  0.3750814  0.1253015  0.3750814  )
         9           Zn  tau(   9) = (  0.0000000  0.0000000  0.5000000  )
        10           Zn  tau(  10) = ( -0.0001095  0.2501791  0.7498209  )
        11           Zn  tau(  11) = (  0.2501791 -0.0001095  0.7498209  )
        12           Zn  tau(  12) = (  0.2513350  0.2513350  0.5009048  )
        13           S   tau(  13) = (  0.1251847  0.3750623  0.8748153  )
        14           S   tau(  14) = (  0.1251847  0.1251847  0.6249377  )
        15           S   tau(  15) = (  0.3769191  0.3769191  0.6230809  )
        16           S   tau(  16) = (  0.3750623  0.1251847  0.8748153  )
        17           Zn  tau(  17) = (  0.0000000  0.5000000  0.0000000  )
        18           Zn  tau(  18) = ( -0.0001095  0.7498209  0.2501791  )
        19           Zn  tau(  19) = (  0.2513350  0.5009048  0.2513350  )
        20           Zn  tau(  20) = (  0.2501791  0.7498209 -0.0001095  )
        21           S   tau(  21) = (  0.1251847  0.8748153  0.3750623  )
        22           S   tau(  22) = (  0.1251847  0.6249377  0.1251847  )
        23           S   tau(  23) = (  0.3750623  0.8748153  0.1251847  )
        24           S   tau(  24) = (  0.3769191  0.6230809  0.3769191  )
        25           Zn  tau(  25) = (  0.0000000  0.5000000  0.5000000  )
        26           Zn  tau(  26) = (  0.0001095  0.7498209  0.7498209  )
        27           Zn  tau(  27) = (  0.2513350  0.4990952  0.7486650  )
        28           Zn  tau(  28) = (  0.2513350  0.7486650  0.4990952  )
        29           S   tau(  29) = (  0.1249996  0.8750004  0.8750004  )
        30           S   tau(  30) = (  0.1253015  0.6249186  0.6249186  )
        31           S   tau(  31) = (  0.3750814  0.8746985  0.6249186  )
        32           S   tau(  32) = (  0.3750814  0.6249186  0.8746985  )
        33           Zn  tau(  33) = (  0.5000000  0.0000000  0.0000000  )
        34           Zn  tau(  34) = (  0.5009048  0.2513350  0.2513350  )
        35           Zn  tau(  35) = (  0.7498209 -0.0001095  0.2501791  )
        36           Zn  tau(  36) = (  0.7498209  0.2501791 -0.0001095  )
        37           S   tau(  37) = (  0.6230809  0.3769191  0.3769191  )
        38           S   tau(  38) = (  0.6249377  0.1251847  0.1251847  )
        39           S   tau(  39) = (  0.8748153  0.3750623  0.1251847  )
        40           S   tau(  40) = (  0.8748153  0.1251847  0.3750623  )
        41           Zn  tau(  41) = (  0.5000000  0.0000000  0.5000000  )
        42           Zn  tau(  42) = (  0.4990952  0.2513350  0.7486650  )
        43           Zn  tau(  43) = (  0.7498209  0.0001095  0.7498209  )
        44           Zn  tau(  44) = (  0.7486650  0.2513350  0.4990952  )
        45           S   tau(  45) = (  0.6249186  0.3750814  0.8746985  )
        46           S   tau(  46) = (  0.6249186  0.1253015  0.6249186  )
        47           S   tau(  47) = (  0.8746985  0.3750814  0.6249186  )
        48           S   tau(  48) = (  0.8750004  0.1249996  0.8750004  )
        49           Zn  tau(  49) = (  0.5000000  0.5000000  0.0000000  )
        50           Zn  tau(  50) = (  0.4990952  0.7486650  0.2513350  )
        51           Zn  tau(  51) = (  0.7486650  0.4990952  0.2513350  )
        52           Zn  tau(  52) = (  0.7498209  0.7498209  0.0001095  )
        53           S   tau(  53) = (  0.6249186  0.8746985  0.3750814  )
        54           S   tau(  54) = (  0.6249186  0.6249186  0.1253015  )
        55           S   tau(  55) = (  0.8750004  0.8750004  0.1249996  )
        56           S   tau(  56) = (  0.8746985  0.6249186  0.3750814  )
        57           Cu  tau(  57) = (  0.5000000  0.5000000  0.5000000  )
        58           Zn  tau(  58) = (  0.5009048  0.7486650  0.7486650  )
        59           Zn  tau(  59) = (  0.7486650  0.5009048  0.7486650  )
        60           Zn  tau(  60) = (  0.7486650  0.7486650  0.5009048  )
        61           S   tau(  61) = (  0.6249377  0.8748153  0.8748153  )
        62           S   tau(  62) = (  0.6230809  0.6230809  0.6230809  )
        63           S   tau(  63) = (  0.8748153  0.8748153  0.6249377  )
        64           S   tau(  64) = (  0.8748153  0.6249377  0.8748153  )

     number of k points=    10  Gaussian smearing, width (Ry)=  0.0010
                       cart. coord. in units 2pi/alat
        k(    1) = (   0.0000000   0.0000000   0.0000000), wk =   0.0156250
        k(    2) = (   0.0000000   0.0000000   0.2500000), wk =   0.0937500
        k(    3) = (   0.0000000   0.0000000  -0.5000000), wk =   0.0468750
        k(    4) = (   0.0000000   0.2500000   0.2500000), wk =   0.1875000
        k(    5) = (   0.0000000   0.2500000  -0.5000000), wk =   0.1875000
        k(    6) = (   0.0000000  -0.5000000  -0.5000000), wk =   0.0468750
        k(    7) = (   0.2500000   0.2500000   0.2500000), wk =   0.1250000
        k(    8) = (   0.2500000   0.2500000  -0.5000000), wk =   0.1875000
        k(    9) = (   0.2500000  -0.5000000  -0.5000000), wk =   0.0937500
        k(   10) = (  -0.5000000  -0.5000000  -0.5000000), wk =   0.0156250

                       cryst. coord.
        k(    1) = (   0.0000000   0.0000000   0.0000000), wk =   0.0156250
        k(    2) = (   0.0000000   0.0000000   0.2500000), wk =   0.0937500
        k(    3) = (   0.0000000   0.0000000  -0.5000000), wk =   0.0468750
        k(    4) = (   0.0000000   0.2500000   0.2500000), wk =   0.1875000
        k(    5) = (   0.0000000   0.2500000  -0.5000000), wk =   0.1875000
        k(    6) = (   0.0000000  -0.5000000  -0.5000000), wk =   0.0468750
        k(    7) = (   0.2500000   0.2500000   0.2500000), wk =   0.1250000
        k(    8) = (   0.2500000   0.2500000  -0.5000000), wk =   0.1875000
        k(    9) = (   0.2500000  -0.5000000  -0.5000000), wk =   0.0937500
        k(   10) = (  -0.5000000  -0.5000000  -0.5000000), wk =   0.0156250

     Dense  grid:  2160009 G-vectors     FFT dimensions: ( 162, 162, 162)

     Dynamical RAM for                 wfc:      12.87 MB

     Dynamical RAM for     wfc (w. buffer):      64.35 MB

     Dynamical RAM for           str. fact:       0.88 MB

     Dynamical RAM for           local pot:       0.00 MB

     Dynamical RAM for          nlocal pot:      42.36 MB

     Dynamical RAM for                qrad:       5.90 MB

     Dynamical RAM for          rho,v,vnew:       4.17 MB

     Dynamical RAM for               rhoin:       1.39 MB

     Dynamical RAM for            rho*nmix:       9.42 MB

     Dynamical RAM for           G-vectors:       1.25 MB

     Dynamical RAM for          h,s,v(r/c):       1.40 MB

     Dynamical RAM for          <psi|beta>:       6.15 MB

     Dynamical RAM for                 psi:      25.74 MB

     Dynamical RAM for                hpsi:      25.74 MB

     Dynamical RAM for                spsi:      25.74 MB

     Dynamical RAM for      wfcinit/wfcrot:      34.65 MB

     Dynamical RAM for           addusdens:      13.36 MB

     Estimated static dynamical RAM per process >     123.88 MB

     Estimated max dynamical RAM per process >     218.08 MB

     Estimated total dynamical RAM >     115.14 GB
     Generating pointlists ...
     new r_m :   0.0879 (alat units)  1.8088 (a.u.) for type    1
     new r_m :   0.0889 (alat units)  1.8290 (a.u.) for type    2
     new r_m :   0.0879 (alat units)  1.8088 (a.u.) for type    3

     Initial potential from superposition of free atoms

     starting charge     582.8832, renormalised to     583.0000
     Starting wfcs are  417 randomized atomic wfcs
     Checking if some PAW data can be deallocated... 
       PAW data deallocated on  280 nodes for type:  1
       PAW data deallocated on  288 nodes for type:  2
       PAW data deallocated on  552 nodes for type:  3

     total cpu time spent up to now is       11.7 secs

     Self-consistent Calculation

     iteration #  1     ecut=   150.00 Ry     beta= 0.70
     Davidson diagonalization with overlap

---- Real-time Memory Report at c_bands before calling an iterative solver
          1321 MiB given to the printing process from OS
             0 MiB allocation reported by mallinfo(arena+hblkhd)
        198522 MiB available memory on the node where the printing process lives
------------------
     ethr =  1.00E-02,  avg # of iterations =  4.8

     Threshold (ethr) on eigenvalues was too large:
     Diagonalizing with lowered threshold

     Davidson diagonalization with overlap

---- Real-time Memory Report at c_bands before calling an iterative solver
          1448 MiB given to the printing process from OS
             0 MiB allocation reported by mallinfo(arena+hblkhd)
        195460 MiB available memory on the node where the printing process lives
------------------
     ethr =  5.96E-04,  avg # of iterations =  2.0

     total cpu time spent up to now is       46.0 secs

     total energy              =  -10165.48410505 Ry
     estimated scf accuracy    <       3.54724616 Ry

     total magnetization       =     1.03 Bohr mag/cell
     absolute magnetization    =     1.19 Bohr mag/cell

     iteration #  2     ecut=   150.00 Ry     beta= 0.70
     Davidson diagonalization with overlap

---- Real-time Memory Report at c_bands before calling an iterative solver
          1465 MiB given to the printing process from OS
             0 MiB allocation reported by mallinfo(arena+hblkhd)
        195391 MiB available memory on the node where the printing process lives
------------------
     ethr =  6.08E-04,  avg # of iterations =  6.9

     total cpu time spent up to now is       68.4 secs

     total energy              =  -10166.15020857 Ry
     estimated scf accuracy    <      10.00399555 Ry

     total magnetization       =     0.00 Bohr mag/cell
     absolute magnetization    =     0.10 Bohr mag/cell

     iteration #  3     ecut=   150.00 Ry     beta= 0.70
     Davidson diagonalization with overlap

---- Real-time Memory Report at c_bands before calling an iterative solver
          1484 MiB given to the printing process from OS
             0 MiB allocation reported by mallinfo(arena+hblkhd)
        195116 MiB available memory on the node where the printing process lives
------------------
     ethr =  6.08E-04,  avg # of iterations =  5.8

     total cpu time spent up to now is       87.3 secs

     total energy              =  -10167.28284953 Ry
     estimated scf accuracy    <       0.44253377 Ry

     total magnetization       =     1.00 Bohr mag/cell
     absolute magnetization    =     1.00 Bohr mag/cell

     iteration #  4     ecut=   150.00 Ry     beta= 0.70
     Davidson diagonalization with overlap

---- Real-time Memory Report at c_bands before calling an iterative solver
          1499 MiB given to the printing process from OS
             0 MiB allocation reported by mallinfo(arena+hblkhd)
        194888 MiB available memory on the node where the printing process lives
------------------
     ethr =  7.59E-05,  avg # of iterations = 14.7

     total cpu time spent up to now is      112.9 secs

     total energy              =  -10167.32864357 Ry
     estimated scf accuracy    <       0.41931965 Ry

     total magnetization       =     0.28 Bohr mag/cell
     absolute magnetization    =     0.34 Bohr mag/cell

     iteration #  5     ecut=   150.00 Ry     beta= 0.70
     Davidson diagonalization with overlap

---- Real-time Memory Report at c_bands before calling an iterative solver
          1520 MiB given to the printing process from OS
             0 MiB allocation reported by mallinfo(arena+hblkhd)
        194677 MiB available memory on the node where the printing process lives
------------------
     ethr =  7.19E-05,  avg # of iterations = 10.2

     total cpu time spent up to now is      133.4 secs

     total energy              =  -10167.37643798 Ry
     estimated scf accuracy    <       0.14710967 Ry

     total magnetization       =     1.00 Bohr mag/cell
     absolute magnetization    =     1.02 Bohr mag/cell

     iteration #  6     ecut=   150.00 Ry     beta= 0.70
     Davidson diagonalization with overlap

---- Real-time Memory Report at c_bands before calling an iterative solver
          1529 MiB given to the printing process from OS
             0 MiB allocation reported by mallinfo(arena+hblkhd)
        194432 MiB available memory on the node where the printing process lives
------------------
     ethr =  2.52E-05,  avg # of iterations =  4.8

     total cpu time spent up to now is      151.0 secs

     total energy              =  -10167.39757348 Ry
     estimated scf accuracy    <       0.13175244 Ry

     total magnetization       =     0.53 Bohr mag/cell
     absolute magnetization    =     0.56 Bohr mag/cell

     iteration #  7     ecut=   150.00 Ry     beta= 0.70
     Davidson diagonalization with overlap

---- Real-time Memory Report at c_bands before calling an iterative solver
          1536 MiB given to the printing process from OS
             0 MiB allocation reported by mallinfo(arena+hblkhd)
        194274 MiB available memory on the node where the printing process lives
------------------
     ethr =  2.26E-05,  avg # of iterations =  2.0

     total cpu time spent up to now is      165.3 secs

     total energy              =  -10167.40907592 Ry
     estimated scf accuracy    <       0.00339796 Ry

     total magnetization       =     1.00 Bohr mag/cell
     absolute magnetization    =     1.01 Bohr mag/cell

     iteration #  8     ecut=   150.00 Ry     beta= 0.70
     Davidson diagonalization with overlap

---- Real-time Memory Report at c_bands before calling an iterative solver
          1542 MiB given to the printing process from OS
             0 MiB allocation reported by mallinfo(arena+hblkhd)
        194076 MiB available memory on the node where the printing process lives
------------------
     c_bands:  2 eigenvalues not converged
     c_bands:  1 eigenvalues not converged
     c_bands:  2 eigenvalues not converged
     ethr =  5.83E-07,  avg # of iterations = 17.8

     total cpu time spent up to now is      191.9 secs

     total energy              =  -10167.40958384 Ry
     estimated scf accuracy    <       0.00030812 Ry

     total magnetization       =     1.00 Bohr mag/cell
     absolute magnetization    =     1.01 Bohr mag/cell

     iteration #  9     ecut=   150.00 Ry     beta= 0.70
     Davidson diagonalization with overlap

---- Real-time Memory Report at c_bands before calling an iterative solver
          1557 MiB given to the printing process from OS
             0 MiB allocation reported by mallinfo(arena+hblkhd)
        193863 MiB available memory on the node where the printing process lives
------------------
     ethr =  5.29E-08,  avg # of iterations =  3.6

     total cpu time spent up to now is      209.5 secs

     total energy              =  -10167.40964919 Ry
     estimated scf accuracy    <       0.00002469 Ry

     total magnetization       =     0.99 Bohr mag/cell
     absolute magnetization    =     1.02 Bohr mag/cell

     iteration # 10     ecut=   150.00 Ry     beta= 0.70
     Davidson diagonalization with overlap

---- Real-time Memory Report at c_bands before calling an iterative solver
          1563 MiB given to the printing process from OS
             0 MiB allocation reported by mallinfo(arena+hblkhd)
        193661 MiB available memory on the node where the printing process lives
------------------
     ethr =  4.23E-09,  avg # of iterations =  4.3

     total cpu time spent up to now is      231.0 secs

     total energy              =  -10167.40964981 Ry
     estimated scf accuracy    <       0.00009008 Ry

     total magnetization       =     0.99 Bohr mag/cell
     absolute magnetization    =     1.02 Bohr mag/cell

     iteration # 11     ecut=   150.00 Ry     beta= 0.70
     Davidson diagonalization with overlap

---- Real-time Memory Report at c_bands before calling an iterative solver
          1571 MiB given to the printing process from OS
             0 MiB allocation reported by mallinfo(arena+hblkhd)
        193448 MiB available memory on the node where the printing process lives
------------------
     ethr =  4.23E-09,  avg # of iterations =  3.0

     total cpu time spent up to now is      246.5 secs

     total energy              =  -10167.40965876 Ry
     estimated scf accuracy    <       0.00000200 Ry

     total magnetization       =     1.00 Bohr mag/cell
     absolute magnetization    =     1.03 Bohr mag/cell

     iteration # 12     ecut=   150.00 Ry     beta= 0.70
     Davidson diagonalization with overlap

---- Real-time Memory Report at c_bands before calling an iterative solver
          1576 MiB given to the printing process from OS
             0 MiB allocation reported by mallinfo(arena+hblkhd)
        193439 MiB available memory on the node where the printing process lives
------------------
     ethr =  3.42E-10,  avg # of iterations =  4.3

     total cpu time spent up to now is      265.9 secs

     total energy              =  -10167.40965933 Ry
     estimated scf accuracy    <       0.00000018 Ry

     total magnetization       =     1.00 Bohr mag/cell
     absolute magnetization    =     1.03 Bohr mag/cell

     iteration # 13     ecut=   150.00 Ry     beta= 0.70
     Davidson diagonalization with overlap

---- Real-time Memory Report at c_bands before calling an iterative solver
          1582 MiB given to the printing process from OS
             0 MiB allocation reported by mallinfo(arena+hblkhd)
        193421 MiB available memory on the node where the printing process lives
------------------
     ethr =  3.14E-11,  avg # of iterations =  4.7

     total cpu time spent up to now is      287.7 secs

     total energy              =  -10167.40965941 Ry
     estimated scf accuracy    <       0.00000007 Ry

     total magnetization       =     1.00 Bohr mag/cell
     absolute magnetization    =     1.04 Bohr mag/cell

     iteration # 14     ecut=   150.00 Ry     beta= 0.70
     Davidson diagonalization with overlap

---- Real-time Memory Report at c_bands before calling an iterative solver
          1587 MiB given to the printing process from OS
             0 MiB allocation reported by mallinfo(arena+hblkhd)
        193405 MiB available memory on the node where the printing process lives
------------------
     ethr =  1.24E-11,  avg # of iterations =  3.0
 
     Magnetic moment per site  (integrated on atomic sphere of radius R)
     atom   1 (R=0.089)  charge= 10.1410  magn=  0.0011
     atom   2 (R=0.089)  charge= 10.1402  magn=  0.0011
     atom   3 (R=0.089)  charge= 10.1402  magn=  0.0011
     atom   4 (R=0.089)  charge= 10.1402  magn=  0.0011
     atom   5 (R=0.088)  charge=  3.8849  magn=  0.0049
     atom   6 (R=0.088)  charge=  3.8853  magn=  0.0062
     atom   7 (R=0.088)  charge=  3.8849  magn=  0.0049
     atom   8 (R=0.088)  charge=  3.8849  magn=  0.0049
     atom   9 (R=0.089)  charge= 10.1395  magn=  0.0020
     atom  10 (R=0.089)  charge= 10.1402  magn=  0.0011
     atom  11 (R=0.089)  charge= 10.1402  magn=  0.0011
     atom  12 (R=0.089)  charge= 10.1399  magn=  0.0034
     atom  13 (R=0.088)  charge=  3.8835  magn=  0.0100
     atom  14 (R=0.088)  charge=  3.8835  magn=  0.0100
     atom  15 (R=0.088)  charge=  3.8789  magn=  0.0545
     atom  16 (R=0.088)  charge=  3.8835  magn=  0.0100
     atom  17 (R=0.089)  charge= 10.1395  magn=  0.0020
     atom  18 (R=0.089)  charge= 10.1402  magn=  0.0011
     atom  19 (R=0.089)  charge= 10.1399  magn=  0.0034
     atom  20 (R=0.089)  charge= 10.1402  magn=  0.0011
     atom  21 (R=0.088)  charge=  3.8835  magn=  0.0100
     atom  22 (R=0.088)  charge=  3.8835  magn=  0.0100
     atom  23 (R=0.088)  charge=  3.8835  magn=  0.0100
     atom  24 (R=0.088)  charge=  3.8789  magn=  0.0545
     atom  25 (R=0.089)  charge= 10.1407  magn=  0.0006
     atom  26 (R=0.089)  charge= 10.1402  magn=  0.0011
     atom  27 (R=0.089)  charge= 10.1399  magn=  0.0034
     atom  28 (R=0.089)  charge= 10.1399  magn=  0.0034
     atom  29 (R=0.088)  charge=  3.8853  magn=  0.0062
     atom  30 (R=0.088)  charge=  3.8849  magn=  0.0049
     atom  31 (R=0.088)  charge=  3.8849  magn=  0.0049
     atom  32 (R=0.088)  charge=  3.8849  magn=  0.0049
     atom  33 (R=0.089)  charge= 10.1395  magn=  0.0020
     atom  34 (R=0.089)  charge= 10.1399  magn=  0.0034
     atom  35 (R=0.089)  charge= 10.1402  magn=  0.0011
     atom  36 (R=0.089)  charge= 10.1402  magn=  0.0011
     atom  37 (R=0.088)  charge=  3.8789  magn=  0.0545
     atom  38 (R=0.088)  charge=  3.8835  magn=  0.0100
     atom  39 (R=0.088)  charge=  3.8835  magn=  0.0100
     atom  40 (R=0.088)  charge=  3.8835  magn=  0.0100
     atom  41 (R=0.089)  charge= 10.1407  magn=  0.0006
     atom  42 (R=0.089)  charge= 10.1399  magn=  0.0034
     atom  43 (R=0.089)  charge= 10.1402  magn=  0.0011
     atom  44 (R=0.089)  charge= 10.1399  magn=  0.0034
     atom  45 (R=0.088)  charge=  3.8849  magn=  0.0049
     atom  46 (R=0.088)  charge=  3.8849  magn=  0.0049
     atom  47 (R=0.088)  charge=  3.8849  magn=  0.0049
     atom  48 (R=0.088)  charge=  3.8853  magn=  0.0062
     atom  49 (R=0.089)  charge= 10.1407  magn=  0.0006
     atom  50 (R=0.089)  charge= 10.1399  magn=  0.0034
     atom  51 (R=0.089)  charge= 10.1399  magn=  0.0034
     atom  52 (R=0.089)  charge= 10.1402  magn=  0.0011
     atom  53 (R=0.088)  charge=  3.8849  magn=  0.0049
     atom  54 (R=0.088)  charge=  3.8849  magn=  0.0049
     atom  55 (R=0.088)  charge=  3.8853  magn=  0.0062
     atom  56 (R=0.088)  charge=  3.8849  magn=  0.0049
     atom  57 (R=0.088)  charge= 17.2738  magn=  0.3050
     atom  58 (R=0.089)  charge= 10.1399  magn=  0.0034
     atom  59 (R=0.089)  charge= 10.1399  magn=  0.0034
     atom  60 (R=0.089)  charge= 10.1399  magn=  0.0034
     atom  61 (R=0.088)  charge=  3.8835  magn=  0.0100
     atom  62 (R=0.088)  charge=  3.8789  magn=  0.0545
     atom  63 (R=0.088)  charge=  3.8835  magn=  0.0100
     atom  64 (R=0.088)  charge=  3.8835  magn=  0.0100

     total cpu time spent up to now is      304.0 secs

     End of self-consistent calculation

 ------ SPIN UP ------------


          k = 0.0000 0.0000 0.0000 (269825 PWs)   bands (ev):

  -106.0846 -63.4611 -63.4611 -63.4611  -7.4542  -6.9175  -6.9175  -6.9152
    -6.9152  -6.9152  -6.9063  -6.6007  -6.6007  -6.6007  -6.5993  -6.5955
    -6.5955  -6.5955  -6.5948  -6.5948  -6.5948  -6.5948  -6.5948  -6.5527
    -6.5527  -6.5527  -6.5404  -6.2835  -6.2835  -6.2835  -6.2662  -6.2662
    -6.2662  -6.2431  -6.2431  -6.2431  -0.7143  -0.7141  -0.7141  -0.7132
    -0.7132  -0.7132  -0.6776  -0.6776  -0.6761  -0.6647  -0.6647  -0.6647
    -0.5748  -0.5748  -0.5748  -0.5741  -0.5741  -0.5664  -0.5664  -0.5664
    -0.5602  -0.5602  -0.5602  -0.5545  -0.5545  -0.5545  -0.5537  -0.5495
    -0.5492  -0.5492  -0.5492  -0.5486  -0.5486  -0.5406  -0.5406  -0.5406
    -0.5397  -0.5397  -0.5397  -0.5347  -0.5347  -0.5347  -0.5291  -0.5291
    -0.5291  -0.5267  -0.5267  -0.5267  -0.5262  -0.5262  -0.5182  -0.5182
    -0.5182  -0.5131  -0.5128  -0.5128  -0.5128  -0.4888  -0.4888  -0.4419
    -0.4419  -0.4419  -0.4048  -0.4048  -0.4048  -0.4008  -0.4008  -0.4008
    -0.3939  -0.3939  -0.3939  -0.3892  -0.3892  -0.3892  -0.3857  -0.3857
    -0.3746  -0.3628  -0.3628  -0.3628  -0.3394  -0.3394  -0.3394  -0.2603
    -0.2603  -0.2603  -0.2513  -0.2513  -0.2513  -0.2497  -0.2497  -0.2490
    -0.2369  -0.2369  -0.2344  -0.2344  -0.2344  -0.2341  -0.2314  -0.2268
    -0.2268  -0.2104  -0.2104  -0.2104  -0.2096  -0.2096  -0.2096  -0.2078
    -0.2031  -0.2031  -0.2031  -0.2010  -0.2010  -0.1856  -0.1856  -0.1698
    -0.1698  -0.1698  -0.1604  -0.1604  -0.1600  -0.1599  -0.1599  -0.1599
    -0.1582  -0.1582  -0.1582  -0.1551  -0.1551  -0.1507  -0.1507  -0.1507
    -0.1316  -0.1316  -0.1316  -0.1304  -0.1264  -0.1264  -0.1264  -0.1210
    -0.1210  -0.1159  -0.0347  -0.0347  -0.0347   0.0048   0.0105   0.0105
     0.0105   0.1425   0.1425   0.1425   0.1839   0.1839   0.1839   0.3936
     0.3936   0.3936   0.4296   1.0364   1.0364   1.0547   1.0592   1.0592
     1.0618   1.0618   1.0618   1.2019   1.5267   1.5267   1.5267   1.6655
     1.6655   1.6733   1.6733   1.6733   1.6745   1.6745   1.6745   1.8597
     2.6213   2.6213   2.6213   2.7222   2.7222   2.8997   2.8997   2.8997
     2.9023   2.9023   2.9023   2.9269   2.9427   2.9427   2.9427   2.9827
     2.9827   3.0714   3.0727   3.0727   3.0807   3.0807   3.0807   3.1210
     3.1210   3.1210   3.1258   3.1258   3.1258   3.1779   3.3475   3.3475
     3.3475   3.3988   3.3988   3.3988   3.6661   3.6661   3.6661   3.9780
     3.9780   4.3468   4.3468   4.3468   4.3549   4.3549   4.3549   4.3609
     4.3609   4.3609   4.4697   4.4697   4.4697   4.6664   4.6664   4.6664
     4.6743   4.6768   4.6768   4.6768   4.6784   4.6784   4.6784   4.6865
     4.6865   4.7101   4.7101   4.7101   4.8908   4.8908   5.1517   5.1517
     5.1517   5.6859   5.6859   5.6859   7.5803   8.8106   8.8106   8.8106
     8.8721   9.0258   9.0258   9.0258   9.6225   9.6225   9.6476   9.9709
     9.9709   9.9812   9.9812   9.9812  10.0319  10.1164  10.1164  10.1375
    10.1375  10.1375  10.1455  10.3067  10.3067  10.3067  10.3088  10.3088
    10.3154  10.3154  10.3154  10.3263  10.3263  10.3263  10.6955  11.2332
    11.2332  11.2332  11.2937  11.2937  11.2937  11.4587  11.4587  11.4587
    11.4602  11.4602  11.7896  11.9492  11.9492  11.9492  12.1683  12.1683
    12.1685  12.1855  12.1855  12.1855  12.1951  12.1951

     occupation numbers 
     1.0000   1.0000   1.0000   1.0000   1.0000   1.0000   1.0000   1.0000
     1.0000   1.0000   1.0000   1.0000   1.0000   1.0000   1.0000   1.0000
     1.0000   1.0000   1.0000   1.0000   1.0000   1.0000   1.0000   1.0000
     1.0000   1.0000   1.0000   1.0000   1.0000   1.0000   1.0000   1.0000
     1.0000   1.0000   1.0000   1.0000   1.0000   1.0000   1.0000   1.0000
     1.0000   1.0000   1.0000   1.0000   1.0000   1.0000   1.0000   1.0000
     1.0000   1.0000   1.0000   1.0000   1.0000   1.0000   1.0000   1.0000
     1.0000   1.0000   1.0000   1.0000   1.0000   1.0000   1.0000   1.0000
     1.0000   1.0000   1.0000   1.0000   1.0000   1.0000   1.0000   1.0000
     1.0000   1.0000   1.0000   1.0000   1.0000   1.0000   1.0000   1.0000
     1.0000   1.0000   1.0000   1.0000   1.0000   1.0000   1.0000   1.0000
     1.0000   1.0000   1.0000   1.0000   1.0000   1.0000   1.0000   1.0000
     1.0000   1.0000   1.0000   1.0000   1.0000   1.0000   1.0000   1.0000
     1.0000   1.0000   1.0000   1.0000   1.0000   1.0000   1.0000   1.0000
     1.0000   1.0000   1.0000   1.0000   1.0000   1.0000   1.0000   1.0000
     1.0000   1.0000   1.0000   1.0000   1.0000   1.0000   1.0000   1.0000
     1.0000   1.0000   1.0000   1.0000   1.0000   1.0000   1.0000   1.0000
     1.0000   1.0000   1.0000   1.0000   1.0000   1.0000   1.0000   1.0000
     1.0000   1.0000   1.0000   1.0000   1.0000   1.0000   1.0000   1.0000
     1.0000   1.0000   1.0000   1.0000   1.0000   1.0000   1.0000   1.0000
     1.0000   1.0000   1.0000   1.0000   1.0000   1.0000   1.0000   1.0000
     1.0000   1.0000   1.0000   1.0000   1.0000   1.0000   1.0000   1.0000
     1.0000   1.0000   1.0000   1.0000   1.0000   1.0000   1.0000   1.0000
     1.0000   1.0000   1.0000   1.0000   1.0000   1.0000   1.0000   1.0000
     1.0000   1.0000   1.0000   1.0000   1.0000   1.0000   1.0000   1.0000
     1.0000   1.0000   1.0000   1.0000   1.0000   1.0000   1.0000   1.0000
     1.0000   1.0000   1.0000   1.0000   1.0000   1.0000   1.0000   1.0000
     1.0000   1.0000   1.0000   1.0000   1.0000   1.0000   1.0000   1.0000
     1.0000   1.0000   1.0000   1.0000   1.0000   1.0000   1.0000   1.0000
     1.0000   1.0000   1.0000   1.0000   1.0000   1.0000   1.0000   1.0000
     1.0000   1.0000   1.0000   1.0000   1.0000   1.0000   1.0000   1.0000
     1.0000   1.0000   1.0000   1.0000   1.0000   1.0000   1.0000   1.0000
     1.0000   1.0000   1.0000   1.0000   1.0000   1.0000   1.0000   1.0000
     1.0000   1.0000   1.0000   1.0000   1.0000   1.0000   1.0000   1.0000
     1.0000   1.0000   1.0000   1.0000   1.0000   1.0000   1.0000   1.0000
     1.0000   1.0000   1.0000   1.0000   1.0000   1.0000   1.0000   1.0000
     1.0000   0.9749   0.9749   0.9749   0.0000   0.0000   0.0000   0.0000
     0.0000   0.0000   0.0000   0.0000   0.0000   0.0000   0.0000   0.0000
     0.0000   0.0000   0.0000   0.0000   0.0000   0.0000   0.0000   0.0000
     0.0000   0.0000   0.0000   0.0000   0.0000   0.0000   0.0000   0.0000
     0.0000   0.0000   0.0000   0.0000   0.0000   0.0000   0.0000   0.0000
     0.0000   0.0000   0.0000   0.0000   0.0000   0.0000   0.0000   0.0000
     0.0000   0.0000   0.0000   0.0000   0.0000   0.0000   0.0000   0.0000
     0.0000   0.0000   0.0000   0.0000   0.0000   0.0000

          k = 0.0000 0.0000 0.2500 (269876 PWs)   bands (ev):

  -106.0846 -63.4611 -63.4611 -63.4611  -7.4161  -7.1308  -6.8935  -6.8912
    -6.8912  -6.8863  -6.7189  -6.7172  -6.7172  -6.7129  -6.6834  -6.5963
    -6.5950  -6.5949  -6.5949  -6.5656  -6.5655  -6.5655  -6.5562  -6.4698
    -6.4655  -6.4655  -6.4562  -6.3304  -6.2944  -6.2944  -6.2910  -6.2756
    -6.2756  -6.2746  -6.2473  -6.2473  -0.7116  -0.7076  -0.6974  -0.6974
    -0.6968  -0.6967  -0.6797  -0.6681  -0.6590  -0.6575  -0.6559  -0.6559
    -0.5950  -0.5950  -0.5790  -0.5772  -0.5741  -0.5731  -0.5731  -0.5704
    -0.5695  -0.5658  -0.5658  -0.5637  -0.5637  -0.5608  -0.5605  -0.5578
    -0.5578  -0.5562  -0.5548  -0.5503  -0.5494  -0.5491  -0.5491  -0.5469
    -0.5466  -0.5437  -0.5437  -0.5437  -0.5380  -0.5372  -0.5372  -0.5345
    -0.5345  -0.5344  -0.5299  -0.5276  -0.5276  -0.5270  -0.5197  -0.5142
    -0.5017  -0.4996  -0.4995  -0.4995  -0.4901  -0.4881  -0.4881  -0.4770
    -0.4748  -0.4723  -0.4723  -0.4390  -0.4350  -0.4350  -0.4230  -0.4103
    -0.4103  -0.3863  -0.3863  -0.3734  -0.3652  -0.3652  -0.3591  -0.3561
    -0.3527  -0.3527  -0.3360  -0.3045  -0.3010  -0.3010  -0.2970  -0.2886
    -0.2830  -0.2633  -0.2633  -0.2408  -0.2388  -0.2343  -0.2343  -0.2332
    -0.2331  -0.2295  -0.2293  -0.2293  -0.2266  -0.2250  -0.2210  -0.2145
    -0.2145  -0.2108  -0.2099  -0.2065  -0.2048  -0.2032  -0.2004  -0.2004
    -0.1989  -0.1965  -0.1920  -0.1920  -0.1916  -0.1890  -0.1890  -0.1889
    -0.1878  -0.1806  -0.1696  -0.1678  -0.1678  -0.1661  -0.1634  -0.1634
    -0.1627  -0.1610  -0.1591  -0.1586  -0.1501  -0.1484  -0.1484  -0.1409
    -0.1399  -0.1282  -0.1278  -0.1278  -0.1269  -0.1199  -0.1073  -0.1054
    -0.1054  -0.0931  -0.0929  -0.0874  -0.0874  -0.0731  -0.0584   0.0233
     0.0233   0.1099   0.1115   0.1115   0.1461   0.1538   0.1538   0.5811
     0.5811   0.5919   0.6127   1.0439   1.0441   1.0549   1.0642   1.0695
     1.0748   1.0748   1.1404   1.2434   1.3267   1.3267   1.3659   1.3794
     1.3985   1.3985   1.4204   1.5177   1.9778   1.9778   2.0169   2.0423
     2.2987   2.5474   2.5474   2.5953   2.6174   2.6988   2.6988   2.7509
     2.7524   2.8100   2.8269   2.8269   2.8295   2.9387   2.9515   2.9670
     2.9670   3.1000   3.1662   3.1662   3.2072   3.2964   3.3203   3.3203
     3.3436   3.3612   3.3774   3.3774   3.3866   3.4315   3.4315   3.4600
     3.4838   3.4838   3.4998   3.5974   3.7100   3.7100   3.8063   3.9579
     4.0140   4.0140   4.0293   4.2344   4.2432   4.2847   4.2847   4.3481
     4.3824   4.3824   4.3970   4.4811   4.4811   4.4822   4.4916   4.5263
     4.5263   4.5681   4.6762   4.6762   4.6793   4.6837   4.7046   4.7522
     4.7522   4.7555   4.7636   4.7636   4.7973   4.9082   5.0377   5.1369
     5.1369   5.4263   5.6000   5.6000   7.9769   9.0282   9.0287   9.0287
     9.0833   9.1017   9.2534   9.2534   9.5119   9.6614   9.7022   9.8235
     9.8367  10.0416  10.0446  10.0465  10.0465  10.0536  10.0850  10.0850
    10.0913  10.1719  10.2748  10.2847  10.2847  10.3336  10.3346  10.3606
    10.3606  10.3778  10.4337  10.4452  10.4452  10.6407  10.6978  10.7179
    10.7179  11.0454  11.0604  11.0640  11.0672  11.0672  11.2717  11.5752
    11.5835  11.5835  11.7268  11.7914  11.8294  11.8482  11.8594  11.8594
    12.0147  12.0240  12.0247  12.0386  12.0432  12.0510

     occupation numbers 
     1.0000   1.0000   1.0000   1.0000   1.0000   1.0000   1.0000   1.0000
     1.0000   1.0000   1.0000   1.0000   1.0000   1.0000   1.0000   1.0000
     1.0000   1.0000   1.0000   1.0000   1.0000   1.0000   1.0000   1.0000
     1.0000   1.0000   1.0000   1.0000   1.0000   1.0000   1.0000   1.0000
     1.0000   1.0000   1.0000   1.0000   1.0000   1.0000   1.0000   1.0000
     1.0000   1.0000   1.0000   1.0000   1.0000   1.0000   1.0000   1.0000
     1.0000   1.0000   1.0000   1.0000   1.0000   1.0000   1.0000   1.0000
     1.0000   1.0000   1.0000   1.0000   1.0000   1.0000   1.0000   1.0000
     1.0000   1.0000   1.0000   1.0000   1.0000   1.0000   1.0000   1.0000
     1.0000   1.0000   1.0000   1.0000   1.0000   1.0000   1.0000   1.0000
     1.0000   1.0000   1.0000   1.0000   1.0000   1.0000   1.0000   1.0000
     1.0000   1.0000   1.0000   1.0000   1.0000   1.0000   1.0000   1.0000
     1.0000   1.0000   1.0000   1.0000   1.0000   1.0000   1.0000   1.0000
     1.0000   1.0000   1.0000   1.0000   1.0000   1.0000   1.0000   1.0000
     1.0000   1.0000   1.0000   1.0000   1.0000   1.0000   1.0000   1.0000
     1.0000   1.0000   1.0000   1.0000   1.0000   1.0000   1.0000   1.0000
     1.0000   1.0000   1.0000   1.0000   1.0000   1.0000   1.0000   1.0000
     1.0000   1.0000   1.0000   1.0000   1.0000   1.0000   1.0000   1.0000
     1.0000   1.0000   1.0000   1.0000   1.0000   1.0000   1.0000   1.0000
     1.0000   1.0000   1.0000   1.0000   1.0000   1.0000   1.0000   1.0000
     1.0000   1.0000   1.0000   1.0000   1.0000   1.0000   1.0000   1.0000
     1.0000   1.0000   1.0000   1.0000   1.0000   1.0000   1.0000   1.0000
     1.0000   1.0000   1.0000   1.0000   1.0000   1.0000   1.0000   1.0000
     1.0000   1.0000   1.0000   1.0000   1.0000   1.0000   1.0000   1.0000
     1.0000   1.0000   1.0000   1.0000   1.0000   1.0000   1.0000   1.0000
     1.0000   1.0000   1.0000   1.0000   1.0000   1.0000   1.0000   1.0000
     1.0000   1.0000   1.0000   1.0000   1.0000   1.0000   1.0000   1.0000
     1.0000   1.0000   1.0000   1.0000   1.0000   1.0000   1.0000   1.0000
     1.0000   1.0000   1.0000   1.0000   1.0000   1.0000   1.0000   1.0000
     1.0000   1.0000   1.0000   1.0000   1.0000   1.0000   1.0000   1.0000
     1.0000   1.0000   1.0000   1.0000   1.0000   1.0000   1.0000   1.0000
     1.0000   1.0000   1.0000   1.0000   1.0000   1.0000   1.0000   1.0000
     1.0000   1.0000   1.0000   1.0000   1.0000   1.0000   1.0000   1.0000
     1.0000   1.0000   1.0000   1.0000   1.0000   1.0000   1.0000   1.0000
     1.0000   1.0000   1.0000   1.0000   1.0000   1.0000   1.0000   1.0000
     1.0000   1.0000   1.0000   1.0000   1.0000   1.0000   1.0000   1.0000
     1.0000   1.0000   1.0000   1.0000   0.0000   0.0000   0.0000   0.0000
     0.0000   0.0000   0.0000   0.0000   0.0000   0.0000   0.0000   0.0000
     0.0000   0.0000   0.0000   0.0000   0.0000   0.0000   0.0000   0.0000
     0.0000   0.0000   0.0000   0.0000   0.0000   0.0000   0.0000   0.0000
     0.0000   0.0000   0.0000   0.0000   0.0000   0.0000   0.0000   0.0000
     0.0000   0.0000   0.0000   0.0000   0.0000   0.0000   0.0000   0.0000
     0.0000   0.0000   0.0000   0.0000   0.0000   0.0000   0.0000   0.0000
     0.0000   0.0000   0.0000   0.0000   0.0000   0.0000

          k = 0.0000 0.0000-0.5000 (270152 PWs)   bands (ev):

  -106.0846 -63.4611 -63.4611 -63.4611  -7.3145  -7.2945  -6.8324  -6.8306
    -6.8306  -6.8286  -6.8152  -6.8126  -6.8126  -6.8049  -6.5941  -6.5928
    -6.5921  -6.5921  -6.5679  -6.5679  -6.5668  -6.5587  -6.4825  -6.4663
    -6.3724  -6.3699  -6.3699  -6.3600  -6.3531  -6.3511  -6.3511  -6.3407
    -6.2782  -6.2782  -6.2491  -6.2491  -0.7062  -0.7030  -0.6831  -0.6725
    -0.6588  -0.6588  -0.6543  -0.6542  -0.6448  -0.6448  -0.6383  -0.6383
    -0.6361  -0.6350  -0.6251  -0.6158  -0.6065  -0.6065  -0.6015  -0.5897
    -0.5741  -0.5732  -0.5676  -0.5676  -0.5617  -0.5617  -0.5594  -0.5593
    -0.5592  -0.5592  -0.5537  -0.5510  -0.5506  -0.5489  -0.5482  -0.5482
    -0.5456  -0.5451  -0.5438  -0.5438  -0.5429  -0.5429  -0.5392  -0.5355
    -0.5355  -0.5343  -0.5300  -0.5296  -0.5291  -0.5236  -0.5236  -0.5205
    -0.5130  -0.5130  -0.5109  -0.4986  -0.4904  -0.4829  -0.4745  -0.4745
    -0.4630  -0.4630  -0.4595  -0.4590  -0.4525  -0.4322  -0.4322  -0.4124
    -0.4124  -0.3857  -0.3857  -0.3774  -0.3774  -0.3684  -0.3315  -0.3234
    -0.3204  -0.3098  -0.3098  -0.2959  -0.2940  -0.2940  -0.2877  -0.2766
    -0.2685  -0.2685  -0.2676  -0.2623  -0.2596  -0.2580  -0.2580  -0.2447
    -0.2315  -0.2297  -0.2258  -0.2225  -0.2225  -0.2183  -0.2169  -0.2169
    -0.2137  -0.2129  -0.2112  -0.2077  -0.2074  -0.2074  -0.2033  -0.1975
    -0.1955  -0.1948  -0.1948  -0.1934  -0.1905  -0.1867  -0.1839  -0.1839
    -0.1821  -0.1790  -0.1790  -0.1756  -0.1686  -0.1670  -0.1670  -0.1667
    -0.1643  -0.1621  -0.1579  -0.1507  -0.1483  -0.1481  -0.1481  -0.1451
    -0.1437  -0.1380  -0.1367  -0.1344  -0.1317  -0.1247  -0.1232  -0.1232
    -0.1207  -0.1207  -0.1194  -0.0084  -0.0084  -0.0017   0.0295   0.0320
     0.0320   0.0371   0.0372   0.0790   0.0790   0.0939   0.0939   0.9257
     0.9257   0.9386   0.9677   0.9864   0.9864   0.9965   1.0142   1.0439
     1.0549   1.0705   1.0785   1.1122   1.1505   1.1505   1.1593   1.1605
     1.1735   1.1735   1.3629   1.6691   1.7538   2.2142   2.2142   2.3135
     2.4160   2.4566   2.4610   2.4610   2.5694   2.5701   2.6003   2.6349
     2.6349   2.6567   2.6601   2.6604   2.6604   2.9663   3.0534   3.0534
     3.0633   3.1331   3.1331   3.1331   3.1491   3.2673   3.2673   3.3467
     3.4464   3.6666   3.6666   3.7017   3.7017   3.7548   3.8555   3.8610
     3.8610   3.8619   3.8735   3.8777   3.8777   3.8956   3.8956   3.9023
     3.9099   3.9209   3.9337   3.9653   3.9653   3.9780   3.9913   3.9913
     3.9920   4.0558   4.2092   4.2381   4.2381   4.3634   4.5203   4.5439
     4.6703   4.6718   4.6718   4.6744   4.6762   4.6762   4.6842   4.6843
     4.6863   4.6863   4.7048   4.7777   4.9038   4.9403   4.9403   5.1473
     5.1473   5.2707   5.4733   5.4733   8.7346   8.7697   9.2916   9.3388
     9.5306   9.5312   9.5376   9.5376   9.5529   9.5529   9.5723   9.6524
     9.8441   9.8441   9.8516   9.9029   9.9029   9.9067  10.1712  10.1858
    10.1858  10.1894  10.1974  10.2038  10.2038  10.2942  10.3428  10.3458
    10.3837  10.5139  10.7055  10.7160  10.7160  10.7230  10.7272  10.7325
    10.7325  10.9404  10.9473  10.9485  10.9485  10.9493  10.9583  11.0334
    11.0334  11.1308  11.2618  11.2745  11.7695  11.7757  11.7757  11.7918
    11.8167  11.8168  11.8518  12.0054  12.0768  12.0783

     occupation numbers 
     1.0000   1.0000   1.0000   1.0000   1.0000   1.0000   1.0000   1.0000
     1.0000   1.0000   1.0000   1.0000   1.0000   1.0000   1.0000   1.0000
     1.0000   1.0000   1.0000   1.0000   1.0000   1.0000   1.0000   1.0000
     1.0000   1.0000   1.0000   1.0000   1.0000   1.0000   1.0000   1.0000
     1.0000   1.0000   1.0000   1.0000   1.0000   1.0000   1.0000   1.0000
     1.0000   1.0000   1.0000   1.0000   1.0000   1.0000   1.0000   1.0000
     1.0000   1.0000   1.0000   1.0000   1.0000   1.0000   1.0000   1.0000
     1.0000   1.0000   1.0000   1.0000   1.0000   1.0000   1.0000   1.0000
     1.0000   1.0000   1.0000   1.0000   1.0000   1.0000   1.0000   1.0000
     1.0000   1.0000   1.0000   1.0000   1.0000   1.0000   1.0000   1.0000
     1.0000   1.0000   1.0000   1.0000   1.0000   1.0000   1.0000   1.0000
     1.0000   1.0000   1.0000   1.0000   1.0000   1.0000   1.0000   1.0000
     1.0000   1.0000   1.0000   1.0000   1.0000   1.0000   1.0000   1.0000
     1.0000   1.0000   1.0000   1.0000   1.0000   1.0000   1.0000   1.0000
     1.0000   1.0000   1.0000   1.0000   1.0000   1.0000   1.0000   1.0000
     1.0000   1.0000   1.0000   1.0000   1.0000   1.0000   1.0000   1.0000
     1.0000   1.0000   1.0000   1.0000   1.0000   1.0000   1.0000   1.0000
     1.0000   1.0000   1.0000   1.0000   1.0000   1.0000   1.0000   1.0000
     1.0000   1.0000   1.0000   1.0000   1.0000   1.0000   1.0000   1.0000
     1.0000   1.0000   1.0000   1.0000   1.0000   1.0000   1.0000   1.0000
     1.0000   1.0000   1.0000   1.0000   1.0000   1.0000   1.0000   1.0000
     1.0000   1.0000   1.0000   1.0000   1.0000   1.0000   1.0000   1.0000
     1.0000   1.0000   1.0000   1.0000   1.0000   1.0000   1.0000   1.0000
     1.0000   1.0000   1.0000   1.0000   1.0000   1.0000   1.0000   1.0000
     1.0000   1.0000   1.0000   1.0000   1.0000   1.0000   1.0000   1.0000
     1.0000   1.0000   1.0000   1.0000   1.0000   1.0000   1.0000   1.0000
     1.0000   1.0000   1.0000   1.0000   1.0000   1.0000   1.0000   1.0000
     1.0000   1.0000   1.0000   1.0000   1.0000   1.0000   1.0000   1.0000
     1.0000   1.0000   1.0000   1.0000   1.0000   1.0000   1.0000   1.0000
     1.0000   1.0000   1.0000   1.0000   1.0000   1.0000   1.0000   1.0000
     1.0000   1.0000   1.0000   1.0000   1.0000   1.0000   1.0000   1.0000
     1.0000   1.0000   1.0000   1.0000   1.0000   1.0000   1.0000   1.0000
     1.0000   1.0000   1.0000   1.0000   1.0000   1.0000   1.0000   1.0000
     1.0000   1.0000   1.0000   1.0000   1.0000   1.0000   1.0000   1.0000
     1.0000   1.0000   1.0000   1.0000   1.0000   1.0000   1.0000   1.0000
     1.0000   1.0000   1.0000   1.0000   1.0000   1.0000   1.0000   1.0000
     1.0000   1.0000   1.0000   1.0000   0.0000   0.0000   0.0000   0.0000
     0.0000   0.0000   0.0000   0.0000   0.0000   0.0000   0.0000   0.0000
     0.0000   0.0000   0.0000   0.0000   0.0000   0.0000   0.0000   0.0000
     0.0000   0.0000   0.0000   0.0000   0.0000   0.0000   0.0000   0.0000
     0.0000   0.0000   0.0000   0.0000   0.0000   0.0000   0.0000   0.0000
     0.0000   0.0000   0.0000   0.0000   0.0000   0.0000   0.0000   0.0000
     0.0000   0.0000   0.0000   0.0000   0.0000   0.0000   0.0000   0.0000
     0.0000   0.0000   0.0000   0.0000   0.0000   0.0000

          k = 0.0000 0.2500 0.2500 (269929 PWs)   bands (ev):

  -106.0846 -63.4611 -63.4611 -63.4611  -7.3789  -7.1027  -7.0985  -6.8788
    -6.8685  -6.8672  -6.7073  -6.7054  -6.7049  -6.7010  -6.6685  -6.6657
    -6.6218  -6.6191  -6.5539  -6.5534  -6.5230  -6.5194  -6.4761  -6.4709
    -6.4695  -6.4638  -6.3866  -6.3312  -6.3310  -6.3079  -6.3077  -6.2975
    -6.2943  -6.2772  -6.2753  -6.2537  -0.6962  -0.6934  -0.6920  -0.6914
    -0.6827  -0.6803  -0.6655  -0.6614  -0.6598  -0.6518  -0.6479  -0.6422
    -0.5994  -0.5959  -0.5951  -0.5929  -0.5834  -0.5807  -0.5804  -0.5787
    -0.5762  -0.5752  -0.5714  -0.5706  -0.5691  -0.5684  -0.5644  -0.5631
    -0.5621  -0.5614  -0.5595  -0.5580  -0.5576  -0.5548  -0.5535  -0.5520
    -0.5500  -0.5485  -0.5473  -0.5462  -0.5457  -0.5422  -0.5415  -0.5386
    -0.5385  -0.5332  -0.5288  -0.5277  -0.5224  -0.5216  -0.5119  -0.5087
    -0.5041  -0.4993  -0.4922  -0.4843  -0.4822  -0.4777  -0.4750  -0.4672
    -0.4666  -0.4644  -0.4610  -0.4564  -0.4432  -0.4427  -0.4321  -0.4246
    -0.4231  -0.4079  -0.3992  -0.3954  -0.3918  -0.3775  -0.3705  -0.3659
    -0.3529  -0.3436  -0.3101  -0.3095  -0.3034  -0.2887  -0.2871  -0.2840
    -0.2783  -0.2754  -0.2728  -0.2726  -0.2580  -0.2419  -0.2340  -0.2304
    -0.2293  -0.2246  -0.2242  -0.2240  -0.2191  -0.2174  -0.2166  -0.2135
    -0.2102  -0.2092  -0.2070  -0.2038  -0.2017  -0.1995  -0.1985  -0.1974
    -0.1969  -0.1935  -0.1896  -0.1895  -0.1888  -0.1873  -0.1858  -0.1853
    -0.1785  -0.1759  -0.1715  -0.1708  -0.1688  -0.1685  -0.1636  -0.1630
    -0.1612  -0.1611  -0.1597  -0.1594  -0.1592  -0.1534  -0.1502  -0.1450
    -0.1441  -0.1430  -0.1366  -0.1327  -0.1283  -0.1243  -0.1225  -0.0953
    -0.0889  -0.0782  -0.0754  -0.0444  -0.0412  -0.0153   0.0029   0.0067
     0.0515   0.0750   0.0819   0.1068   0.1130   0.1389   0.1482   0.5064
     0.5231   0.8922   0.8960   1.0156   1.0281   1.0434   1.0474   1.0646
     1.1044   1.1227   1.1340   1.1340   1.1482   1.1493   1.2045   1.2287
     1.3503   1.5785   1.6605   1.7172   1.7560   1.8017   1.8576   2.1517
     2.1802   2.3946   2.4853   2.5420   2.6113   2.6198   2.6409   2.6616
     2.7210   2.7870   2.8154   2.8805   2.9689   2.9855   3.0290   3.0733
     3.0981   3.1625   3.1706   3.1923   3.2599   3.2812   3.2999   3.3725
     3.3965   3.4074   3.4265   3.4381   3.4937   3.4959   3.5082   3.5348
     3.5919   3.6408   3.7291   3.7336   3.8237   3.8559   3.8632   3.9117
     3.9603   3.9953   4.0311   4.0909   4.0960   4.2108   4.2156   4.2689
     4.3354   4.3401   4.3491   4.3586   4.3685   4.4039   4.4412   4.4639
     4.4970   4.5495   4.5949   4.6107   4.6378   4.6452   4.6852   4.6893
     4.7301   4.7443   4.7762   4.8494   4.8763   4.8995   4.9803   5.0920
     5.2273   5.3477   5.5160   5.6492   8.2331   9.0526   9.0766   9.3242
     9.3248   9.3293   9.3712   9.3887   9.5385   9.5681   9.8816   9.8825
     9.8952   9.9051   9.9234   9.9275   9.9397   9.9675   9.9718   9.9772
    10.0478  10.1265  10.1427  10.1680  10.2066  10.2988  10.3002  10.3173
    10.3576  10.3757  10.4710  10.6805  10.6931  10.7050  10.7813  10.7957
    10.8093  10.8759  10.8801  10.9860  11.0105  11.0547  11.2325  11.4299
    11.4339  11.4512  11.5027  11.5137  11.6531  11.7826  11.8093  11.8147
    11.8381  11.8493  11.9318  11.9327  11.9351  11.9747

     occupation numbers 
     1.0000   1.0000   1.0000   1.0000   1.0000   1.0000   1.0000   1.0000
     1.0000   1.0000   1.0000   1.0000   1.0000   1.0000   1.0000   1.0000
     1.0000   1.0000   1.0000   1.0000   1.0000   1.0000   1.0000   1.0000
     1.0000   1.0000   1.0000   1.0000   1.0000   1.0000   1.0000   1.0000
     1.0000   1.0000   1.0000   1.0000   1.0000   1.0000   1.0000   1.0000
     1.0000   1.0000   1.0000   1.0000   1.0000   1.0000   1.0000   1.0000
     1.0000   1.0000   1.0000   1.0000   1.0000   1.0000   1.0000   1.0000
     1.0000   1.0000   1.0000   1.0000   1.0000   1.0000   1.0000   1.0000
     1.0000   1.0000   1.0000   1.0000   1.0000   1.0000   1.0000   1.0000
     1.0000   1.0000   1.0000   1.0000   1.0000   1.0000   1.0000   1.0000
     1.0000   1.0000   1.0000   1.0000   1.0000   1.0000   1.0000   1.0000
     1.0000   1.0000   1.0000   1.0000   1.0000   1.0000   1.0000   1.0000
     1.0000   1.0000   1.0000   1.0000   1.0000   1.0000   1.0000   1.0000
     1.0000   1.0000   1.0000   1.0000   1.0000   1.0000   1.0000   1.0000
     1.0000   1.0000   1.0000   1.0000   1.0000   1.0000   1.0000   1.0000
     1.0000   1.0000   1.0000   1.0000   1.0000   1.0000   1.0000   1.0000
     1.0000   1.0000   1.0000   1.0000   1.0000   1.0000   1.0000   1.0000
     1.0000   1.0000   1.0000   1.0000   1.0000   1.0000   1.0000   1.0000
     1.0000   1.0000   1.0000   1.0000   1.0000   1.0000   1.0000   1.0000
     1.0000   1.0000   1.0000   1.0000   1.0000   1.0000   1.0000   1.0000
     1.0000   1.0000   1.0000   1.0000   1.0000   1.0000   1.0000   1.0000
     1.0000   1.0000   1.0000   1.0000   1.0000   1.0000   1.0000   1.0000
     1.0000   1.0000   1.0000   1.0000   1.0000   1.0000   1.0000   1.0000
     1.0000   1.0000   1.0000   1.0000   1.0000   1.0000   1.0000   1.0000
     1.0000   1.0000   1.0000   1.0000   1.0000   1.0000   1.0000   1.0000
     1.0000   1.0000   1.0000   1.0000   1.0000   1.0000   1.0000   1.0000
     1.0000   1.0000   1.0000   1.0000   1.0000   1.0000   1.0000   1.0000
     1.0000   1.0000   1.0000   1.0000   1.0000   1.0000   1.0000   1.0000
     1.0000   1.0000   1.0000   1.0000   1.0000   1.0000   1.0000   1.0000
     1.0000   1.0000   1.0000   1.0000   1.0000   1.0000   1.0000   1.0000
     1.0000   1.0000   1.0000   1.0000   1.0000   1.0000   1.0000   1.0000
     1.0000   1.0000   1.0000   1.0000   1.0000   1.0000   1.0000   1.0000
     1.0000   1.0000   1.0000   1.0000   1.0000   1.0000   1.0000   1.0000
     1.0000   1.0000   1.0000   1.0000   1.0000   1.0000   1.0000   1.0000
     1.0000   1.0000   1.0000   1.0000   1.0000   1.0000   1.0000   1.0000
     1.0000   1.0000   1.0000   1.0000   1.0000   1.0000   1.0000   1.0000
     1.0000   1.0000   1.0000   1.0000   0.0000   0.0000   0.0000   0.0000
     0.0000   0.0000   0.0000   0.0000   0.0000   0.0000   0.0000   0.0000
     0.0000   0.0000   0.0000   0.0000   0.0000   0.0000   0.0000   0.0000
     0.0000   0.0000   0.0000   0.0000   0.0000   0.0000   0.0000   0.0000
     0.0000   0.0000   0.0000   0.0000   0.0000   0.0000   0.0000   0.0000
     0.0000   0.0000   0.0000   0.0000   0.0000   0.0000   0.0000   0.0000
     0.0000   0.0000   0.0000   0.0000   0.0000   0.0000   0.0000   0.0000
     0.0000   0.0000   0.0000   0.0000   0.0000   0.0000

          k = 0.0000 0.2500-0.5000 (269962 PWs)   bands (ev):

  -106.0846 -63.4611 -63.4611 -63.4611  -7.2798  -7.2600  -7.0227  -7.0029
    -6.8120  -6.8118  -6.7941  -6.7917  -6.6796  -6.6793  -6.6613  -6.6578
    -6.6284  -6.6101  -6.5023  -6.5007  -6.4856  -6.4796  -6.4739  -6.4581
    -6.4085  -6.3888  -6.3859  -6.3807  -6.3677  -6.3608  -6.3304  -6.3202
    -6.3122  -6.3018  -6.2752  -6.2571  -0.6913  -0.6862  -0.6668  -0.6647
    -0.6634  -0.6488  -0.6480  -0.6458  -0.6417  -0.6364  -0.6332  -0.6319
    -0.6290  -0.6246  -0.6229  -0.6112  -0.6071  -0.6017  -0.6000  -0.5966
    -0.5918  -0.5865  -0.5844  -0.5829  -0.5756  -0.5744  -0.5734  -0.5684
    -0.5654  -0.5641  -0.5628  -0.5605  -0.5604  -0.5580  -0.5533  -0.5522
    -0.5499  -0.5488  -0.5471  -0.5460  -0.5446  -0.5425  -0.5390  -0.5388
    -0.5342  -0.5264  -0.5246  -0.5230  -0.5224  -0.5160  -0.5142  -0.5105
    -0.5073  -0.4965  -0.4934  -0.4913  -0.4791  -0.4759  -0.4712  -0.4674
    -0.4629  -0.4495  -0.4479  -0.4430  -0.4429  -0.4340  -0.4230  -0.4213
    -0.4124  -0.4069  -0.4031  -0.4022  -0.4013  -0.3956  -0.3879  -0.3877
    -0.3787  -0.3562  -0.3377  -0.3324  -0.3296  -0.3254  -0.3177  -0.2878
    -0.2630  -0.2592  -0.2563  -0.2539  -0.2466  -0.2458  -0.2423  -0.2415
    -0.2267  -0.2236  -0.2219  -0.2165  -0.2156  -0.2141  -0.2104  -0.2093
    -0.2070  -0.2055  -0.2002  -0.1999  -0.1972  -0.1951  -0.1938  -0.1923
    -0.1907  -0.1901  -0.1874  -0.1851  -0.1840  -0.1832  -0.1791  -0.1781
    -0.1765  -0.1740  -0.1738  -0.1702  -0.1672  -0.1663  -0.1661  -0.1622
    -0.1620  -0.1593  -0.1564  -0.1558  -0.1549  -0.1489  -0.1470  -0.1450
    -0.1423  -0.1414  -0.1398  -0.1382  -0.1369  -0.1350  -0.1262  -0.0715
    -0.0474  -0.0437  -0.0412  -0.0309  -0.0220   0.0067   0.0131   0.0282
     0.0361   0.0415   0.0504   0.0856   0.1033   0.1039   0.1058   0.7561
     0.7591   0.7658   0.7778   0.9828   0.9990   1.0167   1.0173   1.0329
     1.0465   1.0520   1.0921   1.2039   1.2277   1.2936   1.2942   1.3353
     1.3402   1.3439   1.4114   1.6255   1.7044   1.9389   1.9468   2.0788
     2.1764   2.2215   2.2443   2.4523   2.5008   2.6867   2.7128   2.7391
     2.8015   2.8065   2.8424   2.8711   2.8915   2.9129   2.9338   3.0300
     3.0984   3.1646   3.2389   3.2681   3.2969   3.3982   3.4039   3.4881
     3.5414   3.5473   3.5603   3.5608   3.6370   3.6561   3.6671   3.6984
     3.7028   3.7426   3.7633   3.8022   3.8421   3.8739   3.9061   3.9373
     3.9673   3.9831   4.0078   4.1097   4.1098   4.1368   4.1442   4.1628
     4.1695   4.2266   4.2371   4.2549   4.2729   4.3162   4.3416   4.3778
     4.4240   4.4330   4.4716   4.4807   4.5510   4.6157   4.6405   4.6685
     4.7096   4.7118   4.8097   4.8659   4.9045   4.9234   5.0329   5.1904
     5.2217   5.3884   5.4758   5.5397   8.8320   8.8687   9.4271   9.4290
     9.4369   9.4699   9.5276   9.5747   9.6637   9.6762   9.7010   9.7100
     9.8724   9.8736   9.8845   9.8858   9.9039   9.9073   9.9165   9.9272
     9.9811   9.9943  10.0228  10.0719  10.1064  10.1768  10.3811  10.4251
    10.4576  10.5239  10.5414  10.5703  10.6506  10.6578  10.6758  10.7496
    10.7873  10.8583  10.9222  11.0219  11.1003  11.1679  11.3137  11.3259
    11.3522  11.3765  11.3851  11.4066  11.4251  11.4612  11.5678  11.6018
    11.6043  11.6377  11.7697  11.7819  11.8037  11.8112

     occupation numbers 
     1.0000   1.0000   1.0000   1.0000   1.0000   1.0000   1.0000   1.0000
     1.0000   1.0000   1.0000   1.0000   1.0000   1.0000   1.0000   1.0000
     1.0000   1.0000   1.0000   1.0000   1.0000   1.0000   1.0000   1.0000
     1.0000   1.0000   1.0000   1.0000   1.0000   1.0000   1.0000   1.0000
     1.0000   1.0000   1.0000   1.0000   1.0000   1.0000   1.0000   1.0000
     1.0000   1.0000   1.0000   1.0000   1.0000   1.0000   1.0000   1.0000
     1.0000   1.0000   1.0000   1.0000   1.0000   1.0000   1.0000   1.0000
     1.0000   1.0000   1.0000   1.0000   1.0000   1.0000   1.0000   1.0000
     1.0000   1.0000   1.0000   1.0000   1.0000   1.0000   1.0000   1.0000
     1.0000   1.0000   1.0000   1.0000   1.0000   1.0000   1.0000   1.0000
     1.0000   1.0000   1.0000   1.0000   1.0000   1.0000   1.0000   1.0000
     1.0000   1.0000   1.0000   1.0000   1.0000   1.0000   1.0000   1.0000
     1.0000   1.0000   1.0000   1.0000   1.0000   1.0000   1.0000   1.0000
     1.0000   1.0000   1.0000   1.0000   1.0000   1.0000   1.0000   1.0000
     1.0000   1.0000   1.0000   1.0000   1.0000   1.0000   1.0000   1.0000
     1.0000   1.0000   1.0000   1.0000   1.0000   1.0000   1.0000   1.0000
     1.0000   1.0000   1.0000   1.0000   1.0000   1.0000   1.0000   1.0000
     1.0000   1.0000   1.0000   1.0000   1.0000   1.0000   1.0000   1.0000
     1.0000   1.0000   1.0000   1.0000   1.0000   1.0000   1.0000   1.0000
     1.0000   1.0000   1.0000   1.0000   1.0000   1.0000   1.0000   1.0000
     1.0000   1.0000   1.0000   1.0000   1.0000   1.0000   1.0000   1.0000
     1.0000   1.0000   1.0000   1.0000   1.0000   1.0000   1.0000   1.0000
     1.0000   1.0000   1.0000   1.0000   1.0000   1.0000   1.0000   1.0000
     1.0000   1.0000   1.0000   1.0000   1.0000   1.0000   1.0000   1.0000
     1.0000   1.0000   1.0000   1.0000   1.0000   1.0000   1.0000   1.0000
     1.0000   1.0000   1.0000   1.0000   1.0000   1.0000   1.0000   1.0000
     1.0000   1.0000   1.0000   1.0000   1.0000   1.0000   1.0000   1.0000
     1.0000   1.0000   1.0000   1.0000   1.0000   1.0000   1.0000   1.0000
     1.0000   1.0000   1.0000   1.0000   1.0000   1.0000   1.0000   1.0000
     1.0000   1.0000   1.0000   1.0000   1.0000   1.0000   1.0000   1.0000
     1.0000   1.0000   1.0000   1.0000   1.0000   1.0000   1.0000   1.0000
     1.0000   1.0000   1.0000   1.0000   1.0000   1.0000   1.0000   1.0000
     1.0000   1.0000   1.0000   1.0000   1.0000   1.0000   1.0000   1.0000
     1.0000   1.0000   1.0000   1.0000   1.0000   1.0000   1.0000   1.0000
     1.0000   1.0000   1.0000   1.0000   1.0000   1.0000   1.0000   1.0000
     1.0000   1.0000   1.0000   1.0000   1.0000   1.0000   1.0000   1.0000
     1.0000   1.0000   1.0000   1.0000   0.0000   0.0000   0.0000   0.0000
     0.0000   0.0000   0.0000   0.0000   0.0000   0.0000   0.0000   0.0000
     0.0000   0.0000   0.0000   0.0000   0.0000   0.0000   0.0000   0.0000
     0.0000   0.0000   0.0000   0.0000   0.0000   0.0000   0.0000   0.0000
     0.0000   0.0000   0.0000   0.0000   0.0000   0.0000   0.0000   0.0000
     0.0000   0.0000   0.0000   0.0000   0.0000   0.0000   0.0000   0.0000
     0.0000   0.0000   0.0000   0.0000   0.0000   0.0000   0.0000   0.0000
     0.0000   0.0000   0.0000   0.0000   0.0000   0.0000

          k = 0.0000-0.5000-0.5000 (269920 PWs)   bands (ev):

  -106.0846 -63.4611 -63.4611 -63.4611  -7.1864  -7.1711  -7.1711  -7.1467
    -6.7665  -6.7653  -6.7520  -6.7520  -6.7492  -6.7492  -6.7300  -6.7232
    -6.4578  -6.4578  -6.4479  -6.4476  -6.4458  -6.4455  -6.4348  -6.4348
    -6.4284  -6.4284  -6.4177  -6.4163  -6.4142  -6.4073  -6.3882  -6.3882
    -6.3068  -6.2914  -6.2914  -6.2679  -0.6654  -0.6654  -0.6654  -0.6630
    -0.6375  -0.6326  -0.6324  -0.6286  -0.6279  -0.6279  -0.6230  -0.6230
    -0.6229  -0.6196  -0.6196  -0.6157  -0.6091  -0.6059  -0.6059  -0.6034
    -0.6027  -0.6027  -0.5963  -0.5953  -0.5953  -0.5931  -0.5931  -0.5891
    -0.5829  -0.5829  -0.5655  -0.5608  -0.5608  -0.5566  -0.5562  -0.5559
    -0.5493  -0.5493  -0.5483  -0.5473  -0.5473  -0.5472  -0.5449  -0.5375
    -0.5316  -0.5194  -0.5194  -0.5014  -0.5004  -0.5004  -0.4996  -0.4977
    -0.4905  -0.4905  -0.4895  -0.4823  -0.4816  -0.4816  -0.4779  -0.4765
    -0.4686  -0.4671  -0.4566  -0.4532  -0.4532  -0.4475  -0.4475  -0.4362
    -0.4343  -0.4211  -0.4211  -0.4057  -0.3962  -0.3886  -0.3886  -0.3823
    -0.3823  -0.3813  -0.3746  -0.3693  -0.3667  -0.3171  -0.3052  -0.3052
    -0.2834  -0.2581  -0.2553  -0.2528  -0.2488  -0.2488  -0.2451  -0.2451
    -0.2231  -0.2186  -0.2129  -0.2129  -0.2119  -0.2044  -0.2022  -0.2022
    -0.2009  -0.2009  -0.1984  -0.1965  -0.1965  -0.1938  -0.1913  -0.1908
    -0.1898  -0.1854  -0.1854  -0.1829  -0.1787  -0.1768  -0.1768  -0.1759
    -0.1721  -0.1721  -0.1716  -0.1677  -0.1657  -0.1625  -0.1625  -0.1603
    -0.1552  -0.1529  -0.1529  -0.1517  -0.1462  -0.1462  -0.1459  -0.1441
    -0.1407  -0.1407  -0.1360  -0.1216  -0.1064  -0.1064  -0.0994  -0.0994
    -0.0959  -0.0948  -0.0940   0.0136   0.0136   0.0165   0.0556   0.0556
     0.0611   0.0621   0.0686   0.1120   0.1263   0.1263   0.1279   0.7587
     0.7762   0.7796   0.7796   0.7872   0.7872   0.8017   0.8495   1.0147
     1.0278   1.0278   1.0878   1.4342   1.4342   1.5038   1.5089   1.5295
     1.5438   1.5438   1.6311   1.6441   1.7341   1.7341   1.7731   1.7795
     1.7868   1.7868   1.9414   2.4504   2.5321   2.5321   2.5350   2.8253
     2.8253   2.8680   3.0566   3.1309   3.2579   3.2601   3.2601   3.2606
     3.2760   3.2760   3.2772   3.2798   3.2857   3.2857   3.2946   3.3691
     3.3691   3.5088   3.5653   3.5913   3.6024   3.6341   3.6528   3.6528
     3.6941   3.6941   3.7131   3.7466   3.7573   3.7641   3.7641   3.8057
     3.9013   3.9955   4.0031   4.0031   4.1278   4.1351   4.1351   4.1966
     4.1966   4.2179   4.2521   4.3240   4.4426   4.4461   4.4461   4.4566
     4.4593   4.4593   4.5191   4.5221   4.5269   4.5322   4.5322   4.5863
     4.6588   4.6629   4.7180   4.7180   4.7566   4.9098   4.9098   5.2977
[...]
     1.0000   1.0000   1.0000   1.0000   1.0000   1.0000   1.0000   1.0000
     1.0000   1.0000   1.0000   1.0000   1.0000   1.0000   1.0000   1.0000
     1.0000   1.0000   1.0000   1.0000   1.0000   1.0000   1.0000   1.0000
     1.0000   1.0000   1.0000   1.0000   1.0000   1.0000   1.0000   1.0000
     1.0000   1.0000   1.0000   1.0000   1.0000   1.0000   1.0000   1.0000
     1.0000   1.0000   1.0000   1.0000   1.0000   1.0000   1.0000   1.0000
     1.0000   1.0000   1.0000   1.0000   1.0000   1.0000   1.0000   1.0000
     1.0000   1.0000   1.0000   1.0000   1.0000   1.0000   1.0000   1.0000
     1.0000   1.0000   1.0000   1.0000   1.0000   1.0000   1.0000   1.0000
     1.0000   1.0000   1.0000   1.0000   1.0000   1.0000   1.0000   1.0000
     1.0000   1.0000   1.0000   1.0000   1.0000   1.0000   1.0000   1.0000
     1.0000   1.0000   1.0000   1.0000   1.0000   1.0000   1.0000   1.0000
     1.0000   1.0000   1.0000   1.0000   1.0000   1.0000   1.0000   1.0000
     1.0000   1.0000   1.0000   1.0000   1.0000   1.0000   1.0000   1.0000
     1.0000   1.0000   1.0000   1.0000   1.0000   1.0000   1.0000   1.0000
     1.0000   1.0000   1.0000   1.0000   1.0000   1.0000   1.0000   1.0000
     1.0000   1.0000   1.0000   0.9721   0.0000   0.0000   0.0000   0.0000
     0.0000   0.0000   0.0000   0.0000   0.0000   0.0000   0.0000   0.0000
     0.0000   0.0000   0.0000   0.0000   0.0000   0.0000   0.0000   0.0000
     0.0000   0.0000   0.0000   0.0000   0.0000   0.0000   0.0000   0.0000
     0.0000   0.0000   0.0000   0.0000   0.0000   0.0000   0.0000   0.0000
     0.0000   0.0000   0.0000   0.0000   0.0000   0.0000   0.0000   0.0000
     0.0000   0.0000   0.0000   0.0000   0.0000   0.0000   0.0000   0.0000
     0.0000   0.0000   0.0000   0.0000   0.0000   0.0000

          k = 0.2500-0.5000-0.5000 (269956 PWs)   bands (ev):

  -105.7117 -63.0976 -63.0976 -63.0976  -7.1456  -7.1283  -7.1283  -7.0919
    -6.9201  -6.9029  -6.9029  -6.8598  -6.5847  -6.5690  -6.5690  -6.5336
    -6.4464  -6.4464  -6.4342  -6.4338  -6.4337  -6.4334  -6.4244  -6.4244
    -6.4189  -6.4189  -6.4117  -6.4104  -6.3957  -6.3776  -6.3466  -6.3466
    -6.3278  -6.2936  -6.2936  -6.2564  -0.6536  -0.6536  -0.6524  -0.6481
    -0.6285  -0.6272  -0.6248  -0.6209  -0.6194  -0.6194  -0.6162  -0.6162
    -0.6159  -0.6124  -0.6103  -0.6103  -0.6043  -0.6028  -0.6028  -0.5982
    -0.5976  -0.5976  -0.5924  -0.5904  -0.5904  -0.5870  -0.5867  -0.5849
    -0.5849  -0.5844  -0.5838  -0.5798  -0.5792  -0.5792  -0.5689  -0.5627
    -0.5620  -0.5620  -0.5607  -0.5597  -0.5555  -0.5555  -0.5407  -0.5351
    -0.5273  -0.5209  -0.5209  -0.5206  -0.5013  -0.4924  -0.4907  -0.4907
    -0.4819  -0.4819  -0.4754  -0.4747  -0.4628  -0.4590  -0.4525  -0.4525
    -0.4510  -0.4433  -0.4433  -0.4331  -0.4300  -0.4267  -0.4267  -0.4157
    -0.4050  -0.4050  -0.4049  -0.3982  -0.3883  -0.3811  -0.3811  -0.3766
    -0.3766  -0.3751  -0.3709  -0.3673  -0.3604  -0.3205  -0.3153  -0.3153
    -0.2918  -0.2910  -0.2869  -0.2842  -0.2842  -0.2827  -0.2827  -0.2791
    -0.2534  -0.2179  -0.2127  -0.2078  -0.2078  -0.2034  -0.2034  -0.1984
    -0.1941  -0.1901  -0.1901  -0.1896  -0.1872  -0.1824  -0.1824  -0.1806
    -0.1772  -0.1744  -0.1744  -0.1719  -0.1719  -0.1714  -0.1697  -0.1645
    -0.1620  -0.1620  -0.1597  -0.1561  -0.1524  -0.1517  -0.1487  -0.1487
    -0.1486  -0.1460  -0.1440  -0.1440  -0.1413  -0.1409  -0.1409  -0.1360
    -0.1360  -0.1348  -0.1315  -0.1001  -0.0909  -0.0909  -0.0822  -0.0822
    -0.0806  -0.0760  -0.0738  -0.0048  -0.0048  -0.0041   0.0226   0.0226
     0.0236   0.0296   0.0366   0.0730   0.0810   0.0810   0.0815   0.8851
     0.8899   0.8899   0.9024   0.9120   0.9120   0.9270   0.9620   1.0395
     1.0563   1.0563   1.0856   1.3571   1.3571   1.3769   1.4129   1.4214
     1.4272   1.4272   1.4293   1.4359   1.4373   1.4373   1.6476   2.1953
     2.1953   2.2248   2.2517   2.6478   2.7305   2.7305   2.7442   2.9348
     2.9348   2.9938   3.0253   3.1551   3.2331   3.2365   3.2365   3.2547
     3.2566   3.2566   3.2620   3.2632   3.2683   3.2683   3.2814   3.2944
     3.2944   3.3075   3.3578   3.5499   3.6086   3.6086   3.6595   3.7393
     3.8255   3.8255   3.8277   3.8338   3.8386   3.8399   3.8399   3.8448
     3.8583   3.8583   3.8764   3.9687   4.0296   4.0389   4.0389   4.0524
     4.1096   4.1199   4.1199   4.1813   4.1813   4.2140   4.2482   4.4073
     4.5070   4.5185   4.5185   4.5264   4.8310   4.8775   4.8775   4.8890
     4.9192   4.9285   4.9358   4.9358   5.0312   5.0977   5.0977   5.2933
     5.3242   5.6198   5.7155   5.7155   9.0371   9.0492   9.0492   9.0932
     9.1528   9.1619   9.1619   9.2670   9.7527   9.7527   9.7729   9.7828
     9.8720   9.8720   9.8915   9.9144   9.9144   9.9170   9.9170   9.9301
     9.9422   9.9741   9.9741   9.9957  10.0963  10.1053  10.1053  10.1100
    10.1268  10.1508  10.1508  10.3619  10.9142  10.9217  10.9226  10.9226
    10.9433  10.9612  10.9612  11.1224  11.4493  11.4493  11.4799  11.5028
    11.5367  11.5367  11.5868  11.6331  11.6472  11.6472  11.6486  11.6571
    11.6686  11.7082  11.7082  11.8384  11.8994  11.9329

     occupation numbers 
     1.0000   1.0000   1.0000   1.0000   1.0000   1.0000   1.0000   1.0000
     1.0000   1.0000   1.0000   1.0000   1.0000   1.0000   1.0000   1.0000
     1.0000   1.0000   1.0000   1.0000   1.0000   1.0000   1.0000   1.0000
     1.0000   1.0000   1.0000   1.0000   1.0000   1.0000   1.0000   1.0000
     1.0000   1.0000   1.0000   1.0000   1.0000   1.0000   1.0000   1.0000
     1.0000   1.0000   1.0000   1.0000   1.0000   1.0000   1.0000   1.0000
     1.0000   1.0000   1.0000   1.0000   1.0000   1.0000   1.0000   1.0000
     1.0000   1.0000   1.0000   1.0000   1.0000   1.0000   1.0000   1.0000
     1.0000   1.0000   1.0000   1.0000   1.0000   1.0000   1.0000   1.0000
     1.0000   1.0000   1.0000   1.0000   1.0000   1.0000   1.0000   1.0000
     1.0000   1.0000   1.0000   1.0000   1.0000   1.0000   1.0000   1.0000
     1.0000   1.0000   1.0000   1.0000   1.0000   1.0000   1.0000   1.0000
     1.0000   1.0000   1.0000   1.0000   1.0000   1.0000   1.0000   1.0000
     1.0000   1.0000   1.0000   1.0000   1.0000   1.0000   1.0000   1.0000
     1.0000   1.0000   1.0000   1.0000   1.0000   1.0000   1.0000   1.0000
     1.0000   1.0000   1.0000   1.0000   1.0000   1.0000   1.0000   1.0000
     1.0000   1.0000   1.0000   1.0000   1.0000   1.0000   1.0000   1.0000
     1.0000   1.0000   1.0000   1.0000   1.0000   1.0000   1.0000   1.0000
     1.0000   1.0000   1.0000   1.0000   1.0000   1.0000   1.0000   1.0000
     1.0000   1.0000   1.0000   1.0000   1.0000   1.0000   1.0000   1.0000
     1.0000   1.0000   1.0000   1.0000   1.0000   1.0000   1.0000   1.0000
     1.0000   1.0000   1.0000   1.0000   1.0000   1.0000   1.0000   1.0000
     1.0000   1.0000   1.0000   1.0000   1.0000   1.0000   1.0000   1.0000
     1.0000   1.0000   1.0000   1.0000   1.0000   1.0000   1.0000   1.0000
     1.0000   1.0000   1.0000   1.0000   1.0000   1.0000   1.0000   1.0000
     1.0000   1.0000   1.0000   1.0000   1.0000   1.0000   1.0000   1.0000
     1.0000   1.0000   1.0000   1.0000   1.0000   1.0000   1.0000   1.0000
     1.0000   1.0000   1.0000   1.0000   1.0000   1.0000   1.0000   1.0000
     1.0000   1.0000   1.0000   1.0000   1.0000   1.0000   1.0000   1.0000
     1.0000   1.0000   1.0000   1.0000   1.0000   1.0000   1.0000   1.0000
     1.0000   1.0000   1.0000   1.0000   1.0000   1.0000   1.0000   1.0000
     1.0000   1.0000   1.0000   1.0000   1.0000   1.0000   1.0000   1.0000
     1.0000   1.0000   1.0000   1.0000   1.0000   1.0000   1.0000   1.0000
     1.0000   1.0000   1.0000   1.0000   1.0000   1.0000   1.0000   1.0000
     1.0000   1.0000   1.0000   1.0000   1.0000   1.0000   1.0000   1.0000
     1.0000   1.0000   1.0000   1.0000   1.0000   1.0000   1.0000   1.0000
     1.0000   1.0000   0.1314   0.1314   0.0000   0.0000   0.0000   0.0000
     0.0000   0.0000   0.0000   0.0000   0.0000   0.0000   0.0000   0.0000
     0.0000   0.0000   0.0000   0.0000   0.0000   0.0000   0.0000   0.0000
     0.0000   0.0000   0.0000   0.0000   0.0000   0.0000   0.0000   0.0000
     0.0000   0.0000   0.0000   0.0000   0.0000   0.0000   0.0000   0.0000
     0.0000   0.0000   0.0000   0.0000   0.0000   0.0000   0.0000   0.0000
     0.0000   0.0000   0.0000   0.0000   0.0000   0.0000   0.0000   0.0000
     0.0000   0.0000   0.0000   0.0000   0.0000   0.0000

          k =-0.5000-0.5000-0.5000 (269968 PWs)   bands (ev):

  -105.7117 -63.0976 -63.0976 -63.0976  -7.0645  -7.0490  -7.0490  -7.0490
    -7.0293  -7.0293  -7.0293  -6.9683  -6.4470  -6.4470  -6.4470  -6.4381
    -6.4321  -6.4321  -6.4321  -6.4320  -6.4320  -6.4289  -6.4289  -6.4289
    -6.4163  -6.4163  -6.4163  -6.4131  -6.4131  -6.4120  -6.4120  -6.4120
    -6.3591  -6.3155  -6.3155  -6.3155  -0.6319  -0.6319  -0.6319  -0.6293
    -0.6232  -0.6232  -0.6232  -0.6171  -0.6171  -0.6171  -0.6159  -0.6159
    -0.6084  -0.6084  -0.6084  -0.6042  -0.6042  -0.6035  -0.6026  -0.6026
    -0.6026  -0.6022  -0.5936  -0.5936  -0.5936  -0.5903  -0.5903  -0.5890
    -0.5890  -0.5890  -0.5881  -0.5881  -0.5881  -0.5836  -0.5836  -0.5836
    -0.5792  -0.5792  -0.5792  -0.5769  -0.5769  -0.5769  -0.5489  -0.5314
    -0.5314  -0.5223  -0.5223  -0.5223  -0.4675  -0.4644  -0.4644  -0.4644
    -0.4599  -0.4599  -0.4599  -0.4573  -0.4573  -0.4573  -0.4547  -0.4547
    -0.4437  -0.4437  -0.4437  -0.4420  -0.4420  -0.4420  -0.4327  -0.4310
    -0.4310  -0.3761  -0.3761  -0.3761  -0.3477  -0.3477  -0.3475  -0.3475
    -0.3475  -0.3474  -0.3474  -0.3474  -0.3439  -0.3439  -0.3439  -0.3401
    -0.3361  -0.3361  -0.3361  -0.3340  -0.3340  -0.3340  -0.3180  -0.3038
    -0.3038  -0.2094  -0.2094  -0.2020  -0.2020  -0.2020  -0.2011  -0.2011
    -0.2011  -0.1914  -0.1914  -0.1914  -0.1849  -0.1849  -0.1849  -0.1734
    -0.1734  -0.1734  -0.1687  -0.1687  -0.1668  -0.1668  -0.1668  -0.1635
    -0.1571  -0.1571  -0.1507  -0.1507  -0.1507  -0.1477  -0.1477  -0.1477
    -0.1416  -0.1416  -0.1416  -0.1340  -0.1340  -0.1340  -0.1335  -0.0949
    -0.0949  -0.0949  -0.0472  -0.0472  -0.0449  -0.0449  -0.0449  -0.0392
    -0.0365  -0.0365  -0.0365  -0.0353  -0.0353  -0.0353  -0.0316  -0.0316
    -0.0259  -0.0259  -0.0259  -0.0250  -0.0250  -0.0250  -0.0026   1.0728
     1.0728   1.0728   1.1344   1.1344   1.1511   1.1610   1.1610   1.1610
     1.1619   1.1619   1.1619   1.1770   1.1770   1.1770   1.1802   1.1802
     1.1930   1.1930   1.1930   1.1966   1.1966   1.1966   1.5418   2.5416
     2.5416   2.5416   2.7708   2.7775   2.7775   2.7775   2.8728   2.9706
     2.9706   3.0696   3.0696   3.0696   3.2187   3.2187   3.2187   3.2191
     3.2225   3.2225   3.2335   3.2335   3.2335   3.2366   3.2366   3.2366
     3.2389   3.2389   3.2389   3.2659   3.2659   3.2659   3.3303   3.6415
     3.6415   3.6415   3.8513   3.8513   3.9961   3.9994   3.9994   3.9994
     4.0062   4.0062   4.0062   4.0097   4.0097   4.0164   4.0164   4.0164
     4.0191   4.0191   4.0191   4.0382   4.0412   4.0412   4.0412   4.4649
     4.4649   4.5001   4.5001   4.5001   5.0885   5.0885   5.0885   5.0964
     5.0964   5.0964   5.0967   5.0967   5.1144   5.1144   5.1144   5.1831
     5.1831   5.7158   5.7158   5.7158   8.9394   8.9487   8.9487   8.9487
     8.9623   8.9623   8.9623   9.1049   9.8551   9.8551   9.8585   9.8585
     9.8585   9.8608   9.8608   9.8608   9.8651   9.8651   9.8651   9.8672
     9.8801   9.8801   9.8801   9.8858   9.8858   9.8858   9.9067   9.9067
     9.9560   9.9560   9.9560  10.2364  11.4476  11.4476  11.4476  11.4597
    11.4597  11.4597  11.4653  11.4653  11.4653  11.4673  11.4673  11.4673
    11.4744  11.4756  11.4756  11.4777  11.4777  11.4777  11.4931  11.4931
    11.5784  11.5785  11.5785  12.0419  12.4162  12.4245

     occupation numbers 
     1.0000   1.0000   1.0000   1.0000   1.0000   1.0000   1.0000   1.0000
     1.0000   1.0000   1.0000   1.0000   1.0000   1.0000   1.0000   1.0000
     1.0000   1.0000   1.0000   1.0000   1.0000   1.0000   1.0000   1.0000
     1.0000   1.0000   1.0000   1.0000   1.0000   1.0000   1.0000   1.0000
     1.0000   1.0000   1.0000   1.0000   1.0000   1.0000   1.0000   1.0000
     1.0000   1.0000   1.0000   1.0000   1.0000   1.0000   1.0000   1.0000
     1.0000   1.0000   1.0000   1.0000   1.0000   1.0000   1.0000   1.0000
     1.0000   1.0000   1.0000   1.0000   1.0000   1.0000   1.0000   1.0000
     1.0000   1.0000   1.0000   1.0000   1.0000   1.0000   1.0000   1.0000
     1.0000   1.0000   1.0000   1.0000   1.0000   1.0000   1.0000   1.0000
     1.0000   1.0000   1.0000   1.0000   1.0000   1.0000   1.0000   1.0000
     1.0000   1.0000   1.0000   1.0000   1.0000   1.0000   1.0000   1.0000
     1.0000   1.0000   1.0000   1.0000   1.0000   1.0000   1.0000   1.0000
     1.0000   1.0000   1.0000   1.0000   1.0000   1.0000   1.0000   1.0000
     1.0000   1.0000   1.0000   1.0000   1.0000   1.0000   1.0000   1.0000
     1.0000   1.0000   1.0000   1.0000   1.0000   1.0000   1.0000   1.0000
     1.0000   1.0000   1.0000   1.0000   1.0000   1.0000   1.0000   1.0000
     1.0000   1.0000   1.0000   1.0000   1.0000   1.0000   1.0000   1.0000
     1.0000   1.0000   1.0000   1.0000   1.0000   1.0000   1.0000   1.0000
     1.0000   1.0000   1.0000   1.0000   1.0000   1.0000   1.0000   1.0000
     1.0000   1.0000   1.0000   1.0000   1.0000   1.0000   1.0000   1.0000
     1.0000   1.0000   1.0000   1.0000   1.0000   1.0000   1.0000   1.0000
     1.0000   1.0000   1.0000   1.0000   1.0000   1.0000   1.0000   1.0000
     1.0000   1.0000   1.0000   1.0000   1.0000   1.0000   1.0000   1.0000
     1.0000   1.0000   1.0000   1.0000   1.0000   1.0000   1.0000   1.0000
     1.0000   1.0000   1.0000   1.0000   1.0000   1.0000   1.0000   1.0000
     1.0000   1.0000   1.0000   1.0000   1.0000   1.0000   1.0000   1.0000
     1.0000   1.0000   1.0000   1.0000   1.0000   1.0000   1.0000   1.0000
     1.0000   1.0000   1.0000   1.0000   1.0000   1.0000   1.0000   1.0000
     1.0000   1.0000   1.0000   1.0000   1.0000   1.0000   1.0000   1.0000
     1.0000   1.0000   1.0000   1.0000   1.0000   1.0000   1.0000   1.0000
     1.0000   1.0000   1.0000   1.0000   1.0000   1.0000   1.0000   1.0000
     1.0000   1.0000   1.0000   1.0000   1.0000   1.0000   1.0000   1.0000
     1.0000   1.0000   1.0000   1.0000   1.0000   1.0000   1.0000   1.0000
     1.0000   1.0000   1.0000   1.0000   1.0000   1.0000   1.0000   1.0000
     1.0000   1.0000   1.0000   1.0000   1.0000   1.0000   1.0000   1.0000
     1.0000   0.1248   0.1248   0.1248   0.0000   0.0000   0.0000   0.0000
     0.0000   0.0000   0.0000   0.0000   0.0000   0.0000   0.0000   0.0000
     0.0000   0.0000   0.0000   0.0000   0.0000   0.0000   0.0000   0.0000
     0.0000   0.0000   0.0000   0.0000   0.0000   0.0000   0.0000   0.0000
     0.0000   0.0000   0.0000   0.0000   0.0000   0.0000   0.0000   0.0000
     0.0000   0.0000   0.0000   0.0000   0.0000   0.0000   0.0000   0.0000
     0.0000   0.0000   0.0000   0.0000   0.0000   0.0000   0.0000   0.0000
     0.0000   0.0000   0.0000   0.0000   0.0000   0.0000

     the Fermi energy is     5.7047 ev

!    total energy              =  -10167.40965943 Ry
     total all-electron energy =   -140218.039828 Ry
     estimated scf accuracy    <          4.7E-09 Ry
     smearing contrib. (-TS)   =      -0.00008294 Ry
     internal energy E=F+TS    =  -10167.40957649 Ry

     The total energy is F=E-TS. E is the sum of the following terms:
     one-electron contribution =   -3068.83245941 Ry
     hartree contribution      =    2112.90059959 Ry
     xc contribution           =   -1665.63033369 Ry
     ewald contribution        =   -3012.71564642 Ry
     one-center paw contrib.   =   -4533.13173655 Ry
      -> PAW hartree energy AE =     123.25965782 Ry
      -> PAW hartree energy PS =    -122.61790972 Ry
      -> PAW xc energy AE      =    -143.20780987 Ry
      -> PAW xc energy PS      =      47.14643953 Ry
      -> total E_H with PAW    =    2113.54234768 Ry
      -> total E_XC with PAW   =   -1761.69170403 Ry

     total magnetization       =     1.00 Bohr mag/cell
     absolute magnetization    =     1.04 Bohr mag/cell

     convergence has been achieved in  14 iterations

     Writing all to output data dir ./out/Cu_q0.save/
 
     init_run     :      9.18s CPU      9.81s WALL (       1 calls)
     electrons    :    287.48s CPU    292.35s WALL (       1 calls)

     Called by init_run:
     wfcinit      :      6.36s CPU      6.62s WALL (       1 calls)
     wfcinit:atom :      0.05s CPU      0.06s WALL (       4 calls)
     wfcinit:wfcr :      6.10s CPU      6.28s WALL (       4 calls)
     potinit      :      0.52s CPU      0.63s WALL (       1 calls)
     hinit0       :      0.40s CPU      0.48s WALL (       1 calls)

     Called by electrons:
     c_bands      :    257.28s CPU    261.02s WALL (      15 calls)
     sum_band     :     26.16s CPU     26.48s WALL (      15 calls)
     v_of_rho     :      1.20s CPU      1.28s WALL (      15 calls)
     v_h          :      0.05s CPU      0.05s WALL (      15 calls)
     v_xc         :      1.15s CPU      1.23s WALL (      15 calls)
     newd         :      0.71s CPU      0.72s WALL (      15 calls)
     PAW_pot      :      1.33s CPU      1.36s WALL (      15 calls)
     mix_rho      :      0.35s CPU      0.37s WALL (      15 calls)

     Called by c_bands:
     init_us_2    :      3.52s CPU      3.57s WALL (     124 calls)
     init_us_2:cp :      3.52s CPU      3.57s WALL (     124 calls)
     cegterg      :    232.03s CPU    235.44s WALL (      60 calls)

     Called by sum_band:
     sum_band:wei :      0.06s CPU      0.06s WALL (      15 calls)
     sum_band:loo :     23.52s CPU     23.80s WALL (      15 calls)
     sum_band:buf :      0.50s CPU      0.59s WALL (      60 calls)
     sum_band:ini :      1.71s CPU      1.73s WALL (      60 calls)
     sum_band:cal :      8.67s CPU      8.73s WALL (      60 calls)
     sum_band:bec :      0.24s CPU      0.25s WALL (      60 calls)
     addusdens    :      1.41s CPU      1.43s WALL (      15 calls)
                                        0.00s GPU  (      15 calls)
     addusd:skk   :      0.02s CPU      0.02s WALL (      45 calls)
                                        0.00s GPU  (      45 calls)

     Called by *egterg:
     cdiaghg      :     23.20s CPU     23.36s WALL (     423 calls)
     cegterg:over :     17.88s CPU     18.01s WALL (     367 calls)
     cegterg:upda :     17.55s CPU     17.70s WALL (     367 calls)
     cegterg:last :     28.97s CPU     29.17s WALL (     128 calls)
     cdiaghg:chol :      1.35s CPU      1.36s WALL (     423 calls)
     cdiaghg:inve :      1.22s CPU      1.23s WALL (     423 calls)
     cdiaghg:para :      3.15s CPU      3.17s WALL (     846 calls)
     h_psi        :    116.66s CPU    118.53s WALL (     431 calls)
     s_psi        :     26.02s CPU     26.19s WALL (     431 calls)
     g_psi        :      0.61s CPU      0.61s WALL (     367 calls)

     Called by h_psi:
     h_psi:calbec :     25.30s CPU     25.48s WALL (     431 calls)
     vloc_psi     :     63.71s CPU     64.33s WALL (     431 calls)
     add_vuspsi   :     26.63s CPU     27.01s WALL (     431 calls)

     General routines
     calbec       :     33.97s CPU     34.21s WALL (     491 calls)
     fft          :      0.95s CPU      1.12s WALL (     315 calls)
     ffts         :      0.05s CPU      0.05s WALL (      30 calls)
     fftw         :     70.41s CPU     71.09s WALL (  129172 calls)
 
     Parallel routines

     PAW routines
     PAW_pot      :      1.33s CPU      1.36s WALL (      15 calls)
     PAW_symme    :      0.05s CPU      0.06s WALL (      30 calls)
 
     PWSCF        :   5m 0.47s CPU   5m14.28s WALL

 
   This run was terminated on:   1:13:57  29Jun2024            

=------------------------------------------------------------------------------=
   JOB DONE.
=------------------------------------------------------------------------------=
