
     Program PWSCF v.7.2 starts on  5Jul2024 at  0:32:44 

     This program is part of the open-source Quantum ESPRESSO suite
     for quantum simulation of materials; please cite
         "P. Giannozzi et al., J. Phys.:Condens. Matter 21 395502 (2009);
         "P. Giannozzi et al., J. Phys.:Condens. Matter 29 465901 (2017);
         "P. Giannozzi et al., J. Chem. Phys. 152 154105 (2020);
          URL http://www.quantum-espresso.org", 
     in publications or presentations arising from this work. More details at
     http://www.quantum-espresso.org/quote

     Parallel version (MPI), running on  1120 processors

     MPI processes distributed on    10 nodes
     237253 MiB available memory on the printing compute node when the environment starts
 
     Reading input from 3.Cu_in_ZnS.nscf.q0.in

     Current dimensions of program PWSCF are:
     Max number of different atomic species (ntypx) = 10
     Max number of k-points (npk) =  40000
     Max angular momentum in pseudopotentials (lmaxx) =  4

     Atomic positions and unit cell read from directory:
     ./out/Cu_q0.save/
 
     file S.pbe-n-kjpaw_psl.1.0.0.UPF: wavefunction(s)  3S 3P renormalized
     file Zn.pbe-dnl-kjpaw_psl.1.0.0.UPF: wavefunction(s)  4S 3D renormalized
     file Cu.pbe-spn-kjpaw_psl.1.0.0.UPF: wavefunction(s)  4S 3P 3D renormalized
     [opt_tetra]  Optimized tetrahedron method is used.
 
     K-points division:     npool     =      10
     R & G space division:  proc/nbgrp/npool/nimage =     112
     Subspace diagonalization in iterative solution of the eigenvalue problem:
     one sub-group per band group will be used
     scalapack distributed-memory algorithm (size of sub-group:  4*  4 procs)

 
     Parallelization info
     --------------------
     sticks:   dense  smooth     PW     G-vecs:    dense   smooth      PW
     Min         180     180     46                19282    19282    2562
     Max         181     181     47                19291    19291    2573
     Sum       20217   20217   5249              2160009  2160009  287777
 
     Using Slab Decomposition
 


     bravais-lattice index     =            1
     lattice parameter (alat)  =      20.5686  a.u.
     unit-cell volume          =    8701.8437 (a.u.)^3
     number of atoms/cell      =           64
     number of atomic types    =            3
     number of electrons       =       583.00
     number of Kohn-Sham states=          350
     kinetic-energy cutoff     =     150.0000  Ry
     charge density cutoff     =     600.0000  Ry
     Exchange-correlation= SLA  PW   PBX  PBC
                           (   1   4   3   4   0   0   0)

     celldm(1)=  20.568554  celldm(2)=   0.000000  celldm(3)=   0.000000
     celldm(4)=   0.000000  celldm(5)=   0.000000  celldm(6)=   0.000000

     crystal axes: (cart. coord. in units of alat)
               a(1) = (   1.000000   0.000000   0.000000 )  
               a(2) = (   0.000000   1.000000   0.000000 )  
               a(3) = (   0.000000   0.000000   1.000000 )  

     reciprocal axes: (cart. coord. in units 2 pi/alat)
               b(1) = (  1.000000  0.000000  0.000000 )  
               b(2) = (  0.000000  1.000000  0.000000 )  
               b(3) = (  0.000000  0.000000  1.000000 )  


     PseudoPot. # 1 for S  read from file:
     /arf/home/amuhaymin/pseudo/S.pbe-n-kjpaw_psl.1.0.0.UPF
     MD5 check sum: fb45dfebcf3e72a4e1bd4a866ec2e262
     Pseudo is Projector augmented-wave + core cor, Zval =  6.0
     Generated using &quot;atomic&quot; code by A. Dal Corso  v.6.3
     Shape of augmentation charge: PSQ
     Using radial grid of 1151 points,  6 beta functions with: 
                l(1) =   0
                l(2) =   0
                l(3) =   1
                l(4) =   1
                l(5) =   2
                l(6) =   2
     Q(r) pseudized with 0 coefficients 


     PseudoPot. # 2 for Zn read from file:
     /arf/home/amuhaymin/pseudo/Zn.pbe-dnl-kjpaw_psl.1.0.0.UPF
     MD5 check sum: c608214d9520ac179f507641260889e3
     Pseudo is Projector augmented-wave + core cor, Zval = 12.0
     Generated using &quot;atomic&quot; code by A. Dal Corso  v.6.2.2
     Shape of augmentation charge: PSQ
     Using radial grid of 1201 points,  6 beta functions with: 
                l(1) =   0
                l(2) =   0
                l(3) =   1
                l(4) =   1
                l(5) =   2
                l(6) =   2
     Q(r) pseudized with 0 coefficients 


     PseudoPot. # 3 for Cu read from file:
     /arf/home/amuhaymin/pseudo/Cu.pbe-spn-kjpaw_psl.1.0.0.UPF
     MD5 check sum: e7cbaad2f97193e5fe23251a619a52b0
     Pseudo is Projector augmented-wave + core cor, Zval = 19.0
     Generated using &quot;atomic&quot; code by A. Dal Corso  v.6.3
     Shape of augmentation charge: PSQ
     Using radial grid of 1199 points,  6 beta functions with: 
                l(1) =   0
                l(2) =   0
                l(3) =   1
                l(4) =   1
                l(5) =   2
                l(6) =   2
     Q(r) pseudized with 0 coefficients 


     atomic species   valence    mass     pseudopotential
        S              6.00    32.06500     S ( 1.00)
        Zn            12.00    65.38000     Zn( 1.00)
        Cu            19.00    63.54600     Cu( 1.00)

     Starting magnetic structure 
     atomic species   magnetization
        S            0.000
        Zn           0.000
        Cu           0.053

     24 Sym. Ops. (no inversion) found


                                    s                        frac. trans.

      isym =  1     identity                                     

 cryst.   s( 1) = (     1          0          0      )
                  (     0          1          0      )
                  (     0          0          1      )

 cart.    s( 1) = (  1.0000000  0.0000000  0.0000000 )
                  (  0.0000000  1.0000000  0.0000000 )
                  (  0.0000000  0.0000000  1.0000000 )


      isym =  2     180 deg rotation - cart. axis [0,0,1]        

 cryst.   s( 2) = (    -1          0          0      )
                  (     0         -1          0      )
                  (     0          0          1      )

 cart.    s( 2) = ( -1.0000000  0.0000000  0.0000000 )
                  (  0.0000000 -1.0000000  0.0000000 )
                  (  0.0000000  0.0000000  1.0000000 )


      isym =  3     180 deg rotation - cart. axis [0,1,0]        

 cryst.   s( 3) = (    -1          0          0      )
                  (     0          1          0      )
                  (     0          0         -1      )

 cart.    s( 3) = ( -1.0000000  0.0000000  0.0000000 )
                  (  0.0000000  1.0000000  0.0000000 )
                  (  0.0000000  0.0000000 -1.0000000 )


      isym =  4     180 deg rotation - cart. axis [1,0,0]        

 cryst.   s( 4) = (     1          0          0      )
                  (     0         -1          0      )
                  (     0          0         -1      )

 cart.    s( 4) = (  1.0000000  0.0000000  0.0000000 )
                  (  0.0000000 -1.0000000  0.0000000 )
                  (  0.0000000  0.0000000 -1.0000000 )


      isym =  5     120 deg rotation - cart. axis [-1,-1,-1]     

 cryst.   s( 5) = (     0          0          1      )
                  (     1          0          0      )
                  (     0          1          0      )

 cart.    s( 5) = (  0.0000000  1.0000000  0.0000000 )
                  (  0.0000000  0.0000000  1.0000000 )
                  (  1.0000000  0.0000000  0.0000000 )


      isym =  6     120 deg rotation - cart. axis [-1,1,1]       

 cryst.   s( 6) = (     0          0         -1      )
                  (    -1          0          0      )
                  (     0          1          0      )

 cart.    s( 6) = (  0.0000000 -1.0000000  0.0000000 )
                  (  0.0000000  0.0000000  1.0000000 )
                  ( -1.0000000  0.0000000  0.0000000 )


      isym =  7     120 deg rotation - cart. axis [1,1,-1]       

 cryst.   s( 7) = (     0          0         -1      )
                  (     1          0          0      )
                  (     0         -1          0      )

 cart.    s( 7) = (  0.0000000  1.0000000  0.0000000 )
                  (  0.0000000  0.0000000 -1.0000000 )
                  ( -1.0000000  0.0000000  0.0000000 )


      isym =  8     120 deg rotation - cart. axis [1,-1,1]       

 cryst.   s( 8) = (     0          0          1      )
                  (    -1          0          0      )
                  (     0         -1          0      )

 cart.    s( 8) = (  0.0000000 -1.0000000  0.0000000 )
                  (  0.0000000  0.0000000 -1.0000000 )
                  (  1.0000000  0.0000000  0.0000000 )


      isym =  9     120 deg rotation - cart. axis [1,1,1]        

 cryst.   s( 9) = (     0          1          0      )
                  (     0          0          1      )
                  (     1          0          0      )

 cart.    s( 9) = (  0.0000000  0.0000000  1.0000000 )
                  (  1.0000000  0.0000000  0.0000000 )
                  (  0.0000000  1.0000000  0.0000000 )


      isym = 10     120 deg rotation - cart. axis [-1,1,-1]      

 cryst.   s(10) = (     0         -1          0      )
                  (     0          0         -1      )
                  (     1          0          0      )

 cart.    s(10) = (  0.0000000  0.0000000  1.0000000 )
                  ( -1.0000000  0.0000000  0.0000000 )
                  (  0.0000000 -1.0000000  0.0000000 )


      isym = 11     120 deg rotation - cart. axis [1,-1,-1]      

 cryst.   s(11) = (     0         -1          0      )
                  (     0          0          1      )
                  (    -1          0          0      )

 cart.    s(11) = (  0.0000000  0.0000000 -1.0000000 )
                  ( -1.0000000  0.0000000  0.0000000 )
                  (  0.0000000  1.0000000  0.0000000 )


      isym = 12     120 deg rotation - cart. axis [-1,-1,1]      

 cryst.   s(12) = (     0          1          0      )
                  (     0          0         -1      )
                  (    -1          0          0      )

 cart.    s(12) = (  0.0000000  0.0000000 -1.0000000 )
                  (  1.0000000  0.0000000  0.0000000 )
                  (  0.0000000 -1.0000000  0.0000000 )


      isym = 13     inv. 180 deg rotation - cart. axis [1,1,0]   

 cryst.   s(13) = (     0         -1          0      )
                  (    -1          0          0      )
                  (     0          0          1      )

 cart.    s(13) = (  0.0000000 -1.0000000  0.0000000 )
                  ( -1.0000000  0.0000000  0.0000000 )
                  (  0.0000000  0.0000000  1.0000000 )


      isym = 14     inv. 180 deg rotation - cart. axis [1,-1,0]  

 cryst.   s(14) = (     0          1          0      )
                  (     1          0          0      )
                  (     0          0          1      )

 cart.    s(14) = (  0.0000000  1.0000000  0.0000000 )
                  (  1.0000000  0.0000000  0.0000000 )
                  (  0.0000000  0.0000000  1.0000000 )


      isym = 15     inv.  90 deg rotation - cart. axis [0,0,-1]  

 cryst.   s(15) = (     0          1          0      )
                  (    -1          0          0      )
                  (     0          0         -1      )

 cart.    s(15) = (  0.0000000 -1.0000000  0.0000000 )
                  (  1.0000000  0.0000000  0.0000000 )
                  (  0.0000000  0.0000000 -1.0000000 )


      isym = 16     inv.  90 deg rotation - cart. axis [0,0,1]   

 cryst.   s(16) = (     0         -1          0      )
                  (     1          0          0      )
                  (     0          0         -1      )

 cart.    s(16) = (  0.0000000  1.0000000  0.0000000 )
                  ( -1.0000000  0.0000000  0.0000000 )
                  (  0.0000000  0.0000000 -1.0000000 )


      isym = 17     inv. 180 deg rotation - cart. axis [1,0,1]   

 cryst.   s(17) = (     0          0         -1      )
                  (     0          1          0      )
                  (    -1          0          0      )

 cart.    s(17) = (  0.0000000  0.0000000 -1.0000000 )
                  (  0.0000000  1.0000000  0.0000000 )
                  ( -1.0000000  0.0000000  0.0000000 )


      isym = 18     inv. 180 deg rotation - cart. axis [-1,0,1]  

 cryst.   s(18) = (     0          0          1      )
                  (     0          1          0      )
                  (     1          0          0      )

 cart.    s(18) = (  0.0000000  0.0000000  1.0000000 )
                  (  0.0000000  1.0000000  0.0000000 )
                  (  1.0000000  0.0000000  0.0000000 )


      isym = 19     inv.  90 deg rotation - cart. axis [0,1,0]   

 cryst.   s(19) = (     0          0          1      )
                  (     0         -1          0      )
                  (    -1          0          0      )

 cart.    s(19) = (  0.0000000  0.0000000 -1.0000000 )
                  (  0.0000000 -1.0000000  0.0000000 )
                  (  1.0000000  0.0000000  0.0000000 )


      isym = 20     inv.  90 deg rotation - cart. axis [0,-1,0]  

 cryst.   s(20) = (     0          0         -1      )
                  (     0         -1          0      )
                  (     1          0          0      )

 cart.    s(20) = (  0.0000000  0.0000000  1.0000000 )
                  (  0.0000000 -1.0000000  0.0000000 )
                  ( -1.0000000  0.0000000  0.0000000 )


      isym = 21     inv. 180 deg rotation - cart. axis [0,1,1]   

 cryst.   s(21) = (     1          0          0      )
                  (     0          0         -1      )
                  (     0         -1          0      )

 cart.    s(21) = (  1.0000000  0.0000000  0.0000000 )
                  (  0.0000000  0.0000000 -1.0000000 )
                  (  0.0000000 -1.0000000  0.0000000 )


      isym = 22     inv. 180 deg rotation - cart. axis [0,1,-1]  

 cryst.   s(22) = (     1          0          0      )
                  (     0          0          1      )
                  (     0          1          0      )

 cart.    s(22) = (  1.0000000  0.0000000  0.0000000 )
                  (  0.0000000  0.0000000  1.0000000 )
                  (  0.0000000  1.0000000  0.0000000 )


      isym = 23     inv.  90 deg rotation - cart. axis [-1,0,0]  

 cryst.   s(23) = (    -1          0          0      )
                  (     0          0          1      )
                  (     0         -1          0      )

 cart.    s(23) = ( -1.0000000  0.0000000  0.0000000 )
                  (  0.0000000  0.0000000 -1.0000000 )
                  (  0.0000000  1.0000000  0.0000000 )


      isym = 24     inv.  90 deg rotation - cart. axis [1,0,0]   

 cryst.   s(24) = (    -1          0          0      )
                  (     0          0         -1      )
                  (     0          1          0      )

 cart.    s(24) = ( -1.0000000  0.0000000  0.0000000 )
                  (  0.0000000  0.0000000  1.0000000 )
                  (  0.0000000 -1.0000000  0.0000000 )


     point group T_d (-43m) 
     there are  5 classes
     the character table:

       E     8C3   3C2   6S4   6s_d 
A_1    1.00  1.00  1.00  1.00  1.00
A_2    1.00  1.00  1.00 -1.00 -1.00
E      2.00 -1.00  2.00  0.00  0.00
T_1    3.00  0.00 -1.00  1.00 -1.00
T_2    3.00  0.00 -1.00 -1.00  1.00

     the symmetry operations in each class and the name of the first element:

     E        1
          identity                                               
     8C3      5    7    8    6   12    9   10   11
          120 deg rotation - cart. axis [-1,-1,-1]               
     3C2      2    3    4
          180 deg rotation - cart. axis [0,0,1]                  
     6S4     15   16   20   19   23   24
          inv.  90 deg rotation - cart. axis [0,0,-1]            
     6s_d    13   14   17   18   21   22
          inv. 180 deg rotation - cart. axis [1,1,0]             

   Cartesian axes

     site n.     atom                  positions (alat units)
         1           Zn  tau(   1) = (   0.0000000   0.0000000   0.0000000  )
         2           Zn  tau(   2) = (   0.0001095   0.2501791   0.2501791  )
         3           Zn  tau(   3) = (   0.2501791   0.0001095   0.2501791  )
         4           Zn  tau(   4) = (   0.2501791   0.2501791   0.0001095  )
         5           S   tau(   5) = (   0.1253015   0.3750814   0.3750814  )
         6           S   tau(   6) = (   0.1249996   0.1249996   0.1249996  )
         7           S   tau(   7) = (   0.3750814   0.3750814   0.1253015  )
         8           S   tau(   8) = (   0.3750814   0.1253015   0.3750814  )
         9           Zn  tau(   9) = (   0.0000000   0.0000000   0.5000000  )
        10           Zn  tau(  10) = (  -0.0001095   0.2501791   0.7498209  )
        11           Zn  tau(  11) = (   0.2501791  -0.0001095   0.7498209  )
        12           Zn  tau(  12) = (   0.2513350   0.2513350   0.5009048  )
        13           S   tau(  13) = (   0.1251847   0.3750623   0.8748153  )
        14           S   tau(  14) = (   0.1251847   0.1251847   0.6249377  )
        15           S   tau(  15) = (   0.3769191   0.3769191   0.6230809  )
        16           S   tau(  16) = (   0.3750623   0.1251847   0.8748153  )
        17           Zn  tau(  17) = (   0.0000000   0.5000000   0.0000000  )
        18           Zn  tau(  18) = (  -0.0001095   0.7498209   0.2501791  )
        19           Zn  tau(  19) = (   0.2513350   0.5009048   0.2513350  )
        20           Zn  tau(  20) = (   0.2501791   0.7498209  -0.0001095  )
        21           S   tau(  21) = (   0.1251847   0.8748153   0.3750623  )
        22           S   tau(  22) = (   0.1251847   0.6249377   0.1251847  )
        23           S   tau(  23) = (   0.3750623   0.8748153   0.1251847  )
        24           S   tau(  24) = (   0.3769191   0.6230809   0.3769191  )
        25           Zn  tau(  25) = (   0.0000000   0.5000000   0.5000000  )
        26           Zn  tau(  26) = (   0.0001095   0.7498209   0.7498209  )
        27           Zn  tau(  27) = (   0.2513350   0.4990952   0.7486650  )
        28           Zn  tau(  28) = (   0.2513350   0.7486650   0.4990952  )
        29           S   tau(  29) = (   0.1249996   0.8750004   0.8750004  )
        30           S   tau(  30) = (   0.1253015   0.6249186   0.6249186  )
        31           S   tau(  31) = (   0.3750814   0.8746985   0.6249186  )
        32           S   tau(  32) = (   0.3750814   0.6249186   0.8746985  )
        33           Zn  tau(  33) = (   0.5000000   0.0000000   0.0000000  )
        34           Zn  tau(  34) = (   0.5009048   0.2513350   0.2513350  )
        35           Zn  tau(  35) = (   0.7498209  -0.0001095   0.2501791  )
        36           Zn  tau(  36) = (   0.7498209   0.2501791  -0.0001095  )
        37           S   tau(  37) = (   0.6230809   0.3769191   0.3769191  )
        38           S   tau(  38) = (   0.6249377   0.1251847   0.1251847  )
        39           S   tau(  39) = (   0.8748153   0.3750623   0.1251847  )
        40           S   tau(  40) = (   0.8748153   0.1251847   0.3750623  )
        41           Zn  tau(  41) = (   0.5000000   0.0000000   0.5000000  )
        42           Zn  tau(  42) = (   0.4990952   0.2513350   0.7486650  )
        43           Zn  tau(  43) = (   0.7498209   0.0001095   0.7498209  )
        44           Zn  tau(  44) = (   0.7486650   0.2513350   0.4990952  )
        45           S   tau(  45) = (   0.6249186   0.3750814   0.8746985  )
        46           S   tau(  46) = (   0.6249186   0.1253015   0.6249186  )
        47           S   tau(  47) = (   0.8746985   0.3750814   0.6249186  )
        48           S   tau(  48) = (   0.8750004   0.1249996   0.8750004  )
        49           Zn  tau(  49) = (   0.5000000   0.5000000   0.0000000  )
        50           Zn  tau(  50) = (   0.4990952   0.7486650   0.2513350  )
        51           Zn  tau(  51) = (   0.7486650   0.4990952   0.2513350  )
        52           Zn  tau(  52) = (   0.7498209   0.7498209   0.0001095  )
        53           S   tau(  53) = (   0.6249186   0.8746985   0.3750814  )
        54           S   tau(  54) = (   0.6249186   0.6249186   0.1253015  )
        55           S   tau(  55) = (   0.8750004   0.8750004   0.1249996  )
        56           S   tau(  56) = (   0.8746985   0.6249186   0.3750814  )
        57           Cu  tau(  57) = (   0.5000000   0.5000000   0.5000000  )
        58           Zn  tau(  58) = (   0.5009048   0.7486650   0.7486650  )
        59           Zn  tau(  59) = (   0.7486650   0.5009048   0.7486650  )
        60           Zn  tau(  60) = (   0.7486650   0.7486650   0.5009048  )
        61           S   tau(  61) = (   0.6249377   0.8748153   0.8748153  )
        62           S   tau(  62) = (   0.6230809   0.6230809   0.6230809  )
        63           S   tau(  63) = (   0.8748153   0.8748153   0.6249377  )
        64           S   tau(  64) = (   0.8748153   0.6249377   0.8748153  )

   Crystallographic axes

     site n.     atom                  positions (cryst. coord.)
         1           Zn  tau(   1) = (  0.0000000  0.0000000  0.0000000  )
         2           Zn  tau(   2) = (  0.0001095  0.2501791  0.2501791  )
         3           Zn  tau(   3) = (  0.2501791  0.0001095  0.2501791  )
         4           Zn  tau(   4) = (  0.2501791  0.2501791  0.0001095  )
         5           S   tau(   5) = (  0.1253015  0.3750814  0.3750814  )
         6           S   tau(   6) = (  0.1249996  0.1249996  0.1249996  )
         7           S   tau(   7) = (  0.3750814  0.3750814  0.1253015  )
         8           S   tau(   8) = (  0.3750814  0.1253015  0.3750814  )
         9           Zn  tau(   9) = (  0.0000000  0.0000000  0.5000000  )
        10           Zn  tau(  10) = ( -0.0001095  0.2501791  0.7498209  )
        11           Zn  tau(  11) = (  0.2501791 -0.0001095  0.7498209  )
        12           Zn  tau(  12) = (  0.2513350  0.2513350  0.5009048  )
        13           S   tau(  13) = (  0.1251847  0.3750623  0.8748153  )
        14           S   tau(  14) = (  0.1251847  0.1251847  0.6249377  )
        15           S   tau(  15) = (  0.3769191  0.3769191  0.6230809  )
        16           S   tau(  16) = (  0.3750623  0.1251847  0.8748153  )
        17           Zn  tau(  17) = (  0.0000000  0.5000000  0.0000000  )
        18           Zn  tau(  18) = ( -0.0001095  0.7498209  0.2501791  )
        19           Zn  tau(  19) = (  0.2513350  0.5009048  0.2513350  )
        20           Zn  tau(  20) = (  0.2501791  0.7498209 -0.0001095  )
        21           S   tau(  21) = (  0.1251847  0.8748153  0.3750623  )
        22           S   tau(  22) = (  0.1251847  0.6249377  0.1251847  )
        23           S   tau(  23) = (  0.3750623  0.8748153  0.1251847  )
        24           S   tau(  24) = (  0.3769191  0.6230809  0.3769191  )
        25           Zn  tau(  25) = (  0.0000000  0.5000000  0.5000000  )
        26           Zn  tau(  26) = (  0.0001095  0.7498209  0.7498209  )
        27           Zn  tau(  27) = (  0.2513350  0.4990952  0.7486650  )
        28           Zn  tau(  28) = (  0.2513350  0.7486650  0.4990952  )
        29           S   tau(  29) = (  0.1249996  0.8750004  0.8750004  )
        30           S   tau(  30) = (  0.1253015  0.6249186  0.6249186  )
        31           S   tau(  31) = (  0.3750814  0.8746985  0.6249186  )
        32           S   tau(  32) = (  0.3750814  0.6249186  0.8746985  )
        33           Zn  tau(  33) = (  0.5000000  0.0000000  0.0000000  )
        34           Zn  tau(  34) = (  0.5009048  0.2513350  0.2513350  )
        35           Zn  tau(  35) = (  0.7498209 -0.0001095  0.2501791  )
        36           Zn  tau(  36) = (  0.7498209  0.2501791 -0.0001095  )
        37           S   tau(  37) = (  0.6230809  0.3769191  0.3769191  )
        38           S   tau(  38) = (  0.6249377  0.1251847  0.1251847  )
        39           S   tau(  39) = (  0.8748153  0.3750623  0.1251847  )
        40           S   tau(  40) = (  0.8748153  0.1251847  0.3750623  )
        41           Zn  tau(  41) = (  0.5000000  0.0000000  0.5000000  )
        42           Zn  tau(  42) = (  0.4990952  0.2513350  0.7486650  )
        43           Zn  tau(  43) = (  0.7498209  0.0001095  0.7498209  )
        44           Zn  tau(  44) = (  0.7486650  0.2513350  0.4990952  )
        45           S   tau(  45) = (  0.6249186  0.3750814  0.8746985  )
        46           S   tau(  46) = (  0.6249186  0.1253015  0.6249186  )
        47           S   tau(  47) = (  0.8746985  0.3750814  0.6249186  )
        48           S   tau(  48) = (  0.8750004  0.1249996  0.8750004  )
        49           Zn  tau(  49) = (  0.5000000  0.5000000  0.0000000  )
        50           Zn  tau(  50) = (  0.4990952  0.7486650  0.2513350  )
        51           Zn  tau(  51) = (  0.7486650  0.4990952  0.2513350  )
        52           Zn  tau(  52) = (  0.7498209  0.7498209  0.0001095  )
        53           S   tau(  53) = (  0.6249186  0.8746985  0.3750814  )
        54           S   tau(  54) = (  0.6249186  0.6249186  0.1253015  )
        55           S   tau(  55) = (  0.8750004  0.8750004  0.1249996  )
        56           S   tau(  56) = (  0.8746985  0.6249186  0.3750814  )
        57           Cu  tau(  57) = (  0.5000000  0.5000000  0.5000000  )
        58           Zn  tau(  58) = (  0.5009048  0.7486650  0.7486650  )
        59           Zn  tau(  59) = (  0.7486650  0.5009048  0.7486650  )
        60           Zn  tau(  60) = (  0.7486650  0.7486650  0.5009048  )
        61           S   tau(  61) = (  0.6249377  0.8748153  0.8748153  )
        62           S   tau(  62) = (  0.6230809  0.6230809  0.6230809  )
        63           S   tau(  63) = (  0.8748153  0.8748153  0.6249377  )
        64           S   tau(  64) = (  0.8748153  0.6249377  0.8748153  )

     number of k points=    10 (tetrahedron method)
                       cart. coord. in units 2pi/alat
        k(    1) = (   0.0000000   0.0000000   0.0000000), wk =   0.0156250
        k(    2) = (   0.0000000   0.0000000   0.2500000), wk =   0.0937500
        k(    3) = (   0.0000000   0.0000000  -0.5000000), wk =   0.0468750
        k(    4) = (   0.0000000   0.2500000   0.2500000), wk =   0.1875000
        k(    5) = (   0.0000000   0.2500000  -0.5000000), wk =   0.1875000
        k(    6) = (   0.0000000  -0.5000000  -0.5000000), wk =   0.0468750
        k(    7) = (   0.2500000   0.2500000   0.2500000), wk =   0.1250000
        k(    8) = (   0.2500000   0.2500000  -0.5000000), wk =   0.1875000
        k(    9) = (   0.2500000  -0.5000000  -0.5000000), wk =   0.0937500
        k(   10) = (  -0.5000000  -0.5000000  -0.5000000), wk =   0.0156250

                       cryst. coord.
        k(    1) = (   0.0000000   0.0000000   0.0000000), wk =   0.0156250
        k(    2) = (   0.0000000   0.0000000   0.2500000), wk =   0.0937500
        k(    3) = (   0.0000000   0.0000000  -0.5000000), wk =   0.0468750
        k(    4) = (   0.0000000   0.2500000   0.2500000), wk =   0.1875000
        k(    5) = (   0.0000000   0.2500000  -0.5000000), wk =   0.1875000
        k(    6) = (   0.0000000  -0.5000000  -0.5000000), wk =   0.0468750
        k(    7) = (   0.2500000   0.2500000   0.2500000), wk =   0.1250000
        k(    8) = (   0.2500000   0.2500000  -0.5000000), wk =   0.1875000
        k(    9) = (   0.2500000  -0.5000000  -0.5000000), wk =   0.0937500
        k(   10) = (  -0.5000000  -0.5000000  -0.5000000), wk =   0.0156250

     Dense  grid:  2160009 G-vectors     FFT dimensions: ( 162, 162, 162)

     Dynamical RAM for                 wfc:      12.87 MB

     Dynamical RAM for     wfc (w. buffer):      38.61 MB

     Dynamical RAM for           str. fact:       0.88 MB

     Dynamical RAM for           local pot:       0.00 MB

     Dynamical RAM for          nlocal pot:      42.36 MB

     Dynamical RAM for                qrad:       5.90 MB

     Dynamical RAM for          rho,v,vnew:       4.17 MB

     Dynamical RAM for           G-vectors:       1.25 MB

     Dynamical RAM for          h,s,v(r/c):       1.40 MB

     Dynamical RAM for          <psi|beta>:       6.15 MB

     Dynamical RAM for                 psi:      25.74 MB

     Dynamical RAM for                hpsi:      25.74 MB

     Dynamical RAM for                spsi:      25.74 MB

     Dynamical RAM for      wfcinit/wfcrot:      34.65 MB

     Dynamical RAM for           addusdens:       6.97 MB

     Estimated static dynamical RAM per process >      96.75 MB

     Estimated max dynamical RAM per process >     181.53 MB

     Estimated total dynamical RAM >     198.55 GB
     Generating pointlists ...
     new r_m :   0.0879 (alat units)  1.8088 (a.u.) for type    1
     new r_m :   0.0889 (alat units)  1.8290 (a.u.) for type    2
     new r_m :   0.0879 (alat units)  1.8088 (a.u.) for type    3

     The potential is recalculated from file :
     ./out/Cu_q0.save/charge-density

     Starting wfcs are  417 randomized atomic wfcs
     Checking if some PAW data can be deallocated... 
       PAW data deallocated on  560 nodes for type:  1
       PAW data deallocated on  577 nodes for type:  2
       PAW data deallocated on 1103 nodes for type:  3

     Band Structure Calculation
     Davidson diagonalization with overlap

     Computing kpt #:     1  of     2 on this pool
     total cpu time spent up to now is       86.1 secs

     Computing kpt #:     2  of     2 on this pool
     c_bands:  1 eigenvalues not converged
     total cpu time spent up to now is      152.4 secs

     ethr =  1.72E-12,  avg # of iterations =104.7

     total cpu time spent up to now is      153.5 secs

     End of band structure calculation

 ------ SPIN UP ------------


          k = 0.0000 0.0000 0.0000 (269825 PWs)   bands (ev):

  -106.0845 -63.4610 -63.4610 -63.4610  -7.4542  -6.9176  -6.9176  -6.9152
    -6.9152  -6.9152  -6.9063  -6.6006  -6.6006  -6.6006  -6.5993  -6.5955
    -6.5955  -6.5955  -6.5948  -6.5948  -6.5948  -6.5948  -6.5948  -6.5527
    -6.5527  -6.5527  -6.5404  -6.2834  -6.2834  -6.2834  -6.2662  -6.2662
    -6.2662  -6.2431  -6.2431  -6.2431  -0.7142  -0.7141  -0.7141  -0.7131
    -0.7131  -0.7131  -0.6776  -0.6776  -0.6761  -0.6646  -0.6646  -0.6646
    -0.5748  -0.5748  -0.5748  -0.5740  -0.5740  -0.5662  -0.5662  -0.5662
    -0.5601  -0.5601  -0.5601  -0.5544  -0.5544  -0.5544  -0.5537  -0.5494
    -0.5491  -0.5491  -0.5491  -0.5485  -0.5485  -0.5405  -0.5405  -0.5405
    -0.5397  -0.5397  -0.5397  -0.5346  -0.5346  -0.5346  -0.5290  -0.5290
    -0.5290  -0.5266  -0.5266  -0.5266  -0.5262  -0.5262  -0.5181  -0.5181
    -0.5181  -0.5130  -0.5128  -0.5128  -0.5128  -0.4888  -0.4888  -0.4418
    -0.4418  -0.4418  -0.4047  -0.4047  -0.4047  -0.4007  -0.4007  -0.4007
    -0.3937  -0.3937  -0.3937  -0.3892  -0.3892  -0.3892  -0.3856  -0.3856
    -0.3745  -0.3627  -0.3627  -0.3627  -0.3393  -0.3393  -0.3393  -0.2602
    -0.2602  -0.2602  -0.2512  -0.2512  -0.2512  -0.2497  -0.2497  -0.2489
    -0.2368  -0.2368  -0.2342  -0.2342  -0.2342  -0.2340  -0.2314  -0.2267
    -0.2267  -0.2103  -0.2103  -0.2103  -0.2096  -0.2096  -0.2096  -0.2077
    -0.2031  -0.2031  -0.2031  -0.2010  -0.2010  -0.1854  -0.1854  -0.1697
    -0.1697  -0.1697  -0.1603  -0.1603  -0.1598  -0.1598  -0.1598  -0.1598
    -0.1582  -0.1582  -0.1582  -0.1550  -0.1550  -0.1506  -0.1506  -0.1506
    -0.1316  -0.1316  -0.1316  -0.1303  -0.1264  -0.1264  -0.1264  -0.1209
    -0.1209  -0.1159  -0.0347  -0.0347  -0.0347   0.0048   0.0106   0.0106
     0.0106   0.1426   0.1426   0.1426   0.1840   0.1840   0.1840   0.3936
     0.3936   0.3936   0.4296   1.0364   1.0364   1.0548   1.0592   1.0592
     1.0618   1.0618   1.0618   1.2019   1.5267   1.5267   1.5267   1.6655
     1.6655   1.6733   1.6733   1.6733   1.6745   1.6745   1.6745   1.8597
     2.6213   2.6213   2.6213   2.7222   2.7222   2.8997   2.8997   2.8997
     2.9023   2.9023   2.9023   2.9269   2.9428   2.9428   2.9428   2.9827
     2.9827   3.0715   3.0727   3.0727   3.0807   3.0807   3.0807   3.1210
     3.1210   3.1210   3.1258   3.1258   3.1258   3.1779   3.3475   3.3475
     3.3475   3.3988   3.3988   3.3988   3.6662   3.6662   3.6662   3.9780
     3.9780   4.3468   4.3468   4.3468   4.3549   4.3549   4.3549   4.3609
     4.3609   4.3609   4.4698   4.4698   4.4698   4.6664   4.6664   4.6664
     4.6743   4.6768   4.6768   4.6768   4.6784   4.6784   4.6784   4.6865
     4.6865   4.7101   4.7101   4.7101   4.8908   4.8908   5.1517   5.1517
     5.1517   5.6859   5.6859   5.6859   7.5803   8.8107   8.8107   8.8107
     8.8721   9.0258   9.0258   9.0258   9.6225   9.6225   9.6476   9.9709
     9.9709   9.9812   9.9812   9.9812  10.0320  10.1164  10.1164  10.1376
    10.1376  10.1376  10.1456  10.3067  10.3067  10.3067  10.3088  10.3088
    10.3154  10.3154  10.3154  10.3263  10.3263  10.3263  10.6955  11.2332
    11.2332  11.2332  11.2937  11.2937  11.2937  11.4587  11.4587  11.4587
    11.4602  11.4602  11.7896  11.9492  11.9492  11.9492  12.1683  12.1683
    12.1683  12.1854  12.1854  12.1854  12.1951  12.1951

     occupation numbers 
     1.0000   1.0000   1.0000   1.0000   1.0000   1.0000   1.0000   1.0000
     1.0000   1.0000   1.0000   1.0000   1.0000   1.0000   1.0000   1.0000
     1.0000   1.0000   1.0000   1.0000   1.0000   1.0000   1.0000   1.0000
     1.0000   1.0000   1.0000   1.0000   1.0000   1.0000   1.0000   1.0000
     1.0000   1.0000   1.0000   1.0000   1.0000   1.0000   1.0000   1.0000
     1.0000   1.0000   1.0000   1.0000   1.0000   1.0000   1.0000   1.0000
     1.0000   1.0000   1.0000   1.0000   1.0000   1.0000   1.0000   1.0000
     1.0000   1.0000   1.0000   1.0000   1.0000   1.0000   1.0000   1.0000
     1.0000   1.0000   1.0000   1.0000   1.0000   1.0000   1.0000   1.0000
     1.0000   1.0000   1.0000   1.0000   1.0000   1.0000   1.0000   1.0000
     1.0000   1.0000   1.0000   1.0000   1.0000   1.0000   1.0000   1.0000
     1.0000   1.0000   1.0000   1.0000   1.0000   1.0000   1.0000   1.0000
     1.0000   1.0000   1.0000   1.0000   1.0000   1.0000   1.0000   1.0000
     1.0000   1.0000   1.0000   1.0000   1.0000   1.0000   1.0000   1.0000
     1.0000   1.0000   1.0000   1.0000   1.0000   1.0000   1.0000   1.0000
     1.0000   1.0000   1.0000   1.0000   1.0000   1.0000   1.0000   1.0000
     1.0000   1.0000   1.0000   1.0000   1.0000   1.0000   1.0000   1.0000
     1.0000   1.0000   1.0000   1.0000   1.0000   1.0000   1.0000   1.0000
     1.0000   1.0000   1.0000   1.0000   1.0000   1.0000   1.0000   1.0000
     1.0000   1.0000   1.0000   1.0000   1.0000   1.0000   1.0000   1.0000
     1.0000   1.0000   1.0000   1.0000   1.0000   1.0000   1.0000   1.0000
     1.0000   1.0000   1.0000   1.0000   1.0000   1.0000   1.0000   1.0000
     1.0000   1.0000   1.0000   1.0000   1.0000   1.0000   1.0000   1.0000
     1.0000   1.0000   1.0000   1.0000   1.0000   1.0000   1.0000   1.0000
     1.0000   1.0000   1.0000   1.0000   1.0000   1.0000   1.0000   1.0000
     1.0000   1.0000   1.0000   1.0000   1.0000   1.0000   1.0000   1.0000
     1.0000   1.0000   1.0000   1.0000   1.0000   1.0000   1.0000   1.0000
     1.0000   1.0000   1.0000   1.0000   1.0000   1.0000   1.0000   1.0000
     1.0000   1.0000   1.0000   1.0000   1.0000   1.0000   1.0000   1.0000
     1.0000   1.0000   1.0000   1.0000   1.0000   1.0000   1.0000   1.0000
     1.0000   1.0000   1.0000   1.0000   1.0000   1.0000   1.0000   1.0000
     1.0000   1.0000   1.0000   1.0000   1.0000   1.0000   1.0000   1.0000
     1.0000   1.0000   1.0000   1.0000   1.0000   1.0000   1.0000   1.0000
     1.0000   1.0000   1.0000   1.0000   1.0000   1.0000   1.0000   1.0000
     1.0000   1.0000   1.0000   1.0000   1.0000   1.0000   1.0000   1.0000
     1.0000   1.0000   1.0000   1.0000   1.0000   1.0000   1.0000   1.0000
     1.0000   0.9991   0.9991   0.9991   0.0000   0.0000   0.0000   0.0000
     0.0000   0.0000   0.0000   0.0000   0.0000   0.0000   0.0000   0.0000
     0.0000   0.0000   0.0000   0.0000   0.0000   0.0000   0.0000   0.0000
     0.0000   0.0000   0.0000   0.0000   0.0000   0.0000   0.0000   0.0000
     0.0000   0.0000   0.0000   0.0000   0.0000   0.0000   0.0000   0.0000
     0.0000   0.0000   0.0000   0.0000   0.0000   0.0000   0.0000   0.0000
     0.0000   0.0000   0.0000   0.0000   0.0000   0.0000   0.0000   0.0000
     0.0000   0.0000   0.0000   0.0000   0.0000   0.0000

          k = 0.0000 0.0000 0.2500 (269876 PWs)   bands (ev):

  -106.0845 -63.4610 -63.4610 -63.4610  -7.4161  -7.1308  -6.8935  -6.8912
    -6.8912  -6.8863  -6.7189  -6.7172  -6.7172  -6.7129  -6.6834  -6.5963
    -6.5949  -6.5948  -6.5948  -6.5656  -6.5655  -6.5655  -6.5563  -6.4698
    -6.4655  -6.4655  -6.4562  -6.3304  -6.2943  -6.2943  -6.2910  -6.2756
    -6.2756  -6.2746  -6.2473  -6.2473  -0.7116  -0.7075  -0.6974  -0.6974
    -0.6967  -0.6966  -0.6797  -0.6680  -0.6589  -0.6574  -0.6559  -0.6559
    -0.5950  -0.5950  -0.5789  -0.5771  -0.5739  -0.5730  -0.5730  -0.5703
    -0.5694  -0.5657  -0.5657  -0.5636  -0.5636  -0.5608  -0.5604  -0.5577
    -0.5577  -0.5561  -0.5547  -0.5502  -0.5493  -0.5491  -0.5491  -0.5469
    -0.5466  -0.5436  -0.5436  -0.5436  -0.5379  -0.5371  -0.5371  -0.5344
    -0.5344  -0.5343  -0.5299  -0.5276  -0.5276  -0.5270  -0.5197  -0.5141
    -0.5017  -0.4995  -0.4994  -0.4994  -0.4900  -0.4881  -0.4881  -0.4770
    -0.4748  -0.4723  -0.4723  -0.4389  -0.4350  -0.4350  -0.4229  -0.4102
    -0.4102  -0.3862  -0.3862  -0.3733  -0.3651  -0.3651  -0.3591  -0.3560
    -0.3526  -0.3526  -0.3360  -0.3044  -0.3010  -0.3010  -0.2969  -0.2886
    -0.2830  -0.2633  -0.2633  -0.2407  -0.2387  -0.2342  -0.2342  -0.2331
    -0.2330  -0.2294  -0.2292  -0.2292  -0.2265  -0.2249  -0.2209  -0.2144
    -0.2144  -0.2108  -0.2098  -0.2065  -0.2046  -0.2031  -0.2004  -0.2004
    -0.1989  -0.1964  -0.1920  -0.1920  -0.1916  -0.1889  -0.1889  -0.1887
    -0.1877  -0.1805  -0.1695  -0.1678  -0.1678  -0.1659  -0.1633  -0.1633
    -0.1627  -0.1608  -0.1591  -0.1584  -0.1500  -0.1483  -0.1483  -0.1408
    -0.1398  -0.1281  -0.1278  -0.1278  -0.1268  -0.1198  -0.1072  -0.1054
    -0.1054  -0.0931  -0.0928  -0.0873  -0.0873  -0.0730  -0.0583   0.0234
     0.0234   0.1100   0.1116   0.1116   0.1462   0.1539   0.1539   0.5811
     0.5811   0.5920   0.6128   1.0439   1.0442   1.0550   1.0642   1.0695
     1.0748   1.0748   1.1404   1.2434   1.3268   1.3268   1.3659   1.3795
     1.3986   1.3986   1.4204   1.5177   1.9779   1.9779   2.0169   2.0423
     2.2987   2.5475   2.5475   2.5953   2.6174   2.6988   2.6988   2.7509
     2.7524   2.8100   2.8269   2.8269   2.8295   2.9387   2.9515   2.9670
     2.9670   3.1000   3.1662   3.1662   3.2073   3.2964   3.3203   3.3203
     3.3436   3.3612   3.3774   3.3774   3.3867   3.4315   3.4315   3.4600
     3.4838   3.4838   3.4998   3.5975   3.7100   3.7100   3.8064   3.9579
     4.0140   4.0140   4.0293   4.2344   4.2432   4.2848   4.2848   4.3481
     4.3824   4.3824   4.3971   4.4811   4.4811   4.4822   4.4916   4.5263
     4.5263   4.5682   4.6763   4.6763   4.6794   4.6838   4.7046   4.7522
     4.7522   4.7555   4.7636   4.7636   4.7974   4.9082   5.0378   5.1369
     5.1369   5.4263   5.6000   5.6000   7.9770   9.0282   9.0287   9.0287
     9.0833   9.1017   9.2534   9.2534   9.5119   9.6615   9.7022   9.8236
     9.8367  10.0417  10.0446  10.0466  10.0466  10.0536  10.0850  10.0850
    10.0914  10.1719  10.2748  10.2847  10.2847  10.3337  10.3346  10.3606
    10.3606  10.3778  10.4337  10.4452  10.4452  10.6407  10.6978  10.7179
    10.7179  11.0454  11.0604  11.0640  11.0673  11.0673  11.2717  11.5752
    11.5836  11.5836  11.7268  11.7914  11.8294  11.8482  11.8594  11.8594
    12.0147  12.0239  12.0239  12.0385  12.0431  12.0431

     occupation numbers 
     1.0000   1.0000   1.0000   1.0000   1.0000   1.0000   1.0000   1.0000
     1.0000   1.0000   1.0000   1.0000   1.0000   1.0000   1.0000   1.0000
     1.0000   1.0000   1.0000   1.0000   1.0000   1.0000   1.0000   1.0000
     1.0000   1.0000   1.0000   1.0000   1.0000   1.0000   1.0000   1.0000
     1.0000   1.0000   1.0000   1.0000   1.0000   1.0000   1.0000   1.0000
     1.0000   1.0000   1.0000   1.0000   1.0000   1.0000   1.0000   1.0000
     1.0000   1.0000   1.0000   1.0000   1.0000   1.0000   1.0000   1.0000
     1.0000   1.0000   1.0000   1.0000   1.0000   1.0000   1.0000   1.0000
     1.0000   1.0000   1.0000   1.0000   1.0000   1.0000   1.0000   1.0000
     1.0000   1.0000   1.0000   1.0000   1.0000   1.0000   1.0000   1.0000
     1.0000   1.0000   1.0000   1.0000   1.0000   1.0000   1.0000   1.0000
     1.0000   1.0000   1.0000   1.0000   1.0000   1.0000   1.0000   1.0000
     1.0000   1.0000   1.0000   1.0000   1.0000   1.0000   1.0000   1.0000
     1.0000   1.0000   1.0000   1.0000   1.0000   1.0000   1.0000   1.0000
     1.0000   1.0000   1.0000   1.0000   1.0000   1.0000   1.0000   1.0000
     1.0000   1.0000   1.0000   1.0000   1.0000   1.0000   1.0000   1.0000
     1.0000   1.0000   1.0000   1.0000   1.0000   1.0000   1.0000   1.0000
     1.0000   1.0000   1.0000   1.0000   1.0000   1.0000   1.0000   1.0000
     1.0000   1.0000   1.0000   1.0000   1.0000   1.0000   1.0000   1.0000
     1.0000   1.0000   1.0000   1.0000   1.0000   1.0000   1.0000   1.0000
     1.0000   1.0000   1.0000   1.0000   1.0000   1.0000   1.0000   1.0000
     1.0000   1.0000   1.0000   1.0000   1.0000   1.0000   1.0000   1.0000
     1.0000   1.0000   1.0000   1.0000   1.0000   1.0000   1.0000   1.0000
     1.0000   1.0000   1.0000   1.0000   1.0000   1.0000   1.0000   1.0000
     1.0000   1.0000   1.0000   1.0000   1.0000   1.0000   1.0000   1.0000
     1.0000   1.0000   1.0000   1.0000   1.0000   1.0000   1.0000   1.0000
     1.0000   1.0000   1.0000   1.0000   1.0000   1.0000   1.0000   1.0000
     1.0000   1.0000   1.0000   1.0000   1.0000   1.0000   1.0000   1.0000
     1.0000   1.0000   1.0000   1.0000   1.0000   1.0000   1.0000   1.0000
     1.0000   1.0000   1.0000   1.0000   1.0000   1.0000   1.0000   1.0000
     1.0000   1.0000   1.0000   1.0000   1.0000   1.0000   1.0000   1.0000
     1.0000   1.0000   1.0000   1.0000   1.0000   1.0000   1.0000   1.0000
     1.0000   1.0000   1.0000   1.0000   1.0000   1.0000   1.0000   1.0000
     1.0000   1.0000   1.0000   1.0000   1.0000   1.0000   1.0000   1.0000
     1.0000   1.0000   1.0000   1.0000   1.0000   1.0000   1.0000   1.0000
     1.0000   1.0000   1.0000   1.0000   1.0000   1.0000   1.0000   1.0000
     1.0000   1.0000   1.0000   1.0000   0.0000   0.0000   0.0000   0.0000
     0.0000   0.0000   0.0000   0.0000   0.0000   0.0000   0.0000   0.0000
     0.0000   0.0000   0.0000   0.0000   0.0000   0.0000   0.0000   0.0000
     0.0000   0.0000   0.0000   0.0000   0.0000   0.0000   0.0000   0.0000
     0.0000   0.0000   0.0000   0.0000   0.0000   0.0000   0.0000   0.0000
     0.0000   0.0000   0.0000   0.0000   0.0000   0.0000   0.0000   0.0000
     0.0000   0.0000   0.0000   0.0000   0.0000   0.0000   0.0000   0.0000
     0.0000   0.0000   0.0000   0.0000   0.0000   0.0000

          k = 0.0000 0.0000-0.5000 (270152 PWs)   bands (ev):

  -106.0845 -63.4610 -63.4610 -63.4610  -7.3144  -7.2946  -6.8324  -6.8306
    -6.8306  -6.8286  -6.8153  -6.8126  -6.8126  -6.8049  -6.5941  -6.5928
    -6.5921  -6.5921  -6.5679  -6.5679  -6.5668  -6.5588  -6.4825  -6.4663
    -6.3724  -6.3699  -6.3699  -6.3600  -6.3531  -6.3511  -6.3511  -6.3407
    -6.2782  -6.2782  -6.2492  -6.2492  -0.7062  -0.7029  -0.6831  -0.6724
    -0.6588  -0.6588  -0.6542  -0.6541  -0.6447  -0.6447  -0.6383  -0.6383
    -0.6360  -0.6350  -0.6250  -0.6157  -0.6064  -0.6064  -0.6015  -0.5896
    -0.5740  -0.5731  -0.5675  -0.5675  -0.5616  -0.5616  -0.5593  -0.5592
    -0.5591  -0.5591  -0.5536  -0.5509  -0.5505  -0.5488  -0.5482  -0.5482
    -0.5455  -0.5451  -0.5437  -0.5437  -0.5429  -0.5429  -0.5392  -0.5354
    -0.5354  -0.5343  -0.5300  -0.5295  -0.5291  -0.5236  -0.5236  -0.5204
    -0.5130  -0.5130  -0.5108  -0.4985  -0.4904  -0.4829  -0.4745  -0.4745
    -0.4629  -0.4629  -0.4595  -0.4588  -0.4525  -0.4322  -0.4322  -0.4123
    -0.4123  -0.3856  -0.3856  -0.3774  -0.3774  -0.3684  -0.3314  -0.3233
    -0.3204  -0.3097  -0.3097  -0.2958  -0.2939  -0.2939  -0.2876  -0.2766
    -0.2684  -0.2684  -0.2675  -0.2622  -0.2595  -0.2579  -0.2579  -0.2446
    -0.2314  -0.2296  -0.2258  -0.2223  -0.2223  -0.2182  -0.2168  -0.2168
    -0.2137  -0.2128  -0.2112  -0.2076  -0.2073  -0.2073  -0.2032  -0.1974
    -0.1953  -0.1948  -0.1948  -0.1933  -0.1903  -0.1867  -0.1839  -0.1839
    -0.1819  -0.1790  -0.1790  -0.1755  -0.1686  -0.1669  -0.1669  -0.1666
    -0.1642  -0.1619  -0.1578  -0.1507  -0.1483  -0.1481  -0.1481  -0.1450
    -0.1436  -0.1378  -0.1366  -0.1343  -0.1316  -0.1247  -0.1231  -0.1231
    -0.1207  -0.1207  -0.1193  -0.0083  -0.0083  -0.0016   0.0296   0.0321
     0.0321   0.0371   0.0373   0.0791   0.0791   0.0940   0.0940   0.9257
     0.9257   0.9386   0.9678   0.9864   0.9864   0.9965   1.0142   1.0440
     1.0550   1.0705   1.0785   1.1122   1.1505   1.1505   1.1594   1.1605
     1.1735   1.1735   1.3630   1.6691   1.7539   2.2142   2.2142   2.3135
     2.4161   2.4566   2.4610   2.4610   2.5694   2.5701   2.6003   2.6349
     2.6349   2.6567   2.6601   2.6604   2.6604   2.9663   3.0534   3.0534
     3.0633   3.1331   3.1331   3.1332   3.1491   3.2673   3.2673   3.3468
     3.4465   3.6667   3.6667   3.7017   3.7017   3.7548   3.8555   3.8611
     3.8611   3.8619   3.8735   3.8777   3.8777   3.8957   3.8957   3.9023
     3.9099   3.9209   3.9337   3.9653   3.9653   3.9780   3.9913   3.9913
     3.9921   4.0558   4.2092   4.2381   4.2381   4.3634   4.5204   4.5439
     4.6703   4.6718   4.6718   4.6744   4.6762   4.6762   4.6843   4.6844
     4.6863   4.6863   4.7048   4.7777   4.9038   4.9403   4.9403   5.1474
     5.1474   5.2707   5.4733   5.4733   8.7346   8.7697   9.2917   9.3388
     9.5307   9.5312   9.5376   9.5376   9.5529   9.5529   9.5723   9.6524
     9.8442   9.8442   9.8517   9.9029   9.9029   9.9067  10.1712  10.1859
    10.1859  10.1894  10.1974  10.2038  10.2038  10.2942  10.3429  10.3458
    10.3837  10.5139  10.7055  10.7160  10.7160  10.7230  10.7272  10.7325
    10.7325  10.9404  10.9474  10.9486  10.9486  10.9493  10.9583  11.0334
    11.0334  11.1308  11.2618  11.2745  11.7695  11.7757  11.7757  11.7918
    11.8167  11.8167  11.8518  12.0050  12.0736  12.0757

     occupation numbers 
     1.0000   1.0000   1.0000   1.0000   1.0000   1.0000   1.0000   1.0000
     1.0000   1.0000   1.0000   1.0000   1.0000   1.0000   1.0000   1.0000
     1.0000   1.0000   1.0000   1.0000   1.0000   1.0000   1.0000   1.0000
     1.0000   1.0000   1.0000   1.0000   1.0000   1.0000   1.0000   1.0000
     1.0000   1.0000   1.0000   1.0000   1.0000   1.0000   1.0000   1.0000
     1.0000   1.0000   1.0000   1.0000   1.0000   1.0000   1.0000   1.0000
     1.0000   1.0000   1.0000   1.0000   1.0000   1.0000   1.0000   1.0000
     1.0000   1.0000   1.0000   1.0000   1.0000   1.0000   1.0000   1.0000
     1.0000   1.0000   1.0000   1.0000   1.0000   1.0000   1.0000   1.0000
     1.0000   1.0000   1.0000   1.0000   1.0000   1.0000   1.0000   1.0000
     1.0000   1.0000   1.0000   1.0000   1.0000   1.0000   1.0000   1.0000
     1.0000   1.0000   1.0000   1.0000   1.0000   1.0000   1.0000   1.0000
     1.0000   1.0000   1.0000   1.0000   1.0000   1.0000   1.0000   1.0000
     1.0000   1.0000   1.0000   1.0000   1.0000   1.0000   1.0000   1.0000
     1.0000   1.0000   1.0000   1.0000   1.0000   1.0000   1.0000   1.0000
     1.0000   1.0000   1.0000   1.0000   1.0000   1.0000   1.0000   1.0000
     1.0000   1.0000   1.0000   1.0000   1.0000   1.0000   1.0000   1.0000
     1.0000   1.0000   1.0000   1.0000   1.0000   1.0000   1.0000   1.0000
     1.0000   1.0000   1.0000   1.0000   1.0000   1.0000   1.0000   1.0000
     1.0000   1.0000   1.0000   1.0000   1.0000   1.0000   1.0000   1.0000
     1.0000   1.0000   1.0000   1.0000   1.0000   1.0000   1.0000   1.0000
     1.0000   1.0000   1.0000   1.0000   1.0000   1.0000   1.0000   1.0000
     1.0000   1.0000   1.0000   1.0000   1.0000   1.0000   1.0000   1.0000
     1.0000   1.0000   1.0000   1.0000   1.0000   1.0000   1.0000   1.0000
     1.0000   1.0000   1.0000   1.0000   1.0000   1.0000   1.0000   1.0000
     1.0000   1.0000   1.0000   1.0000   1.0000   1.0000   1.0000   1.0000
     1.0000   1.0000   1.0000   1.0000   1.0000   1.0000   1.0000   1.0000
     1.0000   1.0000   1.0000   1.0000   1.0000   1.0000   1.0000   1.0000
     1.0000   1.0000   1.0000   1.0000   1.0000   1.0000   1.0000   1.0000
     1.0000   1.0000   1.0000   1.0000   1.0000   1.0000   1.0000   1.0000
     1.0000   1.0000   1.0000   1.0000   1.0000   1.0000   1.0000   1.0000
     1.0000   1.0000   1.0000   1.0000   1.0000   1.0000   1.0000   1.0000
     1.0000   1.0000   1.0000   1.0000   1.0000   1.0000   1.0000   1.0000
     1.0000   1.0000   1.0000   1.0000   1.0000   1.0000   1.0000   1.0000
     1.0000   1.0000   1.0000   1.0000   1.0000   1.0000   1.0000   1.0000
     1.0000   1.0000   1.0000   1.0000   1.0000   1.0000   1.0000   1.0000
     1.0000   1.0000   1.0000   1.0000   0.0000   0.0000   0.0000   0.0000
     0.0000   0.0000   0.0000   0.0000   0.0000   0.0000   0.0000   0.0000
     0.0000   0.0000   0.0000   0.0000   0.0000   0.0000   0.0000   0.0000
     0.0000   0.0000   0.0000   0.0000   0.0000   0.0000   0.0000   0.0000
     0.0000   0.0000   0.0000   0.0000   0.0000   0.0000   0.0000   0.0000
     0.0000   0.0000   0.0000   0.0000   0.0000   0.0000   0.0000   0.0000
     0.0000   0.0000   0.0000   0.0000   0.0000   0.0000   0.0000   0.0000
     0.0000   0.0000   0.0000   0.0000   0.0000   0.0000

          k = 0.0000 0.2500 0.2500 (269929 PWs)   bands (ev):

  -106.0845 -63.4610 -63.4610 -63.4610  -7.3788  -7.1027  -7.0985  -6.8788
    -6.8685  -6.8671  -6.7073  -6.7054  -6.7049  -6.7010  -6.6685  -6.6657
    -6.6218  -6.6191  -6.5538  -6.5534  -6.5230  -6.5194  -6.4761  -6.4709
    -6.4695  -6.4638  -6.3866  -6.3311  -6.3310  -6.3079  -6.3077  -6.2974
    -6.2944  -6.2772  -6.2753  -6.2538  -0.6961  -0.6933  -0.6920  -0.6913
    -0.6827  -0.6803  -0.6655  -0.6614  -0.6598  -0.6518  -0.6479  -0.6421
    -0.5993  -0.5959  -0.5951  -0.5928  -0.5833  -0.5806  -0.5803  -0.5787
    -0.5761  -0.5751  -0.5713  -0.5705  -0.5690  -0.5683  -0.5643  -0.5630
    -0.5620  -0.5613  -0.5594  -0.5579  -0.5575  -0.5547  -0.5534  -0.5519
    -0.5500  -0.5485  -0.5473  -0.5462  -0.5456  -0.5421  -0.5415  -0.5385
    -0.5385  -0.5332  -0.5287  -0.5276  -0.5223  -0.5216  -0.5118  -0.5087
    -0.5040  -0.4993  -0.4921  -0.4843  -0.4822  -0.4776  -0.4749  -0.4671
    -0.4665  -0.4644  -0.4608  -0.4564  -0.4431  -0.4427  -0.4321  -0.4245
    -0.4230  -0.4078  -0.3991  -0.3953  -0.3917  -0.3774  -0.3705  -0.3659
    -0.3528  -0.3436  -0.3100  -0.3094  -0.3034  -0.2886  -0.2871  -0.2839
    -0.2782  -0.2753  -0.2727  -0.2726  -0.2579  -0.2418  -0.2339  -0.2303
    -0.2293  -0.2245  -0.2241  -0.2239  -0.2190  -0.2173  -0.2165  -0.2134
    -0.2101  -0.2091  -0.2069  -0.2037  -0.2015  -0.1994  -0.1984  -0.1973
    -0.1968  -0.1935  -0.1895  -0.1893  -0.1887  -0.1872  -0.1857  -0.1853
    -0.1784  -0.1758  -0.1715  -0.1708  -0.1687  -0.1684  -0.1635  -0.1630
    -0.1611  -0.1610  -0.1596  -0.1594  -0.1591  -0.1534  -0.1501  -0.1450
    -0.1440  -0.1430  -0.1365  -0.1326  -0.1282  -0.1243  -0.1225  -0.0952
    -0.0889  -0.0782  -0.0753  -0.0443  -0.0411  -0.0152   0.0030   0.0068
     0.0515   0.0751   0.0820   0.1069   0.1131   0.1390   0.1483   0.5064
     0.5231   0.8923   0.8960   1.0156   1.0281   1.0434   1.0474   1.0646
     1.1045   1.1227   1.1340   1.1340   1.1483   1.1493   1.2045   1.2287
     1.3504   1.5786   1.6605   1.7172   1.7560   1.8018   1.8577   2.1517
     2.1802   2.3946   2.4853   2.5421   2.6113   2.6198   2.6409   2.6617
     2.7211   2.7870   2.8154   2.8806   2.9689   2.9855   3.0290   3.0733
     3.0981   3.1625   3.1706   3.1923   3.2599   3.2812   3.3000   3.3725
     3.3965   3.4074   3.4266   3.4381   3.4937   3.4959   3.5082   3.5348
     3.5919   3.6408   3.7291   3.7337   3.8237   3.8559   3.8633   3.9117
     3.9603   3.9953   4.0312   4.0909   4.0960   4.2108   4.2156   4.2689
     4.3355   4.3401   4.3492   4.3586   4.3685   4.4039   4.4412   4.4639
     4.4970   4.5495   4.5949   4.6107   4.6378   4.6452   4.6852   4.6893
     4.7301   4.7443   4.7762   4.8494   4.8764   4.8995   4.9803   5.0920
     5.2274   5.3477   5.5160   5.6492   8.2332   9.0526   9.0766   9.3242
     9.3248   9.3293   9.3712   9.3887   9.5385   9.5682   9.8816   9.8826
     9.8952   9.9051   9.9234   9.9275   9.9397   9.9675   9.9718   9.9773
    10.0479  10.1265  10.1427  10.1680  10.2066  10.2989  10.3002  10.3173
    10.3577  10.3757  10.4710  10.6805  10.6931  10.7050  10.7813  10.7957
    10.8094  10.8759  10.8801  10.9860  11.0106  11.0547  11.2325  11.4299
    11.4339  11.4512  11.5028  11.5137  11.6531  11.7826  11.8093  11.8148
    11.8381  11.8493  11.9318  11.9327  11.9351  11.9747

     occupation numbers 
     1.0000   1.0000   1.0000   1.0000   1.0000   1.0000   1.0000   1.0000
     1.0000   1.0000   1.0000   1.0000   1.0000   1.0000   1.0000   1.0000
     1.0000   1.0000   1.0000   1.0000   1.0000   1.0000   1.0000   1.0000
     1.0000   1.0000   1.0000   1.0000   1.0000   1.0000   1.0000   1.0000
     1.0000   1.0000   1.0000   1.0000   1.0000   1.0000   1.0000   1.0000
     1.0000   1.0000   1.0000   1.0000   1.0000   1.0000   1.0000   1.0000
     1.0000   1.0000   1.0000   1.0000   1.0000   1.0000   1.0000   1.0000
     1.0000   1.0000   1.0000   1.0000   1.0000   1.0000   1.0000   1.0000
     1.0000   1.0000   1.0000   1.0000   1.0000   1.0000   1.0000   1.0000
     1.0000   1.0000   1.0000   1.0000   1.0000   1.0000   1.0000   1.0000
     1.0000   1.0000   1.0000   1.0000   1.0000   1.0000   1.0000   1.0000
     1.0000   1.0000   1.0000   1.0000   1.0000   1.0000   1.0000   1.0000
     1.0000   1.0000   1.0000   1.0000   1.0000   1.0000   1.0000   1.0000
     1.0000   1.0000   1.0000   1.0000   1.0000   1.0000   1.0000   1.0000
     1.0000   1.0000   1.0000   1.0000   1.0000   1.0000   1.0000   1.0000
     1.0000   1.0000   1.0000   1.0000   1.0000   1.0000   1.0000   1.0000
     1.0000   1.0000   1.0000   1.0000   1.0000   1.0000   1.0000   1.0000
     1.0000   1.0000   1.0000   1.0000   1.0000   1.0000   1.0000   1.0000
     1.0000   1.0000   1.0000   1.0000   1.0000   1.0000   1.0000   1.0000
     1.0000   1.0000   1.0000   1.0000   1.0000   1.0000   1.0000   1.0000
     1.0000   1.0000   1.0000   1.0000   1.0000   1.0000   1.0000   1.0000
     1.0000   1.0000   1.0000   1.0000   1.0000   1.0000   1.0000   1.0000
     1.0000   1.0000   1.0000   1.0000   1.0000   1.0000   1.0000   1.0000
     1.0000   1.0000   1.0000   1.0000   1.0000   1.0000   1.0000   1.0000
     1.0000   1.0000   1.0000   1.0000   1.0000   1.0000   1.0000   1.0000
     1.0000   1.0000   1.0000   1.0000   1.0000   1.0000   1.0000   1.0000
     1.0000   1.0000   1.0000   1.0000   1.0000   1.0000   1.0000   1.0000
     1.0000   1.0000   1.0000   1.0000   1.0000   1.0000   1.0000   1.0000
     1.0000   1.0000   1.0000   1.0000   1.0000   1.0000   1.0000   1.0000
     1.0000   1.0000   1.0000   1.0000   1.0000   1.0000   1.0000   1.0000
     1.0000   1.0000   1.0000   1.0000   1.0000   1.0000   1.0000   1.0000
     1.0000   1.0000   1.0000   1.0000   1.0000   1.0000   1.0000   1.0000
     1.0000   1.0000   1.0000   1.0000   1.0000   1.0000   1.0000   1.0000
     1.0000   1.0000   1.0000   1.0000   1.0000   1.0000   1.0000   1.0000
     1.0000   1.0000   1.0000   1.0000   1.0000   1.0000   1.0000   1.0000
     1.0000   1.0000   1.0000   1.0000   1.0000   1.0000   1.0000   1.0000
     1.0000   1.0000   1.0000   1.0000   0.0000   0.0000   0.0000   0.0000
     0.0000   0.0000   0.0000   0.0000   0.0000   0.0000   0.0000   0.0000
     0.0000   0.0000   0.0000   0.0000   0.0000   0.0000   0.0000   0.0000
     0.0000   0.0000   0.0000   0.0000   0.0000   0.0000   0.0000   0.0000
     0.0000   0.0000   0.0000   0.0000   0.0000   0.0000   0.0000   0.0000
     0.0000   0.0000   0.0000   0.0000   0.0000   0.0000   0.0000   0.0000
     0.0000   0.0000   0.0000   0.0000   0.0000   0.0000   0.0000   0.0000
     0.0000   0.0000   0.0000   0.0000   0.0000   0.0000

          k = 0.0000 0.2500-0.5000 (269962 PWs)   bands (ev):

  -106.0845 -63.4610 -63.4610 -63.4610  -7.2797  -7.2601  -7.0227  -7.0029
    -6.8119  -6.8118  -6.7941  -6.7918  -6.6796  -6.6793  -6.6613  -6.6578
    -6.6284  -6.6102  -6.5022  -6.5007  -6.4856  -6.4796  -6.4739  -6.4581
    -6.4085  -6.3888  -6.3859  -6.3807  -6.3677  -6.3608  -6.3303  -6.3202
    -6.3123  -6.3018  -6.2752  -6.2571  -0.6912  -0.6861  -0.6667  -0.6646
    -0.6633  -0.6487  -0.6479  -0.6457  -0.6416  -0.6363  -0.6331  -0.6319
    -0.6290  -0.6245  -0.6228  -0.6112  -0.6070  -0.6016  -0.6000  -0.5965
    -0.5917  -0.5864  -0.5843  -0.5828  -0.5756  -0.5743  -0.5733  -0.5682
    -0.5653  -0.5641  -0.5627  -0.5604  -0.5604  -0.5579  -0.5532  -0.5522
    -0.5498  -0.5487  -0.5470  -0.5460  -0.5445  -0.5425  -0.5389  -0.5388
    -0.5341  -0.5264  -0.5246  -0.5229  -0.5223  -0.5159  -0.5142  -0.5105
    -0.5072  -0.4965  -0.4933  -0.4913  -0.4790  -0.4759  -0.4711  -0.4673
    -0.4629  -0.4494  -0.4478  -0.4430  -0.4428  -0.4339  -0.4229  -0.4212
    -0.4123  -0.4068  -0.4030  -0.4021  -0.4012  -0.3955  -0.3878  -0.3877
    -0.3787  -0.3561  -0.3376  -0.3323  -0.3295  -0.3253  -0.3176  -0.2878
    -0.2629  -0.2591  -0.2562  -0.2538  -0.2465  -0.2457  -0.2423  -0.2415
    -0.2266  -0.2235  -0.2219  -0.2164  -0.2155  -0.2141  -0.2103  -0.2092
    -0.2069  -0.2054  -0.2001  -0.1998  -0.1972  -0.1950  -0.1937  -0.1922
    -0.1907  -0.1899  -0.1873  -0.1850  -0.1839  -0.1831  -0.1790  -0.1779
    -0.1764  -0.1740  -0.1736  -0.1702  -0.1672  -0.1662  -0.1660  -0.1622
    -0.1620  -0.1592  -0.1563  -0.1557  -0.1549  -0.1488  -0.1469  -0.1450
    -0.1422  -0.1413  -0.1398  -0.1382  -0.1369  -0.1349  -0.1262  -0.0714
    -0.0473  -0.0436  -0.0412  -0.0308  -0.0219   0.0068   0.0131   0.0282
     0.0362   0.0416   0.0505   0.0857   0.1034   0.1040   0.1058   0.7561
     0.7592   0.7658   0.7778   0.9828   0.9990   1.0167   1.0173   1.0330
     1.0465   1.0521   1.0922   1.2040   1.2278   1.2937   1.2942   1.3353
     1.3402   1.3439   1.4114   1.6255   1.7044   1.9389   1.9468   2.0788
     2.1765   2.2215   2.2443   2.4523   2.5008   2.6867   2.7128   2.7391
     2.8015   2.8065   2.8425   2.8711   2.8915   2.9130   2.9338   3.0300
     3.0985   3.1646   3.2389   3.2681   3.2970   3.3983   3.4039   3.4882
     3.5414   3.5473   3.5603   3.5608   3.6370   3.6561   3.6672   3.6985
     3.7028   3.7426   3.7633   3.8022   3.8421   3.8739   3.9062   3.9374
     3.9673   3.9831   4.0078   4.1098   4.1099   4.1368   4.1442   4.1628
     4.1695   4.2266   4.2371   4.2549   4.2729   4.3163   4.3416   4.3778
     4.4240   4.4330   4.4716   4.4807   4.5510   4.6157   4.6405   4.6685
     4.7096   4.7118   4.8098   4.8659   4.9045   4.9234   5.0329   5.1904
     5.2217   5.3884   5.4758   5.5397   8.8321   8.8687   9.4271   9.4291
     9.4369   9.4699   9.5277   9.5747   9.6638   9.6763   9.7010   9.7100
     9.8724   9.8736   9.8845   9.8858   9.9039   9.9073   9.9165   9.9272
     9.9811   9.9944  10.0228  10.0719  10.1065  10.1768  10.3811  10.4252
    10.4577  10.5239  10.5414  10.5703  10.6506  10.6578  10.6758  10.7496
    10.7873  10.8583  10.9223  11.0219  11.1003  11.1679  11.3137  11.3259
    11.3523  11.3766  11.3851  11.4066  11.4251  11.4612  11.5679  11.6018
    11.6043  11.6377  11.7697  11.7820  11.8037  11.8112

     occupation numbers 
     1.0000   1.0000   1.0000   1.0000   1.0000   1.0000   1.0000   1.0000
     1.0000   1.0000   1.0000   1.0000   1.0000   1.0000   1.0000   1.0000
     1.0000   1.0000   1.0000   1.0000   1.0000   1.0000   1.0000   1.0000
     1.0000   1.0000   1.0000   1.0000   1.0000   1.0000   1.0000   1.0000
     1.0000   1.0000   1.0000   1.0000   1.0000   1.0000   1.0000   1.0000
     1.0000   1.0000   1.0000   1.0000   1.0000   1.0000   1.0000   1.0000
     1.0000   1.0000   1.0000   1.0000   1.0000   1.0000   1.0000   1.0000
     1.0000   1.0000   1.0000   1.0000   1.0000   1.0000   1.0000   1.0000
     1.0000   1.0000   1.0000   1.0000   1.0000   1.0000   1.0000   1.0000
     1.0000   1.0000   1.0000   1.0000   1.0000   1.0000   1.0000   1.0000
     1.0000   1.0000   1.0000   1.0000   1.0000   1.0000   1.0000   1.0000
     1.0000   1.0000   1.0000   1.0000   1.0000   1.0000   1.0000   1.0000
     1.0000   1.0000   1.0000   1.0000   1.0000   1.0000   1.0000   1.0000
     1.0000   1.0000   1.0000   1.0000   1.0000   1.0000   1.0000   1.0000
     1.0000   1.0000   1.0000   1.0000   1.0000   1.0000   1.0000   1.0000
     1.0000   1.0000   1.0000   1.0000   1.0000   1.0000   1.0000   1.0000
     1.0000   1.0000   1.0000   1.0000   1.0000   1.0000   1.0000   1.0000
     1.0000   1.0000   1.0000   1.0000   1.0000   1.0000   1.0000   1.0000
     1.0000   1.0000   1.0000   1.0000   1.0000   1.0000   1.0000   1.0000
     1.0000   1.0000   1.0000   1.0000   1.0000   1.0000   1.0000   1.0000
     1.0000   1.0000   1.0000   1.0000   1.0000   1.0000   1.0000   1.0000
     1.0000   1.0000   1.0000   1.0000   1.0000   1.0000   1.0000   1.0000
     1.0000   1.0000   1.0000   1.0000   1.0000   1.0000   1.0000   1.0000
     1.0000   1.0000   1.0000   1.0000   1.0000   1.0000   1.0000   1.0000
     1.0000   1.0000   1.0000   1.0000   1.0000   1.0000   1.0000   1.0000
     1.0000   1.0000   1.0000   1.0000   1.0000   1.0000   1.0000   1.0000
     1.0000   1.0000   1.0000   1.0000   1.0000   1.0000   1.0000   1.0000
     1.0000   1.0000   1.0000   1.0000   1.0000   1.0000   1.0000   1.0000
     1.0000   1.0000   1.0000   1.0000   1.0000   1.0000   1.0000   1.0000
     1.0000   1.0000   1.0000   1.0000   1.0000   1.0000   1.0000   1.0000
     1.0000   1.0000   1.0000   1.0000   1.0000   1.0000   1.0000   1.0000
     1.0000   1.0000   1.0000   1.0000   1.0000   1.0000   1.0000   1.0000
     1.0000   1.0000   1.0000   1.0000   1.0000   1.0000   1.0000   1.0000
     1.0000   1.0000   1.0000   1.0000   1.0000   1.0000   1.0000   1.0000
     1.0000   1.0000   1.0000   1.0000   1.0000   1.0000   1.0000   1.0000
     1.0000   1.0000   1.0000   1.0000   1.0000   1.0000   1.0000   1.0000
     1.0000   1.0000   1.0000   1.0000   0.0000   0.0000   0.0000   0.0000
     0.0000   0.0000   0.0000   0.0000   0.0000   0.0000   0.0000   0.0000
     0.0000   0.0000   0.0000   0.0000   0.0000   0.0000   0.0000   0.0000
     0.0000   0.0000   0.0000   0.0000   0.0000   0.0000   0.0000   0.0000
     0.0000   0.0000   0.0000   0.0000   0.0000   0.0000   0.0000   0.0000
     0.0000   0.0000   0.0000   0.0000   0.0000   0.0000   0.0000   0.0000
     0.0000   0.0000   0.0000   0.0000   0.0000   0.0000   0.0000   0.0000
     0.0000   0.0000   0.0000   0.0000   0.0000   0.0000

          k = 0.0000-0.5000-0.5000 (269920 PWs)   bands (ev):

  -106.0845 -63.4610 -63.4610 -63.4610  -7.1864  -7.1711  -7.1711  -7.1467
    -6.7664  -6.7652  -6.7520  -6.7520  -6.7492  -6.7492  -6.7300  -6.7232
    -6.4577  -6.4577  -6.4479  -6.4475  -6.4458  -6.4454  -6.4348  -6.4348
    -6.4284  -6.4284  -6.4177  -6.4163  -6.4142  -6.4073  -6.3882  -6.3882
    -6.3067  -6.2914  -6.2914  -6.2680  -0.6654  -0.6653  -0.6653  -0.6630
    -0.6374  -0.6325  -0.6323  -0.6285  -0.6279  -0.6279  -0.6229  -0.6229
    -0.6229  -0.6195  -0.6195  -0.6156  -0.6091  -0.6058  -0.6058  -0.6033
    -0.6026  -0.6026  -0.5962  -0.5952  -0.5952  -0.5930  -0.5930  -0.5891
    -0.5828  -0.5828  -0.5654  -0.5607  -0.5607  -0.5565  -0.5561  -0.5558
    -0.5492  -0.5492  -0.5481  -0.5473  -0.5473  -0.5472  -0.5448  -0.5374
    -0.5315  -0.5193  -0.5193  -0.5014  -0.5004  -0.5004  -0.4995  -0.4976
    -0.4904  -0.4904  -0.4894  -0.4822  -0.4816  -0.4816  -0.4779  -0.4764
    -0.4685  -0.4671  -0.4565  -0.4531  -0.4531  -0.4474  -0.4474  -0.4362
    -0.4343  -0.4211  -0.4211  -0.4056  -0.3961  -0.3885  -0.3885  -0.3822
    -0.3822  -0.3812  -0.3745  -0.3692  -0.3666  -0.3170  -0.3051  -0.3051
    -0.2833  -0.2581  -0.2553  -0.2527  -0.2488  -0.2488  -0.2450  -0.2450
    -0.2231  -0.2185  -0.2128  -0.2128  -0.2119  -0.2042  -0.2021  -0.2021
    -0.2008  -0.2008  -0.1983  -0.1964  -0.1964  -0.1937  -0.1912  -0.1907
    -0.1898  -0.1853  -0.1853  -0.1829  -0.1786  -0.1767  -0.1767  -0.1758
    -0.1720  -0.1720  -0.1716  -0.1676  -0.1657  -0.1624  -0.1624  -0.1602
    -0.1551  -0.1527  -0.1527  -0.1516  -0.1462  -0.1462  -0.1459  -0.1442
    -0.1407  -0.1407  -0.1360  -0.1215  -0.1063  -0.1063  -0.0993  -0.0993
    -0.0959  -0.0948  -0.0939   0.0137   0.0137   0.0165   0.0557   0.0557
     0.0612   0.0622   0.0686   0.1121   0.1264   0.1264   0.1280   0.7587
     0.7763   0.7796   0.7796   0.7872   0.7872   0.8017   0.8496   1.0148
     1.0278   1.0278   1.0878   1.4342   1.4342   1.5038   1.5089   1.5295
     1.5438   1.5438   1.6311   1.6441   1.7341   1.7341   1.7732   1.7796
     1.7869   1.7869   1.9414   2.4504   2.5321   2.5321   2.5350   2.8253
     2.8253   2.8680   3.0566   3.1309   3.2579   3.2601   3.2601   3.2606
     3.2760   3.2760   3.2772   3.2798   3.2857   3.2857   3.2946   3.3692
     3.3692   3.5088   3.5654   3.5913   3.6025   3.6341   3.6529   3.6529
     3.6941   3.6941   3.7131   3.7466   3.7574   3.7641   3.7641   3.8057
     3.9013   3.9955   4.0031   4.0031   4.1278   4.1351   4.1351   4.1966
     4.1966   4.2180   4.2521   4.3241   4.4426   4.4461   4.4461   4.4566
     4.4593   4.4593   4.5191   4.5221   4.5270   4.5322   4.5322   4.5863
     4.6588   4.6629   4.7180   4.7180   4.7566   4.9098   4.9098   5.2977
     5.3529   5.3690   5.5815   5.5815   9.1480   9.1571   9.1571   9.2207
     9.5559   9.5629   9.5629   9.5647   9.5696   9.5696   9.5752   9.6456
     9.6941   9.6941   9.7420   9.7874  10.1500  10.1531  10.1531  10.1667
    10.1776  10.1785  10.2437  10.2437  10.3154  10.3232  10.3232  10.3272
    10.3345  10.3616  10.3616  10.3889  10.4582  10.4648  10.4664  10.4664
    10.4866  10.4866  10.5218  10.9559  11.4302  11.4302  11.4701  11.5119
    11.5119  11.5169  11.5183  11.5240  11.5480  11.5666  11.5666  11.5693
    11.6290  11.6706  11.6706  11.6708  11.7943  11.8057

     occupation numbers 
     1.0000   1.0000   1.0000   1.0000   1.0000   1.0000   1.0000   1.0000
     1.0000   1.0000   1.0000   1.0000   1.0000   1.0000   1.0000   1.0000
     1.0000   1.0000   1.0000   1.0000   1.0000   1.0000   1.0000   1.0000
     1.0000   1.0000   1.0000   1.0000   1.0000   1.0000   1.0000   1.0000
     1.0000   1.0000   1.0000   1.0000   1.0000   1.0000   1.0000   1.0000
     1.0000   1.0000   1.0000   1.0000   1.0000   1.0000   1.0000   1.0000
     1.0000   1.0000   1.0000   1.0000   1.0000   1.0000   1.0000   1.0000
     1.0000   1.0000   1.0000   1.0000   1.0000   1.0000   1.0000   1.0000
     1.0000   1.0000   1.0000   1.0000   1.0000   1.0000   1.0000   1.0000
     1.0000   1.0000   1.0000   1.0000   1.0000   1.0000   1.0000   1.0000
     1.0000   1.0000   1.0000   1.0000   1.0000   1.0000   1.0000   1.0000
     1.0000   1.0000   1.0000   1.0000   1.0000   1.0000   1.0000   1.0000
     1.0000   1.0000   1.0000   1.0000   1.0000   1.0000   1.0000   1.0000
     1.0000   1.0000   1.0000   1.0000   1.0000   1.0000   1.0000   1.0000
     1.0000   1.0000   1.0000   1.0000   1.0000   1.0000   1.0000   1.0000
     1.0000   1.0000   1.0000   1.0000   1.0000   1.0000   1.0000   1.0000
     1.0000   1.0000   1.0000   1.0000   1.0000   1.0000   1.0000   1.0000
     1.0000   1.0000   1.0000   1.0000   1.0000   1.0000   1.0000   1.0000
     1.0000   1.0000   1.0000   1.0000   1.0000   1.0000   1.0000   1.0000
     1.0000   1.0000   1.0000   1.0000   1.0000   1.0000   1.0000   1.0000
     1.0000   1.0000   1.0000   1.0000   1.0000   1.0000   1.0000   1.0000
     1.0000   1.0000   1.0000   1.0000   1.0000   1.0000   1.0000   1.0000
     1.0000   1.0000   1.0000   1.0000   1.0000   1.0000   1.0000   1.0000
     1.0000   1.0000   1.0000   1.0000   1.0000   1.0000   1.0000   1.0000
     1.0000   1.0000   1.0000   1.0000   1.0000   1.0000   1.0000   1.0000
     1.0000   1.0000   1.0000   1.0000   1.0000   1.0000   1.0000   1.0000
     1.0000   1.0000   1.0000   1.0000   1.0000   1.0000   1.0000   1.0000
     1.0000   1.0000   1.0000   1.0000   1.0000   1.0000   1.0000   1.0000
     1.0000   1.0000   1.0000   1.0000   1.0000   1.0000   1.0000   1.0000
     1.0000   1.0000   1.0000   1.0000   1.0000   1.0000   1.0000   1.0000
     1.0000   1.0000   1.0000   1.0000   1.0000   1.0000   1.0000   1.0000
     1.0000   1.0000   1.0000   1.0000   1.0000   1.0000   1.0000   1.0000
     1.0000   1.0000   1.0000   1.0000   1.0000   1.0000   1.0000   1.0000
     1.0000   1.0000   1.0000   1.0000   1.0000   1.0000   1.0000   1.0000
     1.0000   1.0000   1.0000   1.0000   1.0000   1.0000   1.0000   1.0000
     1.0000   1.0000   1.0000   1.0000   1.0000   1.0000   1.0000   1.0000
     1.0000   1.0000   1.0000   1.0000   0.0000   0.0000   0.0000   0.0000
     0.0000   0.0000   0.0000   0.0000   0.0000   0.0000   0.0000   0.0000
     0.0000   0.0000   0.0000   0.0000   0.0000   0.0000   0.0000   0.0000
     0.0000   0.0000   0.0000   0.0000   0.0000   0.0000   0.0000   0.0000
     0.0000   0.0000   0.0000   0.0000   0.0000   0.0000   0.0000   0.0000
     0.0000   0.0000   0.0000   0.0000   0.0000   0.0000   0.0000   0.0000
     0.0000   0.0000   0.0000   0.0000   0.0000   0.0000   0.0000   0.0000
     0.0000   0.0000   0.0000   0.0000   0.0000   0.0000

          k = 0.2500 0.2500 0.2500 (269935 PWs)   bands (ev):

  -106.0845 -63.4610 -63.4610 -63.4610  -7.3425  -7.0737  -7.0737  -7.0674
    -6.8608  -6.8608  -6.8548  -6.7169  -6.6536  -6.6536  -6.6493  -6.5544
    -6.5543  -6.5543  -6.5479  -6.5476  -6.5476  -6.5169  -6.5169  -6.5094
    -6.4060  -6.4060  -6.3984  -6.3325  -6.3323  -6.3323  -6.3147  -6.3146
    -6.3146  -6.2914  -6.2914  -6.2901  -0.6848  -0.6814  -0.6814  -0.6754
    -0.6737  -0.6737  -0.6605  -0.6465  -0.6465  -0.6427  -0.6425  -0.6425
    -0.5971  -0.5967  -0.5967  -0.5961  -0.5932  -0.5932  -0.5845  -0.5845
    -0.5824  -0.5824  -0.5805  -0.5762  -0.5751  -0.5751  -0.5708  -0.5708
    -0.5705  -0.5666  -0.5641  -0.5641  -0.5610  -0.5610  -0.5602  -0.5586
    -0.5586  -0.5549  -0.5548  -0.5548  -0.5541  -0.5474  -0.5409  -0.5409
    -0.5383  -0.5314  -0.5287  -0.5287  -0.5210  -0.5210  -0.5124  -0.5017
    -0.5017  -0.4861  -0.4861  -0.4845  -0.4842  -0.4733  -0.4733  -0.4654
    -0.4648  -0.4648  -0.4439  -0.4369  -0.4369  -0.4279  -0.4256  -0.4256
    -0.4097  -0.4040  -0.4040  -0.3796  -0.3749  -0.3749  -0.3746  -0.3714
    -0.3689  -0.3689  -0.3608  -0.3554  -0.3554  -0.3090  -0.3090  -0.2950
    -0.2852  -0.2831  -0.2831  -0.2528  -0.2496  -0.2496  -0.2432  -0.2390
    -0.2390  -0.2261  -0.2261  -0.2204  -0.2106  -0.2089  -0.2089  -0.2061
    -0.2061  -0.2044  -0.1973  -0.1973  -0.1931  -0.1914  -0.1914  -0.1904
    -0.1890  -0.1890  -0.1840  -0.1840  -0.1823  -0.1767  -0.1767  -0.1763
    -0.1749  -0.1740  -0.1740  -0.1695  -0.1686  -0.1686  -0.1655  -0.1655
    -0.1616  -0.1585  -0.1585  -0.1535  -0.1458  -0.1458  -0.1455  -0.1440
    -0.1440  -0.1296  -0.1296  -0.1286  -0.1263  -0.1202  -0.1202  -0.1175
    -0.0628  -0.0566  -0.0566  -0.0195  -0.0174  -0.0174   0.0097   0.0158
     0.0158   0.0681   0.0681   0.0883   0.1031   0.1031   0.1040   0.6691
     0.6691   0.6990   0.9553   0.9606   0.9606   1.0551   1.0551   1.0719
     1.0719   1.0771   1.1232   1.2082   1.2082   1.2662   1.2718   1.3751
     1.3751   1.4447   1.4447   1.4479   1.5643   1.9980   2.0468   2.0468
     2.1824   2.1824   2.2820   2.6369   2.6369   2.7092   2.7092   2.7350
     2.7653   2.8168   2.8168   2.8804   2.9316   2.9316   2.9661   3.1201
     3.1201   3.2307   3.2677   3.2816   3.2816   3.3807   3.3807   3.3938
     3.4330   3.4462   3.4462   3.5109   3.5109   3.5492   3.5492   3.5507
     3.5745   3.6455   3.6516   3.6516   3.8730   3.8836   3.8836   3.9635
     3.9635   4.0431   4.1139   4.1139   4.1287   4.1388   4.1388   4.2025
     4.2025   4.2329   4.2530   4.2987   4.2987   4.3232   4.3466   4.3466
     4.4204   4.4854   4.4945   4.4945   4.6173   4.6173   4.6525   4.7835
     4.8211   4.8211   4.8728   4.8728   4.9473   4.9473   5.0387   5.2230
     5.2230   5.3106   5.5840   5.5840   8.3990   8.8991   9.3941   9.3941
     9.3984   9.4776   9.4776   9.4860   9.4992   9.4992   9.5351   9.6234
     9.6234   9.7013   9.8794   9.8794   9.9112  10.1023  10.1023  10.1393
    10.1782  10.1782  10.2117  10.3403  10.3403  10.3452  10.3525  10.3525
    10.3838  10.4088  10.4088  10.4130  10.4294  10.4294  10.4588  10.4988
    10.4988  10.8308  11.1247  11.1247  11.1541  11.4236  11.4412  11.4412
    11.4634  11.4634  11.5280  11.5351  11.5433  11.5433  11.6015  11.6015
    11.7123  11.8468  11.9260  11.9260  11.9525  11.9650

     occupation numbers 
     1.0000   1.0000   1.0000   1.0000   1.0000   1.0000   1.0000   1.0000
     1.0000   1.0000   1.0000   1.0000   1.0000   1.0000   1.0000   1.0000
     1.0000   1.0000   1.0000   1.0000   1.0000   1.0000   1.0000   1.0000
     1.0000   1.0000   1.0000   1.0000   1.0000   1.0000   1.0000   1.0000
     1.0000   1.0000   1.0000   1.0000   1.0000   1.0000   1.0000   1.0000
     1.0000   1.0000   1.0000   1.0000   1.0000   1.0000   1.0000   1.0000
     1.0000   1.0000   1.0000   1.0000   1.0000   1.0000   1.0000   1.0000
     1.0000   1.0000   1.0000   1.0000   1.0000   1.0000   1.0000   1.0000
     1.0000   1.0000   1.0000   1.0000   1.0000   1.0000   1.0000   1.0000
     1.0000   1.0000   1.0000   1.0000   1.0000   1.0000   1.0000   1.0000
     1.0000   1.0000   1.0000   1.0000   1.0000   1.0000   1.0000   1.0000
     1.0000   1.0000   1.0000   1.0000   1.0000   1.0000   1.0000   1.0000
     1.0000   1.0000   1.0000   1.0000   1.0000   1.0000   1.0000   1.0000
     1.0000   1.0000   1.0000   1.0000   1.0000   1.0000   1.0000   1.0000
     1.0000   1.0000   1.0000   1.0000   1.0000   1.0000   1.0000   1.0000
     1.0000   1.0000   1.0000   1.0000   1.0000   1.0000   1.0000   1.0000
     1.0000   1.0000   1.0000   1.0000   1.0000   1.0000   1.0000   1.0000
     1.0000   1.0000   1.0000   1.0000   1.0000   1.0000   1.0000   1.0000
     1.0000   1.0000   1.0000   1.0000   1.0000   1.0000   1.0000   1.0000
     1.0000   1.0000   1.0000   1.0000   1.0000   1.0000   1.0000   1.0000
     1.0000   1.0000   1.0000   1.0000   1.0000   1.0000   1.0000   1.0000
     1.0000   1.0000   1.0000   1.0000   1.0000   1.0000   1.0000   1.0000
     1.0000   1.0000   1.0000   1.0000   1.0000   1.0000   1.0000   1.0000
     1.0000   1.0000   1.0000   1.0000   1.0000   1.0000   1.0000   1.0000
     1.0000   1.0000   1.0000   1.0000   1.0000   1.0000   1.0000   1.0000
     1.0000   1.0000   1.0000   1.0000   1.0000   1.0000   1.0000   1.0000
     1.0000   1.0000   1.0000   1.0000   1.0000   1.0000   1.0000   1.0000
     1.0000   1.0000   1.0000   1.0000   1.0000   1.0000   1.0000   1.0000
     1.0000   1.0000   1.0000   1.0000   1.0000   1.0000   1.0000   1.0000
     1.0000   1.0000   1.0000   1.0000   1.0000   1.0000   1.0000   1.0000
     1.0000   1.0000   1.0000   1.0000   1.0000   1.0000   1.0000   1.0000
     1.0000   1.0000   1.0000   1.0000   1.0000   1.0000   1.0000   1.0000
     1.0000   1.0000   1.0000   1.0000   1.0000   1.0000   1.0000   1.0000
     1.0000   1.0000   1.0000   1.0000   1.0000   1.0000   1.0000   1.0000
     1.0000   1.0000   1.0000   1.0000   1.0000   1.0000   1.0000   1.0000
     1.0000   1.0000   1.0000   1.0000   1.0000   1.0000   1.0000   1.0000
     1.0000   1.0000   1.0000   1.0000   0.0000   0.0000   0.0000   0.0000
     0.0000   0.0000   0.0000   0.0000   0.0000   0.0000   0.0000   0.0000
     0.0000   0.0000   0.0000   0.0000   0.0000   0.0000   0.0000   0.0000
     0.0000   0.0000   0.0000   0.0000   0.0000   0.0000   0.0000   0.0000
     0.0000   0.0000   0.0000   0.0000   0.0000   0.0000   0.0000   0.0000
     0.0000   0.0000   0.0000   0.0000   0.0000   0.0000   0.0000   0.0000
     0.0000   0.0000   0.0000   0.0000   0.0000   0.0000   0.0000   0.0000
     0.0000   0.0000   0.0000   0.0000   0.0000   0.0000

          k = 0.2500 0.2500-0.5000 (269988 PWs)   bands (ev):

  -106.0845 -63.4610 -63.4610 -63.4610  -7.2460  -7.2266  -6.9979  -6.9962
    -6.9807  -6.9741  -6.8115  -6.7911  -6.6191  -6.6171  -6.6017  -6.5990
    -6.5502  -6.5490  -6.5246  -6.5201  -6.4673  -6.4634  -6.4527  -6.4445
    -6.4176  -6.4083  -6.3985  -6.3875  -6.3601  -6.3540  -6.3424  -6.3361
    -6.3260  -6.3259  -6.2962  -6.2953  -0.6810  -0.6708  -0.6582  -0.6524
    -0.6522  -0.6479  -0.6390  -0.6387  -0.6380  -0.6356  -0.6255  -0.6252
    -0.6211  -0.6207  -0.6161  -0.6103  -0.6036  -0.6017  -0.5965  -0.5955
    -0.5940  -0.5938  -0.5905  -0.5868  -0.5849  -0.5837  -0.5835  -0.5820
    -0.5780  -0.5746  -0.5718  -0.5694  -0.5678  -0.5674  -0.5666  -0.5649
    -0.5616  -0.5611  -0.5597  -0.5553  -0.5545  -0.5407  -0.5397  -0.5381
    -0.5291  -0.5288  -0.5186  -0.5140  -0.5092  -0.5084  -0.5016  -0.4984
    -0.4950  -0.4890  -0.4880  -0.4875  -0.4740  -0.4707  -0.4669  -0.4619
    -0.4546  -0.4489  -0.4473  -0.4453  -0.4439  -0.4348  -0.4338  -0.4316
    -0.4227  -0.4210  -0.4094  -0.4066  -0.4041  -0.3968  -0.3918  -0.3593
    -0.3488  -0.3412  -0.3317  -0.3256  -0.3244  -0.3203  -0.3198  -0.3196
    -0.3129  -0.3112  -0.3038  -0.2759  -0.2721  -0.2616  -0.2574  -0.2491
    -0.2378  -0.2226  -0.2207  -0.2125  -0.2122  -0.2099  -0.2027  -0.1995
    -0.1971  -0.1964  -0.1956  -0.1920  -0.1897  -0.1884  -0.1864  -0.1841
    -0.1836  -0.1817  -0.1802  -0.1782  -0.1773  -0.1754  -0.1750  -0.1735
    -0.1708  -0.1694  -0.1668  -0.1658  -0.1629  -0.1619  -0.1612  -0.1583
    -0.1576  -0.1564  -0.1532  -0.1476  -0.1462  -0.1440  -0.1421  -0.1411
    -0.1394  -0.1375  -0.1360  -0.1282  -0.1243  -0.1080  -0.1044  -0.1023
    -0.1019  -0.0481  -0.0432  -0.0249  -0.0221  -0.0030   0.0257   0.0369
     0.0394   0.0403   0.0554   0.0651   0.0885   0.0967   0.0991   0.6924
     0.7218   0.9442   0.9447   0.9501   0.9858   0.9962   1.0211   1.0460
     1.0739   1.1354   1.1377   1.1558   1.1650   1.1652   1.1909   1.2052
     1.3176   1.5493   1.6273   1.6412   1.7301   1.7467   1.7793   1.7891
     1.8823   2.4321   2.5386   2.6659   2.6869   2.7217   2.7383   2.7429
     2.7460   2.8521   2.8533   2.8700   2.8987   2.9461   2.9663   3.0064
     3.0275   3.1453   3.1833   3.2403   3.3433   3.4243   3.4714   3.4908
     3.5055   3.5949   3.6101   3.6406   3.6431   3.6632   3.6767   3.7185
     3.7197   3.7488   3.7644   3.8100   3.8156   3.8409   3.8422   3.8545
     3.8661   3.8839   3.9129   3.9266   3.9395   4.0318   4.0399   4.0524
     4.1071   4.1910   4.2151   4.2244   4.2562   4.3464   4.3701   4.3718
     4.4629   4.4641   4.4791   4.4807   4.5588   4.5763   4.6066   4.6761
     4.7632   4.8894   4.9581   5.0017   5.0557   5.1012   5.1422   5.1517
     5.1834   5.4617   5.5002   5.5057   8.8550   8.8907   9.1286   9.1608
     9.4461   9.4499   9.4603   9.5145   9.5843   9.6359   9.7447   9.7566
     9.7669   9.7677   9.8414   9.8473   9.8707   9.9049   9.9129   9.9598
    10.0697  10.0768  10.0795  10.0925  10.1196  10.1262  10.1487  10.2374
    10.3093  10.3546  10.4846  10.4880  10.5022  10.6478  10.8261  10.8262
    10.8305  10.9268  11.0604  11.0818  11.0877  11.1774  11.4020  11.4071
    11.4106  11.5211  11.5826  11.6076  11.6775  11.6951  11.7042  11.7128
    11.7328  11.7407  11.7530  11.7657  11.7771  11.8094

     occupation numbers 
     1.0000   1.0000   1.0000   1.0000   1.0000   1.0000   1.0000   1.0000
     1.0000   1.0000   1.0000   1.0000   1.0000   1.0000   1.0000   1.0000
[...]
     9.7731   9.7738   9.8467   9.8541   9.8792   9.9136   9.9192   9.9665
    10.0766  10.0833  10.0845  10.0970  10.1256  10.1326  10.1595  10.2487
    10.3148  10.3635  10.4901  10.4942  10.5073  10.6636  10.8330  10.8341
    10.8384  10.9382  11.0657  11.0914  11.0943  11.1942  11.4082  11.4165
    11.4167  11.5319  11.5892  11.6144  11.6836  11.7014  11.7094  11.7188
    11.7375  11.7474  11.7593  11.7721  11.7850  11.8205

     occupation numbers 
     1.0000   1.0000   1.0000   1.0000   1.0000   1.0000   1.0000   1.0000
     1.0000   1.0000   1.0000   1.0000   1.0000   1.0000   1.0000   1.0000
     1.0000   1.0000   1.0000   1.0000   1.0000   1.0000   1.0000   1.0000
     1.0000   1.0000   1.0000   1.0000   1.0000   1.0000   1.0000   1.0000
     1.0000   1.0000   1.0000   1.0000   1.0000   1.0000   1.0000   1.0000
     1.0000   1.0000   1.0000   1.0000   1.0000   1.0000   1.0000   1.0000
     1.0000   1.0000   1.0000   1.0000   1.0000   1.0000   1.0000   1.0000
     1.0000   1.0000   1.0000   1.0000   1.0000   1.0000   1.0000   1.0000
     1.0000   1.0000   1.0000   1.0000   1.0000   1.0000   1.0000   1.0000
     1.0000   1.0000   1.0000   1.0000   1.0000   1.0000   1.0000   1.0000
     1.0000   1.0000   1.0000   1.0000   1.0000   1.0000   1.0000   1.0000
     1.0000   1.0000   1.0000   1.0000   1.0000   1.0000   1.0000   1.0000
     1.0000   1.0000   1.0000   1.0000   1.0000   1.0000   1.0000   1.0000
     1.0000   1.0000   1.0000   1.0000   1.0000   1.0000   1.0000   1.0000
     1.0000   1.0000   1.0000   1.0000   1.0000   1.0000   1.0000   1.0000
     1.0000   1.0000   1.0000   1.0000   1.0000   1.0000   1.0000   1.0000
     1.0000   1.0000   1.0000   1.0000   1.0000   1.0000   1.0000   1.0000
     1.0000   1.0000   1.0000   1.0000   1.0000   1.0000   1.0000   1.0000
     1.0000   1.0000   1.0000   1.0000   1.0000   1.0000   1.0000   1.0000
     1.0000   1.0000   1.0000   1.0000   1.0000   1.0000   1.0000   1.0000
     1.0000   1.0000   1.0000   1.0000   1.0000   1.0000   1.0000   1.0000
     1.0000   1.0000   1.0000   1.0000   1.0000   1.0000   1.0000   1.0000
     1.0000   1.0000   1.0000   1.0000   1.0000   1.0000   1.0000   1.0000
     1.0000   1.0000   1.0000   1.0000   1.0000   1.0000   1.0000   1.0000
     1.0000   1.0000   1.0000   1.0000   1.0000   1.0000   1.0000   1.0000
     1.0000   1.0000   1.0000   1.0000   1.0000   1.0000   1.0000   1.0000
     1.0000   1.0000   1.0000   1.0000   1.0000   1.0000   1.0000   1.0000
     1.0000   1.0000   1.0000   1.0000   1.0000   1.0000   1.0000   1.0000
     1.0000   1.0000   1.0000   1.0000   1.0000   1.0000   1.0000   1.0000
     1.0000   1.0000   1.0000   1.0000   1.0000   1.0000   1.0000   1.0000
     1.0000   1.0000   1.0000   1.0000   1.0000   1.0000   1.0000   1.0000
     1.0000   1.0000   1.0000   1.0000   1.0000   1.0000   1.0000   1.0000
     1.0000   1.0000   1.0000   1.0000   1.0000   1.0000   1.0000   1.0000
     1.0000   1.0000   1.0000   1.0000   1.0000   1.0000   1.0000   1.0000
     1.0000   1.0000   1.0000   1.0000   1.0000   1.0000   1.0000   1.0000
     1.0000   1.0000   1.0000   1.0000   1.0000   1.0000   1.0000   1.0000
     1.0000   0.9996   0.8854   0.6297   0.0000   0.0000   0.0000   0.0000
     0.0000   0.0000   0.0000   0.0000   0.0000   0.0000   0.0000   0.0000
     0.0000   0.0000   0.0000   0.0000   0.0000   0.0000   0.0000   0.0000
     0.0000   0.0000   0.0000   0.0000   0.0000   0.0000   0.0000   0.0000
     0.0000   0.0000   0.0000   0.0000   0.0000   0.0000   0.0000   0.0000
     0.0000   0.0000   0.0000   0.0000   0.0000   0.0000   0.0000   0.0000
     0.0000   0.0000   0.0000   0.0000   0.0000   0.0000   0.0000   0.0000
     0.0000   0.0000   0.0000   0.0000   0.0000   0.0000

          k = 0.2500-0.5000-0.5000 (269956 PWs)   bands (ev):

  -105.7116 -63.0975 -63.0975 -63.0975  -7.1455  -7.1283  -7.1283  -7.0919
    -6.9201  -6.9029  -6.9029  -6.8598  -6.5847  -6.5690  -6.5690  -6.5336
    -6.4463  -6.4463  -6.4341  -6.4338  -6.4337  -6.4334  -6.4244  -6.4244
    -6.4190  -6.4190  -6.4117  -6.4104  -6.3957  -6.3776  -6.3466  -6.3466
    -6.3277  -6.2936  -6.2936  -6.2564  -0.6535  -0.6535  -0.6524  -0.6481
    -0.6284  -0.6271  -0.6247  -0.6208  -0.6194  -0.6194  -0.6161  -0.6161
    -0.6158  -0.6124  -0.6102  -0.6102  -0.6041  -0.6027  -0.6027  -0.5981
    -0.5974  -0.5974  -0.5923  -0.5903  -0.5903  -0.5869  -0.5866  -0.5848
    -0.5848  -0.5844  -0.5837  -0.5798  -0.5791  -0.5791  -0.5688  -0.5626
    -0.5620  -0.5620  -0.5606  -0.5596  -0.5555  -0.5555  -0.5407  -0.5351
    -0.5273  -0.5209  -0.5209  -0.5206  -0.5012  -0.4923  -0.4907  -0.4907
    -0.4819  -0.4819  -0.4753  -0.4747  -0.4628  -0.4589  -0.4524  -0.4524
    -0.4509  -0.4432  -0.4432  -0.4330  -0.4300  -0.4267  -0.4267  -0.4156
    -0.4049  -0.4049  -0.4049  -0.3982  -0.3882  -0.3810  -0.3810  -0.3766
    -0.3766  -0.3750  -0.3708  -0.3672  -0.3603  -0.3204  -0.3153  -0.3153
    -0.2917  -0.2909  -0.2869  -0.2841  -0.2841  -0.2826  -0.2826  -0.2791
    -0.2534  -0.2178  -0.2126  -0.2077  -0.2077  -0.2034  -0.2034  -0.1984
    -0.1941  -0.1901  -0.1901  -0.1895  -0.1871  -0.1822  -0.1822  -0.1806
    -0.1771  -0.1743  -0.1743  -0.1718  -0.1718  -0.1713  -0.1696  -0.1644
    -0.1619  -0.1619  -0.1597  -0.1561  -0.1523  -0.1517  -0.1486  -0.1486
    -0.1485  -0.1460  -0.1440  -0.1440  -0.1413  -0.1409  -0.1409  -0.1359
    -0.1359  -0.1347  -0.1314  -0.1000  -0.0909  -0.0909  -0.0821  -0.0821
    -0.0805  -0.0760  -0.0737  -0.0047  -0.0047  -0.0040   0.0227   0.0227
     0.0237   0.0296   0.0367   0.0731   0.0810   0.0810   0.0816   0.8851
     0.8899   0.8899   0.9025   0.9120   0.9120   0.9270   0.9620   1.0396
     1.0563   1.0563   1.0857   1.3571   1.3571   1.3769   1.4130   1.4214
     1.4272   1.4272   1.4293   1.4360   1.4373   1.4373   1.6476   2.1953
     2.1953   2.2248   2.2517   2.6478   2.7305   2.7305   2.7443   2.9348
     2.9348   2.9938   3.0253   3.1551   3.2331   3.2365   3.2365   3.2547
     3.2566   3.2566   3.2620   3.2632   3.2683   3.2683   3.2814   3.2944
     3.2944   3.3075   3.3578   3.5499   3.6087   3.6087   3.6595   3.7393
     3.8255   3.8255   3.8277   3.8339   3.8386   3.8399   3.8399   3.8448
     3.8584   3.8584   3.8764   3.9687   4.0296   4.0389   4.0389   4.0525
     4.1096   4.1200   4.1200   4.1813   4.1813   4.2140   4.2482   4.4073
     4.5070   4.5185   4.5185   4.5264   4.8310   4.8775   4.8775   4.8891
     4.9193   4.9285   4.9358   4.9358   5.0312   5.0977   5.0977   5.2933
     5.3242   5.6198   5.7155   5.7155   9.0372   9.0492   9.0492   9.0932
     9.1528   9.1619   9.1619   9.2670   9.7527   9.7527   9.7729   9.7828
     9.8720   9.8720   9.8914   9.9144   9.9144   9.9170   9.9170   9.9301
     9.9422   9.9741   9.9741   9.9957  10.0963  10.1053  10.1053  10.1101
    10.1267  10.1508  10.1508  10.3619  10.9142  10.9217  10.9226  10.9226
    10.9433  10.9612  10.9612  11.1224  11.4493  11.4493  11.4799  11.5029
    11.5367  11.5367  11.5868  11.6330  11.6472  11.6472  11.6486  11.6571
    11.6686  11.7082  11.7082  11.8384  11.8992  11.9328

     occupation numbers 
     1.0000   1.0000   1.0000   1.0000   1.0000   1.0000   1.0000   1.0000
     1.0000   1.0000   1.0000   1.0000   1.0000   1.0000   1.0000   1.0000
     1.0000   1.0000   1.0000   1.0000   1.0000   1.0000   1.0000   1.0000
     1.0000   1.0000   1.0000   1.0000   1.0000   1.0000   1.0000   1.0000
     1.0000   1.0000   1.0000   1.0000   1.0000   1.0000   1.0000   1.0000
     1.0000   1.0000   1.0000   1.0000   1.0000   1.0000   1.0000   1.0000
     1.0000   1.0000   1.0000   1.0000   1.0000   1.0000   1.0000   1.0000
     1.0000   1.0000   1.0000   1.0000   1.0000   1.0000   1.0000   1.0000
     1.0000   1.0000   1.0000   1.0000   1.0000   1.0000   1.0000   1.0000
     1.0000   1.0000   1.0000   1.0000   1.0000   1.0000   1.0000   1.0000
     1.0000   1.0000   1.0000   1.0000   1.0000   1.0000   1.0000   1.0000
     1.0000   1.0000   1.0000   1.0000   1.0000   1.0000   1.0000   1.0000
     1.0000   1.0000   1.0000   1.0000   1.0000   1.0000   1.0000   1.0000
     1.0000   1.0000   1.0000   1.0000   1.0000   1.0000   1.0000   1.0000
     1.0000   1.0000   1.0000   1.0000   1.0000   1.0000   1.0000   1.0000
     1.0000   1.0000   1.0000   1.0000   1.0000   1.0000   1.0000   1.0000
     1.0000   1.0000   1.0000   1.0000   1.0000   1.0000   1.0000   1.0000
     1.0000   1.0000   1.0000   1.0000   1.0000   1.0000   1.0000   1.0000
     1.0000   1.0000   1.0000   1.0000   1.0000   1.0000   1.0000   1.0000
     1.0000   1.0000   1.0000   1.0000   1.0000   1.0000   1.0000   1.0000
     1.0000   1.0000   1.0000   1.0000   1.0000   1.0000   1.0000   1.0000
     1.0000   1.0000   1.0000   1.0000   1.0000   1.0000   1.0000   1.0000
     1.0000   1.0000   1.0000   1.0000   1.0000   1.0000   1.0000   1.0000
     1.0000   1.0000   1.0000   1.0000   1.0000   1.0000   1.0000   1.0000
     1.0000   1.0000   1.0000   1.0000   1.0000   1.0000   1.0000   1.0000
     1.0000   1.0000   1.0000   1.0000   1.0000   1.0000   1.0000   1.0000
     1.0000   1.0000   1.0000   1.0000   1.0000   1.0000   1.0000   1.0000
     1.0000   1.0000   1.0000   1.0000   1.0000   1.0000   1.0000   1.0000
     1.0000   1.0000   1.0000   1.0000   1.0000   1.0000   1.0000   1.0000
     1.0000   1.0000   1.0000   1.0000   1.0000   1.0000   1.0000   1.0000
     1.0000   1.0000   1.0000   1.0000   1.0000   1.0000   1.0000   1.0000
     1.0000   1.0000   1.0000   1.0000   1.0000   1.0000   1.0000   1.0000
     1.0000   1.0000   1.0000   1.0000   1.0000   1.0000   1.0000   1.0000
     1.0000   1.0000   1.0000   1.0000   1.0000   1.0000   1.0000   1.0000
     1.0000   1.0000   1.0000   1.0000   1.0000   1.0000   1.0000   1.0000
     1.0000   1.0000   1.0000   1.0000   1.0000   1.0000   1.0000   1.0000
     1.0000   0.9983   0.3340   0.3340   0.0000   0.0000   0.0000   0.0000
     0.0000   0.0000   0.0000   0.0000   0.0000   0.0000   0.0000   0.0000
     0.0000   0.0000   0.0000   0.0000   0.0000   0.0000   0.0000   0.0000
     0.0000   0.0000   0.0000   0.0000   0.0000   0.0000   0.0000   0.0000
     0.0000   0.0000   0.0000   0.0000   0.0000   0.0000   0.0000   0.0000
     0.0000   0.0000   0.0000   0.0000   0.0000   0.0000   0.0000   0.0000
     0.0000   0.0000   0.0000   0.0000   0.0000   0.0000   0.0000   0.0000
     0.0000   0.0000   0.0000   0.0000   0.0000   0.0000

          k =-0.5000-0.5000-0.5000 (269968 PWs)   bands (ev):

  -105.7116 -63.0975 -63.0975 -63.0975  -7.0644  -7.0490  -7.0490  -7.0490
    -7.0293  -7.0293  -7.0293  -6.9683  -6.4469  -6.4469  -6.4469  -6.4380
    -6.4320  -6.4320  -6.4320  -6.4320  -6.4320  -6.4289  -6.4289  -6.4289
    -6.4164  -6.4164  -6.4164  -6.4131  -6.4131  -6.4121  -6.4121  -6.4121
    -6.3591  -6.3155  -6.3155  -6.3155  -0.6318  -0.6318  -0.6318  -0.6293
    -0.6232  -0.6232  -0.6232  -0.6171  -0.6171  -0.6171  -0.6159  -0.6159
    -0.6083  -0.6083  -0.6083  -0.6041  -0.6041  -0.6033  -0.6025  -0.6025
    -0.6025  -0.6021  -0.5936  -0.5936  -0.5936  -0.5903  -0.5903  -0.5889
    -0.5889  -0.5889  -0.5881  -0.5881  -0.5881  -0.5836  -0.5836  -0.5836
    -0.5792  -0.5792  -0.5792  -0.5768  -0.5768  -0.5768  -0.5488  -0.5314
    -0.5314  -0.5223  -0.5223  -0.5223  -0.4673  -0.4643  -0.4643  -0.4643
    -0.4598  -0.4598  -0.4598  -0.4572  -0.4572  -0.4572  -0.4546  -0.4546
    -0.4436  -0.4436  -0.4436  -0.4419  -0.4419  -0.4419  -0.4328  -0.4309
    -0.4309  -0.3761  -0.3761  -0.3761  -0.3476  -0.3476  -0.3474  -0.3474
    -0.3474  -0.3474  -0.3474  -0.3474  -0.3439  -0.3439  -0.3439  -0.3400
    -0.3360  -0.3360  -0.3360  -0.3339  -0.3339  -0.3339  -0.3179  -0.3038
    -0.3038  -0.2094  -0.2094  -0.2020  -0.2020  -0.2020  -0.2010  -0.2010
    -0.2010  -0.1914  -0.1914  -0.1914  -0.1848  -0.1848  -0.1848  -0.1733
    -0.1733  -0.1733  -0.1686  -0.1686  -0.1667  -0.1667  -0.1667  -0.1634
    -0.1571  -0.1571  -0.1506  -0.1506  -0.1506  -0.1475  -0.1475  -0.1475
    -0.1417  -0.1417  -0.1417  -0.1339  -0.1339  -0.1339  -0.1335  -0.0949
    -0.0949  -0.0949  -0.0471  -0.0471  -0.0448  -0.0448  -0.0448  -0.0390
    -0.0364  -0.0364  -0.0364  -0.0353  -0.0353  -0.0353  -0.0315  -0.0315
    -0.0258  -0.0258  -0.0258  -0.0249  -0.0249  -0.0249  -0.0026   1.0728
     1.0728   1.0728   1.1345   1.1345   1.1512   1.1610   1.1610   1.1610
     1.1619   1.1619   1.1619   1.1770   1.1770   1.1770   1.1802   1.1802
     1.1929   1.1929   1.1929   1.1966   1.1966   1.1966   1.5418   2.5416
     2.5416   2.5416   2.7708   2.7776   2.7776   2.7776   2.8728   2.9706
     2.9706   3.0696   3.0696   3.0696   3.2187   3.2187   3.2187   3.2192
     3.2226   3.2226   3.2335   3.2335   3.2335   3.2366   3.2366   3.2366
     3.2389   3.2389   3.2389   3.2659   3.2659   3.2659   3.3303   3.6416
     3.6416   3.6416   3.8513   3.8513   3.9961   3.9994   3.9994   3.9994
     4.0062   4.0062   4.0062   4.0098   4.0098   4.0165   4.0165   4.0165
     4.0191   4.0191   4.0191   4.0382   4.0412   4.0412   4.0412   4.4650
     4.4650   4.5001   4.5001   4.5001   5.0885   5.0885   5.0885   5.0965
     5.0965   5.0965   5.0967   5.0967   5.1144   5.1144   5.1144   5.1831
     5.1831   5.7158   5.7158   5.7158   8.9395   8.9487   8.9487   8.9487
     8.9623   8.9623   8.9623   9.1049   9.8551   9.8551   9.8585   9.8585
     9.8585   9.8609   9.8609   9.8609   9.8651   9.8651   9.8651   9.8673
     9.8801   9.8801   9.8801   9.8858   9.8858   9.8858   9.9067   9.9067
     9.9560   9.9560   9.9560  10.2364  11.4476  11.4476  11.4476  11.4597
    11.4597  11.4597  11.4653  11.4653  11.4653  11.4673  11.4673  11.4673
    11.4744  11.4756  11.4756  11.4777  11.4777  11.4777  11.4931  11.4931
    11.5784  11.5784  11.5784  12.0419  12.4158  12.4170

     occupation numbers 
     1.0000   1.0000   1.0000   1.0000   1.0000   1.0000   1.0000   1.0000
     1.0000   1.0000   1.0000   1.0000   1.0000   1.0000   1.0000   1.0000
     1.0000   1.0000   1.0000   1.0000   1.0000   1.0000   1.0000   1.0000
     1.0000   1.0000   1.0000   1.0000   1.0000   1.0000   1.0000   1.0000
     1.0000   1.0000   1.0000   1.0000   1.0000   1.0000   1.0000   1.0000
     1.0000   1.0000   1.0000   1.0000   1.0000   1.0000   1.0000   1.0000
     1.0000   1.0000   1.0000   1.0000   1.0000   1.0000   1.0000   1.0000
     1.0000   1.0000   1.0000   1.0000   1.0000   1.0000   1.0000   1.0000
     1.0000   1.0000   1.0000   1.0000   1.0000   1.0000   1.0000   1.0000
     1.0000   1.0000   1.0000   1.0000   1.0000   1.0000   1.0000   1.0000
     1.0000   1.0000   1.0000   1.0000   1.0000   1.0000   1.0000   1.0000
     1.0000   1.0000   1.0000   1.0000   1.0000   1.0000   1.0000   1.0000
     1.0000   1.0000   1.0000   1.0000   1.0000   1.0000   1.0000   1.0000
     1.0000   1.0000   1.0000   1.0000   1.0000   1.0000   1.0000   1.0000
     1.0000   1.0000   1.0000   1.0000   1.0000   1.0000   1.0000   1.0000
     1.0000   1.0000   1.0000   1.0000   1.0000   1.0000   1.0000   1.0000
     1.0000   1.0000   1.0000   1.0000   1.0000   1.0000   1.0000   1.0000
     1.0000   1.0000   1.0000   1.0000   1.0000   1.0000   1.0000   1.0000
     1.0000   1.0000   1.0000   1.0000   1.0000   1.0000   1.0000   1.0000
     1.0000   1.0000   1.0000   1.0000   1.0000   1.0000   1.0000   1.0000
     1.0000   1.0000   1.0000   1.0000   1.0000   1.0000   1.0000   1.0000
     1.0000   1.0000   1.0000   1.0000   1.0000   1.0000   1.0000   1.0000
     1.0000   1.0000   1.0000   1.0000   1.0000   1.0000   1.0000   1.0000
     1.0000   1.0000   1.0000   1.0000   1.0000   1.0000   1.0000   1.0000
     1.0000   1.0000   1.0000   1.0000   1.0000   1.0000   1.0000   1.0000
     1.0000   1.0000   1.0000   1.0000   1.0000   1.0000   1.0000   1.0000
     1.0000   1.0000   1.0000   1.0000   1.0000   1.0000   1.0000   1.0000
     1.0000   1.0000   1.0000   1.0000   1.0000   1.0000   1.0000   1.0000
     1.0000   1.0000   1.0000   1.0000   1.0000   1.0000   1.0000   1.0000
     1.0000   1.0000   1.0000   1.0000   1.0000   1.0000   1.0000   1.0000
     1.0000   1.0000   1.0000   1.0000   1.0000   1.0000   1.0000   1.0000
     1.0000   1.0000   1.0000   1.0000   1.0000   1.0000   1.0000   1.0000
     1.0000   1.0000   1.0000   1.0000   1.0000   1.0000   1.0000   1.0000
     1.0000   1.0000   1.0000   1.0000   1.0000   1.0000   1.0000   1.0000
     1.0000   1.0000   1.0000   1.0000   1.0000   1.0000   1.0000   1.0000
     1.0000   1.0000   1.0000   1.0000   1.0000   1.0000   1.0000   1.0000
     1.0000   0.3472   0.3472   0.3472   0.0000   0.0000   0.0000   0.0000
     0.0000   0.0000   0.0000   0.0000   0.0000   0.0000   0.0000   0.0000
     0.0000   0.0000   0.0000   0.0000   0.0000   0.0000   0.0000   0.0000
     0.0000   0.0000   0.0000   0.0000   0.0000   0.0000   0.0000   0.0000
     0.0000   0.0000   0.0000   0.0000   0.0000   0.0000   0.0000   0.0000
     0.0000   0.0000   0.0000   0.0000   0.0000   0.0000   0.0000   0.0000
     0.0000   0.0000   0.0000   0.0000   0.0000   0.0000   0.0000   0.0000
     0.0000   0.0000   0.0000   0.0000   0.0000   0.0000

     the Fermi energy is     5.7019 ev
     (compare with:     5.7057 eV, computed in scf)

     Writing all to output data dir ./out/Cu_q0.save/
 
     init_run     :      6.02s CPU     11.08s WALL (       1 calls)
     electrons    :    132.15s CPU    133.56s WALL (       1 calls)

     Called by init_run:
     wfcinit      :      0.00s CPU      4.51s WALL (       1 calls)
     wfcinit:atom :      0.03s CPU      0.03s WALL (       2 calls)
     wfcinit:wfcr :      2.56s CPU      2.69s WALL (       2 calls)
     potinit      :      0.63s CPU      0.87s WALL (       1 calls)
     hinit0       :      0.40s CPU      0.48s WALL (       1 calls)

     Called by electrons:
     c_bands      :    131.05s CPU    132.45s WALL (       1 calls)
     v_of_rho     :      0.31s CPU      0.38s WALL (       1 calls)
     v_h          :      0.01s CPU      0.01s WALL (       1 calls)
     v_xc         :      0.31s CPU      0.37s WALL (       1 calls)
     newd         :      0.04s CPU      0.07s WALL (       1 calls)
     PAW_pot      :      0.11s CPU      0.12s WALL (       1 calls)

     Called by c_bands:
     init_us_2    :      0.06s CPU      0.08s WALL (       2 calls)
     init_us_2:cp :      0.06s CPU      0.08s WALL (       2 calls)
     cegterg      :    125.07s CPU    126.29s WALL (      12 calls)

     Called by sum_band:

     Called by *egterg:
     cdiaghg      :     12.05s CPU     12.13s WALL (     242 calls)
     cegterg:over :     12.33s CPU     12.43s WALL (     240 calls)
     cegterg:upda :     10.67s CPU     10.74s WALL (     240 calls)
     cegterg:last :     19.79s CPU     19.92s WALL (      67 calls)
     cdiaghg:chol :      0.71s CPU      0.71s WALL (     242 calls)
     cdiaghg:inve :      0.67s CPU      0.67s WALL (     242 calls)
     cdiaghg:para :      1.64s CPU      1.65s WALL (     484 calls)
     h_psi        :     56.69s CPU     57.35s WALL (     254 calls)
     s_psi        :     13.25s CPU     13.33s WALL (     254 calls)
     g_psi        :      0.40s CPU      0.40s WALL (     240 calls)

     Called by h_psi:
     h_psi:calbec :     12.76s CPU     12.87s WALL (     254 calls)
     vloc_psi     :     29.82s CPU     30.13s WALL (     254 calls)
     add_vuspsi   :     13.52s CPU     13.63s WALL (     254 calls)

     General routines
     calbec       :     12.76s CPU     12.87s WALL (     254 calls)
     fft          :      0.51s CPU      0.66s WALL (      21 calls)
     fftw         :     27.68s CPU     27.97s WALL (   51670 calls)
 
     Parallel routines

     PAW routines
     PAW_pot      :      0.11s CPU      0.12s WALL (       1 calls)
 
     PWSCF        :   2m32.35s CPU   3m28.88s WALL

 
   This run was terminated on:   0:36:12   5Jul2024            

=------------------------------------------------------------------------------=
   JOB DONE.
=------------------------------------------------------------------------------=
