### Running on host: orfoz384

     Program PWSCF v.7.2 starts on 25Jun2024 at 12:18: 4 

     This program is part of the open-source Quantum ESPRESSO suite
     for quantum simulation of materials; please cite
         "P. Giannozzi et al., J. Phys.:Condens. Matter 21 395502 (2009);
         "P. Giannozzi et al., J. Phys.:Condens. Matter 29 465901 (2017);
         "P. Giannozzi et al., J. Chem. Phys. 152 154105 (2020);
          URL http://www.quantum-espresso.org", 
     in publications or presentations arising from this work. More details at
     http://www.quantum-espresso.org/quote

     Parallel version (MPI), running on  1120 processors

     MPI processes distributed on    10 nodes
     221121 MiB available memory on the printing compute node when the environment starts
 
     Reading input from scf.145.in

     Current dimensions of program PWSCF are:
     Max number of different atomic species (ntypx) = 10
     Max number of k-points (npk) =  40000
     Max angular momentum in pseudopotentials (lmaxx) =  4
     file S.pbe-n-kjpaw_psl.1.0.0.UPF: wavefunction(s)  3S 3P renormalized
     file Zn.pbe-dnl-kjpaw_psl.1.0.0.UPF: wavefunction(s)  4S 3D renormalized
     Found identity + (  0.0000  0.2500  0.2500) symmetry
     This is a supercell, fractional translations are disabled
 
     K-points division:     npool     =      10
     R & G space division:  proc/nbgrp/npool/nimage =     112
     Subspace diagonalization in iterative solution of the eigenvalue problem:
     one sub-group per band group will be used
     scalapack distributed-memory algorithm (size of sub-group:  3*  3 procs)

 
     Parallelization info
     --------------------
     sticks:   dense  smooth     PW     G-vecs:    dense   smooth      PW
     Min         174     174     45                18324    18324    2443
     Max         175     175     46                18331    18331    2448
     Sum       19525   19525   5097              2052625  2052625  273785
 
     Using Slab Decomposition
 


     bravais-lattice index     =            1
     lattice parameter (alat)  =      20.5686  a.u.
     unit-cell volume          =    8701.8677 (a.u.)^3
     number of atoms/cell      =           64
     number of atomic types    =            2
     number of electrons       =       576.00
     number of Kohn-Sham states=          346
     kinetic-energy cutoff     =     145.0000  Ry
     charge density cutoff     =     580.0000  Ry
     scf convergence threshold =      1.0E-08
     mixing beta               =       0.7000
     number of iterations used =            8  plain     mixing
     Exchange-correlation= SLA  PW   PBX  PBC
                           (   1   4   3   4   0   0   0)

     celldm(1)=  20.568573  celldm(2)=   0.000000  celldm(3)=   0.000000
     celldm(4)=   0.000000  celldm(5)=   0.000000  celldm(6)=   0.000000

     crystal axes: (cart. coord. in units of alat)
               a(1) = (   1.000000   0.000000   0.000000 )  
               a(2) = (   0.000000   1.000000   0.000000 )  
               a(3) = (   0.000000   0.000000   1.000000 )  

     reciprocal axes: (cart. coord. in units 2 pi/alat)
               b(1) = (  1.000000  0.000000  0.000000 )  
               b(2) = (  0.000000  1.000000  0.000000 )  
               b(3) = (  0.000000  0.000000  1.000000 )  


     PseudoPot. # 1 for S  read from file:
     /arf/home/amuhaymin/pseudo/S.pbe-n-kjpaw_psl.1.0.0.UPF
     MD5 check sum: fb45dfebcf3e72a4e1bd4a866ec2e262
     Pseudo is Projector augmented-wave + core cor, Zval =  6.0
     Generated using &quot;atomic&quot; code by A. Dal Corso  v.6.3
     Shape of augmentation charge: PSQ
     Using radial grid of 1151 points,  6 beta functions with: 
                l(1) =   0
                l(2) =   0
                l(3) =   1
                l(4) =   1
                l(5) =   2
                l(6) =   2
     Q(r) pseudized with 0 coefficients 


     PseudoPot. # 2 for Zn read from file:
     /arf/home/amuhaymin/pseudo/Zn.pbe-dnl-kjpaw_psl.1.0.0.UPF
     MD5 check sum: c608214d9520ac179f507641260889e3
     Pseudo is Projector augmented-wave + core cor, Zval = 12.0
     Generated using &quot;atomic&quot; code by A. Dal Corso  v.6.2.2
     Shape of augmentation charge: PSQ
     Using radial grid of 1201 points,  6 beta functions with: 
                l(1) =   0
                l(2) =   0
                l(3) =   1
                l(4) =   1
                l(5) =   2
                l(6) =   2
     Q(r) pseudized with 0 coefficients 


     atomic species   valence    mass     pseudopotential
        S              6.00    32.06500     S ( 1.00)
        Zn            12.00    65.38000     Zn( 1.00)

     Starting magnetic structure 
     atomic species   magnetization
        S            0.000
        Zn           0.000

     24 Sym. Ops. (no inversion) found


                                    s                        frac. trans.

      isym =  1     identity                                     

 cryst.   s( 1) = (     1          0          0      )
                  (     0          1          0      )
                  (     0          0          1      )

 cart.    s( 1) = (  1.0000000  0.0000000  0.0000000 )
                  (  0.0000000  1.0000000  0.0000000 )
                  (  0.0000000  0.0000000  1.0000000 )


      isym =  2     180 deg rotation - cart. axis [0,0,1]        

 cryst.   s( 2) = (    -1          0          0      )
                  (     0         -1          0      )
                  (     0          0          1      )

 cart.    s( 2) = ( -1.0000000  0.0000000  0.0000000 )
                  (  0.0000000 -1.0000000  0.0000000 )
                  (  0.0000000  0.0000000  1.0000000 )


      isym =  3     180 deg rotation - cart. axis [0,1,0]        

 cryst.   s( 3) = (    -1          0          0      )
                  (     0          1          0      )
                  (     0          0         -1      )

 cart.    s( 3) = ( -1.0000000  0.0000000  0.0000000 )
                  (  0.0000000  1.0000000  0.0000000 )
                  (  0.0000000  0.0000000 -1.0000000 )


      isym =  4     180 deg rotation - cart. axis [1,0,0]        

 cryst.   s( 4) = (     1          0          0      )
                  (     0         -1          0      )
                  (     0          0         -1      )

 cart.    s( 4) = (  1.0000000  0.0000000  0.0000000 )
                  (  0.0000000 -1.0000000  0.0000000 )
                  (  0.0000000  0.0000000 -1.0000000 )


      isym =  5     120 deg rotation - cart. axis [-1,-1,-1]     

 cryst.   s( 5) = (     0          0          1      )
                  (     1          0          0      )
                  (     0          1          0      )

 cart.    s( 5) = (  0.0000000  1.0000000  0.0000000 )
                  (  0.0000000  0.0000000  1.0000000 )
                  (  1.0000000  0.0000000  0.0000000 )


      isym =  6     120 deg rotation - cart. axis [-1,1,1]       

 cryst.   s( 6) = (     0          0         -1      )
                  (    -1          0          0      )
                  (     0          1          0      )

 cart.    s( 6) = (  0.0000000 -1.0000000  0.0000000 )
                  (  0.0000000  0.0000000  1.0000000 )
                  ( -1.0000000  0.0000000  0.0000000 )


      isym =  7     120 deg rotation - cart. axis [1,1,-1]       

 cryst.   s( 7) = (     0          0         -1      )
                  (     1          0          0      )
                  (     0         -1          0      )

 cart.    s( 7) = (  0.0000000  1.0000000  0.0000000 )
                  (  0.0000000  0.0000000 -1.0000000 )
                  ( -1.0000000  0.0000000  0.0000000 )


      isym =  8     120 deg rotation - cart. axis [1,-1,1]       

 cryst.   s( 8) = (     0          0          1      )
                  (    -1          0          0      )
                  (     0         -1          0      )

 cart.    s( 8) = (  0.0000000 -1.0000000  0.0000000 )
                  (  0.0000000  0.0000000 -1.0000000 )
                  (  1.0000000  0.0000000  0.0000000 )


      isym =  9     120 deg rotation - cart. axis [1,1,1]        

 cryst.   s( 9) = (     0          1          0      )
                  (     0          0          1      )
                  (     1          0          0      )

 cart.    s( 9) = (  0.0000000  0.0000000  1.0000000 )
                  (  1.0000000  0.0000000  0.0000000 )
                  (  0.0000000  1.0000000  0.0000000 )


      isym = 10     120 deg rotation - cart. axis [-1,1,-1]      

 cryst.   s(10) = (     0         -1          0      )
                  (     0          0         -1      )
                  (     1          0          0      )

 cart.    s(10) = (  0.0000000  0.0000000  1.0000000 )
                  ( -1.0000000  0.0000000  0.0000000 )
                  (  0.0000000 -1.0000000  0.0000000 )


      isym = 11     120 deg rotation - cart. axis [1,-1,-1]      

 cryst.   s(11) = (     0         -1          0      )
                  (     0          0          1      )
                  (    -1          0          0      )

 cart.    s(11) = (  0.0000000  0.0000000 -1.0000000 )
                  ( -1.0000000  0.0000000  0.0000000 )
                  (  0.0000000  1.0000000  0.0000000 )


      isym = 12     120 deg rotation - cart. axis [-1,-1,1]      

 cryst.   s(12) = (     0          1          0      )
                  (     0          0         -1      )
                  (    -1          0          0      )

 cart.    s(12) = (  0.0000000  0.0000000 -1.0000000 )
                  (  1.0000000  0.0000000  0.0000000 )
                  (  0.0000000 -1.0000000  0.0000000 )


      isym = 13     inv. 180 deg rotation - cart. axis [1,1,0]   

 cryst.   s(13) = (     0         -1          0      )
                  (    -1          0          0      )
                  (     0          0          1      )

 cart.    s(13) = (  0.0000000 -1.0000000  0.0000000 )
                  ( -1.0000000  0.0000000  0.0000000 )
                  (  0.0000000  0.0000000  1.0000000 )


      isym = 14     inv. 180 deg rotation - cart. axis [1,-1,0]  

 cryst.   s(14) = (     0          1          0      )
                  (     1          0          0      )
                  (     0          0          1      )

 cart.    s(14) = (  0.0000000  1.0000000  0.0000000 )
                  (  1.0000000  0.0000000  0.0000000 )
                  (  0.0000000  0.0000000  1.0000000 )


      isym = 15     inv.  90 deg rotation - cart. axis [0,0,-1]  

 cryst.   s(15) = (     0          1          0      )
                  (    -1          0          0      )
                  (     0          0         -1      )

 cart.    s(15) = (  0.0000000 -1.0000000  0.0000000 )
                  (  1.0000000  0.0000000  0.0000000 )
                  (  0.0000000  0.0000000 -1.0000000 )


      isym = 16     inv.  90 deg rotation - cart. axis [0,0,1]   

 cryst.   s(16) = (     0         -1          0      )
                  (     1          0          0      )
                  (     0          0         -1      )

 cart.    s(16) = (  0.0000000  1.0000000  0.0000000 )
                  ( -1.0000000  0.0000000  0.0000000 )
                  (  0.0000000  0.0000000 -1.0000000 )


      isym = 17     inv. 180 deg rotation - cart. axis [1,0,1]   

 cryst.   s(17) = (     0          0         -1      )
                  (     0          1          0      )
                  (    -1          0          0      )

 cart.    s(17) = (  0.0000000  0.0000000 -1.0000000 )
                  (  0.0000000  1.0000000  0.0000000 )
                  ( -1.0000000  0.0000000  0.0000000 )


      isym = 18     inv. 180 deg rotation - cart. axis [-1,0,1]  

 cryst.   s(18) = (     0          0          1      )
                  (     0          1          0      )
                  (     1          0          0      )

 cart.    s(18) = (  0.0000000  0.0000000  1.0000000 )
                  (  0.0000000  1.0000000  0.0000000 )
                  (  1.0000000  0.0000000  0.0000000 )


      isym = 19     inv.  90 deg rotation - cart. axis [0,1,0]   

 cryst.   s(19) = (     0          0          1      )
                  (     0         -1          0      )
                  (    -1          0          0      )

 cart.    s(19) = (  0.0000000  0.0000000 -1.0000000 )
                  (  0.0000000 -1.0000000  0.0000000 )
                  (  1.0000000  0.0000000  0.0000000 )


      isym = 20     inv.  90 deg rotation - cart. axis [0,-1,0]  

 cryst.   s(20) = (     0          0         -1      )
                  (     0         -1          0      )
                  (     1          0          0      )

 cart.    s(20) = (  0.0000000  0.0000000  1.0000000 )
                  (  0.0000000 -1.0000000  0.0000000 )
                  ( -1.0000000  0.0000000  0.0000000 )


      isym = 21     inv. 180 deg rotation - cart. axis [0,1,1]   

 cryst.   s(21) = (     1          0          0      )
                  (     0          0         -1      )
                  (     0         -1          0      )

 cart.    s(21) = (  1.0000000  0.0000000  0.0000000 )
                  (  0.0000000  0.0000000 -1.0000000 )
                  (  0.0000000 -1.0000000  0.0000000 )


      isym = 22     inv. 180 deg rotation - cart. axis [0,1,-1]  

 cryst.   s(22) = (     1          0          0      )
                  (     0          0          1      )
                  (     0          1          0      )

 cart.    s(22) = (  1.0000000  0.0000000  0.0000000 )
                  (  0.0000000  0.0000000  1.0000000 )
                  (  0.0000000  1.0000000  0.0000000 )


      isym = 23     inv.  90 deg rotation - cart. axis [-1,0,0]  

 cryst.   s(23) = (    -1          0          0      )
                  (     0          0          1      )
                  (     0         -1          0      )

 cart.    s(23) = ( -1.0000000  0.0000000  0.0000000 )
                  (  0.0000000  0.0000000 -1.0000000 )
                  (  0.0000000  1.0000000  0.0000000 )


      isym = 24     inv.  90 deg rotation - cart. axis [1,0,0]   

 cryst.   s(24) = (    -1          0          0      )
                  (     0          0         -1      )
                  (     0          1          0      )

 cart.    s(24) = ( -1.0000000  0.0000000  0.0000000 )
                  (  0.0000000  0.0000000  1.0000000 )
                  (  0.0000000 -1.0000000  0.0000000 )


     point group T_d (-43m) 
     there are  5 classes
     the character table:

       E     8C3   3C2   6S4   6s_d 
A_1    1.00  1.00  1.00  1.00  1.00
A_2    1.00  1.00  1.00 -1.00 -1.00
E      2.00 -1.00  2.00  0.00  0.00
T_1    3.00  0.00 -1.00  1.00 -1.00
T_2    3.00  0.00 -1.00 -1.00  1.00

     the symmetry operations in each class and the name of the first element:

     E        1
          identity                                               
     8C3      5    7    8    6   12    9   10   11
          120 deg rotation - cart. axis [-1,-1,-1]               
     3C2      2    3    4
          180 deg rotation - cart. axis [0,0,1]                  
     6S4     15   16   20   19   23   24
          inv.  90 deg rotation - cart. axis [0,0,-1]            
     6s_d    13   14   17   18   21   22
          inv. 180 deg rotation - cart. axis [1,1,0]             

   Cartesian axes

     site n.     atom                  positions (alat units)
         1           Zn  tau(   1) = (   0.0000000   0.0000000   0.0000000  )
         2           Zn  tau(   2) = (   0.0000000   0.2500000   0.2500000  )
         3           Zn  tau(   3) = (   0.2500000   0.0000000   0.2500000  )
         4           Zn  tau(   4) = (   0.2500000   0.2500000   0.0000000  )
         5           S   tau(   5) = (   0.1250000   0.3750000   0.3750000  )
         6           S   tau(   6) = (   0.1250000   0.1250000   0.1250000  )
         7           S   tau(   7) = (   0.3750000   0.3750000   0.1250000  )
         8           S   tau(   8) = (   0.3750000   0.1250000   0.3750000  )
         9           Zn  tau(   9) = (   0.0000000   0.0000000   0.5000000  )
        10           Zn  tau(  10) = (   0.0000000   0.2500000   0.7500000  )
        11           Zn  tau(  11) = (   0.2500000   0.0000000   0.7500000  )
        12           Zn  tau(  12) = (   0.2500000   0.2500000   0.5000000  )
        13           S   tau(  13) = (   0.1250000   0.3750000   0.8750000  )
        14           S   tau(  14) = (   0.1250000   0.1250000   0.6250000  )
        15           S   tau(  15) = (   0.3750000   0.3750000   0.6250000  )
        16           S   tau(  16) = (   0.3750000   0.1250000   0.8750000  )
        17           Zn  tau(  17) = (   0.0000000   0.5000000   0.0000000  )
        18           Zn  tau(  18) = (   0.0000000   0.7500000   0.2500000  )
        19           Zn  tau(  19) = (   0.2500000   0.5000000   0.2500000  )
        20           Zn  tau(  20) = (   0.2500000   0.7500000   0.0000000  )
        21           S   tau(  21) = (   0.1250000   0.8750000   0.3750000  )
        22           S   tau(  22) = (   0.1250000   0.6250000   0.1250000  )
        23           S   tau(  23) = (   0.3750000   0.8750000   0.1250000  )
        24           S   tau(  24) = (   0.3750000   0.6250000   0.3750000  )
        25           Zn  tau(  25) = (   0.0000000   0.5000000   0.5000000  )
        26           Zn  tau(  26) = (   0.0000000   0.7500000   0.7500000  )
        27           Zn  tau(  27) = (   0.2500000   0.5000000   0.7500000  )
        28           Zn  tau(  28) = (   0.2500000   0.7500000   0.5000000  )
        29           S   tau(  29) = (   0.1250000   0.8750000   0.8750000  )
        30           S   tau(  30) = (   0.1250000   0.6250000   0.6250000  )
        31           S   tau(  31) = (   0.3750000   0.8750000   0.6250000  )
        32           S   tau(  32) = (   0.3750000   0.6250000   0.8750000  )
        33           Zn  tau(  33) = (   0.5000000   0.0000000   0.0000000  )
        34           Zn  tau(  34) = (   0.5000000   0.2500000   0.2500000  )
        35           Zn  tau(  35) = (   0.7500000   0.0000000   0.2500000  )
        36           Zn  tau(  36) = (   0.7500000   0.2500000   0.0000000  )
        37           S   tau(  37) = (   0.6250000   0.3750000   0.3750000  )
        38           S   tau(  38) = (   0.6250000   0.1250000   0.1250000  )
        39           S   tau(  39) = (   0.8750000   0.3750000   0.1250000  )
        40           S   tau(  40) = (   0.8750000   0.1250000   0.3750000  )
        41           Zn  tau(  41) = (   0.5000000   0.0000000   0.5000000  )
        42           Zn  tau(  42) = (   0.5000000   0.2500000   0.7500000  )
        43           Zn  tau(  43) = (   0.7500000   0.0000000   0.7500000  )
        44           Zn  tau(  44) = (   0.7500000   0.2500000   0.5000000  )
        45           S   tau(  45) = (   0.6250000   0.3750000   0.8750000  )
        46           S   tau(  46) = (   0.6250000   0.1250000   0.6250000  )
        47           S   tau(  47) = (   0.8750000   0.3750000   0.6250000  )
        48           S   tau(  48) = (   0.8750000   0.1250000   0.8750000  )
        49           Zn  tau(  49) = (   0.5000000   0.5000000   0.0000000  )
        50           Zn  tau(  50) = (   0.5000000   0.7500000   0.2500000  )
        51           Zn  tau(  51) = (   0.7500000   0.5000000   0.2500000  )
        52           Zn  tau(  52) = (   0.7500000   0.7500000   0.0000000  )
        53           S   tau(  53) = (   0.6250000   0.8750000   0.3750000  )
        54           S   tau(  54) = (   0.6250000   0.6250000   0.1250000  )
        55           S   tau(  55) = (   0.8750000   0.8750000   0.1250000  )
        56           S   tau(  56) = (   0.8750000   0.6250000   0.3750000  )
        57           Zn  tau(  57) = (   0.5000000   0.5000000   0.5000000  )
        58           Zn  tau(  58) = (   0.5000000   0.7500000   0.7500000  )
        59           Zn  tau(  59) = (   0.7500000   0.5000000   0.7500000  )
        60           Zn  tau(  60) = (   0.7500000   0.7500000   0.5000000  )
        61           S   tau(  61) = (   0.6250000   0.8750000   0.8750000  )
        62           S   tau(  62) = (   0.6250000   0.6250000   0.6250000  )
        63           S   tau(  63) = (   0.8750000   0.8750000   0.6250000  )
        64           S   tau(  64) = (   0.8750000   0.6250000   0.8750000  )

   Crystallographic axes

     site n.     atom                  positions (cryst. coord.)
         1           Zn  tau(   1) = (  0.0000000  0.0000000  0.0000000  )
         2           Zn  tau(   2) = (  0.0000000  0.2500000  0.2500000  )
         3           Zn  tau(   3) = (  0.2500000  0.0000000  0.2500000  )
         4           Zn  tau(   4) = (  0.2500000  0.2500000  0.0000000  )
         5           S   tau(   5) = (  0.1250000  0.3750000  0.3750000  )
         6           S   tau(   6) = (  0.1250000  0.1250000  0.1250000  )
         7           S   tau(   7) = (  0.3750000  0.3750000  0.1250000  )
         8           S   tau(   8) = (  0.3750000  0.1250000  0.3750000  )
         9           Zn  tau(   9) = (  0.0000000  0.0000000  0.5000000  )
        10           Zn  tau(  10) = (  0.0000000  0.2500000  0.7500000  )
        11           Zn  tau(  11) = (  0.2500000  0.0000000  0.7500000  )
        12           Zn  tau(  12) = (  0.2500000  0.2500000  0.5000000  )
        13           S   tau(  13) = (  0.1250000  0.3750000  0.8750000  )
        14           S   tau(  14) = (  0.1250000  0.1250000  0.6250000  )
        15           S   tau(  15) = (  0.3750000  0.3750000  0.6250000  )
        16           S   tau(  16) = (  0.3750000  0.1250000  0.8750000  )
        17           Zn  tau(  17) = (  0.0000000  0.5000000  0.0000000  )
        18           Zn  tau(  18) = (  0.0000000  0.7500000  0.2500000  )
        19           Zn  tau(  19) = (  0.2500000  0.5000000  0.2500000  )
        20           Zn  tau(  20) = (  0.2500000  0.7500000  0.0000000  )
        21           S   tau(  21) = (  0.1250000  0.8750000  0.3750000  )
        22           S   tau(  22) = (  0.1250000  0.6250000  0.1250000  )
        23           S   tau(  23) = (  0.3750000  0.8750000  0.1250000  )
        24           S   tau(  24) = (  0.3750000  0.6250000  0.3750000  )
        25           Zn  tau(  25) = (  0.0000000  0.5000000  0.5000000  )
        26           Zn  tau(  26) = (  0.0000000  0.7500000  0.7500000  )
        27           Zn  tau(  27) = (  0.2500000  0.5000000  0.7500000  )
        28           Zn  tau(  28) = (  0.2500000  0.7500000  0.5000000  )
        29           S   tau(  29) = (  0.1250000  0.8750000  0.8750000  )
        30           S   tau(  30) = (  0.1250000  0.6250000  0.6250000  )
        31           S   tau(  31) = (  0.3750000  0.8750000  0.6250000  )
        32           S   tau(  32) = (  0.3750000  0.6250000  0.8750000  )
        33           Zn  tau(  33) = (  0.5000000  0.0000000  0.0000000  )
        34           Zn  tau(  34) = (  0.5000000  0.2500000  0.2500000  )
        35           Zn  tau(  35) = (  0.7500000  0.0000000  0.2500000  )
        36           Zn  tau(  36) = (  0.7500000  0.2500000  0.0000000  )
        37           S   tau(  37) = (  0.6250000  0.3750000  0.3750000  )
        38           S   tau(  38) = (  0.6250000  0.1250000  0.1250000  )
        39           S   tau(  39) = (  0.8750000  0.3750000  0.1250000  )
        40           S   tau(  40) = (  0.8750000  0.1250000  0.3750000  )
        41           Zn  tau(  41) = (  0.5000000  0.0000000  0.5000000  )
        42           Zn  tau(  42) = (  0.5000000  0.2500000  0.7500000  )
        43           Zn  tau(  43) = (  0.7500000  0.0000000  0.7500000  )
        44           Zn  tau(  44) = (  0.7500000  0.2500000  0.5000000  )
        45           S   tau(  45) = (  0.6250000  0.3750000  0.8750000  )
        46           S   tau(  46) = (  0.6250000  0.1250000  0.6250000  )
        47           S   tau(  47) = (  0.8750000  0.3750000  0.6250000  )
        48           S   tau(  48) = (  0.8750000  0.1250000  0.8750000  )
        49           Zn  tau(  49) = (  0.5000000  0.5000000  0.0000000  )
        50           Zn  tau(  50) = (  0.5000000  0.7500000  0.2500000  )
        51           Zn  tau(  51) = (  0.7500000  0.5000000  0.2500000  )
        52           Zn  tau(  52) = (  0.7500000  0.7500000  0.0000000  )
        53           S   tau(  53) = (  0.6250000  0.8750000  0.3750000  )
        54           S   tau(  54) = (  0.6250000  0.6250000  0.1250000  )
        55           S   tau(  55) = (  0.8750000  0.8750000  0.1250000  )
        56           S   tau(  56) = (  0.8750000  0.6250000  0.3750000  )
        57           Zn  tau(  57) = (  0.5000000  0.5000000  0.5000000  )
        58           Zn  tau(  58) = (  0.5000000  0.7500000  0.7500000  )
        59           Zn  tau(  59) = (  0.7500000  0.5000000  0.7500000  )
        60           Zn  tau(  60) = (  0.7500000  0.7500000  0.5000000  )
        61           S   tau(  61) = (  0.6250000  0.8750000  0.8750000  )
        62           S   tau(  62) = (  0.6250000  0.6250000  0.6250000  )
        63           S   tau(  63) = (  0.8750000  0.8750000  0.6250000  )
        64           S   tau(  64) = (  0.8750000  0.6250000  0.8750000  )

     number of k points=    10  Gaussian smearing, width (Ry)=  0.0010
                       cart. coord. in units 2pi/alat
        k(    1) = (   0.0000000   0.0000000   0.0000000), wk =   0.0156250
        k(    2) = (   0.0000000   0.0000000   0.2500000), wk =   0.0937500
        k(    3) = (   0.0000000   0.0000000  -0.5000000), wk =   0.0468750
        k(    4) = (   0.0000000   0.2500000   0.2500000), wk =   0.1875000
        k(    5) = (   0.0000000   0.2500000  -0.5000000), wk =   0.1875000
        k(    6) = (   0.0000000  -0.5000000  -0.5000000), wk =   0.0468750
        k(    7) = (   0.2500000   0.2500000   0.2500000), wk =   0.1250000
        k(    8) = (   0.2500000   0.2500000  -0.5000000), wk =   0.1875000
        k(    9) = (   0.2500000  -0.5000000  -0.5000000), wk =   0.0937500
        k(   10) = (  -0.5000000  -0.5000000  -0.5000000), wk =   0.0156250

                       cryst. coord.
        k(    1) = (   0.0000000   0.0000000   0.0000000), wk =   0.0156250
        k(    2) = (   0.0000000   0.0000000   0.2500000), wk =   0.0937500
        k(    3) = (   0.0000000   0.0000000  -0.5000000), wk =   0.0468750
        k(    4) = (   0.0000000   0.2500000   0.2500000), wk =   0.1875000
        k(    5) = (   0.0000000   0.2500000  -0.5000000), wk =   0.1875000
        k(    6) = (   0.0000000  -0.5000000  -0.5000000), wk =   0.0468750
        k(    7) = (   0.2500000   0.2500000   0.2500000), wk =   0.1250000
        k(    8) = (   0.2500000   0.2500000  -0.5000000), wk =   0.1875000
        k(    9) = (   0.2500000  -0.5000000  -0.5000000), wk =   0.0937500
        k(   10) = (  -0.5000000  -0.5000000  -0.5000000), wk =   0.0156250

     Dense  grid:  2052625 G-vectors     FFT dimensions: ( 160, 160, 160)

     Dynamical RAM for                 wfc:      12.09 MB

     Dynamical RAM for     wfc (w. buffer):      36.27 MB

     Dynamical RAM for           str. fact:       0.56 MB

     Dynamical RAM for           local pot:       0.00 MB

     Dynamical RAM for          nlocal pot:      40.25 MB

     Dynamical RAM for                qrad:       3.86 MB

     Dynamical RAM for          rho,v,vnew:       4.02 MB

     Dynamical RAM for               rhoin:       1.34 MB

     Dynamical RAM for            rho*nmix:       8.95 MB

     Dynamical RAM for           G-vectors:       1.19 MB

     Dynamical RAM for          h,s,v(r/c):       2.42 MB

     Dynamical RAM for          <psi|beta>:       6.08 MB

     Dynamical RAM for                 psi:      24.18 MB

     Dynamical RAM for                hpsi:      24.18 MB

     Dynamical RAM for                spsi:      24.18 MB

     Dynamical RAM for      wfcinit/wfcrot:      33.04 MB

     Dynamical RAM for           addusdens:       6.63 MB

     Estimated static dynamical RAM per process >      90.68 MB

     Estimated max dynamical RAM per process >     180.67 MB

     Estimated total dynamical RAM >     188.80 GB
     Generating pointlists ...
     new r_m :   0.0893 (alat units)  1.8370 (a.u.) for type    1
     new r_m :   0.0893 (alat units)  1.8370 (a.u.) for type    2

     Initial potential from superposition of free atoms

     starting charge     575.8798, renormalised to     576.0000
     Starting wfcs are  416 randomized atomic wfcs
     Checking if some PAW data can be deallocated... 
       PAW data deallocated on  560 nodes for type:  1
       PAW data deallocated on  560 nodes for type:  2

     total cpu time spent up to now is       16.9 secs

     Self-consistent Calculation

     iteration #  1     ecut=   145.00 Ry     beta= 0.70
     Davidson diagonalization with overlap

---- Real-time Memory Report at c_bands before calling an iterative solver
          1221 MiB given to the printing process from OS
             0 MiB allocation reported by mallinfo(arena+hblkhd)
        197083 MiB available memory on the node where the printing process lives
------------------
     ethr =  1.00E-02,  avg # of iterations =  4.8

     Threshold (ethr) on eigenvalues was too large:
     Diagonalizing with lowered threshold

     Davidson diagonalization with overlap

---- Real-time Memory Report at c_bands before calling an iterative solver
          1373 MiB given to the printing process from OS
             0 MiB allocation reported by mallinfo(arena+hblkhd)
        196594 MiB available memory on the node where the printing process lives
------------------
     ethr =  3.31E-04,  avg # of iterations =  4.5

     total cpu time spent up to now is       38.7 secs

     total energy              =   -9923.84028055 Ry
     estimated scf accuracy    <       1.83590950 Ry

     total magnetization       =    -0.00 Bohr mag/cell
     absolute magnetization    =     0.05 Bohr mag/cell

     iteration #  2     ecut=   145.00 Ry     beta= 0.70
     Davidson diagonalization with overlap

---- Real-time Memory Report at c_bands before calling an iterative solver
          1398 MiB given to the printing process from OS
             0 MiB allocation reported by mallinfo(arena+hblkhd)
        196549 MiB available memory on the node where the printing process lives
------------------
     ethr =  3.19E-04,  avg # of iterations =  3.5

     total cpu time spent up to now is       49.3 secs

     total energy              =   -9924.29981373 Ry
     estimated scf accuracy    <       0.40257094 Ry

     total magnetization       =     0.00 Bohr mag/cell
     absolute magnetization    =     0.02 Bohr mag/cell

     iteration #  3     ecut=   145.00 Ry     beta= 0.70
     Davidson diagonalization with overlap

---- Real-time Memory Report at c_bands before calling an iterative solver
          1420 MiB given to the printing process from OS
             0 MiB allocation reported by mallinfo(arena+hblkhd)
        196268 MiB available memory on the node where the printing process lives
------------------
     ethr =  6.99E-05,  avg # of iterations =  9.0

     total cpu time spent up to now is       62.0 secs

     total energy              =   -9924.37078058 Ry
     estimated scf accuracy    <       0.02669844 Ry

     total magnetization       =     0.00 Bohr mag/cell
     absolute magnetization    =     0.01 Bohr mag/cell

     iteration #  4     ecut=   145.00 Ry     beta= 0.70
     Davidson diagonalization with overlap

---- Real-time Memory Report at c_bands before calling an iterative solver
          1438 MiB given to the printing process from OS
             0 MiB allocation reported by mallinfo(arena+hblkhd)
        196036 MiB available memory on the node where the printing process lives
------------------
     ethr =  4.64E-06,  avg # of iterations = 12.7

     total cpu time spent up to now is       77.3 secs

     total energy              =   -9924.37897221 Ry
     estimated scf accuracy    <       0.01413380 Ry

     total magnetization       =     0.00 Bohr mag/cell
     absolute magnetization    =     0.01 Bohr mag/cell

     iteration #  5     ecut=   145.00 Ry     beta= 0.70
     Davidson diagonalization with overlap

---- Real-time Memory Report at c_bands before calling an iterative solver
          1449 MiB given to the printing process from OS
             0 MiB allocation reported by mallinfo(arena+hblkhd)
        195904 MiB available memory on the node where the printing process lives
------------------
     c_bands:  1 eigenvalues not converged
     ethr =  2.45E-06,  avg # of iterations =  4.5

     total cpu time spent up to now is       90.9 secs

     total energy              =   -9924.38101445 Ry
     estimated scf accuracy    <       0.00063998 Ry

     total magnetization       =     0.00 Bohr mag/cell
     absolute magnetization    =     0.00 Bohr mag/cell

     iteration #  6     ecut=   145.00 Ry     beta= 0.70
     Davidson diagonalization with overlap

---- Real-time Memory Report at c_bands before calling an iterative solver
          1461 MiB given to the printing process from OS
             0 MiB allocation reported by mallinfo(arena+hblkhd)
        195712 MiB available memory on the node where the printing process lives
------------------
     ethr =  1.11E-07,  avg # of iterations =  5.8

     total cpu time spent up to now is      103.2 secs

     total energy              =   -9924.38133224 Ry
     estimated scf accuracy    <       0.00009838 Ry

     total magnetization       =     0.00 Bohr mag/cell
     absolute magnetization    =     0.00 Bohr mag/cell

     iteration #  7     ecut=   145.00 Ry     beta= 0.70
     Davidson diagonalization with overlap

---- Real-time Memory Report at c_bands before calling an iterative solver
          1469 MiB given to the printing process from OS
             0 MiB allocation reported by mallinfo(arena+hblkhd)
        195507 MiB available memory on the node where the printing process lives
------------------
     c_bands:  1 eigenvalues not converged
     ethr =  1.71E-08,  avg # of iterations =  5.2

     total cpu time spent up to now is      112.6 secs

     total energy              =   -9924.38130374 Ry
     estimated scf accuracy    <       0.00006275 Ry

     total magnetization       =    -0.00 Bohr mag/cell
     absolute magnetization    =     0.00 Bohr mag/cell

     iteration #  8     ecut=   145.00 Ry     beta= 0.70
     Davidson diagonalization with overlap

---- Real-time Memory Report at c_bands before calling an iterative solver
          1478 MiB given to the printing process from OS
             0 MiB allocation reported by mallinfo(arena+hblkhd)
        195278 MiB available memory on the node where the printing process lives
------------------
     ethr =  1.09E-08,  avg # of iterations =  2.4

     total cpu time spent up to now is      121.6 secs

     total energy              =   -9924.38132228 Ry
     estimated scf accuracy    <       0.00000184 Ry

     total magnetization       =     0.00 Bohr mag/cell
     absolute magnetization    =     0.00 Bohr mag/cell

     iteration #  9     ecut=   145.00 Ry     beta= 0.70
     Davidson diagonalization with overlap

---- Real-time Memory Report at c_bands before calling an iterative solver
          1483 MiB given to the printing process from OS
             0 MiB allocation reported by mallinfo(arena+hblkhd)
        195101 MiB available memory on the node where the printing process lives
------------------
     c_bands:  1 eigenvalues not converged
     ethr =  3.20E-10,  avg # of iterations =  7.0

     total cpu time spent up to now is      134.3 secs

     total energy              =   -9924.38132137 Ry
     estimated scf accuracy    <       0.00000334 Ry

     total magnetization       =    -0.00 Bohr mag/cell
     absolute magnetization    =     0.00 Bohr mag/cell

     iteration # 10     ecut=   145.00 Ry     beta= 0.70
     Davidson diagonalization with overlap

---- Real-time Memory Report at c_bands before calling an iterative solver
          1492 MiB given to the printing process from OS
             0 MiB allocation reported by mallinfo(arena+hblkhd)
        194895 MiB available memory on the node where the printing process lives
------------------
     ethr =  3.20E-10,  avg # of iterations =  3.5
 
     Magnetic moment per site  (integrated on atomic sphere of radius R)
     atom   1 (R=0.089)  charge= 10.1597  magn= -0.0000
     atom   2 (R=0.089)  charge= 10.1597  magn=  0.0000
     atom   3 (R=0.089)  charge= 10.1597  magn=  0.0000
     atom   4 (R=0.089)  charge= 10.1597  magn=  0.0000
     atom   5 (R=0.089)  charge=  3.9936  magn=  0.0000
     atom   6 (R=0.089)  charge=  3.9936  magn=  0.0000
     atom   7 (R=0.089)  charge=  3.9936  magn=  0.0000
     atom   8 (R=0.089)  charge=  3.9936  magn=  0.0000
     atom   9 (R=0.089)  charge= 10.1597  magn=  0.0000
     atom  10 (R=0.089)  charge= 10.1597  magn=  0.0000
     atom  11 (R=0.089)  charge= 10.1597  magn=  0.0000
     atom  12 (R=0.089)  charge= 10.1597  magn= -0.0000
     atom  13 (R=0.089)  charge=  3.9936  magn= -0.0000
     atom  14 (R=0.089)  charge=  3.9936  magn= -0.0000
     atom  15 (R=0.089)  charge=  3.9936  magn=  0.0000
     atom  16 (R=0.089)  charge=  3.9936  magn= -0.0000
     atom  17 (R=0.089)  charge= 10.1597  magn=  0.0000
     atom  18 (R=0.089)  charge= 10.1597  magn=  0.0000
     atom  19 (R=0.089)  charge= 10.1597  magn= -0.0000
     atom  20 (R=0.089)  charge= 10.1597  magn=  0.0000
     atom  21 (R=0.089)  charge=  3.9936  magn= -0.0000
     atom  22 (R=0.089)  charge=  3.9936  magn= -0.0000
     atom  23 (R=0.089)  charge=  3.9936  magn= -0.0000
     atom  24 (R=0.089)  charge=  3.9936  magn=  0.0000
     atom  25 (R=0.089)  charge= 10.1597  magn= -0.0000
     atom  26 (R=0.089)  charge= 10.1597  magn=  0.0000
     atom  27 (R=0.089)  charge= 10.1597  magn= -0.0000
     atom  28 (R=0.089)  charge= 10.1597  magn= -0.0000
     atom  29 (R=0.089)  charge=  3.9936  magn=  0.0000
     atom  30 (R=0.089)  charge=  3.9936  magn=  0.0000
     atom  31 (R=0.089)  charge=  3.9936  magn=  0.0000
     atom  32 (R=0.089)  charge=  3.9936  magn=  0.0000
     atom  33 (R=0.089)  charge= 10.1597  magn=  0.0000
     atom  34 (R=0.089)  charge= 10.1597  magn= -0.0000
     atom  35 (R=0.089)  charge= 10.1597  magn=  0.0000
     atom  36 (R=0.089)  charge= 10.1597  magn=  0.0000
     atom  37 (R=0.089)  charge=  3.9936  magn=  0.0000
     atom  38 (R=0.089)  charge=  3.9936  magn= -0.0000
     atom  39 (R=0.089)  charge=  3.9936  magn= -0.0000
     atom  40 (R=0.089)  charge=  3.9936  magn= -0.0000
     atom  41 (R=0.089)  charge= 10.1597  magn= -0.0000
     atom  42 (R=0.089)  charge= 10.1597  magn= -0.0000
     atom  43 (R=0.089)  charge= 10.1597  magn=  0.0000
     atom  44 (R=0.089)  charge= 10.1597  magn= -0.0000
     atom  45 (R=0.089)  charge=  3.9936  magn=  0.0000
     atom  46 (R=0.089)  charge=  3.9936  magn=  0.0000
     atom  47 (R=0.089)  charge=  3.9936  magn=  0.0000
     atom  48 (R=0.089)  charge=  3.9936  magn=  0.0000
     atom  49 (R=0.089)  charge= 10.1597  magn= -0.0000
     atom  50 (R=0.089)  charge= 10.1597  magn= -0.0000
     atom  51 (R=0.089)  charge= 10.1597  magn= -0.0000
     atom  52 (R=0.089)  charge= 10.1597  magn=  0.0000
     atom  53 (R=0.089)  charge=  3.9936  magn=  0.0000
     atom  54 (R=0.089)  charge=  3.9936  magn=  0.0000
     atom  55 (R=0.089)  charge=  3.9936  magn=  0.0000
     atom  56 (R=0.089)  charge=  3.9936  magn=  0.0000
     atom  57 (R=0.089)  charge= 10.1597  magn= -0.0000
     atom  58 (R=0.089)  charge= 10.1597  magn= -0.0000
     atom  59 (R=0.089)  charge= 10.1597  magn= -0.0000
     atom  60 (R=0.089)  charge= 10.1597  magn= -0.0000
     atom  61 (R=0.089)  charge=  3.9936  magn= -0.0000
     atom  62 (R=0.089)  charge=  3.9936  magn=  0.0000
     atom  63 (R=0.089)  charge=  3.9936  magn= -0.0000
     atom  64 (R=0.089)  charge=  3.9936  magn= -0.0000

     total cpu time spent up to now is      143.3 secs

     End of self-consistent calculation

 ------ SPIN UP ------------


          k = 0.0000 0.0000 0.0000 (256647 PWs)   bands (ev):

    -7.4622  -6.9204  -6.9204  -6.9204  -6.9204  -6.9204  -6.9204  -6.5968
    -6.5968  -6.5968  -6.5968  -6.5968  -6.5968  -6.5968  -6.5968  -6.5968
    -6.5968  -6.5968  -6.5968  -6.5721  -6.5721  -6.5721  -6.5721  -6.2730
    -6.2730  -6.2730  -6.2673  -6.2673  -6.2673  -6.2673  -6.2673  -6.2673
    -0.7190  -0.7190  -0.7190  -0.7190  -0.7190  -0.7190  -0.6935  -0.6935
    -0.6935  -0.6756  -0.6756  -0.6756  -0.5641  -0.5641  -0.5641  -0.5641
    -0.5641  -0.5641  -0.5641  -0.5641  -0.5550  -0.5550  -0.5550  -0.5550
    -0.5550  -0.5550  -0.5550  -0.5550  -0.5550  -0.5549  -0.5549  -0.5549
    -0.5438  -0.5438  -0.5438  -0.5438  -0.5438  -0.5438  -0.5338  -0.5338
    -0.5338  -0.5338  -0.5338  -0.5338  -0.5338  -0.5338  -0.5338  -0.5338
    -0.5338  -0.5338  -0.5240  -0.5240  -0.5240  -0.5240  -0.5240  -0.5240
    -0.5240  -0.5240  -0.5240  -0.5240  -0.5240  -0.5240  -0.4030  -0.4030
    -0.4030  -0.4030  -0.4030  -0.4030  -0.3978  -0.3978  -0.3978  -0.3978
    -0.3978  -0.3978  -0.3978  -0.3978  -0.3978  -0.3978  -0.3978  -0.3978
    -0.3445  -0.3445  -0.3445  -0.3444  -0.3444  -0.3444  -0.2496  -0.2496
    -0.2496  -0.2496  -0.2496  -0.2496  -0.2316  -0.2316  -0.2315  -0.2315
    -0.2315  -0.2315  -0.2296  -0.2296  -0.2296  -0.2296  -0.2296  -0.2296
    -0.2082  -0.2082  -0.2082  -0.2082  -0.2082  -0.2082  -0.2082  -0.2082
    -0.2082  -0.2082  -0.2082  -0.2081  -0.1943  -0.1943  -0.1651  -0.1651
    -0.1651  -0.1651  -0.1651  -0.1651  -0.1651  -0.1651  -0.1583  -0.1583
    -0.1583  -0.1583  -0.1583  -0.1583  -0.1352  -0.1352  -0.1352  -0.1352
    -0.1352  -0.1352  -0.1352  -0.1352  -0.1352  -0.1352  -0.1352  -0.1352
    -0.1222  -0.1222  -0.1222   0.0014   0.0014   0.0014   0.0014   0.0135
     0.0135   0.0135   0.1861   0.1861   0.1861   0.1861   0.1861   0.1861
     0.3803   0.3803   0.3803   0.3803   1.0507   1.0507   1.0507   1.0507
     1.0507   1.0507   1.0736   1.0736   1.0736   1.6637   1.6637   1.6637
     1.6637   1.6637   1.6637   1.6637   1.6637   1.6637   1.6637   1.6637
     1.6637   2.8902   2.8902   2.8902   2.8902   2.8902   2.8902   2.9126
     2.9126   2.9126   2.9126   2.9126   2.9126   3.0054   3.0054   3.0054
     3.0054   3.0054   3.0054   3.1129   3.1129   3.1129   3.1129   3.1129
     3.1129   3.1129   3.1129   3.1129   3.1129   3.1129   3.1129   3.3949
     3.3949   3.3949   3.3949   3.3949   3.3949   4.3508   4.3508   4.3508
     4.3509   4.3509   4.3509   4.3509   4.3509   4.3509   4.3509   4.3509
     4.3509   4.6707   4.6707   4.6707   4.6707   4.6707   4.6707   4.6707
     4.6707   4.6707   4.6707   4.6707   4.6707   4.7065   4.7065   4.7065
     4.7065   4.7065   4.7065   4.7065   4.7065   5.5451   5.5451   5.5451
     7.5516   8.7969   8.7969   8.7969   8.7969   8.9888   8.9888   8.9888
     9.6026   9.6026   9.6026   9.9704   9.9704   9.9704   9.9704   9.9704
     9.9704  10.1013  10.1013  10.1013  10.1013  10.1013  10.1013  10.3043
    10.3043  10.3043  10.3043  10.3043  10.3043  10.3043  10.3043  10.3043
    10.3043  10.3043  10.3043  11.2374  11.2374  11.2374  11.2374  11.2374
    11.2374  11.4630  11.4631  11.4631  11.4631  11.4631  11.4631  11.9192
    11.9193  12.1767  12.1784  12.1784  12.1784  12.1784  12.1784  12.1784
    12.1784  12.1784

     occupation numbers 
     1.0000   1.0000   1.0000   1.0000   1.0000   1.0000   1.0000   1.0000
     1.0000   1.0000   1.0000   1.0000   1.0000   1.0000   1.0000   1.0000
     1.0000   1.0000   1.0000   1.0000   1.0000   1.0000   1.0000   1.0000
     1.0000   1.0000   1.0000   1.0000   1.0000   1.0000   1.0000   1.0000
     1.0000   1.0000   1.0000   1.0000   1.0000   1.0000   1.0000   1.0000
     1.0000   1.0000   1.0000   1.0000   1.0000   1.0000   1.0000   1.0000
     1.0000   1.0000   1.0000   1.0000   1.0000   1.0000   1.0000   1.0000
     1.0000   1.0000   1.0000   1.0000   1.0000   1.0000   1.0000   1.0000
     1.0000   1.0000   1.0000   1.0000   1.0000   1.0000   1.0000   1.0000
     1.0000   1.0000   1.0000   1.0000   1.0000   1.0000   1.0000   1.0000
     1.0000   1.0000   1.0000   1.0000   1.0000   1.0000   1.0000   1.0000
     1.0000   1.0000   1.0000   1.0000   1.0000   1.0000   1.0000   1.0000
     1.0000   1.0000   1.0000   1.0000   1.0000   1.0000   1.0000   1.0000
     1.0000   1.0000   1.0000   1.0000   1.0000   1.0000   1.0000   1.0000
     1.0000   1.0000   1.0000   1.0000   1.0000   1.0000   1.0000   1.0000
     1.0000   1.0000   1.0000   1.0000   1.0000   1.0000   1.0000   1.0000
     1.0000   1.0000   1.0000   1.0000   1.0000   1.0000   1.0000   1.0000
     1.0000   1.0000   1.0000   1.0000   1.0000   1.0000   1.0000   1.0000
     1.0000   1.0000   1.0000   1.0000   1.0000   1.0000   1.0000   1.0000
     1.0000   1.0000   1.0000   1.0000   1.0000   1.0000   1.0000   1.0000
     1.0000   1.0000   1.0000   1.0000   1.0000   1.0000   1.0000   1.0000
     1.0000   1.0000   1.0000   1.0000   1.0000   1.0000   1.0000   1.0000
     1.0000   1.0000   1.0000   1.0000   1.0000   1.0000   1.0000   1.0000
     1.0000   1.0000   1.0000   1.0000   1.0000   1.0000   1.0000   1.0000
     1.0000   1.0000   1.0000   1.0000   1.0000   1.0000   1.0000   1.0000
     1.0000   1.0000   1.0000   1.0000   1.0000   1.0000   1.0000   1.0000
     1.0000   1.0000   1.0000   1.0000   1.0000   1.0000   1.0000   1.0000
     1.0000   1.0000   1.0000   1.0000   1.0000   1.0000   1.0000   1.0000
     1.0000   1.0000   1.0000   1.0000   1.0000   1.0000   1.0000   1.0000
     1.0000   1.0000   1.0000   1.0000   1.0000   1.0000   1.0000   1.0000
     1.0000   1.0000   1.0000   1.0000   1.0000   1.0000   1.0000   1.0000
     1.0000   1.0000   1.0000   1.0000   1.0000   1.0000   1.0000   1.0000
     1.0000   1.0000   1.0000   1.0000   1.0000   1.0000   1.0000   1.0000
     1.0000   1.0000   1.0000   1.0000   1.0000   1.0000   1.0000   1.0000
     1.0000   1.0000   1.0000   1.0000   1.0000   1.0000   1.0000   1.0000
     1.0000   1.0000   1.0000   1.0000   1.0000   1.0000   1.0000   1.0000
     0.0000   0.0000   0.0000   0.0000   0.0000   0.0000   0.0000   0.0000
     0.0000   0.0000   0.0000   0.0000   0.0000   0.0000   0.0000   0.0000
     0.0000   0.0000   0.0000   0.0000   0.0000   0.0000   0.0000   0.0000
     0.0000   0.0000   0.0000   0.0000   0.0000   0.0000   0.0000   0.0000
     0.0000   0.0000   0.0000   0.0000   0.0000   0.0000   0.0000   0.0000
     0.0000   0.0000   0.0000   0.0000   0.0000   0.0000   0.0000   0.0000
     0.0000   0.0000   0.0000   0.0000   0.0000   0.0000   0.0000   0.0000
     0.0000   0.0000

          k = 0.0000 0.0000 0.2500 (256559 PWs)   bands (ev):

    -7.4238  -7.1379  -6.8961  -6.8961  -6.8961  -6.8961  -6.7217  -6.7217
    -6.7217  -6.7217  -6.6876  -6.5932  -6.5932  -6.5932  -6.5932  -6.5758
    -6.5758  -6.5758  -6.5758  -6.4710  -6.4710  -6.4710  -6.4710  -6.3271
    -6.2924  -6.2924  -6.2924  -6.2924  -6.2722  -6.2722  -6.2681  -6.2681
    -0.7179  -0.7091  -0.7015  -0.7015  -0.7015  -0.7015  -0.6974  -0.6806
    -0.6725  -0.6725  -0.6660  -0.6660  -0.5925  -0.5925  -0.5731  -0.5731
    -0.5731  -0.5731  -0.5659  -0.5659  -0.5635  -0.5635  -0.5635  -0.5635
    -0.5588  -0.5588  -0.5588  -0.5588  -0.5574  -0.5574  -0.5574  -0.5574
    -0.5543  -0.5543  -0.5543  -0.5543  -0.5490  -0.5490  -0.5490  -0.5490
    -0.5431  -0.5431  -0.5431  -0.5431  -0.5379  -0.5379  -0.5379  -0.5379
    -0.5308  -0.5308  -0.5308  -0.5308  -0.5305  -0.5305  -0.5305  -0.5305
    -0.4972  -0.4972  -0.4972  -0.4972  -0.4909  -0.4909  -0.4909  -0.4908
    -0.4684  -0.4684  -0.4256  -0.4255  -0.4255  -0.4255  -0.3962  -0.3962
    -0.3692  -0.3692  -0.3692  -0.3692  -0.3612  -0.3612  -0.3555  -0.3555
    -0.3403  -0.3403  -0.2928  -0.2928  -0.2928  -0.2928  -0.2924  -0.2924
    -0.2395  -0.2395  -0.2395  -0.2395  -0.2264  -0.2264  -0.2264  -0.2264
    -0.2259  -0.2259  -0.2259  -0.2259  -0.2240  -0.2166  -0.2103  -0.2103
    -0.2103  -0.2103  -0.2012  -0.2012  -0.2012  -0.2012  -0.1985  -0.1936
    -0.1936  -0.1936  -0.1936  -0.1916  -0.1908  -0.1908  -0.1908  -0.1908
    -0.1862  -0.1862  -0.1721  -0.1709  -0.1709  -0.1709  -0.1709  -0.1589
    -0.1589  -0.1589  -0.1588  -0.1496  -0.1496  -0.1496  -0.1496  -0.1445
    -0.1334  -0.1334  -0.1334  -0.1334  -0.1286  -0.1286  -0.1250  -0.0927
    -0.0927  -0.0927  -0.0927  -0.0839  -0.0839  -0.0839  -0.0839  -0.0547
     0.0398   0.0398   0.1481   0.1481   0.1481   0.1481   0.1610   0.1610
     0.5813   0.5813   0.5813   0.5813   1.0548   1.0548   1.0667   1.0667
     1.0667   1.0667   1.0709   1.0709   1.2676   1.3596   1.3596   1.3596
     1.3596   1.4164   1.4164   1.4164   1.4164   2.0415   2.0415   2.0415
     2.0415   2.3285   2.6647   2.6647   2.6647   2.6647   2.8136   2.8136
     2.8136   2.8136   2.8311   2.8311   2.8311   2.8311   2.9596   2.9596
     2.9789   2.9789   3.3152   3.3152   3.3193   3.3193   3.3302   3.3302
     3.3302   3.3302   3.4123   3.4123   3.4123   3.4123   3.4640   3.4640
     3.4958   3.4958   3.4958   3.4958   3.7312   3.9696   3.9696   4.2222
     4.2222   4.2222   4.2222   4.3408   4.3408   4.3408   4.3408   4.4700
     4.4700   4.4700   4.4700   4.4932   4.4932   4.4932   4.4932   4.6759
     4.6759   4.6759   4.6759   4.7012   4.7012   4.7012   4.7012   4.7640
     4.7640   4.7737   4.7737   4.7737   4.7737   5.1822   5.4377   5.4377
     7.9506   9.0164   9.0164   9.0164   9.0164   9.0633   9.2181   9.2181
     9.4971   9.6306   9.6697   9.8068   9.8068  10.0303  10.0450  10.0450
    10.0450  10.0450  10.0737  10.0737  10.0737  10.0737  10.2778  10.2778
    10.2778  10.2779  10.3224  10.3224  10.3224  10.3224  10.4261  10.4261
    10.4261  10.4261  10.6428  10.6854  10.6854  11.0459  11.0459  11.0459
    11.0459  11.0552  11.0552  11.5805  11.5805  11.5805  11.5805  11.7125
    11.8226  11.8226  11.8227  11.8227  12.0188  12.0189  12.0189  12.0189
    12.0189  12.0189

     occupation numbers 
     1.0000   1.0000   1.0000   1.0000   1.0000   1.0000   1.0000   1.0000
     1.0000   1.0000   1.0000   1.0000   1.0000   1.0000   1.0000   1.0000
     1.0000   1.0000   1.0000   1.0000   1.0000   1.0000   1.0000   1.0000
     1.0000   1.0000   1.0000   1.0000   1.0000   1.0000   1.0000   1.0000
     1.0000   1.0000   1.0000   1.0000   1.0000   1.0000   1.0000   1.0000
     1.0000   1.0000   1.0000   1.0000   1.0000   1.0000   1.0000   1.0000
     1.0000   1.0000   1.0000   1.0000   1.0000   1.0000   1.0000   1.0000
     1.0000   1.0000   1.0000   1.0000   1.0000   1.0000   1.0000   1.0000
     1.0000   1.0000   1.0000   1.0000   1.0000   1.0000   1.0000   1.0000
     1.0000   1.0000   1.0000   1.0000   1.0000   1.0000   1.0000   1.0000
     1.0000   1.0000   1.0000   1.0000   1.0000   1.0000   1.0000   1.0000
     1.0000   1.0000   1.0000   1.0000   1.0000   1.0000   1.0000   1.0000
     1.0000   1.0000   1.0000   1.0000   1.0000   1.0000   1.0000   1.0000
     1.0000   1.0000   1.0000   1.0000   1.0000   1.0000   1.0000   1.0000
     1.0000   1.0000   1.0000   1.0000   1.0000   1.0000   1.0000   1.0000
     1.0000   1.0000   1.0000   1.0000   1.0000   1.0000   1.0000   1.0000
     1.0000   1.0000   1.0000   1.0000   1.0000   1.0000   1.0000   1.0000
     1.0000   1.0000   1.0000   1.0000   1.0000   1.0000   1.0000   1.0000
     1.0000   1.0000   1.0000   1.0000   1.0000   1.0000   1.0000   1.0000
     1.0000   1.0000   1.0000   1.0000   1.0000   1.0000   1.0000   1.0000
     1.0000   1.0000   1.0000   1.0000   1.0000   1.0000   1.0000   1.0000
     1.0000   1.0000   1.0000   1.0000   1.0000   1.0000   1.0000   1.0000
     1.0000   1.0000   1.0000   1.0000   1.0000   1.0000   1.0000   1.0000
     1.0000   1.0000   1.0000   1.0000   1.0000   1.0000   1.0000   1.0000
     1.0000   1.0000   1.0000   1.0000   1.0000   1.0000   1.0000   1.0000
     1.0000   1.0000   1.0000   1.0000   1.0000   1.0000   1.0000   1.0000
     1.0000   1.0000   1.0000   1.0000   1.0000   1.0000   1.0000   1.0000
     1.0000   1.0000   1.0000   1.0000   1.0000   1.0000   1.0000   1.0000
     1.0000   1.0000   1.0000   1.0000   1.0000   1.0000   1.0000   1.0000
     1.0000   1.0000   1.0000   1.0000   1.0000   1.0000   1.0000   1.0000
     1.0000   1.0000   1.0000   1.0000   1.0000   1.0000   1.0000   1.0000
     1.0000   1.0000   1.0000   1.0000   1.0000   1.0000   1.0000   1.0000
     1.0000   1.0000   1.0000   1.0000   1.0000   1.0000   1.0000   1.0000
     1.0000   1.0000   1.0000   1.0000   1.0000   1.0000   1.0000   1.0000
     1.0000   1.0000   1.0000   1.0000   1.0000   1.0000   1.0000   1.0000
     1.0000   1.0000   1.0000   1.0000   1.0000   1.0000   1.0000   1.0000
     0.0000   0.0000   0.0000   0.0000   0.0000   0.0000   0.0000   0.0000
     0.0000   0.0000   0.0000   0.0000   0.0000   0.0000   0.0000   0.0000
     0.0000   0.0000   0.0000   0.0000   0.0000   0.0000   0.0000   0.0000
     0.0000   0.0000   0.0000   0.0000   0.0000   0.0000   0.0000   0.0000
     0.0000   0.0000   0.0000   0.0000   0.0000   0.0000   0.0000   0.0000
     0.0000   0.0000   0.0000   0.0000   0.0000   0.0000   0.0000   0.0000
     0.0000   0.0000   0.0000   0.0000   0.0000   0.0000   0.0000   0.0000
     0.0000   0.0000

          k = 0.0000 0.0000-0.5000 (256550 PWs)   bands (ev):

    -7.3121  -7.3121  -6.8266  -6.8266  -6.8266  -6.8266  -6.8266  -6.8266
    -6.8266  -6.8266  -6.5845  -6.5845  -6.5845  -6.5845  -6.5845  -6.5845
    -6.5845  -6.5845  -6.4765  -6.4765  -6.3640  -6.3640  -6.3640  -6.3640
    -6.3640  -6.3640  -6.3640  -6.3640  -6.2702  -6.2702  -6.2701  -6.2701
    -0.7078  -0.7078  -0.6937  -0.6937  -0.6494  -0.6494  -0.6494  -0.6494
    -0.6494  -0.6493  -0.6493  -0.6493  -0.6377  -0.6377  -0.6377  -0.6377
    -0.6200  -0.6200  -0.6200  -0.6200  -0.5613  -0.5613  -0.5613  -0.5613
    -0.5613  -0.5613  -0.5613  -0.5613  -0.5470  -0.5470  -0.5470  -0.5470
    -0.5470  -0.5470  -0.5470  -0.5470  -0.5453  -0.5453  -0.5453  -0.5453
    -0.5453  -0.5453  -0.5453  -0.5453  -0.5436  -0.5436  -0.5436  -0.5436
    -0.5436  -0.5436  -0.5436  -0.5436  -0.5204  -0.5204  -0.5204  -0.5204
    -0.5204  -0.5204  -0.5204  -0.5203  -0.4651  -0.4651  -0.4651  -0.4651
    -0.4651  -0.4651  -0.4651  -0.4651  -0.4066  -0.4066  -0.4066  -0.4066
    -0.3778  -0.3778  -0.3778  -0.3778  -0.3254  -0.3254  -0.3254  -0.3253
    -0.2885  -0.2885  -0.2885  -0.2885  -0.2885  -0.2885  -0.2885  -0.2885
    -0.2542  -0.2541  -0.2541  -0.2541  -0.2541  -0.2541  -0.2541  -0.2541
    -0.2151  -0.2151  -0.2151  -0.2151  -0.2151  -0.2151  -0.2151  -0.2151
    -0.2099  -0.2099  -0.1986  -0.1986  -0.1986  -0.1986  -0.1986  -0.1986
    -0.1986  -0.1985  -0.1854  -0.1854  -0.1854  -0.1854  -0.1854  -0.1854
    -0.1854  -0.1854  -0.1838  -0.1837  -0.1584  -0.1584  -0.1578  -0.1578
    -0.1578  -0.1578  -0.1578  -0.1578  -0.1578  -0.1578  -0.1490  -0.1490
    -0.1490  -0.1490  -0.1328  -0.1328  -0.1258  -0.1258  -0.1258  -0.1258
    -0.1258  -0.1258  -0.1258  -0.1258   0.0342   0.0342   0.0342   0.0342
     0.0342   0.0342   0.0342   0.0342   0.1009   0.1009   0.1009   0.1009
     0.9751   0.9752   0.9752   0.9752   0.9752   0.9752   0.9752   0.9752
     1.0634   1.0634   1.0634   1.0635   1.1565   1.1565   1.1565   1.1565
     1.1566   1.1566   1.1566   1.1566   1.7296   1.7296   2.4551   2.4551
     2.4551   2.4551   2.4551   2.4551   2.4551   2.4551   2.6476   2.6476
     2.6476   2.6477   2.6477   2.6477   2.6477   2.6477   3.1323   3.1323
     3.1323   3.1323   3.1445   3.1445   3.1445   3.1445   3.6631   3.6631
     3.6631   3.6631   3.8526   3.8526   3.8526   3.8526   3.8526   3.8526
     3.8526   3.8527   3.8976   3.8977   3.8977   3.8977   3.8977   3.8977
     3.8977   3.8977   3.9825   3.9825   3.9825   3.9825   3.9825   3.9825
     3.9825   3.9825   4.4802   4.4803   4.6732   4.6732   4.6732   4.6732
     4.6732   4.6732   4.6732   4.6732   4.6884   4.6884   4.6884   4.6884
     4.6884   4.6884   4.6884   4.6884   5.1514   5.1514   5.1514   5.1514
     8.7315   8.7316   9.2817   9.2817   9.5364   9.5364   9.5364   9.5364
     9.5364   9.5364   9.5364   9.5364   9.8414   9.8414   9.8415   9.8415
     9.8470   9.8470  10.1898  10.1898  10.1898  10.1898  10.1898  10.1898
    10.1898  10.1898  10.3535  10.3535  10.3535  10.3535  10.7066  10.7066
    10.7066  10.7066  10.7066  10.7066  10.7066  10.7066  10.9436  10.9436
    10.9436  10.9436  10.9436  10.9436  10.9436  10.9436  11.2205  11.2205
    11.7867  11.7867  11.7867  11.7867  11.7867  11.7867  11.7867  11.7867
    12.0729  12.0729

     occupation numbers 
     1.0000   1.0000   1.0000   1.0000   1.0000   1.0000   1.0000   1.0000
     1.0000   1.0000   1.0000   1.0000   1.0000   1.0000   1.0000   1.0000
     1.0000   1.0000   1.0000   1.0000   1.0000   1.0000   1.0000   1.0000
     1.0000   1.0000   1.0000   1.0000   1.0000   1.0000   1.0000   1.0000
     1.0000   1.0000   1.0000   1.0000   1.0000   1.0000   1.0000   1.0000
     1.0000   1.0000   1.0000   1.0000   1.0000   1.0000   1.0000   1.0000
     1.0000   1.0000   1.0000   1.0000   1.0000   1.0000   1.0000   1.0000
     1.0000   1.0000   1.0000   1.0000   1.0000   1.0000   1.0000   1.0000
     1.0000   1.0000   1.0000   1.0000   1.0000   1.0000   1.0000   1.0000
     1.0000   1.0000   1.0000   1.0000   1.0000   1.0000   1.0000   1.0000
     1.0000   1.0000   1.0000   1.0000   1.0000   1.0000   1.0000   1.0000
     1.0000   1.0000   1.0000   1.0000   1.0000   1.0000   1.0000   1.0000
     1.0000   1.0000   1.0000   1.0000   1.0000   1.0000   1.0000   1.0000
     1.0000   1.0000   1.0000   1.0000   1.0000   1.0000   1.0000   1.0000
     1.0000   1.0000   1.0000   1.0000   1.0000   1.0000   1.0000   1.0000
     1.0000   1.0000   1.0000   1.0000   1.0000   1.0000   1.0000   1.0000
     1.0000   1.0000   1.0000   1.0000   1.0000   1.0000   1.0000   1.0000
     1.0000   1.0000   1.0000   1.0000   1.0000   1.0000   1.0000   1.0000
     1.0000   1.0000   1.0000   1.0000   1.0000   1.0000   1.0000   1.0000
     1.0000   1.0000   1.0000   1.0000   1.0000   1.0000   1.0000   1.0000
     1.0000   1.0000   1.0000   1.0000   1.0000   1.0000   1.0000   1.0000
     1.0000   1.0000   1.0000   1.0000   1.0000   1.0000   1.0000   1.0000
     1.0000   1.0000   1.0000   1.0000   1.0000   1.0000   1.0000   1.0000
     1.0000   1.0000   1.0000   1.0000   1.0000   1.0000   1.0000   1.0000
     1.0000   1.0000   1.0000   1.0000   1.0000   1.0000   1.0000   1.0000
     1.0000   1.0000   1.0000   1.0000   1.0000   1.0000   1.0000   1.0000
     1.0000   1.0000   1.0000   1.0000   1.0000   1.0000   1.0000   1.0000
     1.0000   1.0000   1.0000   1.0000   1.0000   1.0000   1.0000   1.0000
     1.0000   1.0000   1.0000   1.0000   1.0000   1.0000   1.0000   1.0000
     1.0000   1.0000   1.0000   1.0000   1.0000   1.0000   1.0000   1.0000
     1.0000   1.0000   1.0000   1.0000   1.0000   1.0000   1.0000   1.0000
     1.0000   1.0000   1.0000   1.0000   1.0000   1.0000   1.0000   1.0000
     1.0000   1.0000   1.0000   1.0000   1.0000   1.0000   1.0000   1.0000
     1.0000   1.0000   1.0000   1.0000   1.0000   1.0000   1.0000   1.0000
     1.0000   1.0000   1.0000   1.0000   1.0000   1.0000   1.0000   1.0000
     1.0000   1.0000   1.0000   1.0000   1.0000   1.0000   1.0000   1.0000
     0.0000   0.0000   0.0000   0.0000   0.0000   0.0000   0.0000   0.0000
     0.0000   0.0000   0.0000   0.0000   0.0000   0.0000   0.0000   0.0000
     0.0000   0.0000   0.0000   0.0000   0.0000   0.0000   0.0000   0.0000
     0.0000   0.0000   0.0000   0.0000   0.0000   0.0000   0.0000   0.0000
     0.0000   0.0000   0.0000   0.0000   0.0000   0.0000   0.0000   0.0000
     0.0000   0.0000   0.0000   0.0000   0.0000   0.0000   0.0000   0.0000
     0.0000   0.0000   0.0000   0.0000   0.0000   0.0000   0.0000   0.0000
     0.0000   0.0000

          k = 0.0000 0.2500 0.2500 (256588 PWs)   bands (ev):

    -7.3863  -7.1075  -7.1075  -6.8852  -6.8731  -6.8731  -6.7094  -6.7094
    -6.7094  -6.7094  -6.6708  -6.6708  -6.6273  -6.6273  -6.5526  -6.5526
    -6.5303  -6.5303  -6.4773  -6.4773  -6.4773  -6.4773  -6.3914  -6.3240
    -6.3240  -6.3150  -6.3150  -6.3040  -6.3040  -6.2830  -6.2830  -6.2732
    -0.6967  -0.6967  -0.6961  -0.6961  -0.6847  -0.6847  -0.6775  -0.6757
    -0.6757  -0.6636  -0.6573  -0.6550  -0.5953  -0.5927  -0.5927  -0.5898
    -0.5898  -0.5817  -0.5753  -0.5753  -0.5753  -0.5753  -0.5705  -0.5705
    -0.5665  -0.5661  -0.5661  -0.5638  -0.5638  -0.5616  -0.5616  -0.5613
    -0.5613  -0.5601  -0.5594  -0.5594  -0.5516  -0.5516  -0.5516  -0.5516
    -0.5510  -0.5510  -0.5510  -0.5510  -0.5432  -0.5432  -0.5429  -0.5429
    -0.5380  -0.5380  -0.5308  -0.5308  -0.5222  -0.5222  -0.5041  -0.5041
    -0.5041  -0.5041  -0.4781  -0.4781  -0.4725  -0.4725  -0.4725  -0.4725
    -0.4629  -0.4629  -0.4621  -0.4422  -0.4422  -0.4221  -0.4221  -0.4084
    -0.4084  -0.3907  -0.3907  -0.3737  -0.3737  -0.3601  -0.3559  -0.3559
    -0.3400  -0.2971  -0.2971  -0.2882  -0.2882  -0.2785  -0.2785  -0.2773
    -0.2773  -0.2773  -0.2773  -0.2407  -0.2390  -0.2390  -0.2209  -0.2209
    -0.2199  -0.2199  -0.2174  -0.2174  -0.2147  -0.2066  -0.2066  -0.2061
    -0.2060  -0.2030  -0.2030  -0.2030  -0.2030  -0.1990  -0.1921  -0.1884
    -0.1878  -0.1877  -0.1877  -0.1877  -0.1860  -0.1860  -0.1849  -0.1849
    -0.1796  -0.1796  -0.1729  -0.1729  -0.1679  -0.1679  -0.1645  -0.1645
    -0.1631  -0.1607  -0.1607  -0.1597  -0.1597  -0.1510  -0.1510  -0.1510
    -0.1510  -0.1456  -0.1456  -0.1338  -0.1303  -0.1303  -0.1283  -0.1283
    -0.0759  -0.0759  -0.0759  -0.0759  -0.0307  -0.0307  -0.0021   0.0258
     0.0258   0.0635   0.0959   0.0959   0.1313   0.1313   0.1558   0.1558
     0.4952   0.4952   0.9025   0.9025   1.0216   1.0216   1.0394   1.0394
     1.0648   1.1339   1.1339   1.1401   1.1401   1.1401   1.1401   1.1413
     1.2521   1.2521   1.6517   1.6517   1.7917   1.7917   1.7917   1.7917
     2.2227   2.2227   2.4994   2.5761   2.6289   2.6289   2.6330   2.6330
     2.7114   2.7114   2.8512   2.8512   3.0316   3.0970   3.0970   3.0970
     3.0970   3.1550   3.1550   3.2902   3.2902   3.3628   3.3628   3.4211
     3.4211   3.4343   3.4343   3.4809   3.4809   3.5016   3.5090   3.5090
     3.7686   3.7686   3.7686   3.7686   3.8441   3.8441   3.9030   4.0315
     4.0315   4.1832   4.1832   4.2159   4.2990   4.2990   4.3450   4.3450
     4.3662   4.3662   4.3662   4.3662   4.3996   4.3996   4.5609   4.5609
     4.6178   4.6178   4.6377   4.6377   4.6507   4.6507   4.7601   4.7601
     4.7601   4.7601   4.7886   4.9235   4.9235   5.0694   5.3265   5.4996
     8.2087   9.0399   9.0399   9.2894   9.2946   9.2946   9.3566   9.3566
     9.5370   9.5370   9.8660   9.8660   9.8682   9.8682   9.9134   9.9186
     9.9186   9.9642   9.9642   9.9642   9.9642  10.1098  10.1117  10.1592
    10.1592  10.2941  10.2941  10.2941  10.2941  10.3446  10.3446  10.6766
    10.6766  10.6828  10.6828  10.7646  10.7646  10.8441  10.8441  10.9684
    10.9685  11.0499  11.0499  11.4075  11.4075  11.4608  11.4608  11.4984
    11.4984  11.7971  11.7973  11.7973  11.7973  11.9186  11.9188  11.9188
    11.9188  11.9403

     occupation numbers 
     1.0000   1.0000   1.0000   1.0000   1.0000   1.0000   1.0000   1.0000
     1.0000   1.0000   1.0000   1.0000   1.0000   1.0000   1.0000   1.0000
     1.0000   1.0000   1.0000   1.0000   1.0000   1.0000   1.0000   1.0000
     1.0000   1.0000   1.0000   1.0000   1.0000   1.0000   1.0000   1.0000
     1.0000   1.0000   1.0000   1.0000   1.0000   1.0000   1.0000   1.0000
     1.0000   1.0000   1.0000   1.0000   1.0000   1.0000   1.0000   1.0000
     1.0000   1.0000   1.0000   1.0000   1.0000   1.0000   1.0000   1.0000
     1.0000   1.0000   1.0000   1.0000   1.0000   1.0000   1.0000   1.0000
     1.0000   1.0000   1.0000   1.0000   1.0000   1.0000   1.0000   1.0000
     1.0000   1.0000   1.0000   1.0000   1.0000   1.0000   1.0000   1.0000
     1.0000   1.0000   1.0000   1.0000   1.0000   1.0000   1.0000   1.0000
     1.0000   1.0000   1.0000   1.0000   1.0000   1.0000   1.0000   1.0000
     1.0000   1.0000   1.0000   1.0000   1.0000   1.0000   1.0000   1.0000
     1.0000   1.0000   1.0000   1.0000   1.0000   1.0000   1.0000   1.0000
     1.0000   1.0000   1.0000   1.0000   1.0000   1.0000   1.0000   1.0000
     1.0000   1.0000   1.0000   1.0000   1.0000   1.0000   1.0000   1.0000
     1.0000   1.0000   1.0000   1.0000   1.0000   1.0000   1.0000   1.0000
     1.0000   1.0000   1.0000   1.0000   1.0000   1.0000   1.0000   1.0000
     1.0000   1.0000   1.0000   1.0000   1.0000   1.0000   1.0000   1.0000
     1.0000   1.0000   1.0000   1.0000   1.0000   1.0000   1.0000   1.0000
     1.0000   1.0000   1.0000   1.0000   1.0000   1.0000   1.0000   1.0000
     1.0000   1.0000   1.0000   1.0000   1.0000   1.0000   1.0000   1.0000
     1.0000   1.0000   1.0000   1.0000   1.0000   1.0000   1.0000   1.0000
     1.0000   1.0000   1.0000   1.0000   1.0000   1.0000   1.0000   1.0000
     1.0000   1.0000   1.0000   1.0000   1.0000   1.0000   1.0000   1.0000
     1.0000   1.0000   1.0000   1.0000   1.0000   1.0000   1.0000   1.0000
     1.0000   1.0000   1.0000   1.0000   1.0000   1.0000   1.0000   1.0000
     1.0000   1.0000   1.0000   1.0000   1.0000   1.0000   1.0000   1.0000
     1.0000   1.0000   1.0000   1.0000   1.0000   1.0000   1.0000   1.0000
     1.0000   1.0000   1.0000   1.0000   1.0000   1.0000   1.0000   1.0000
     1.0000   1.0000   1.0000   1.0000   1.0000   1.0000   1.0000   1.0000
     1.0000   1.0000   1.0000   1.0000   1.0000   1.0000   1.0000   1.0000
     1.0000   1.0000   1.0000   1.0000   1.0000   1.0000   1.0000   1.0000
     1.0000   1.0000   1.0000   1.0000   1.0000   1.0000   1.0000   1.0000
     1.0000   1.0000   1.0000   1.0000   1.0000   1.0000   1.0000   1.0000
     1.0000   1.0000   1.0000   1.0000   1.0000   1.0000   1.0000   1.0000
     0.0000   0.0000   0.0000   0.0000   0.0000   0.0000   0.0000   0.0000
     0.0000   0.0000   0.0000   0.0000   0.0000   0.0000   0.0000   0.0000
     0.0000   0.0000   0.0000   0.0000   0.0000   0.0000   0.0000   0.0000
     0.0000   0.0000   0.0000   0.0000   0.0000   0.0000   0.0000   0.0000
     0.0000   0.0000   0.0000   0.0000   0.0000   0.0000   0.0000   0.0000
     0.0000   0.0000   0.0000   0.0000   0.0000   0.0000   0.0000   0.0000
     0.0000   0.0000   0.0000   0.0000   0.0000   0.0000   0.0000   0.0000
     0.0000   0.0000

          k = 0.0000 0.2500-0.5000 (256592 PWs)   bands (ev):

    -7.2772  -7.2772  -7.0197  -7.0197  -6.8077  -6.8077  -6.8077  -6.8077
    -6.6753  -6.6753  -6.6753  -6.6753  -6.6232  -6.6231  -6.4969  -6.4969
    -6.4969  -6.4969  -6.4673  -6.4673  -6.4050  -6.4049  -6.3797  -6.3797
    -6.3797  -6.3797  -6.3258  -6.3257  -6.3155  -6.3155  -6.2766  -6.2766
    -0.6853  -0.6853  -0.6851  -0.6851  -0.6568  -0.6568  -0.6379  -0.6379
    -0.6370  -0.6370  -0.6363  -0.6363  -0.6363  -0.6363  -0.6316  -0.6316
    -0.6208  -0.6208  -0.6117  -0.6117  -0.5914  -0.5914  -0.5819  -0.5819
    -0.5752  -0.5752  -0.5752  -0.5752  -0.5652  -0.5652  -0.5601  -0.5601
    -0.5570  -0.5570  -0.5570  -0.5570  -0.5537  -0.5537  -0.5537  -0.5537
    -0.5456  -0.5456  -0.5456  -0.5456  -0.5455  -0.5455  -0.5455  -0.5455
    -0.5220  -0.5220  -0.5220  -0.5220  -0.5172  -0.5172  -0.5172  -0.5172
    -0.5004  -0.5004  -0.4745  -0.4745  -0.4745  -0.4745  -0.4739  -0.4739
    -0.4427  -0.4427  -0.4332  -0.4332  -0.4197  -0.4197  -0.4060  -0.4060
    -0.4060  -0.4060  -0.3998  -0.3998  -0.3998  -0.3998  -0.3830  -0.3830
    -0.3368  -0.3368  -0.3242  -0.3242  -0.3194  -0.3194  -0.2542  -0.2542
    -0.2505  -0.2505  -0.2505  -0.2505  -0.2407  -0.2407  -0.2407  -0.2407
    -0.2156  -0.2156  -0.2083  -0.2083  -0.2081  -0.2081  -0.2081  -0.2081
    -0.1939  -0.1939  -0.1939  -0.1939  -0.1880  -0.1880  -0.1850  -0.1850
    -0.1849  -0.1849  -0.1849  -0.1849  -0.1840  -0.1840  -0.1760  -0.1760
    -0.1760  -0.1760  -0.1719  -0.1719  -0.1704  -0.1703  -0.1595  -0.1595
    -0.1595  -0.1594  -0.1554  -0.1554  -0.1554  -0.1554  -0.1513  -0.1513
    -0.1476  -0.1476  -0.1446  -0.1446  -0.1431  -0.1431  -0.1338  -0.1338
    -0.0382  -0.0382  -0.0223  -0.0223  -0.0223  -0.0223   0.0277   0.0277
     0.0510   0.0510   0.0510   0.0510   0.1093   0.1093   0.1159   0.1159
     0.7574   0.7574   0.7574   0.7574   1.0042   1.0042   1.0042   1.0042
     1.0391   1.0391   1.0491   1.0491   1.2053   1.2053   1.3334   1.3334
     1.3334   1.3334   1.3438   1.3439   1.6786   1.6786   1.9640   1.9640
     2.2233   2.2233   2.2233   2.2233   2.4981   2.4981   2.7665   2.7665
     2.8570   2.8570   2.8570   2.8570   2.9262   2.9262   3.0004   3.0004
     3.1187   3.1187   3.3357   3.3357   3.5247   3.5247   3.5317   3.5317
     3.5465   3.5465   3.6549   3.6549   3.6549   3.6549   3.6676   3.6676
     3.7652   3.7652   3.8925   3.8925   3.9228   3.9228   3.9228   3.9228
     4.1117   4.1117   4.1117   4.1117   4.1510   4.1511   4.1691   4.1691
     4.2612   4.2612   4.2612   4.2612   4.3143   4.3143   4.4401   4.4401
     4.4401   4.4401   4.6268   4.6268   4.6268   4.6268   4.7168   4.7168
     4.7168   4.7168   5.0321   5.0321   5.1069   5.1070   5.3079   5.3079
     8.8306   8.8306   9.4218   9.4218   9.4218   9.4218   9.5175   9.5176
     9.6611   9.6611   9.6669   9.6669   9.8732   9.8732   9.8732   9.8732
     9.8973   9.8973   9.8973   9.8973   9.9223   9.9223  10.0192  10.0192
    10.0751  10.0751  10.3906  10.3906  10.4653  10.4653  10.5204  10.5204
    10.6459  10.6459  10.6459  10.6459  10.7779  10.7779  10.9118  10.9118
    11.0648  11.0648  11.3097  11.3097  11.3097  11.3097  11.3744  11.3745
    11.3775  11.3775  11.5657  11.5658  11.5658  11.5658  11.7592  11.7592
    11.9110  11.9111

     occupation numbers 
     1.0000   1.0000   1.0000   1.0000   1.0000   1.0000   1.0000   1.0000
     1.0000   1.0000   1.0000   1.0000   1.0000   1.0000   1.0000   1.0000
     1.0000   1.0000   1.0000   1.0000   1.0000   1.0000   1.0000   1.0000
     1.0000   1.0000   1.0000   1.0000   1.0000   1.0000   1.0000   1.0000
     1.0000   1.0000   1.0000   1.0000   1.0000   1.0000   1.0000   1.0000
     1.0000   1.0000   1.0000   1.0000   1.0000   1.0000   1.0000   1.0000
     1.0000   1.0000   1.0000   1.0000   1.0000   1.0000   1.0000   1.0000
     1.0000   1.0000   1.0000   1.0000   1.0000   1.0000   1.0000   1.0000
     1.0000   1.0000   1.0000   1.0000   1.0000   1.0000   1.0000   1.0000
     1.0000   1.0000   1.0000   1.0000   1.0000   1.0000   1.0000   1.0000
     1.0000   1.0000   1.0000   1.0000   1.0000   1.0000   1.0000   1.0000
     1.0000   1.0000   1.0000   1.0000   1.0000   1.0000   1.0000   1.0000
     1.0000   1.0000   1.0000   1.0000   1.0000   1.0000   1.0000   1.0000
     1.0000   1.0000   1.0000   1.0000   1.0000   1.0000   1.0000   1.0000
     1.0000   1.0000   1.0000   1.0000   1.0000   1.0000   1.0000   1.0000
     1.0000   1.0000   1.0000   1.0000   1.0000   1.0000   1.0000   1.0000
     1.0000   1.0000   1.0000   1.0000   1.0000   1.0000   1.0000   1.0000
     1.0000   1.0000   1.0000   1.0000   1.0000   1.0000   1.0000   1.0000
     1.0000   1.0000   1.0000   1.0000   1.0000   1.0000   1.0000   1.0000
     1.0000   1.0000   1.0000   1.0000   1.0000   1.0000   1.0000   1.0000
     1.0000   1.0000   1.0000   1.0000   1.0000   1.0000   1.0000   1.0000
     1.0000   1.0000   1.0000   1.0000   1.0000   1.0000   1.0000   1.0000
     1.0000   1.0000   1.0000   1.0000   1.0000   1.0000   1.0000   1.0000
     1.0000   1.0000   1.0000   1.0000   1.0000   1.0000   1.0000   1.0000
     1.0000   1.0000   1.0000   1.0000   1.0000   1.0000   1.0000   1.0000
     1.0000   1.0000   1.0000   1.0000   1.0000   1.0000   1.0000   1.0000
     1.0000   1.0000   1.0000   1.0000   1.0000   1.0000   1.0000   1.0000
     1.0000   1.0000   1.0000   1.0000   1.0000   1.0000   1.0000   1.0000
     1.0000   1.0000   1.0000   1.0000   1.0000   1.0000   1.0000   1.0000
     1.0000   1.0000   1.0000   1.0000   1.0000   1.0000   1.0000   1.0000
     1.0000   1.0000   1.0000   1.0000   1.0000   1.0000   1.0000   1.0000
     1.0000   1.0000   1.0000   1.0000   1.0000   1.0000   1.0000   1.0000
     1.0000   1.0000   1.0000   1.0000   1.0000   1.0000   1.0000   1.0000
     1.0000   1.0000   1.0000   1.0000   1.0000   1.0000   1.0000   1.0000
     1.0000   1.0000   1.0000   1.0000   1.0000   1.0000   1.0000   1.0000
     1.0000   1.0000   1.0000   1.0000   1.0000   1.0000   1.0000   1.0000
     0.0000   0.0000   0.0000   0.0000   0.0000   0.0000   0.0000   0.0000
     0.0000   0.0000   0.0000   0.0000   0.0000   0.0000   0.0000   0.0000
     0.0000   0.0000   0.0000   0.0000   0.0000   0.0000   0.0000   0.0000
     0.0000   0.0000   0.0000   0.0000   0.0000   0.0000   0.0000   0.0000
     0.0000   0.0000   0.0000   0.0000   0.0000   0.0000   0.0000   0.0000
     0.0000   0.0000   0.0000   0.0000   0.0000   0.0000   0.0000   0.0000
     0.0000   0.0000   0.0000   0.0000   0.0000   0.0000   0.0000   0.0000
     0.0000   0.0000

          k = 0.0000-0.5000-0.5000 (256624 PWs)   bands (ev):

    -7.1762  -7.1761  -7.1761  -7.1761  -6.7542  -6.7542  -6.7542  -6.7542
    -6.7542  -6.7542  -6.7542  -6.7542  -6.4417  -6.4417  -6.4417  -6.4417
    -6.4417  -6.4417  -6.4417  -6.4417  -6.4256  -6.4256  -6.4256  -6.4256
    -6.4256  -6.4256  -6.4256  -6.4256  -6.2956  -6.2956  -6.2956  -6.2956
    -0.6658  -0.6658  -0.6658  -0.6658  -0.6303  -0.6303  -0.6303  -0.6303
    -0.6258  -0.6258  -0.6258  -0.6258  -0.6258  -0.6258  -0.6258  -0.6258
    -0.6132  -0.6132  -0.6132  -0.6132  -0.6048  -0.6048  -0.6048  -0.6048
    -0.6048  -0.6048  -0.6048  -0.6048  -0.5909  -0.5909  -0.5908  -0.5908
    -0.5508  -0.5508  -0.5508  -0.5508  -0.5508  -0.5508  -0.5508  -0.5508
    -0.5485  -0.5485  -0.5485  -0.5485  -0.5485  -0.5485  -0.5485  -0.5485
    -0.4966  -0.4966  -0.4966  -0.4966  -0.4966  -0.4966  -0.4966  -0.4966
    -0.4879  -0.4879  -0.4879  -0.4879  -0.4879  -0.4879  -0.4879  -0.4879
    -0.4484  -0.4484  -0.4484  -0.4484  -0.4484  -0.4484  -0.4484  -0.4484
    -0.4032  -0.4032  -0.4032  -0.4032  -0.3759  -0.3759  -0.3759  -0.3759
    -0.3759  -0.3759  -0.3759  -0.3759  -0.2935  -0.2935  -0.2935  -0.2935
    -0.2438  -0.2438  -0.2438  -0.2438  -0.2438  -0.2438  -0.2438  -0.2438
    -0.2090  -0.2090  -0.2090  -0.2090  -0.1923  -0.1923  -0.1922  -0.1922
    -0.1922  -0.1922  -0.1922  -0.1922  -0.1830  -0.1830  -0.1830  -0.1830
    -0.1821  -0.1821  -0.1821  -0.1821  -0.1821  -0.1820  -0.1820  -0.1820
    -0.1626  -0.1625  -0.1625  -0.1625  -0.1625  -0.1625  -0.1625  -0.1625
    -0.1604  -0.1604  -0.1604  -0.1604  -0.1495  -0.1495  -0.1495  -0.1495
    -0.1495  -0.1495  -0.1495  -0.1495  -0.0954  -0.0954  -0.0954  -0.0954
    -0.0954  -0.0954  -0.0954  -0.0954   0.0636   0.0636   0.0636   0.0636
     0.0636   0.0636   0.0636   0.0636   0.1360   0.1360   0.1360   0.1360
     0.7754   0.7754   0.7754   0.7754   0.7754   0.7754   0.7754   0.7754
     1.0209   1.0209   1.0209   1.0209   1.5374   1.5374   1.5374   1.5374
     1.5374   1.5374   1.5374   1.5374   1.7758   1.7758   1.7758   1.7758
     1.7758   1.7758   1.7758   1.7758   2.5323   2.5323   2.5323   2.5323
     3.2601   3.2601   3.2601   3.2601   3.2601   3.2601   3.2601   3.2601
     3.2670   3.2670   3.2670   3.2670   3.2670   3.2670   3.2670   3.2670
     3.5829   3.5829   3.5829   3.5829   3.6964   3.6964   3.6964   3.6964
     3.6964   3.6964   3.6964   3.6964   3.7969   3.7969   3.7969   3.7969
     4.1336   4.1336   4.1336   4.1336   4.1336   4.1336   4.1336   4.1336
     4.4455   4.4455   4.4455   4.4455   4.4456   4.4456   4.4456   4.4456
     4.5217   4.5217   4.5217   4.5217   4.5217   4.5217   4.5217   4.5217
     4.7209   4.7210   4.7210   4.7210   5.3489   5.3489   5.3489   5.3489
     9.1540   9.1541   9.1541   9.1541   9.5578   9.5578   9.5578   9.5578
     9.5578   9.5578   9.5578   9.5578   9.6788   9.6788   9.6788   9.6788
    10.1555  10.1555  10.1555  10.1555  10.1555  10.1555  10.1555  10.1555
    10.3245  10.3245  10.3245  10.3245  10.3245  10.3245  10.3246  10.3246
    10.4724  10.4724  10.4724  10.4724  10.4724  10.4724  10.4724  10.4724
    11.4429  11.4429  11.4429  11.4429  11.5070  11.5070  11.5070  11.5070
    11.5070  11.5070  11.5071  11.5071  11.6171  11.6172  11.6172  11.6172
    11.7975  11.7975

     occupation numbers 
     1.0000   1.0000   1.0000   1.0000   1.0000   1.0000   1.0000   1.0000
     1.0000   1.0000   1.0000   1.0000   1.0000   1.0000   1.0000   1.0000
     1.0000   1.0000   1.0000   1.0000   1.0000   1.0000   1.0000   1.0000
     1.0000   1.0000   1.0000   1.0000   1.0000   1.0000   1.0000   1.0000
     1.0000   1.0000   1.0000   1.0000   1.0000   1.0000   1.0000   1.0000
     1.0000   1.0000   1.0000   1.0000   1.0000   1.0000   1.0000   1.0000
     1.0000   1.0000   1.0000   1.0000   1.0000   1.0000   1.0000   1.0000
     1.0000   1.0000   1.0000   1.0000   1.0000   1.0000   1.0000   1.0000
     1.0000   1.0000   1.0000   1.0000   1.0000   1.0000   1.0000   1.0000
     1.0000   1.0000   1.0000   1.0000   1.0000   1.0000   1.0000   1.0000
     1.0000   1.0000   1.0000   1.0000   1.0000   1.0000   1.0000   1.0000
     1.0000   1.0000   1.0000   1.0000   1.0000   1.0000   1.0000   1.0000
     1.0000   1.0000   1.0000   1.0000   1.0000   1.0000   1.0000   1.0000
     1.0000   1.0000   1.0000   1.0000   1.0000   1.0000   1.0000   1.0000
     1.0000   1.0000   1.0000   1.0000   1.0000   1.0000   1.0000   1.0000
     1.0000   1.0000   1.0000   1.0000   1.0000   1.0000   1.0000   1.0000
     1.0000   1.0000   1.0000   1.0000   1.0000   1.0000   1.0000   1.0000
     1.0000   1.0000   1.0000   1.0000   1.0000   1.0000   1.0000   1.0000
     1.0000   1.0000   1.0000   1.0000   1.0000   1.0000   1.0000   1.0000
     1.0000   1.0000   1.0000   1.0000   1.0000   1.0000   1.0000   1.0000
     1.0000   1.0000   1.0000   1.0000   1.0000   1.0000   1.0000   1.0000
     1.0000   1.0000   1.0000   1.0000   1.0000   1.0000   1.0000   1.0000
     1.0000   1.0000   1.0000   1.0000   1.0000   1.0000   1.0000   1.0000
     1.0000   1.0000   1.0000   1.0000   1.0000   1.0000   1.0000   1.0000
     1.0000   1.0000   1.0000   1.0000   1.0000   1.0000   1.0000   1.0000
     1.0000   1.0000   1.0000   1.0000   1.0000   1.0000   1.0000   1.0000
     1.0000   1.0000   1.0000   1.0000   1.0000   1.0000   1.0000   1.0000
     1.0000   1.0000   1.0000   1.0000   1.0000   1.0000   1.0000   1.0000
     1.0000   1.0000   1.0000   1.0000   1.0000   1.0000   1.0000   1.0000
     1.0000   1.0000   1.0000   1.0000   1.0000   1.0000   1.0000   1.0000
     1.0000   1.0000   1.0000   1.0000   1.0000   1.0000   1.0000   1.0000
     1.0000   1.0000   1.0000   1.0000   1.0000   1.0000   1.0000   1.0000
     1.0000   1.0000   1.0000   1.0000   1.0000   1.0000   1.0000   1.0000
     1.0000   1.0000   1.0000   1.0000   1.0000   1.0000   1.0000   1.0000
     1.0000   1.0000   1.0000   1.0000   1.0000   1.0000   1.0000   1.0000
     1.0000   1.0000   1.0000   1.0000   1.0000   1.0000   1.0000   1.0000
     0.0000   0.0000   0.0000   0.0000   0.0000   0.0000   0.0000   0.0000
     0.0000   0.0000   0.0000   0.0000   0.0000   0.0000   0.0000   0.0000
     0.0000   0.0000   0.0000   0.0000   0.0000   0.0000   0.0000   0.0000
     0.0000   0.0000   0.0000   0.0000   0.0000   0.0000   0.0000   0.0000
     0.0000   0.0000   0.0000   0.0000   0.0000   0.0000   0.0000   0.0000
     0.0000   0.0000   0.0000   0.0000   0.0000   0.0000   0.0000   0.0000
     0.0000   0.0000   0.0000   0.0000   0.0000   0.0000   0.0000   0.0000
     0.0000   0.0000

          k = 0.2500 0.2500 0.2500 (256546 PWs)   bands (ev):

    -7.3497  -7.0782  -7.0782  -7.0782  -6.8651  -6.8651  -6.8651  -6.7242
[...]
     1.0000   1.0000   1.0000   1.0000   1.0000   1.0000   1.0000   1.0000
     1.0000   1.0000   1.0000   1.0000   1.0000   1.0000   1.0000   1.0000
     1.0000   1.0000   1.0000   1.0000   1.0000   1.0000   1.0000   1.0000
     1.0000   1.0000   1.0000   1.0000   1.0000   1.0000   1.0000   1.0000
     1.0000   1.0000   1.0000   1.0000   1.0000   1.0000   1.0000   1.0000
     1.0000   1.0000   1.0000   1.0000   1.0000   1.0000   1.0000   1.0000
     1.0000   1.0000   1.0000   1.0000   1.0000   1.0000   1.0000   1.0000
     1.0000   1.0000   1.0000   1.0000   1.0000   1.0000   1.0000   1.0000
     1.0000   1.0000   1.0000   1.0000   1.0000   1.0000   1.0000   1.0000
     1.0000   1.0000   1.0000   1.0000   1.0000   1.0000   1.0000   1.0000
     1.0000   1.0000   1.0000   1.0000   1.0000   1.0000   1.0000   1.0000
     1.0000   1.0000   1.0000   1.0000   1.0000   1.0000   1.0000   1.0000
     1.0000   1.0000   1.0000   1.0000   1.0000   1.0000   1.0000   1.0000
     1.0000   1.0000   1.0000   1.0000   1.0000   1.0000   1.0000   1.0000
     1.0000   1.0000   1.0000   1.0000   1.0000   1.0000   1.0000   1.0000
     1.0000   1.0000   1.0000   1.0000   1.0000   1.0000   1.0000   1.0000
     1.0000   1.0000   1.0000   1.0000   1.0000   1.0000   1.0000   1.0000
     1.0000   1.0000   1.0000   1.0000   1.0000   1.0000   1.0000   1.0000
     1.0000   1.0000   1.0000   1.0000   1.0000   1.0000   1.0000   1.0000
     0.0000   0.0000   0.0000   0.0000   0.0000   0.0000   0.0000   0.0000
     0.0000   0.0000   0.0000   0.0000   0.0000   0.0000   0.0000   0.0000
     0.0000   0.0000   0.0000   0.0000   0.0000   0.0000   0.0000   0.0000
     0.0000   0.0000   0.0000   0.0000   0.0000   0.0000   0.0000   0.0000
     0.0000   0.0000   0.0000   0.0000   0.0000   0.0000   0.0000   0.0000
     0.0000   0.0000   0.0000   0.0000   0.0000   0.0000   0.0000   0.0000
     0.0000   0.0000   0.0000   0.0000   0.0000   0.0000   0.0000   0.0000
     0.0000   0.0000

          k = 0.2500-0.5000-0.5000 (256480 PWs)   bands (ev):

    -7.1453  -7.1453  -7.1453  -7.1452  -6.9199  -6.9199  -6.9199  -6.9199
    -6.5830  -6.5830  -6.5830  -6.5830  -6.4394  -6.4394  -6.4394  -6.4394
    -6.4394  -6.4394  -6.4394  -6.4394  -6.4280  -6.4280  -6.4279  -6.4279
    -6.4279  -6.4279  -6.4279  -6.4279  -6.3318  -6.3317  -6.3317  -6.3317
    -0.6555  -0.6555  -0.6554  -0.6554  -0.6255  -0.6255  -0.6255  -0.6255
    -0.6157  -0.6157  -0.6157  -0.6157  -0.6157  -0.6157  -0.6157  -0.6157
    -0.6132  -0.6132  -0.6132  -0.6132  -0.6116  -0.6115  -0.6115  -0.6115
    -0.5968  -0.5968  -0.5968  -0.5968  -0.5905  -0.5905  -0.5905  -0.5905
    -0.5850  -0.5850  -0.5850  -0.5850  -0.5654  -0.5654  -0.5654  -0.5654
    -0.5652  -0.5652  -0.5652  -0.5652  -0.5652  -0.5652  -0.5652  -0.5652
    -0.5036  -0.5036  -0.5036  -0.5036  -0.4816  -0.4816  -0.4816  -0.4816
    -0.4815  -0.4815  -0.4815  -0.4815  -0.4458  -0.4458  -0.4458  -0.4458
    -0.4458  -0.4458  -0.4458  -0.4458  -0.4185  -0.4185  -0.4185  -0.4185
    -0.4050  -0.4050  -0.4050  -0.4050  -0.3749  -0.3749  -0.3749  -0.3749
    -0.3749  -0.3748  -0.3748  -0.3748  -0.3076  -0.3076  -0.3076  -0.3076
    -0.2835  -0.2835  -0.2835  -0.2835  -0.2835  -0.2835  -0.2835  -0.2835
    -0.2046  -0.2046  -0.2046  -0.2046  -0.1990  -0.1990  -0.1990  -0.1990
    -0.1857  -0.1857  -0.1857  -0.1857  -0.1770  -0.1770  -0.1770  -0.1770
    -0.1662  -0.1662  -0.1662  -0.1662  -0.1662  -0.1662  -0.1662  -0.1662
    -0.1572  -0.1572  -0.1572  -0.1572  -0.1536  -0.1536  -0.1536  -0.1536
    -0.1486  -0.1486  -0.1486  -0.1486  -0.1486  -0.1486  -0.1486  -0.1486
    -0.1448  -0.1448  -0.1448  -0.1448  -0.0797  -0.0797  -0.0797  -0.0797
    -0.0797  -0.0796  -0.0796  -0.0796   0.0265   0.0265   0.0265   0.0265
     0.0265   0.0265   0.0265   0.0265   0.0861   0.0861   0.0861   0.0861
     0.8948   0.8948   0.8948   0.8948   0.8948   0.8948   0.8948   0.8948
     1.0410   1.0410   1.0410   1.0410   1.4112   1.4112   1.4112   1.4112
     1.4238   1.4238   1.4238   1.4238   1.4238   1.4238   1.4238   1.4238
     2.2351   2.2351   2.2351   2.2351   2.7311   2.7311   2.7311   2.7311
     3.2277   3.2277   3.2277   3.2277   3.2277   3.2277   3.2277   3.2277
     3.2483   3.2483   3.2483   3.2483   3.2483   3.2483   3.2483   3.2483
     3.2930   3.2930   3.2930   3.2930   3.8163   3.8163   3.8163   3.8163
     3.8163   3.8163   3.8163   3.8163   3.8326   3.8326   3.8326   3.8326
     3.8496   3.8496   3.8496   3.8496   4.1071   4.1071   4.1071   4.1071
     4.1071   4.1071   4.1071   4.1071   4.2353   4.2353   4.2353   4.2353
     4.8228   4.8228   4.8229   4.8229   4.9165   4.9165   4.9165   4.9165
     4.9212   4.9212   4.9212   4.9212   5.2809   5.2809   5.2809   5.2809
     9.0362   9.0362   9.0362   9.0362   9.1463   9.1463   9.1463   9.1463
     9.7350   9.7350   9.7350   9.7350   9.8577   9.8577   9.8577   9.8577
     9.9098   9.9098   9.9098   9.9098   9.9098   9.9098   9.9098   9.9098
    10.0967  10.0967  10.0967  10.0967  10.0967  10.0967  10.0967  10.0967
    10.9150  10.9150  10.9150  10.9150  10.9150  10.9150  10.9150  10.9150
    11.4500  11.4500  11.4500  11.4500  11.5284  11.5284  11.5285  11.5285
    11.6420  11.6420  11.6421  11.6421  11.6421  11.6421  11.6421  11.6421
    11.8823  11.8826

     occupation numbers 
     1.0000   1.0000   1.0000   1.0000   1.0000   1.0000   1.0000   1.0000
     1.0000   1.0000   1.0000   1.0000   1.0000   1.0000   1.0000   1.0000
     1.0000   1.0000   1.0000   1.0000   1.0000   1.0000   1.0000   1.0000
     1.0000   1.0000   1.0000   1.0000   1.0000   1.0000   1.0000   1.0000
     1.0000   1.0000   1.0000   1.0000   1.0000   1.0000   1.0000   1.0000
     1.0000   1.0000   1.0000   1.0000   1.0000   1.0000   1.0000   1.0000
     1.0000   1.0000   1.0000   1.0000   1.0000   1.0000   1.0000   1.0000
     1.0000   1.0000   1.0000   1.0000   1.0000   1.0000   1.0000   1.0000
     1.0000   1.0000   1.0000   1.0000   1.0000   1.0000   1.0000   1.0000
     1.0000   1.0000   1.0000   1.0000   1.0000   1.0000   1.0000   1.0000
     1.0000   1.0000   1.0000   1.0000   1.0000   1.0000   1.0000   1.0000
     1.0000   1.0000   1.0000   1.0000   1.0000   1.0000   1.0000   1.0000
     1.0000   1.0000   1.0000   1.0000   1.0000   1.0000   1.0000   1.0000
     1.0000   1.0000   1.0000   1.0000   1.0000   1.0000   1.0000   1.0000
     1.0000   1.0000   1.0000   1.0000   1.0000   1.0000   1.0000   1.0000
     1.0000   1.0000   1.0000   1.0000   1.0000   1.0000   1.0000   1.0000
     1.0000   1.0000   1.0000   1.0000   1.0000   1.0000   1.0000   1.0000
     1.0000   1.0000   1.0000   1.0000   1.0000   1.0000   1.0000   1.0000
     1.0000   1.0000   1.0000   1.0000   1.0000   1.0000   1.0000   1.0000
     1.0000   1.0000   1.0000   1.0000   1.0000   1.0000   1.0000   1.0000
     1.0000   1.0000   1.0000   1.0000   1.0000   1.0000   1.0000   1.0000
     1.0000   1.0000   1.0000   1.0000   1.0000   1.0000   1.0000   1.0000
     1.0000   1.0000   1.0000   1.0000   1.0000   1.0000   1.0000   1.0000
     1.0000   1.0000   1.0000   1.0000   1.0000   1.0000   1.0000   1.0000
     1.0000   1.0000   1.0000   1.0000   1.0000   1.0000   1.0000   1.0000
     1.0000   1.0000   1.0000   1.0000   1.0000   1.0000   1.0000   1.0000
     1.0000   1.0000   1.0000   1.0000   1.0000   1.0000   1.0000   1.0000
     1.0000   1.0000   1.0000   1.0000   1.0000   1.0000   1.0000   1.0000
     1.0000   1.0000   1.0000   1.0000   1.0000   1.0000   1.0000   1.0000
     1.0000   1.0000   1.0000   1.0000   1.0000   1.0000   1.0000   1.0000
     1.0000   1.0000   1.0000   1.0000   1.0000   1.0000   1.0000   1.0000
     1.0000   1.0000   1.0000   1.0000   1.0000   1.0000   1.0000   1.0000
     1.0000   1.0000   1.0000   1.0000   1.0000   1.0000   1.0000   1.0000
     1.0000   1.0000   1.0000   1.0000   1.0000   1.0000   1.0000   1.0000
     1.0000   1.0000   1.0000   1.0000   1.0000   1.0000   1.0000   1.0000
     1.0000   1.0000   1.0000   1.0000   1.0000   1.0000   1.0000   1.0000
     0.0000   0.0000   0.0000   0.0000   0.0000   0.0000   0.0000   0.0000
     0.0000   0.0000   0.0000   0.0000   0.0000   0.0000   0.0000   0.0000
     0.0000   0.0000   0.0000   0.0000   0.0000   0.0000   0.0000   0.0000
     0.0000   0.0000   0.0000   0.0000   0.0000   0.0000   0.0000   0.0000
     0.0000   0.0000   0.0000   0.0000   0.0000   0.0000   0.0000   0.0000
     0.0000   0.0000   0.0000   0.0000   0.0000   0.0000   0.0000   0.0000
     0.0000   0.0000   0.0000   0.0000   0.0000   0.0000   0.0000   0.0000
     0.0000   0.0000

          k =-0.5000-0.5000-0.5000 (256456 PWs)   bands (ev):

    -7.0563  -7.0562  -7.0562  -7.0562  -7.0562  -7.0562  -7.0562  -7.0562
    -6.4337  -6.4337  -6.4337  -6.4337  -6.4337  -6.4337  -6.4337  -6.4337
    -6.4337  -6.4337  -6.4337  -6.4337  -6.4337  -6.4337  -6.4337  -6.4337
    -6.4337  -6.4337  -6.4337  -6.4337  -6.4337  -6.4336  -6.4336  -6.4336
    -0.6251  -0.6251  -0.6251  -0.6251  -0.6251  -0.6251  -0.6251  -0.6250
    -0.6107  -0.6107  -0.6107  -0.6107  -0.6107  -0.6107  -0.6107  -0.6107
    -0.6107  -0.6107  -0.6107  -0.6107  -0.6107  -0.6107  -0.6107  -0.6107
    -0.5916  -0.5916  -0.5916  -0.5916  -0.5916  -0.5916  -0.5916  -0.5916
    -0.5915  -0.5915  -0.5915  -0.5915  -0.5915  -0.5915  -0.5915  -0.5915
    -0.5915  -0.5915  -0.5915  -0.5915  -0.5915  -0.5915  -0.5915  -0.5915
    -0.4567  -0.4567  -0.4567  -0.4567  -0.4567  -0.4567  -0.4567  -0.4567
    -0.4567  -0.4567  -0.4567  -0.4567  -0.4567  -0.4567  -0.4567  -0.4567
    -0.4567  -0.4567  -0.4567  -0.4567  -0.4567  -0.4567  -0.4567  -0.4567
    -0.3447  -0.3447  -0.3447  -0.3447  -0.3447  -0.3447  -0.3447  -0.3447
    -0.3447  -0.3447  -0.3447  -0.3447  -0.3447  -0.3447  -0.3447  -0.3447
    -0.3447  -0.3447  -0.3447  -0.3447  -0.3447  -0.3447  -0.3447  -0.3447
    -0.1927  -0.1927  -0.1927  -0.1927  -0.1927  -0.1927  -0.1927  -0.1927
    -0.1927  -0.1927  -0.1926  -0.1926  -0.1926  -0.1926  -0.1926  -0.1926
    -0.1525  -0.1525  -0.1525  -0.1525  -0.1525  -0.1525  -0.1525  -0.1525
    -0.1525  -0.1525  -0.1525  -0.1525  -0.1525  -0.1525  -0.1525  -0.1525
    -0.1525  -0.1525  -0.1525  -0.1525  -0.1525  -0.1525  -0.1525  -0.1525
    -0.0349  -0.0349  -0.0349  -0.0349  -0.0349  -0.0349  -0.0349  -0.0349
    -0.0349  -0.0349  -0.0349  -0.0349  -0.0349  -0.0349  -0.0349  -0.0349
    -0.0349  -0.0349  -0.0349  -0.0349  -0.0349  -0.0349  -0.0349  -0.0349
     1.1605   1.1605   1.1605   1.1605   1.1605   1.1605   1.1605   1.1605
     1.1605   1.1605   1.1605   1.1605   1.1605   1.1605   1.1605   1.1605
     1.1605   1.1605   1.1605   1.1605   1.1605   1.1605   1.1605   1.1605
     2.7629   2.7629   2.7629   2.7629   2.7629   2.7629   2.7629   2.7629
     3.2189   3.2189   3.2189   3.2189   3.2189   3.2189   3.2189   3.2189
     3.2189   3.2189   3.2189   3.2189   3.2189   3.2189   3.2189   3.2189
     3.2189   3.2189   3.2189   3.2189   3.2189   3.2189   3.2189   3.2189
     4.0017   4.0017   4.0017   4.0017   4.0017   4.0017   4.0017   4.0017
     4.0017   4.0017   4.0017   4.0017   4.0017   4.0017   4.0017   4.0017
     4.0017   4.0017   4.0017   4.0017   4.0018   4.0018   4.0018   4.0018
     5.0922   5.0922   5.0922   5.0922   5.0922   5.0922   5.0922   5.0922
     5.0923   5.0923   5.0923   5.0923   5.0923   5.0923   5.0923   5.0923
     8.9406   8.9406   8.9406   8.9406   8.9406   8.9406   8.9406   8.9406
     9.8557   9.8557   9.8557   9.8557   9.8557   9.8557   9.8558   9.8558
     9.8558   9.8558   9.8558   9.8558   9.8558   9.8558   9.8558   9.8558
     9.8558   9.8558   9.8558   9.8558   9.8558   9.8558   9.8558   9.8558
    11.4620  11.4620  11.4620  11.4620  11.4620  11.4620  11.4620  11.4620
    11.4620  11.4620  11.4620  11.4620  11.4620  11.4620  11.4620  11.4620
    11.4620  11.4620  11.4620  11.4620  11.4620  11.4620  11.4620  11.4620
    12.4105  12.4105

     occupation numbers 
     1.0000   1.0000   1.0000   1.0000   1.0000   1.0000   1.0000   1.0000
     1.0000   1.0000   1.0000   1.0000   1.0000   1.0000   1.0000   1.0000
     1.0000   1.0000   1.0000   1.0000   1.0000   1.0000   1.0000   1.0000
     1.0000   1.0000   1.0000   1.0000   1.0000   1.0000   1.0000   1.0000
     1.0000   1.0000   1.0000   1.0000   1.0000   1.0000   1.0000   1.0000
     1.0000   1.0000   1.0000   1.0000   1.0000   1.0000   1.0000   1.0000
     1.0000   1.0000   1.0000   1.0000   1.0000   1.0000   1.0000   1.0000
     1.0000   1.0000   1.0000   1.0000   1.0000   1.0000   1.0000   1.0000
     1.0000   1.0000   1.0000   1.0000   1.0000   1.0000   1.0000   1.0000
     1.0000   1.0000   1.0000   1.0000   1.0000   1.0000   1.0000   1.0000
     1.0000   1.0000   1.0000   1.0000   1.0000   1.0000   1.0000   1.0000
     1.0000   1.0000   1.0000   1.0000   1.0000   1.0000   1.0000   1.0000
     1.0000   1.0000   1.0000   1.0000   1.0000   1.0000   1.0000   1.0000
     1.0000   1.0000   1.0000   1.0000   1.0000   1.0000   1.0000   1.0000
     1.0000   1.0000   1.0000   1.0000   1.0000   1.0000   1.0000   1.0000
     1.0000   1.0000   1.0000   1.0000   1.0000   1.0000   1.0000   1.0000
     1.0000   1.0000   1.0000   1.0000   1.0000   1.0000   1.0000   1.0000
     1.0000   1.0000   1.0000   1.0000   1.0000   1.0000   1.0000   1.0000
     1.0000   1.0000   1.0000   1.0000   1.0000   1.0000   1.0000   1.0000
     1.0000   1.0000   1.0000   1.0000   1.0000   1.0000   1.0000   1.0000
     1.0000   1.0000   1.0000   1.0000   1.0000   1.0000   1.0000   1.0000
     1.0000   1.0000   1.0000   1.0000   1.0000   1.0000   1.0000   1.0000
     1.0000   1.0000   1.0000   1.0000   1.0000   1.0000   1.0000   1.0000
     1.0000   1.0000   1.0000   1.0000   1.0000   1.0000   1.0000   1.0000
     1.0000   1.0000   1.0000   1.0000   1.0000   1.0000   1.0000   1.0000
     1.0000   1.0000   1.0000   1.0000   1.0000   1.0000   1.0000   1.0000
     1.0000   1.0000   1.0000   1.0000   1.0000   1.0000   1.0000   1.0000
     1.0000   1.0000   1.0000   1.0000   1.0000   1.0000   1.0000   1.0000
     1.0000   1.0000   1.0000   1.0000   1.0000   1.0000   1.0000   1.0000
     1.0000   1.0000   1.0000   1.0000   1.0000   1.0000   1.0000   1.0000
     1.0000   1.0000   1.0000   1.0000   1.0000   1.0000   1.0000   1.0000
     1.0000   1.0000   1.0000   1.0000   1.0000   1.0000   1.0000   1.0000
     1.0000   1.0000   1.0000   1.0000   1.0000   1.0000   1.0000   1.0000
     1.0000   1.0000   1.0000   1.0000   1.0000   1.0000   1.0000   1.0000
     1.0000   1.0000   1.0000   1.0000   1.0000   1.0000   1.0000   1.0000
     1.0000   1.0000   1.0000   1.0000   1.0000   1.0000   1.0000   1.0000
     0.0000   0.0000   0.0000   0.0000   0.0000   0.0000   0.0000   0.0000
     0.0000   0.0000   0.0000   0.0000   0.0000   0.0000   0.0000   0.0000
     0.0000   0.0000   0.0000   0.0000   0.0000   0.0000   0.0000   0.0000
     0.0000   0.0000   0.0000   0.0000   0.0000   0.0000   0.0000   0.0000
     0.0000   0.0000   0.0000   0.0000   0.0000   0.0000   0.0000   0.0000
     0.0000   0.0000   0.0000   0.0000   0.0000   0.0000   0.0000   0.0000
     0.0000   0.0000   0.0000   0.0000   0.0000   0.0000   0.0000   0.0000
     0.0000   0.0000

     the Fermi energy is     6.2513 ev

!    total energy              =   -9924.38132205 Ry
     total all-electron energy =   -140500.321910 Ry
     estimated scf accuracy    <          6.8E-09 Ry
     smearing contrib. (-TS)   =      -0.00000000 Ry
     internal energy E=F+TS    =   -9924.38132205 Ry

     The total energy is F=E-TS. E is the sum of the following terms:
     one-electron contribution =   -2754.08589557 Ry
     hartree contribution      =    1961.34449084 Ry
     xc contribution           =   -1674.73073528 Ry
     ewald contribution        =   -2927.19643238 Ry
     one-center paw contrib.   =   -4529.71274966 Ry
      -> PAW hartree energy AE =     123.27617095 Ry
      -> PAW hartree energy PS =    -122.63430603 Ry
      -> PAW xc energy AE      =    -143.20932220 Ry
      -> PAW xc energy PS      =      47.14792624 Ry
      -> total E_H with PAW    =    1961.98635576 Ry
      -> total E_XC with PAW   =   -1770.79213123 Ry

     total magnetization       =     0.00 Bohr mag/cell
     absolute magnetization    =     0.00 Bohr mag/cell

     convergence has been achieved in  10 iterations
 
     init_run     :      6.48s CPU      8.33s WALL (       1 calls)
     electrons    :    119.88s CPU    126.41s WALL (       1 calls)

     Called by init_run:
     wfcinit      :      4.40s CPU      5.84s WALL (       1 calls)
     wfcinit:atom :      0.02s CPU      0.02s WALL (       2 calls)
     wfcinit:wfcr :      4.29s CPU      4.45s WALL (       2 calls)
     potinit      :      0.57s CPU      0.69s WALL (       1 calls)
     hinit0       :      0.33s CPU      0.40s WALL (       1 calls)

     Called by electrons:
     c_bands      :    108.37s CPU    111.04s WALL (      11 calls)
     sum_band     :      9.15s CPU      9.26s WALL (      11 calls)
     v_of_rho     :      0.89s CPU      0.96s WALL (      11 calls)
     v_h          :      0.03s CPU      0.04s WALL (      11 calls)
     v_xc         :      0.85s CPU      0.92s WALL (      11 calls)
     newd         :      0.24s CPU      0.26s WALL (      11 calls)
     PAW_pot      :      0.98s CPU      1.00s WALL (      11 calls)
     mix_rho      :      0.21s CPU      0.22s WALL (      11 calls)

     Called by c_bands:
     init_us_2    :      1.24s CPU      1.25s WALL (      46 calls)
     init_us_2:cp :      1.24s CPU      1.25s WALL (      46 calls)
     cegterg      :     91.62s CPU     92.90s WALL (      22 calls)

     Called by sum_band:
     sum_band:wei :      0.01s CPU      0.02s WALL (      11 calls)
     sum_band:loo :      8.16s CPU      8.24s WALL (      11 calls)
     sum_band:buf :      0.18s CPU      0.20s WALL (      22 calls)
     sum_band:ini :      0.60s CPU      0.61s WALL (      22 calls)
     sum_band:cal :      2.98s CPU      3.00s WALL (      22 calls)
     sum_band:bec :      0.09s CPU      0.09s WALL (      22 calls)
     addusdens    :      0.34s CPU      0.35s WALL (      11 calls)
                                        0.00s GPU  (      11 calls)
     addusd:skk   :      0.01s CPU      0.01s WALL (      22 calls)
                                        0.00s GPU  (      22 calls)

     Called by *egterg:
     cdiaghg      :     12.16s CPU     12.25s WALL (     184 calls)
     cegterg:over :      7.19s CPU      7.24s WALL (     164 calls)
     cegterg:upda :      6.80s CPU      6.86s WALL (     164 calls)
     cegterg:last :     10.20s CPU     10.27s WALL (      48 calls)
     cdiaghg:chol :      0.76s CPU      0.76s WALL (     184 calls)
     cdiaghg:inve :      1.13s CPU      1.15s WALL (     184 calls)
     cdiaghg:para :      1.97s CPU      1.98s WALL (     368 calls)
     h_psi        :     46.63s CPU     47.36s WALL (     188 calls)
     s_psi        :      9.94s CPU     10.00s WALL (     188 calls)
     g_psi        :      0.24s CPU      0.24s WALL (     164 calls)

     Called by h_psi:
     h_psi:calbec :      9.89s CPU      9.97s WALL (     188 calls)
     vloc_psi     :     26.00s CPU     26.29s WALL (     188 calls)
     add_vuspsi   :     10.33s CPU     10.46s WALL (     188 calls)

     General routines
     calbec       :     12.87s CPU     12.97s WALL (     210 calls)
     fft          :      0.79s CPU      0.95s WALL (     231 calls)
     ffts         :      0.04s CPU      0.04s WALL (      22 calls)
     fftw         :     28.17s CPU     28.48s WALL (   50146 calls)
 
     Parallel routines

     PAW routines
     PAW_pot      :      0.98s CPU      1.00s WALL (      11 calls)
     PAW_symme    :      0.09s CPU      0.09s WALL (      22 calls)
 
     PWSCF        :   2m14.18s CPU   2m42.72s WALL

 
   This run was terminated on:  12:20:46  25Jun2024            

=------------------------------------------------------------------------------=
   JOB DONE.
=------------------------------------------------------------------------------=
