### Running on host: orfoz384

     Program PWSCF v.7.2 starts on 25Jun2024 at 12:10:14 

     This program is part of the open-source Quantum ESPRESSO suite
     for quantum simulation of materials; please cite
         "P. Giannozzi et al., J. Phys.:Condens. Matter 21 395502 (2009);
         "P. Giannozzi et al., J. Phys.:Condens. Matter 29 465901 (2017);
         "P. Giannozzi et al., J. Chem. Phys. 152 154105 (2020);
          URL http://www.quantum-espresso.org", 
     in publications or presentations arising from this work. More details at
     http://www.quantum-espresso.org/quote

     Parallel version (MPI), running on  1120 processors

     MPI processes distributed on    10 nodes
     221092 MiB available memory on the printing compute node when the environment starts
 
     Reading input from scf.115.in

     Current dimensions of program PWSCF are:
     Max number of different atomic species (ntypx) = 10
     Max number of k-points (npk) =  40000
     Max angular momentum in pseudopotentials (lmaxx) =  4
     file S.pbe-n-kjpaw_psl.1.0.0.UPF: wavefunction(s)  3S 3P renormalized
     file Zn.pbe-dnl-kjpaw_psl.1.0.0.UPF: wavefunction(s)  4S 3D renormalized
     Found identity + (  0.0000  0.2500  0.2500) symmetry
     This is a supercell, fractional translations are disabled
 
     K-points division:     npool     =      10
     R & G space division:  proc/nbgrp/npool/nimage =     112
     Subspace diagonalization in iterative solution of the eigenvalue problem:
     one sub-group per band group will be used
     scalapack distributed-memory algorithm (size of sub-group:  3*  3 procs)

 
     Parallelization info
     --------------------
     sticks:   dense  smooth     PW     G-vecs:    dense   smooth      PW
     Min         138     138     36                12938    12938    1736
     Max         139     139     37                12943    12943    1742
     Sum       15477   15477   4049              1449345  1449345  194831
 
     Using Slab Decomposition
 


     bravais-lattice index     =            1
     lattice parameter (alat)  =      20.5686  a.u.
     unit-cell volume          =    8701.8677 (a.u.)^3
     number of atoms/cell      =           64
     number of atomic types    =            2
     number of electrons       =       576.00
     number of Kohn-Sham states=          346
     kinetic-energy cutoff     =     115.0000  Ry
     charge density cutoff     =     460.0000  Ry
     scf convergence threshold =      1.0E-08
     mixing beta               =       0.7000
     number of iterations used =            8  plain     mixing
     Exchange-correlation= SLA  PW   PBX  PBC
                           (   1   4   3   4   0   0   0)

     celldm(1)=  20.568573  celldm(2)=   0.000000  celldm(3)=   0.000000
     celldm(4)=   0.000000  celldm(5)=   0.000000  celldm(6)=   0.000000

     crystal axes: (cart. coord. in units of alat)
               a(1) = (   1.000000   0.000000   0.000000 )  
               a(2) = (   0.000000   1.000000   0.000000 )  
               a(3) = (   0.000000   0.000000   1.000000 )  

     reciprocal axes: (cart. coord. in units 2 pi/alat)
               b(1) = (  1.000000  0.000000  0.000000 )  
               b(2) = (  0.000000  1.000000  0.000000 )  
               b(3) = (  0.000000  0.000000  1.000000 )  


     PseudoPot. # 1 for S  read from file:
     /arf/home/amuhaymin/pseudo/S.pbe-n-kjpaw_psl.1.0.0.UPF
     MD5 check sum: fb45dfebcf3e72a4e1bd4a866ec2e262
     Pseudo is Projector augmented-wave + core cor, Zval =  6.0
     Generated using &quot;atomic&quot; code by A. Dal Corso  v.6.3
     Shape of augmentation charge: PSQ
     Using radial grid of 1151 points,  6 beta functions with: 
                l(1) =   0
                l(2) =   0
                l(3) =   1
                l(4) =   1
                l(5) =   2
                l(6) =   2
     Q(r) pseudized with 0 coefficients 


     PseudoPot. # 2 for Zn read from file:
     /arf/home/amuhaymin/pseudo/Zn.pbe-dnl-kjpaw_psl.1.0.0.UPF
     MD5 check sum: c608214d9520ac179f507641260889e3
     Pseudo is Projector augmented-wave + core cor, Zval = 12.0
     Generated using &quot;atomic&quot; code by A. Dal Corso  v.6.2.2
     Shape of augmentation charge: PSQ
     Using radial grid of 1201 points,  6 beta functions with: 
                l(1) =   0
                l(2) =   0
                l(3) =   1
                l(4) =   1
                l(5) =   2
                l(6) =   2
     Q(r) pseudized with 0 coefficients 


     atomic species   valence    mass     pseudopotential
        S              6.00    32.06500     S ( 1.00)
        Zn            12.00    65.38000     Zn( 1.00)

     Starting magnetic structure 
     atomic species   magnetization
        S            0.000
        Zn           0.000

     24 Sym. Ops. (no inversion) found


                                    s                        frac. trans.

      isym =  1     identity                                     

 cryst.   s( 1) = (     1          0          0      )
                  (     0          1          0      )
                  (     0          0          1      )

 cart.    s( 1) = (  1.0000000  0.0000000  0.0000000 )
                  (  0.0000000  1.0000000  0.0000000 )
                  (  0.0000000  0.0000000  1.0000000 )


      isym =  2     180 deg rotation - cart. axis [0,0,1]        

 cryst.   s( 2) = (    -1          0          0      )
                  (     0         -1          0      )
                  (     0          0          1      )

 cart.    s( 2) = ( -1.0000000  0.0000000  0.0000000 )
                  (  0.0000000 -1.0000000  0.0000000 )
                  (  0.0000000  0.0000000  1.0000000 )


      isym =  3     180 deg rotation - cart. axis [0,1,0]        

 cryst.   s( 3) = (    -1          0          0      )
                  (     0          1          0      )
                  (     0          0         -1      )

 cart.    s( 3) = ( -1.0000000  0.0000000  0.0000000 )
                  (  0.0000000  1.0000000  0.0000000 )
                  (  0.0000000  0.0000000 -1.0000000 )


      isym =  4     180 deg rotation - cart. axis [1,0,0]        

 cryst.   s( 4) = (     1          0          0      )
                  (     0         -1          0      )
                  (     0          0         -1      )

 cart.    s( 4) = (  1.0000000  0.0000000  0.0000000 )
                  (  0.0000000 -1.0000000  0.0000000 )
                  (  0.0000000  0.0000000 -1.0000000 )


      isym =  5     120 deg rotation - cart. axis [-1,-1,-1]     

 cryst.   s( 5) = (     0          0          1      )
                  (     1          0          0      )
                  (     0          1          0      )

 cart.    s( 5) = (  0.0000000  1.0000000  0.0000000 )
                  (  0.0000000  0.0000000  1.0000000 )
                  (  1.0000000  0.0000000  0.0000000 )


      isym =  6     120 deg rotation - cart. axis [-1,1,1]       

 cryst.   s( 6) = (     0          0         -1      )
                  (    -1          0          0      )
                  (     0          1          0      )

 cart.    s( 6) = (  0.0000000 -1.0000000  0.0000000 )
                  (  0.0000000  0.0000000  1.0000000 )
                  ( -1.0000000  0.0000000  0.0000000 )


      isym =  7     120 deg rotation - cart. axis [1,1,-1]       

 cryst.   s( 7) = (     0          0         -1      )
                  (     1          0          0      )
                  (     0         -1          0      )

 cart.    s( 7) = (  0.0000000  1.0000000  0.0000000 )
                  (  0.0000000  0.0000000 -1.0000000 )
                  ( -1.0000000  0.0000000  0.0000000 )


      isym =  8     120 deg rotation - cart. axis [1,-1,1]       

 cryst.   s( 8) = (     0          0          1      )
                  (    -1          0          0      )
                  (     0         -1          0      )

 cart.    s( 8) = (  0.0000000 -1.0000000  0.0000000 )
                  (  0.0000000  0.0000000 -1.0000000 )
                  (  1.0000000  0.0000000  0.0000000 )


      isym =  9     120 deg rotation - cart. axis [1,1,1]        

 cryst.   s( 9) = (     0          1          0      )
                  (     0          0          1      )
                  (     1          0          0      )

 cart.    s( 9) = (  0.0000000  0.0000000  1.0000000 )
                  (  1.0000000  0.0000000  0.0000000 )
                  (  0.0000000  1.0000000  0.0000000 )


      isym = 10     120 deg rotation - cart. axis [-1,1,-1]      

 cryst.   s(10) = (     0         -1          0      )
                  (     0          0         -1      )
                  (     1          0          0      )

 cart.    s(10) = (  0.0000000  0.0000000  1.0000000 )
                  ( -1.0000000  0.0000000  0.0000000 )
                  (  0.0000000 -1.0000000  0.0000000 )


      isym = 11     120 deg rotation - cart. axis [1,-1,-1]      

 cryst.   s(11) = (     0         -1          0      )
                  (     0          0          1      )
                  (    -1          0          0      )

 cart.    s(11) = (  0.0000000  0.0000000 -1.0000000 )
                  ( -1.0000000  0.0000000  0.0000000 )
                  (  0.0000000  1.0000000  0.0000000 )


      isym = 12     120 deg rotation - cart. axis [-1,-1,1]      

 cryst.   s(12) = (     0          1          0      )
                  (     0          0         -1      )
                  (    -1          0          0      )

 cart.    s(12) = (  0.0000000  0.0000000 -1.0000000 )
                  (  1.0000000  0.0000000  0.0000000 )
                  (  0.0000000 -1.0000000  0.0000000 )


      isym = 13     inv. 180 deg rotation - cart. axis [1,1,0]   

 cryst.   s(13) = (     0         -1          0      )
                  (    -1          0          0      )
                  (     0          0          1      )

 cart.    s(13) = (  0.0000000 -1.0000000  0.0000000 )
                  ( -1.0000000  0.0000000  0.0000000 )
                  (  0.0000000  0.0000000  1.0000000 )


      isym = 14     inv. 180 deg rotation - cart. axis [1,-1,0]  

 cryst.   s(14) = (     0          1          0      )
                  (     1          0          0      )
                  (     0          0          1      )

 cart.    s(14) = (  0.0000000  1.0000000  0.0000000 )
                  (  1.0000000  0.0000000  0.0000000 )
                  (  0.0000000  0.0000000  1.0000000 )


      isym = 15     inv.  90 deg rotation - cart. axis [0,0,-1]  

 cryst.   s(15) = (     0          1          0      )
                  (    -1          0          0      )
                  (     0          0         -1      )

 cart.    s(15) = (  0.0000000 -1.0000000  0.0000000 )
                  (  1.0000000  0.0000000  0.0000000 )
                  (  0.0000000  0.0000000 -1.0000000 )


      isym = 16     inv.  90 deg rotation - cart. axis [0,0,1]   

 cryst.   s(16) = (     0         -1          0      )
                  (     1          0          0      )
                  (     0          0         -1      )

 cart.    s(16) = (  0.0000000  1.0000000  0.0000000 )
                  ( -1.0000000  0.0000000  0.0000000 )
                  (  0.0000000  0.0000000 -1.0000000 )


      isym = 17     inv. 180 deg rotation - cart. axis [1,0,1]   

 cryst.   s(17) = (     0          0         -1      )
                  (     0          1          0      )
                  (    -1          0          0      )

 cart.    s(17) = (  0.0000000  0.0000000 -1.0000000 )
                  (  0.0000000  1.0000000  0.0000000 )
                  ( -1.0000000  0.0000000  0.0000000 )


      isym = 18     inv. 180 deg rotation - cart. axis [-1,0,1]  

 cryst.   s(18) = (     0          0          1      )
                  (     0          1          0      )
                  (     1          0          0      )

 cart.    s(18) = (  0.0000000  0.0000000  1.0000000 )
                  (  0.0000000  1.0000000  0.0000000 )
                  (  1.0000000  0.0000000  0.0000000 )


      isym = 19     inv.  90 deg rotation - cart. axis [0,1,0]   

 cryst.   s(19) = (     0          0          1      )
                  (     0         -1          0      )
                  (    -1          0          0      )

 cart.    s(19) = (  0.0000000  0.0000000 -1.0000000 )
                  (  0.0000000 -1.0000000  0.0000000 )
                  (  1.0000000  0.0000000  0.0000000 )


      isym = 20     inv.  90 deg rotation - cart. axis [0,-1,0]  

 cryst.   s(20) = (     0          0         -1      )
                  (     0         -1          0      )
                  (     1          0          0      )

 cart.    s(20) = (  0.0000000  0.0000000  1.0000000 )
                  (  0.0000000 -1.0000000  0.0000000 )
                  ( -1.0000000  0.0000000  0.0000000 )


      isym = 21     inv. 180 deg rotation - cart. axis [0,1,1]   

 cryst.   s(21) = (     1          0          0      )
                  (     0          0         -1      )
                  (     0         -1          0      )

 cart.    s(21) = (  1.0000000  0.0000000  0.0000000 )
                  (  0.0000000  0.0000000 -1.0000000 )
                  (  0.0000000 -1.0000000  0.0000000 )


      isym = 22     inv. 180 deg rotation - cart. axis [0,1,-1]  

 cryst.   s(22) = (     1          0          0      )
                  (     0          0          1      )
                  (     0          1          0      )

 cart.    s(22) = (  1.0000000  0.0000000  0.0000000 )
                  (  0.0000000  0.0000000  1.0000000 )
                  (  0.0000000  1.0000000  0.0000000 )


      isym = 23     inv.  90 deg rotation - cart. axis [-1,0,0]  

 cryst.   s(23) = (    -1          0          0      )
                  (     0          0          1      )
                  (     0         -1          0      )

 cart.    s(23) = ( -1.0000000  0.0000000  0.0000000 )
                  (  0.0000000  0.0000000 -1.0000000 )
                  (  0.0000000  1.0000000  0.0000000 )


      isym = 24     inv.  90 deg rotation - cart. axis [1,0,0]   

 cryst.   s(24) = (    -1          0          0      )
                  (     0          0         -1      )
                  (     0          1          0      )

 cart.    s(24) = ( -1.0000000  0.0000000  0.0000000 )
                  (  0.0000000  0.0000000  1.0000000 )
                  (  0.0000000 -1.0000000  0.0000000 )


     point group T_d (-43m) 
     there are  5 classes
     the character table:

       E     8C3   3C2   6S4   6s_d 
A_1    1.00  1.00  1.00  1.00  1.00
A_2    1.00  1.00  1.00 -1.00 -1.00
E      2.00 -1.00  2.00  0.00  0.00
T_1    3.00  0.00 -1.00  1.00 -1.00
T_2    3.00  0.00 -1.00 -1.00  1.00

     the symmetry operations in each class and the name of the first element:

     E        1
          identity                                               
     8C3      5    7    8    6   12    9   10   11
          120 deg rotation - cart. axis [-1,-1,-1]               
     3C2      2    3    4
          180 deg rotation - cart. axis [0,0,1]                  
     6S4     15   16   20   19   23   24
          inv.  90 deg rotation - cart. axis [0,0,-1]            
     6s_d    13   14   17   18   21   22
          inv. 180 deg rotation - cart. axis [1,1,0]             

   Cartesian axes

     site n.     atom                  positions (alat units)
         1           Zn  tau(   1) = (   0.0000000   0.0000000   0.0000000  )
         2           Zn  tau(   2) = (   0.0000000   0.2500000   0.2500000  )
         3           Zn  tau(   3) = (   0.2500000   0.0000000   0.2500000  )
         4           Zn  tau(   4) = (   0.2500000   0.2500000   0.0000000  )
         5           S   tau(   5) = (   0.1250000   0.3750000   0.3750000  )
         6           S   tau(   6) = (   0.1250000   0.1250000   0.1250000  )
         7           S   tau(   7) = (   0.3750000   0.3750000   0.1250000  )
         8           S   tau(   8) = (   0.3750000   0.1250000   0.3750000  )
         9           Zn  tau(   9) = (   0.0000000   0.0000000   0.5000000  )
        10           Zn  tau(  10) = (   0.0000000   0.2500000   0.7500000  )
        11           Zn  tau(  11) = (   0.2500000   0.0000000   0.7500000  )
        12           Zn  tau(  12) = (   0.2500000   0.2500000   0.5000000  )
        13           S   tau(  13) = (   0.1250000   0.3750000   0.8750000  )
        14           S   tau(  14) = (   0.1250000   0.1250000   0.6250000  )
        15           S   tau(  15) = (   0.3750000   0.3750000   0.6250000  )
        16           S   tau(  16) = (   0.3750000   0.1250000   0.8750000  )
        17           Zn  tau(  17) = (   0.0000000   0.5000000   0.0000000  )
        18           Zn  tau(  18) = (   0.0000000   0.7500000   0.2500000  )
        19           Zn  tau(  19) = (   0.2500000   0.5000000   0.2500000  )
        20           Zn  tau(  20) = (   0.2500000   0.7500000   0.0000000  )
        21           S   tau(  21) = (   0.1250000   0.8750000   0.3750000  )
        22           S   tau(  22) = (   0.1250000   0.6250000   0.1250000  )
        23           S   tau(  23) = (   0.3750000   0.8750000   0.1250000  )
        24           S   tau(  24) = (   0.3750000   0.6250000   0.3750000  )
        25           Zn  tau(  25) = (   0.0000000   0.5000000   0.5000000  )
        26           Zn  tau(  26) = (   0.0000000   0.7500000   0.7500000  )
        27           Zn  tau(  27) = (   0.2500000   0.5000000   0.7500000  )
        28           Zn  tau(  28) = (   0.2500000   0.7500000   0.5000000  )
        29           S   tau(  29) = (   0.1250000   0.8750000   0.8750000  )
        30           S   tau(  30) = (   0.1250000   0.6250000   0.6250000  )
        31           S   tau(  31) = (   0.3750000   0.8750000   0.6250000  )
        32           S   tau(  32) = (   0.3750000   0.6250000   0.8750000  )
        33           Zn  tau(  33) = (   0.5000000   0.0000000   0.0000000  )
        34           Zn  tau(  34) = (   0.5000000   0.2500000   0.2500000  )
        35           Zn  tau(  35) = (   0.7500000   0.0000000   0.2500000  )
        36           Zn  tau(  36) = (   0.7500000   0.2500000   0.0000000  )
        37           S   tau(  37) = (   0.6250000   0.3750000   0.3750000  )
        38           S   tau(  38) = (   0.6250000   0.1250000   0.1250000  )
        39           S   tau(  39) = (   0.8750000   0.3750000   0.1250000  )
        40           S   tau(  40) = (   0.8750000   0.1250000   0.3750000  )
        41           Zn  tau(  41) = (   0.5000000   0.0000000   0.5000000  )
        42           Zn  tau(  42) = (   0.5000000   0.2500000   0.7500000  )
        43           Zn  tau(  43) = (   0.7500000   0.0000000   0.7500000  )
        44           Zn  tau(  44) = (   0.7500000   0.2500000   0.5000000  )
        45           S   tau(  45) = (   0.6250000   0.3750000   0.8750000  )
        46           S   tau(  46) = (   0.6250000   0.1250000   0.6250000  )
        47           S   tau(  47) = (   0.8750000   0.3750000   0.6250000  )
        48           S   tau(  48) = (   0.8750000   0.1250000   0.8750000  )
        49           Zn  tau(  49) = (   0.5000000   0.5000000   0.0000000  )
        50           Zn  tau(  50) = (   0.5000000   0.7500000   0.2500000  )
        51           Zn  tau(  51) = (   0.7500000   0.5000000   0.2500000  )
        52           Zn  tau(  52) = (   0.7500000   0.7500000   0.0000000  )
        53           S   tau(  53) = (   0.6250000   0.8750000   0.3750000  )
        54           S   tau(  54) = (   0.6250000   0.6250000   0.1250000  )
        55           S   tau(  55) = (   0.8750000   0.8750000   0.1250000  )
        56           S   tau(  56) = (   0.8750000   0.6250000   0.3750000  )
        57           Zn  tau(  57) = (   0.5000000   0.5000000   0.5000000  )
        58           Zn  tau(  58) = (   0.5000000   0.7500000   0.7500000  )
        59           Zn  tau(  59) = (   0.7500000   0.5000000   0.7500000  )
        60           Zn  tau(  60) = (   0.7500000   0.7500000   0.5000000  )
        61           S   tau(  61) = (   0.6250000   0.8750000   0.8750000  )
        62           S   tau(  62) = (   0.6250000   0.6250000   0.6250000  )
        63           S   tau(  63) = (   0.8750000   0.8750000   0.6250000  )
        64           S   tau(  64) = (   0.8750000   0.6250000   0.8750000  )

   Crystallographic axes

     site n.     atom                  positions (cryst. coord.)
         1           Zn  tau(   1) = (  0.0000000  0.0000000  0.0000000  )
         2           Zn  tau(   2) = (  0.0000000  0.2500000  0.2500000  )
         3           Zn  tau(   3) = (  0.2500000  0.0000000  0.2500000  )
         4           Zn  tau(   4) = (  0.2500000  0.2500000  0.0000000  )
         5           S   tau(   5) = (  0.1250000  0.3750000  0.3750000  )
         6           S   tau(   6) = (  0.1250000  0.1250000  0.1250000  )
         7           S   tau(   7) = (  0.3750000  0.3750000  0.1250000  )
         8           S   tau(   8) = (  0.3750000  0.1250000  0.3750000  )
         9           Zn  tau(   9) = (  0.0000000  0.0000000  0.5000000  )
        10           Zn  tau(  10) = (  0.0000000  0.2500000  0.7500000  )
        11           Zn  tau(  11) = (  0.2500000  0.0000000  0.7500000  )
        12           Zn  tau(  12) = (  0.2500000  0.2500000  0.5000000  )
        13           S   tau(  13) = (  0.1250000  0.3750000  0.8750000  )
        14           S   tau(  14) = (  0.1250000  0.1250000  0.6250000  )
        15           S   tau(  15) = (  0.3750000  0.3750000  0.6250000  )
        16           S   tau(  16) = (  0.3750000  0.1250000  0.8750000  )
        17           Zn  tau(  17) = (  0.0000000  0.5000000  0.0000000  )
        18           Zn  tau(  18) = (  0.0000000  0.7500000  0.2500000  )
        19           Zn  tau(  19) = (  0.2500000  0.5000000  0.2500000  )
        20           Zn  tau(  20) = (  0.2500000  0.7500000  0.0000000  )
        21           S   tau(  21) = (  0.1250000  0.8750000  0.3750000  )
        22           S   tau(  22) = (  0.1250000  0.6250000  0.1250000  )
        23           S   tau(  23) = (  0.3750000  0.8750000  0.1250000  )
        24           S   tau(  24) = (  0.3750000  0.6250000  0.3750000  )
        25           Zn  tau(  25) = (  0.0000000  0.5000000  0.5000000  )
        26           Zn  tau(  26) = (  0.0000000  0.7500000  0.7500000  )
        27           Zn  tau(  27) = (  0.2500000  0.5000000  0.7500000  )
        28           Zn  tau(  28) = (  0.2500000  0.7500000  0.5000000  )
        29           S   tau(  29) = (  0.1250000  0.8750000  0.8750000  )
        30           S   tau(  30) = (  0.1250000  0.6250000  0.6250000  )
        31           S   tau(  31) = (  0.3750000  0.8750000  0.6250000  )
        32           S   tau(  32) = (  0.3750000  0.6250000  0.8750000  )
        33           Zn  tau(  33) = (  0.5000000  0.0000000  0.0000000  )
        34           Zn  tau(  34) = (  0.5000000  0.2500000  0.2500000  )
        35           Zn  tau(  35) = (  0.7500000  0.0000000  0.2500000  )
        36           Zn  tau(  36) = (  0.7500000  0.2500000  0.0000000  )
        37           S   tau(  37) = (  0.6250000  0.3750000  0.3750000  )
        38           S   tau(  38) = (  0.6250000  0.1250000  0.1250000  )
        39           S   tau(  39) = (  0.8750000  0.3750000  0.1250000  )
        40           S   tau(  40) = (  0.8750000  0.1250000  0.3750000  )
        41           Zn  tau(  41) = (  0.5000000  0.0000000  0.5000000  )
        42           Zn  tau(  42) = (  0.5000000  0.2500000  0.7500000  )
        43           Zn  tau(  43) = (  0.7500000  0.0000000  0.7500000  )
        44           Zn  tau(  44) = (  0.7500000  0.2500000  0.5000000  )
        45           S   tau(  45) = (  0.6250000  0.3750000  0.8750000  )
        46           S   tau(  46) = (  0.6250000  0.1250000  0.6250000  )
        47           S   tau(  47) = (  0.8750000  0.3750000  0.6250000  )
        48           S   tau(  48) = (  0.8750000  0.1250000  0.8750000  )
        49           Zn  tau(  49) = (  0.5000000  0.5000000  0.0000000  )
        50           Zn  tau(  50) = (  0.5000000  0.7500000  0.2500000  )
        51           Zn  tau(  51) = (  0.7500000  0.5000000  0.2500000  )
        52           Zn  tau(  52) = (  0.7500000  0.7500000  0.0000000  )
        53           S   tau(  53) = (  0.6250000  0.8750000  0.3750000  )
        54           S   tau(  54) = (  0.6250000  0.6250000  0.1250000  )
        55           S   tau(  55) = (  0.8750000  0.8750000  0.1250000  )
        56           S   tau(  56) = (  0.8750000  0.6250000  0.3750000  )
        57           Zn  tau(  57) = (  0.5000000  0.5000000  0.5000000  )
        58           Zn  tau(  58) = (  0.5000000  0.7500000  0.7500000  )
        59           Zn  tau(  59) = (  0.7500000  0.5000000  0.7500000  )
        60           Zn  tau(  60) = (  0.7500000  0.7500000  0.5000000  )
        61           S   tau(  61) = (  0.6250000  0.8750000  0.8750000  )
        62           S   tau(  62) = (  0.6250000  0.6250000  0.6250000  )
        63           S   tau(  63) = (  0.8750000  0.8750000  0.6250000  )
        64           S   tau(  64) = (  0.8750000  0.6250000  0.8750000  )

     number of k points=    10  Gaussian smearing, width (Ry)=  0.0010
                       cart. coord. in units 2pi/alat
        k(    1) = (   0.0000000   0.0000000   0.0000000), wk =   0.0156250
        k(    2) = (   0.0000000   0.0000000   0.2500000), wk =   0.0937500
        k(    3) = (   0.0000000   0.0000000  -0.5000000), wk =   0.0468750
        k(    4) = (   0.0000000   0.2500000   0.2500000), wk =   0.1875000
        k(    5) = (   0.0000000   0.2500000  -0.5000000), wk =   0.1875000
        k(    6) = (   0.0000000  -0.5000000  -0.5000000), wk =   0.0468750
        k(    7) = (   0.2500000   0.2500000   0.2500000), wk =   0.1250000
        k(    8) = (   0.2500000   0.2500000  -0.5000000), wk =   0.1875000
        k(    9) = (   0.2500000  -0.5000000  -0.5000000), wk =   0.0937500
        k(   10) = (  -0.5000000  -0.5000000  -0.5000000), wk =   0.0156250

                       cryst. coord.
        k(    1) = (   0.0000000   0.0000000   0.0000000), wk =   0.0156250
        k(    2) = (   0.0000000   0.0000000   0.2500000), wk =   0.0937500
        k(    3) = (   0.0000000   0.0000000  -0.5000000), wk =   0.0468750
        k(    4) = (   0.0000000   0.2500000   0.2500000), wk =   0.1875000
        k(    5) = (   0.0000000   0.2500000  -0.5000000), wk =   0.1875000
        k(    6) = (   0.0000000  -0.5000000  -0.5000000), wk =   0.0468750
        k(    7) = (   0.2500000   0.2500000   0.2500000), wk =   0.1250000
        k(    8) = (   0.2500000   0.2500000  -0.5000000), wk =   0.1875000
        k(    9) = (   0.2500000  -0.5000000  -0.5000000), wk =   0.0937500
        k(   10) = (  -0.5000000  -0.5000000  -0.5000000), wk =   0.0156250

     Dense  grid:  1449345 G-vectors     FFT dimensions: ( 144, 144, 144)

     Dynamical RAM for                 wfc:       8.54 MB

     Dynamical RAM for     wfc (w. buffer):      25.63 MB

     Dynamical RAM for           str. fact:       0.39 MB

     Dynamical RAM for           local pot:       0.00 MB

     Dynamical RAM for          nlocal pot:      28.44 MB

     Dynamical RAM for                qrad:       3.44 MB

     Dynamical RAM for          rho,v,vnew:       3.08 MB

     Dynamical RAM for               rhoin:       1.03 MB

     Dynamical RAM for            rho*nmix:       6.32 MB

     Dynamical RAM for           G-vectors:       0.84 MB

     Dynamical RAM for          h,s,v(r/c):       2.42 MB

     Dynamical RAM for          <psi|beta>:       6.08 MB

     Dynamical RAM for                 psi:      17.08 MB

     Dynamical RAM for                hpsi:      17.08 MB

     Dynamical RAM for                spsi:      17.08 MB

     Dynamical RAM for      wfcinit/wfcrot:      24.51 MB

     Dynamical RAM for           addusdens:       4.68 MB

     Estimated static dynamical RAM per process >      65.35 MB

     Estimated max dynamical RAM per process >     131.42 MB

     Estimated total dynamical RAM >     137.52 GB
     Generating pointlists ...
     new r_m :   0.0893 (alat units)  1.8370 (a.u.) for type    1
     new r_m :   0.0893 (alat units)  1.8370 (a.u.) for type    2

     Initial potential from superposition of free atoms

     starting charge     575.8798, renormalised to     576.0000
     Starting wfcs are  416 randomized atomic wfcs
     Checking if some PAW data can be deallocated... 
       PAW data deallocated on  560 nodes for type:  1
       PAW data deallocated on  560 nodes for type:  2

     total cpu time spent up to now is       12.6 secs

     Self-consistent Calculation

     iteration #  1     ecut=   115.00 Ry     beta= 0.70
     Davidson diagonalization with overlap

---- Real-time Memory Report at c_bands before calling an iterative solver
           511 MiB given to the printing process from OS
             0 MiB allocation reported by mallinfo(arena+hblkhd)
        203526 MiB available memory on the node where the printing process lives
------------------
     ethr =  1.00E-02,  avg # of iterations =  4.8

     Threshold (ethr) on eigenvalues was too large:
     Diagonalizing with lowered threshold

     Davidson diagonalization with overlap

---- Real-time Memory Report at c_bands before calling an iterative solver
           581 MiB given to the printing process from OS
             0 MiB allocation reported by mallinfo(arena+hblkhd)
        201781 MiB available memory on the node where the printing process lives
------------------
     ethr =  3.28E-04,  avg # of iterations =  4.2

     total cpu time spent up to now is       28.6 secs

     total energy              =   -9923.84045603 Ry
     estimated scf accuracy    <       1.83338622 Ry

     total magnetization       =     0.00 Bohr mag/cell
     absolute magnetization    =     0.05 Bohr mag/cell

     iteration #  2     ecut=   115.00 Ry     beta= 0.70
     Davidson diagonalization with overlap

---- Real-time Memory Report at c_bands before calling an iterative solver
           689 MiB given to the printing process from OS
             0 MiB allocation reported by mallinfo(arena+hblkhd)
        201587 MiB available memory on the node where the printing process lives
------------------
     ethr =  3.18E-04,  avg # of iterations =  3.6

     total cpu time spent up to now is       36.7 secs

     total energy              =   -9924.29738391 Ry
     estimated scf accuracy    <       0.40075798 Ry

     total magnetization       =     0.00 Bohr mag/cell
     absolute magnetization    =     0.02 Bohr mag/cell

     iteration #  3     ecut=   115.00 Ry     beta= 0.70
     Davidson diagonalization with overlap

---- Real-time Memory Report at c_bands before calling an iterative solver
           773 MiB given to the printing process from OS
             0 MiB allocation reported by mallinfo(arena+hblkhd)
        201040 MiB available memory on the node where the printing process lives
------------------
     ethr =  6.96E-05,  avg # of iterations =  8.8

     total cpu time spent up to now is       47.1 secs

     total energy              =   -9924.36810377 Ry
     estimated scf accuracy    <       0.02690897 Ry

     total magnetization       =    -0.00 Bohr mag/cell
     absolute magnetization    =     0.01 Bohr mag/cell

     iteration #  4     ecut=   115.00 Ry     beta= 0.70
     Davidson diagonalization with overlap

---- Real-time Memory Report at c_bands before calling an iterative solver
           845 MiB given to the printing process from OS
             0 MiB allocation reported by mallinfo(arena+hblkhd)
        200788 MiB available memory on the node where the printing process lives
------------------
     ethr =  4.67E-06,  avg # of iterations = 12.3

     total cpu time spent up to now is       58.2 secs

     total energy              =   -9924.37645168 Ry
     estimated scf accuracy    <       0.01401789 Ry

     total magnetization       =     0.00 Bohr mag/cell
     absolute magnetization    =     0.01 Bohr mag/cell

     iteration #  5     ecut=   115.00 Ry     beta= 0.70
     Davidson diagonalization with overlap

---- Real-time Memory Report at c_bands before calling an iterative solver
           901 MiB given to the printing process from OS
             0 MiB allocation reported by mallinfo(arena+hblkhd)
        200556 MiB available memory on the node where the printing process lives
------------------
     ethr =  2.43E-06,  avg # of iterations =  4.6

     total cpu time spent up to now is       66.5 secs

     total energy              =   -9924.37846063 Ry
     estimated scf accuracy    <       0.00063980 Ry

     total magnetization       =     0.00 Bohr mag/cell
     absolute magnetization    =     0.00 Bohr mag/cell

     iteration #  6     ecut=   115.00 Ry     beta= 0.70
     Davidson diagonalization with overlap

---- Real-time Memory Report at c_bands before calling an iterative solver
           946 MiB given to the printing process from OS
             0 MiB allocation reported by mallinfo(arena+hblkhd)
        200365 MiB available memory on the node where the printing process lives
------------------
     ethr =  1.11E-07,  avg # of iterations =  5.8

     total cpu time spent up to now is       75.7 secs

     total energy              =   -9924.37878072 Ry
     estimated scf accuracy    <       0.00010193 Ry

     total magnetization       =    -0.00 Bohr mag/cell
     absolute magnetization    =     0.00 Bohr mag/cell

     iteration #  7     ecut=   115.00 Ry     beta= 0.70
     Davidson diagonalization with overlap

---- Real-time Memory Report at c_bands before calling an iterative solver
           985 MiB given to the printing process from OS
             0 MiB allocation reported by mallinfo(arena+hblkhd)
        200194 MiB available memory on the node where the printing process lives
------------------
     c_bands:  1 eigenvalues not converged
     ethr =  1.77E-08,  avg # of iterations =  5.0

     total cpu time spent up to now is       83.8 secs

     total energy              =   -9924.37875193 Ry
     estimated scf accuracy    <       0.00006259 Ry

     total magnetization       =    -0.00 Bohr mag/cell
     absolute magnetization    =     0.00 Bohr mag/cell

     iteration #  8     ecut=   115.00 Ry     beta= 0.70
     Davidson diagonalization with overlap

---- Real-time Memory Report at c_bands before calling an iterative solver
          1024 MiB given to the printing process from OS
             0 MiB allocation reported by mallinfo(arena+hblkhd)
        200030 MiB available memory on the node where the printing process lives
------------------
     ethr =  1.09E-08,  avg # of iterations =  2.0

     total cpu time spent up to now is       89.8 secs

     total energy              =   -9924.37877040 Ry
     estimated scf accuracy    <       0.00000170 Ry

     total magnetization       =    -0.00 Bohr mag/cell
     absolute magnetization    =     0.00 Bohr mag/cell

     iteration #  9     ecut=   115.00 Ry     beta= 0.70
     Davidson diagonalization with overlap

---- Real-time Memory Report at c_bands before calling an iterative solver
          1054 MiB given to the printing process from OS
             0 MiB allocation reported by mallinfo(arena+hblkhd)
        199860 MiB available memory on the node where the printing process lives
------------------
     ethr =  2.95E-10,  avg # of iterations =  6.8

     total cpu time spent up to now is       99.5 secs

     total energy              =   -9924.37876960 Ry
     estimated scf accuracy    <       0.00000335 Ry

     total magnetization       =     0.00 Bohr mag/cell
     absolute magnetization    =     0.00 Bohr mag/cell

     iteration # 10     ecut=   115.00 Ry     beta= 0.70
     Davidson diagonalization with overlap

---- Real-time Memory Report at c_bands before calling an iterative solver
          1088 MiB given to the printing process from OS
             0 MiB allocation reported by mallinfo(arena+hblkhd)
        199696 MiB available memory on the node where the printing process lives
------------------
     ethr =  2.95E-10,  avg # of iterations =  3.3

     total cpu time spent up to now is      106.0 secs

     total energy              =   -9924.37877025 Ry
     estimated scf accuracy    <       0.00000001 Ry

     total magnetization       =     0.00 Bohr mag/cell
     absolute magnetization    =     0.00 Bohr mag/cell

     iteration # 11     ecut=   115.00 Ry     beta= 0.70
     Davidson diagonalization with overlap

---- Real-time Memory Report at c_bands before calling an iterative solver
          1111 MiB given to the printing process from OS
             0 MiB allocation reported by mallinfo(arena+hblkhd)
        199545 MiB available memory on the node where the printing process lives
------------------
     ethr =  2.04E-12,  avg # of iterations =  6.7
 
     Magnetic moment per site  (integrated on atomic sphere of radius R)
     atom   1 (R=0.089)  charge= 10.1598  magn= -0.0000
     atom   2 (R=0.089)  charge= 10.1598  magn=  0.0000
     atom   3 (R=0.089)  charge= 10.1598  magn=  0.0000
     atom   4 (R=0.089)  charge= 10.1598  magn=  0.0000
     atom   5 (R=0.089)  charge=  3.9938  magn=  0.0000
     atom   6 (R=0.089)  charge=  3.9938  magn=  0.0000
     atom   7 (R=0.089)  charge=  3.9938  magn=  0.0000
     atom   8 (R=0.089)  charge=  3.9938  magn=  0.0000
     atom   9 (R=0.089)  charge= 10.1598  magn=  0.0000
     atom  10 (R=0.089)  charge= 10.1598  magn=  0.0000
     atom  11 (R=0.089)  charge= 10.1598  magn=  0.0000
     atom  12 (R=0.089)  charge= 10.1598  magn= -0.0000
     atom  13 (R=0.089)  charge=  3.9938  magn= -0.0000
     atom  14 (R=0.089)  charge=  3.9938  magn= -0.0000
     atom  15 (R=0.089)  charge=  3.9938  magn=  0.0000
     atom  16 (R=0.089)  charge=  3.9938  magn= -0.0000
     atom  17 (R=0.089)  charge= 10.1598  magn=  0.0000
     atom  18 (R=0.089)  charge= 10.1598  magn=  0.0000
     atom  19 (R=0.089)  charge= 10.1598  magn= -0.0000
     atom  20 (R=0.089)  charge= 10.1598  magn=  0.0000
     atom  21 (R=0.089)  charge=  3.9938  magn= -0.0000
     atom  22 (R=0.089)  charge=  3.9938  magn= -0.0000
     atom  23 (R=0.089)  charge=  3.9938  magn= -0.0000
     atom  24 (R=0.089)  charge=  3.9938  magn=  0.0000
     atom  25 (R=0.089)  charge= 10.1598  magn= -0.0000
     atom  26 (R=0.089)  charge= 10.1598  magn=  0.0000
     atom  27 (R=0.089)  charge= 10.1598  magn= -0.0000
     atom  28 (R=0.089)  charge= 10.1598  magn= -0.0000
     atom  29 (R=0.089)  charge=  3.9938  magn=  0.0000
     atom  30 (R=0.089)  charge=  3.9938  magn=  0.0000
     atom  31 (R=0.089)  charge=  3.9938  magn=  0.0000
     atom  32 (R=0.089)  charge=  3.9938  magn=  0.0000
     atom  33 (R=0.089)  charge= 10.1598  magn=  0.0000
     atom  34 (R=0.089)  charge= 10.1598  magn= -0.0000
     atom  35 (R=0.089)  charge= 10.1598  magn=  0.0000
     atom  36 (R=0.089)  charge= 10.1598  magn=  0.0000
     atom  37 (R=0.089)  charge=  3.9938  magn=  0.0000
     atom  38 (R=0.089)  charge=  3.9938  magn= -0.0000
     atom  39 (R=0.089)  charge=  3.9938  magn= -0.0000
     atom  40 (R=0.089)  charge=  3.9938  magn= -0.0000
     atom  41 (R=0.089)  charge= 10.1598  magn= -0.0000
     atom  42 (R=0.089)  charge= 10.1598  magn= -0.0000
     atom  43 (R=0.089)  charge= 10.1598  magn=  0.0000
     atom  44 (R=0.089)  charge= 10.1598  magn= -0.0000
     atom  45 (R=0.089)  charge=  3.9938  magn=  0.0000
     atom  46 (R=0.089)  charge=  3.9938  magn=  0.0000
     atom  47 (R=0.089)  charge=  3.9938  magn=  0.0000
     atom  48 (R=0.089)  charge=  3.9938  magn=  0.0000
     atom  49 (R=0.089)  charge= 10.1598  magn= -0.0000
     atom  50 (R=0.089)  charge= 10.1598  magn= -0.0000
     atom  51 (R=0.089)  charge= 10.1598  magn= -0.0000
     atom  52 (R=0.089)  charge= 10.1598  magn=  0.0000
     atom  53 (R=0.089)  charge=  3.9938  magn=  0.0000
     atom  54 (R=0.089)  charge=  3.9938  magn=  0.0000
     atom  55 (R=0.089)  charge=  3.9938  magn=  0.0000
     atom  56 (R=0.089)  charge=  3.9938  magn=  0.0000
     atom  57 (R=0.089)  charge= 10.1598  magn= -0.0000
     atom  58 (R=0.089)  charge= 10.1598  magn= -0.0000
     atom  59 (R=0.089)  charge= 10.1598  magn= -0.0000
     atom  60 (R=0.089)  charge= 10.1598  magn= -0.0000
     atom  61 (R=0.089)  charge=  3.9938  magn= -0.0000
     atom  62 (R=0.089)  charge=  3.9938  magn=  0.0000
     atom  63 (R=0.089)  charge=  3.9938  magn= -0.0000
     atom  64 (R=0.089)  charge=  3.9938  magn= -0.0000

     total cpu time spent up to now is      117.6 secs

     End of self-consistent calculation

 ------ SPIN UP ------------


          k = 0.0000 0.0000 0.0000 (181091 PWs)   bands (ev):

    -7.4622  -6.9204  -6.9204  -6.9204  -6.9204  -6.9204  -6.9204  -6.5968
    -6.5968  -6.5968  -6.5968  -6.5968  -6.5968  -6.5968  -6.5968  -6.5968
    -6.5968  -6.5968  -6.5968  -6.5721  -6.5721  -6.5721  -6.5721  -6.2730
    -6.2730  -6.2730  -6.2673  -6.2673  -6.2673  -6.2673  -6.2673  -6.2673
    -0.7188  -0.7188  -0.7188  -0.7188  -0.7188  -0.7188  -0.6933  -0.6933
    -0.6933  -0.6753  -0.6753  -0.6753  -0.5639  -0.5639  -0.5639  -0.5639
    -0.5639  -0.5639  -0.5639  -0.5639  -0.5547  -0.5547  -0.5547  -0.5547
    -0.5547  -0.5547  -0.5547  -0.5547  -0.5547  -0.5547  -0.5547  -0.5547
    -0.5436  -0.5436  -0.5436  -0.5436  -0.5436  -0.5436  -0.5336  -0.5336
    -0.5336  -0.5336  -0.5336  -0.5336  -0.5336  -0.5336  -0.5336  -0.5336
    -0.5336  -0.5336  -0.5237  -0.5237  -0.5237  -0.5237  -0.5237  -0.5237
    -0.5237  -0.5237  -0.5237  -0.5237  -0.5237  -0.5237  -0.4027  -0.4027
    -0.4027  -0.4027  -0.4027  -0.4027  -0.3976  -0.3976  -0.3976  -0.3976
    -0.3976  -0.3976  -0.3976  -0.3976  -0.3976  -0.3976  -0.3976  -0.3976
    -0.3442  -0.3442  -0.3442  -0.3442  -0.3442  -0.3442  -0.2493  -0.2493
    -0.2493  -0.2493  -0.2493  -0.2493  -0.2313  -0.2313  -0.2313  -0.2313
    -0.2313  -0.2313  -0.2293  -0.2293  -0.2293  -0.2293  -0.2293  -0.2293
    -0.2079  -0.2079  -0.2079  -0.2079  -0.2079  -0.2079  -0.2079  -0.2079
    -0.2079  -0.2079  -0.2079  -0.2079  -0.1940  -0.1940  -0.1649  -0.1649
    -0.1648  -0.1648  -0.1648  -0.1648  -0.1648  -0.1648  -0.1580  -0.1580
    -0.1580  -0.1580  -0.1580  -0.1580  -0.1349  -0.1349  -0.1349  -0.1349
    -0.1349  -0.1349  -0.1349  -0.1349  -0.1349  -0.1349  -0.1349  -0.1349
    -0.1220  -0.1220  -0.1220   0.0017   0.0017   0.0017   0.0017   0.0138
     0.0138   0.0138   0.1863   0.1863   0.1863   0.1863   0.1863   0.1863
     0.3803   0.3803   0.3803   0.3803   1.0508   1.0508   1.0508   1.0508
     1.0508   1.0508   1.0737   1.0737   1.0737   1.6637   1.6637   1.6637
     1.6637   1.6637   1.6637   1.6637   1.6637   1.6637   1.6637   1.6637
     1.6637   2.8903   2.8903   2.8903   2.8903   2.8903   2.8903   2.9127
     2.9127   2.9127   2.9127   2.9127   2.9127   3.0055   3.0055   3.0055
     3.0055   3.0055   3.0055   3.1129   3.1129   3.1129   3.1129   3.1129
     3.1129   3.1129   3.1129   3.1129   3.1129   3.1129   3.1129   3.3950
     3.3950   3.3950   3.3950   3.3950   3.3950   4.3509   4.3509   4.3509
     4.3509   4.3509   4.3509   4.3509   4.3509   4.3509   4.3509   4.3509
     4.3509   4.6707   4.6707   4.6707   4.6707   4.6707   4.6707   4.6707
     4.6707   4.6707   4.6707   4.6707   4.6707   4.7065   4.7065   4.7065
     4.7065   4.7065   4.7065   4.7065   4.7065   5.5452   5.5452   5.5452
     7.5516   8.7969   8.7969   8.7969   8.7969   8.9888   8.9888   8.9888
     9.6026   9.6026   9.6026   9.9704   9.9704   9.9704   9.9704   9.9704
     9.9704  10.1013  10.1013  10.1013  10.1013  10.1013  10.1013  10.3043
    10.3043  10.3043  10.3043  10.3043  10.3043  10.3043  10.3043  10.3043
    10.3043  10.3043  10.3043  11.2374  11.2374  11.2374  11.2374  11.2374
    11.2374  11.4631  11.4631  11.4631  11.4631  11.4631  11.4631  11.9191
    11.9192  11.9192  12.1784  12.1784  12.1784  12.1784  12.1784  12.1784
    12.1784  12.1784

     occupation numbers 
     1.0000   1.0000   1.0000   1.0000   1.0000   1.0000   1.0000   1.0000
     1.0000   1.0000   1.0000   1.0000   1.0000   1.0000   1.0000   1.0000
     1.0000   1.0000   1.0000   1.0000   1.0000   1.0000   1.0000   1.0000
     1.0000   1.0000   1.0000   1.0000   1.0000   1.0000   1.0000   1.0000
     1.0000   1.0000   1.0000   1.0000   1.0000   1.0000   1.0000   1.0000
     1.0000   1.0000   1.0000   1.0000   1.0000   1.0000   1.0000   1.0000
     1.0000   1.0000   1.0000   1.0000   1.0000   1.0000   1.0000   1.0000
     1.0000   1.0000   1.0000   1.0000   1.0000   1.0000   1.0000   1.0000
     1.0000   1.0000   1.0000   1.0000   1.0000   1.0000   1.0000   1.0000
     1.0000   1.0000   1.0000   1.0000   1.0000   1.0000   1.0000   1.0000
     1.0000   1.0000   1.0000   1.0000   1.0000   1.0000   1.0000   1.0000
     1.0000   1.0000   1.0000   1.0000   1.0000   1.0000   1.0000   1.0000
     1.0000   1.0000   1.0000   1.0000   1.0000   1.0000   1.0000   1.0000
     1.0000   1.0000   1.0000   1.0000   1.0000   1.0000   1.0000   1.0000
     1.0000   1.0000   1.0000   1.0000   1.0000   1.0000   1.0000   1.0000
     1.0000   1.0000   1.0000   1.0000   1.0000   1.0000   1.0000   1.0000
     1.0000   1.0000   1.0000   1.0000   1.0000   1.0000   1.0000   1.0000
     1.0000   1.0000   1.0000   1.0000   1.0000   1.0000   1.0000   1.0000
     1.0000   1.0000   1.0000   1.0000   1.0000   1.0000   1.0000   1.0000
     1.0000   1.0000   1.0000   1.0000   1.0000   1.0000   1.0000   1.0000
     1.0000   1.0000   1.0000   1.0000   1.0000   1.0000   1.0000   1.0000
     1.0000   1.0000   1.0000   1.0000   1.0000   1.0000   1.0000   1.0000
     1.0000   1.0000   1.0000   1.0000   1.0000   1.0000   1.0000   1.0000
     1.0000   1.0000   1.0000   1.0000   1.0000   1.0000   1.0000   1.0000
     1.0000   1.0000   1.0000   1.0000   1.0000   1.0000   1.0000   1.0000
     1.0000   1.0000   1.0000   1.0000   1.0000   1.0000   1.0000   1.0000
     1.0000   1.0000   1.0000   1.0000   1.0000   1.0000   1.0000   1.0000
     1.0000   1.0000   1.0000   1.0000   1.0000   1.0000   1.0000   1.0000
     1.0000   1.0000   1.0000   1.0000   1.0000   1.0000   1.0000   1.0000
     1.0000   1.0000   1.0000   1.0000   1.0000   1.0000   1.0000   1.0000
     1.0000   1.0000   1.0000   1.0000   1.0000   1.0000   1.0000   1.0000
     1.0000   1.0000   1.0000   1.0000   1.0000   1.0000   1.0000   1.0000
     1.0000   1.0000   1.0000   1.0000   1.0000   1.0000   1.0000   1.0000
     1.0000   1.0000   1.0000   1.0000   1.0000   1.0000   1.0000   1.0000
     1.0000   1.0000   1.0000   1.0000   1.0000   1.0000   1.0000   1.0000
     1.0000   1.0000   1.0000   1.0000   1.0000   1.0000   1.0000   1.0000
     0.0000   0.0000   0.0000   0.0000   0.0000   0.0000   0.0000   0.0000
     0.0000   0.0000   0.0000   0.0000   0.0000   0.0000   0.0000   0.0000
     0.0000   0.0000   0.0000   0.0000   0.0000   0.0000   0.0000   0.0000
     0.0000   0.0000   0.0000   0.0000   0.0000   0.0000   0.0000   0.0000
     0.0000   0.0000   0.0000   0.0000   0.0000   0.0000   0.0000   0.0000
     0.0000   0.0000   0.0000   0.0000   0.0000   0.0000   0.0000   0.0000
     0.0000   0.0000   0.0000   0.0000   0.0000   0.0000   0.0000   0.0000
     0.0000   0.0000

          k = 0.0000 0.0000 0.2500 (181114 PWs)   bands (ev):

    -7.4238  -7.1379  -6.8961  -6.8961  -6.8961  -6.8961  -6.7217  -6.7217
    -6.7217  -6.7217  -6.6876  -6.5932  -6.5932  -6.5932  -6.5932  -6.5757
    -6.5757  -6.5757  -6.5757  -6.4710  -6.4710  -6.4710  -6.4710  -6.3271
    -6.2924  -6.2924  -6.2924  -6.2924  -6.2721  -6.2721  -6.2681  -6.2681
    -0.7177  -0.7088  -0.7013  -0.7013  -0.7013  -0.7013  -0.6972  -0.6804
    -0.6723  -0.6723  -0.6657  -0.6657  -0.5922  -0.5922  -0.5729  -0.5729
    -0.5728  -0.5728  -0.5657  -0.5657  -0.5633  -0.5633  -0.5633  -0.5633
    -0.5585  -0.5585  -0.5585  -0.5585  -0.5572  -0.5572  -0.5572  -0.5572
    -0.5541  -0.5541  -0.5541  -0.5541  -0.5487  -0.5487  -0.5487  -0.5487
    -0.5429  -0.5429  -0.5429  -0.5429  -0.5377  -0.5377  -0.5377  -0.5377
    -0.5306  -0.5306  -0.5306  -0.5306  -0.5303  -0.5303  -0.5303  -0.5303
    -0.4969  -0.4969  -0.4969  -0.4969  -0.4906  -0.4906  -0.4906  -0.4906
    -0.4682  -0.4682  -0.4253  -0.4253  -0.4253  -0.4253  -0.3959  -0.3959
    -0.3690  -0.3690  -0.3690  -0.3690  -0.3610  -0.3610  -0.3552  -0.3552
    -0.3401  -0.3401  -0.2925  -0.2925  -0.2925  -0.2925  -0.2922  -0.2922
    -0.2392  -0.2392  -0.2392  -0.2392  -0.2261  -0.2261  -0.2261  -0.2261
    -0.2257  -0.2257  -0.2257  -0.2257  -0.2237  -0.2163  -0.2100  -0.2100
    -0.2100  -0.2100  -0.2009  -0.2009  -0.2009  -0.2009  -0.1983  -0.1933
    -0.1933  -0.1933  -0.1933  -0.1913  -0.1906  -0.1906  -0.1906  -0.1906
    -0.1859  -0.1859  -0.1718  -0.1706  -0.1706  -0.1706  -0.1706  -0.1586
    -0.1586  -0.1586  -0.1586  -0.1493  -0.1493  -0.1493  -0.1493  -0.1442
    -0.1332  -0.1332  -0.1332  -0.1332  -0.1283  -0.1283  -0.1247  -0.0924
    -0.0924  -0.0924  -0.0924  -0.0837  -0.0837  -0.0837  -0.0837  -0.0545
     0.0401   0.0401   0.1484   0.1484   0.1484   0.1484   0.1613   0.1613
     0.5813   0.5813   0.5813   0.5813   1.0548   1.0548   1.0667   1.0667
     1.0667   1.0667   1.0709   1.0709   1.2677   1.3596   1.3596   1.3596
     1.3596   1.4164   1.4164   1.4164   1.4164   2.0415   2.0415   2.0415
     2.0415   2.3286   2.6648   2.6648   2.6648   2.6648   2.8137   2.8137
     2.8137   2.8137   2.8312   2.8312   2.8312   2.8312   2.9596   2.9596
     2.9790   2.9790   3.3153   3.3153   3.3193   3.3193   3.3302   3.3302
     3.3302   3.3302   3.4123   3.4123   3.4123   3.4123   3.4641   3.4641
     3.4958   3.4958   3.4958   3.4958   3.7313   3.9696   3.9696   4.2222
     4.2222   4.2222   4.2222   4.3408   4.3408   4.3408   4.3408   4.4701
     4.4701   4.4701   4.4701   4.4933   4.4933   4.4933   4.4933   4.6759
     4.6759   4.6759   4.6759   4.7012   4.7012   4.7012   4.7012   4.7641
     4.7641   4.7738   4.7738   4.7738   4.7738   5.1822   5.4378   5.4378
     7.9506   9.0164   9.0164   9.0164   9.0164   9.0633   9.2181   9.2181
     9.4971   9.6306   9.6698   9.8068   9.8068  10.0304  10.0450  10.0450
    10.0450  10.0450  10.0737  10.0737  10.0737  10.0737  10.2779  10.2779
    10.2779  10.2779  10.3224  10.3224  10.3224  10.3224  10.4261  10.4261
    10.4261  10.4261  10.6428  10.6854  10.6854  11.0459  11.0459  11.0459
    11.0459  11.0552  11.0552  11.5805  11.5805  11.5805  11.5805  11.7125
    11.8226  11.8227  11.8227  11.8227  12.0188  12.0188  12.0188  12.0189
    12.0189  12.0189

     occupation numbers 
     1.0000   1.0000   1.0000   1.0000   1.0000   1.0000   1.0000   1.0000
     1.0000   1.0000   1.0000   1.0000   1.0000   1.0000   1.0000   1.0000
     1.0000   1.0000   1.0000   1.0000   1.0000   1.0000   1.0000   1.0000
     1.0000   1.0000   1.0000   1.0000   1.0000   1.0000   1.0000   1.0000
     1.0000   1.0000   1.0000   1.0000   1.0000   1.0000   1.0000   1.0000
     1.0000   1.0000   1.0000   1.0000   1.0000   1.0000   1.0000   1.0000
     1.0000   1.0000   1.0000   1.0000   1.0000   1.0000   1.0000   1.0000
     1.0000   1.0000   1.0000   1.0000   1.0000   1.0000   1.0000   1.0000
     1.0000   1.0000   1.0000   1.0000   1.0000   1.0000   1.0000   1.0000
     1.0000   1.0000   1.0000   1.0000   1.0000   1.0000   1.0000   1.0000
     1.0000   1.0000   1.0000   1.0000   1.0000   1.0000   1.0000   1.0000
     1.0000   1.0000   1.0000   1.0000   1.0000   1.0000   1.0000   1.0000
     1.0000   1.0000   1.0000   1.0000   1.0000   1.0000   1.0000   1.0000
     1.0000   1.0000   1.0000   1.0000   1.0000   1.0000   1.0000   1.0000
     1.0000   1.0000   1.0000   1.0000   1.0000   1.0000   1.0000   1.0000
     1.0000   1.0000   1.0000   1.0000   1.0000   1.0000   1.0000   1.0000
     1.0000   1.0000   1.0000   1.0000   1.0000   1.0000   1.0000   1.0000
     1.0000   1.0000   1.0000   1.0000   1.0000   1.0000   1.0000   1.0000
     1.0000   1.0000   1.0000   1.0000   1.0000   1.0000   1.0000   1.0000
     1.0000   1.0000   1.0000   1.0000   1.0000   1.0000   1.0000   1.0000
     1.0000   1.0000   1.0000   1.0000   1.0000   1.0000   1.0000   1.0000
     1.0000   1.0000   1.0000   1.0000   1.0000   1.0000   1.0000   1.0000
     1.0000   1.0000   1.0000   1.0000   1.0000   1.0000   1.0000   1.0000
     1.0000   1.0000   1.0000   1.0000   1.0000   1.0000   1.0000   1.0000
     1.0000   1.0000   1.0000   1.0000   1.0000   1.0000   1.0000   1.0000
     1.0000   1.0000   1.0000   1.0000   1.0000   1.0000   1.0000   1.0000
     1.0000   1.0000   1.0000   1.0000   1.0000   1.0000   1.0000   1.0000
     1.0000   1.0000   1.0000   1.0000   1.0000   1.0000   1.0000   1.0000
     1.0000   1.0000   1.0000   1.0000   1.0000   1.0000   1.0000   1.0000
     1.0000   1.0000   1.0000   1.0000   1.0000   1.0000   1.0000   1.0000
     1.0000   1.0000   1.0000   1.0000   1.0000   1.0000   1.0000   1.0000
     1.0000   1.0000   1.0000   1.0000   1.0000   1.0000   1.0000   1.0000
     1.0000   1.0000   1.0000   1.0000   1.0000   1.0000   1.0000   1.0000
     1.0000   1.0000   1.0000   1.0000   1.0000   1.0000   1.0000   1.0000
     1.0000   1.0000   1.0000   1.0000   1.0000   1.0000   1.0000   1.0000
     1.0000   1.0000   1.0000   1.0000   1.0000   1.0000   1.0000   1.0000
     0.0000   0.0000   0.0000   0.0000   0.0000   0.0000   0.0000   0.0000
     0.0000   0.0000   0.0000   0.0000   0.0000   0.0000   0.0000   0.0000
     0.0000   0.0000   0.0000   0.0000   0.0000   0.0000   0.0000   0.0000
     0.0000   0.0000   0.0000   0.0000   0.0000   0.0000   0.0000   0.0000
     0.0000   0.0000   0.0000   0.0000   0.0000   0.0000   0.0000   0.0000
     0.0000   0.0000   0.0000   0.0000   0.0000   0.0000   0.0000   0.0000
     0.0000   0.0000   0.0000   0.0000   0.0000   0.0000   0.0000   0.0000
     0.0000   0.0000

          k = 0.0000 0.0000-0.5000 (181342 PWs)   bands (ev):

    -7.3121  -7.3121  -6.8266  -6.8266  -6.8266  -6.8266  -6.8266  -6.8266
    -6.8266  -6.8266  -6.5845  -6.5845  -6.5845  -6.5845  -6.5845  -6.5845
    -6.5845  -6.5845  -6.4764  -6.4764  -6.3640  -6.3640  -6.3640  -6.3640
    -6.3640  -6.3640  -6.3640  -6.3640  -6.2701  -6.2701  -6.2701  -6.2701
    -0.7076  -0.7076  -0.6935  -0.6935  -0.6491  -0.6491  -0.6491  -0.6491
    -0.6491  -0.6491  -0.6491  -0.6491  -0.6375  -0.6375  -0.6375  -0.6375
    -0.6198  -0.6197  -0.6197  -0.6197  -0.5611  -0.5611  -0.5611  -0.5611
    -0.5611  -0.5611  -0.5611  -0.5611  -0.5467  -0.5467  -0.5467  -0.5467
    -0.5467  -0.5467  -0.5467  -0.5467  -0.5450  -0.5450  -0.5450  -0.5450
    -0.5450  -0.5450  -0.5450  -0.5450  -0.5434  -0.5434  -0.5434  -0.5434
    -0.5434  -0.5434  -0.5434  -0.5434  -0.5201  -0.5201  -0.5201  -0.5201
    -0.5201  -0.5201  -0.5201  -0.5201  -0.4649  -0.4649  -0.4649  -0.4649
    -0.4649  -0.4649  -0.4649  -0.4649  -0.4063  -0.4063  -0.4063  -0.4063
    -0.3776  -0.3776  -0.3776  -0.3776  -0.3251  -0.3251  -0.3251  -0.3251
    -0.2883  -0.2883  -0.2883  -0.2883  -0.2883  -0.2883  -0.2883  -0.2883
    -0.2539  -0.2539  -0.2539  -0.2539  -0.2539  -0.2539  -0.2539  -0.2539
    -0.2149  -0.2149  -0.2149  -0.2149  -0.2148  -0.2148  -0.2148  -0.2148
    -0.2097  -0.2097  -0.1983  -0.1983  -0.1983  -0.1983  -0.1983  -0.1983
    -0.1983  -0.1983  -0.1852  -0.1852  -0.1852  -0.1852  -0.1852  -0.1851
    -0.1851  -0.1851  -0.1835  -0.1835  -0.1582  -0.1582  -0.1576  -0.1576
    -0.1575  -0.1575  -0.1575  -0.1575  -0.1575  -0.1575  -0.1487  -0.1487
    -0.1487  -0.1487  -0.1325  -0.1325  -0.1255  -0.1255  -0.1255  -0.1255
    -0.1255  -0.1255  -0.1255  -0.1255   0.0345   0.0345   0.0345   0.0345
     0.0345   0.0345   0.0345   0.0345   0.1012   0.1012   0.1012   0.1012
     0.9752   0.9752   0.9752   0.9752   0.9752   0.9752   0.9752   0.9752
     1.0635   1.0635   1.0635   1.0635   1.1566   1.1566   1.1566   1.1566
     1.1566   1.1566   1.1566   1.1566   1.7297   1.7297   2.4552   2.4552
     2.4552   2.4552   2.4552   2.4552   2.4552   2.4552   2.6477   2.6477
     2.6477   2.6477   2.6477   2.6477   2.6477   2.6477   3.1324   3.1324
     3.1324   3.1324   3.1445   3.1445   3.1445   3.1445   3.6631   3.6631
     3.6631   3.6631   3.8527   3.8527   3.8527   3.8527   3.8527   3.8527
     3.8527   3.8527   3.8977   3.8977   3.8977   3.8977   3.8977   3.8977
     3.8977   3.8977   3.9826   3.9826   3.9826   3.9826   3.9826   3.9826
     3.9826   3.9826   4.4803   4.4803   4.6733   4.6733   4.6733   4.6733
     4.6733   4.6733   4.6733   4.6733   4.6885   4.6885   4.6885   4.6885
     4.6885   4.6885   4.6885   4.6885   5.1515   5.1515   5.1515   5.1515
     8.7315   8.7315   9.2817   9.2817   9.5364   9.5364   9.5364   9.5364
     9.5364   9.5364   9.5364   9.5364   9.8415   9.8415   9.8415   9.8415
     9.8470   9.8470  10.1898  10.1898  10.1898  10.1898  10.1898  10.1898
    10.1898  10.1898  10.3535  10.3535  10.3535  10.3535  10.7066  10.7066
    10.7066  10.7066  10.7066  10.7066  10.7066  10.7066  10.9436  10.9436
    10.9436  10.9436  10.9436  10.9436  10.9436  10.9436  11.2205  11.2205
    11.7867  11.7867  11.7867  11.7867  11.7867  11.7867  11.7867  11.7868
    12.0729  12.0729

     occupation numbers 
     1.0000   1.0000   1.0000   1.0000   1.0000   1.0000   1.0000   1.0000
     1.0000   1.0000   1.0000   1.0000   1.0000   1.0000   1.0000   1.0000
     1.0000   1.0000   1.0000   1.0000   1.0000   1.0000   1.0000   1.0000
     1.0000   1.0000   1.0000   1.0000   1.0000   1.0000   1.0000   1.0000
     1.0000   1.0000   1.0000   1.0000   1.0000   1.0000   1.0000   1.0000
     1.0000   1.0000   1.0000   1.0000   1.0000   1.0000   1.0000   1.0000
     1.0000   1.0000   1.0000   1.0000   1.0000   1.0000   1.0000   1.0000
     1.0000   1.0000   1.0000   1.0000   1.0000   1.0000   1.0000   1.0000
     1.0000   1.0000   1.0000   1.0000   1.0000   1.0000   1.0000   1.0000
     1.0000   1.0000   1.0000   1.0000   1.0000   1.0000   1.0000   1.0000
     1.0000   1.0000   1.0000   1.0000   1.0000   1.0000   1.0000   1.0000
     1.0000   1.0000   1.0000   1.0000   1.0000   1.0000   1.0000   1.0000
     1.0000   1.0000   1.0000   1.0000   1.0000   1.0000   1.0000   1.0000
     1.0000   1.0000   1.0000   1.0000   1.0000   1.0000   1.0000   1.0000
     1.0000   1.0000   1.0000   1.0000   1.0000   1.0000   1.0000   1.0000
     1.0000   1.0000   1.0000   1.0000   1.0000   1.0000   1.0000   1.0000
     1.0000   1.0000   1.0000   1.0000   1.0000   1.0000   1.0000   1.0000
     1.0000   1.0000   1.0000   1.0000   1.0000   1.0000   1.0000   1.0000
     1.0000   1.0000   1.0000   1.0000   1.0000   1.0000   1.0000   1.0000
     1.0000   1.0000   1.0000   1.0000   1.0000   1.0000   1.0000   1.0000
     1.0000   1.0000   1.0000   1.0000   1.0000   1.0000   1.0000   1.0000
     1.0000   1.0000   1.0000   1.0000   1.0000   1.0000   1.0000   1.0000
     1.0000   1.0000   1.0000   1.0000   1.0000   1.0000   1.0000   1.0000
     1.0000   1.0000   1.0000   1.0000   1.0000   1.0000   1.0000   1.0000
     1.0000   1.0000   1.0000   1.0000   1.0000   1.0000   1.0000   1.0000
     1.0000   1.0000   1.0000   1.0000   1.0000   1.0000   1.0000   1.0000
     1.0000   1.0000   1.0000   1.0000   1.0000   1.0000   1.0000   1.0000
     1.0000   1.0000   1.0000   1.0000   1.0000   1.0000   1.0000   1.0000
     1.0000   1.0000   1.0000   1.0000   1.0000   1.0000   1.0000   1.0000
     1.0000   1.0000   1.0000   1.0000   1.0000   1.0000   1.0000   1.0000
     1.0000   1.0000   1.0000   1.0000   1.0000   1.0000   1.0000   1.0000
     1.0000   1.0000   1.0000   1.0000   1.0000   1.0000   1.0000   1.0000
     1.0000   1.0000   1.0000   1.0000   1.0000   1.0000   1.0000   1.0000
     1.0000   1.0000   1.0000   1.0000   1.0000   1.0000   1.0000   1.0000
     1.0000   1.0000   1.0000   1.0000   1.0000   1.0000   1.0000   1.0000
     1.0000   1.0000   1.0000   1.0000   1.0000   1.0000   1.0000   1.0000
     0.0000   0.0000   0.0000   0.0000   0.0000   0.0000   0.0000   0.0000
     0.0000   0.0000   0.0000   0.0000   0.0000   0.0000   0.0000   0.0000
     0.0000   0.0000   0.0000   0.0000   0.0000   0.0000   0.0000   0.0000
     0.0000   0.0000   0.0000   0.0000   0.0000   0.0000   0.0000   0.0000
     0.0000   0.0000   0.0000   0.0000   0.0000   0.0000   0.0000   0.0000
     0.0000   0.0000   0.0000   0.0000   0.0000   0.0000   0.0000   0.0000
     0.0000   0.0000   0.0000   0.0000   0.0000   0.0000   0.0000   0.0000
     0.0000   0.0000

          k = 0.0000 0.2500 0.2500 (181164 PWs)   bands (ev):

    -7.3863  -7.1075  -7.1075  -6.8852  -6.8731  -6.8731  -6.7093  -6.7093
    -6.7093  -6.7093  -6.6708  -6.6708  -6.6273  -6.6273  -6.5526  -6.5526
    -6.5303  -6.5303  -6.4773  -6.4773  -6.4773  -6.4773  -6.3914  -6.3240
    -6.3240  -6.3150  -6.3150  -6.3040  -6.3040  -6.2829  -6.2829  -6.2732
    -0.6965  -0.6965  -0.6959  -0.6959  -0.6845  -0.6845  -0.6773  -0.6755
    -0.6755  -0.6634  -0.6570  -0.6548  -0.5951  -0.5924  -0.5924  -0.5896
    -0.5896  -0.5814  -0.5751  -0.5751  -0.5751  -0.5751  -0.5703  -0.5702
    -0.5663  -0.5658  -0.5658  -0.5635  -0.5635  -0.5614  -0.5614  -0.5611
    -0.5611  -0.5599  -0.5592  -0.5592  -0.5514  -0.5514  -0.5514  -0.5514
    -0.5508  -0.5508  -0.5507  -0.5507  -0.5430  -0.5430  -0.5426  -0.5426
    -0.5378  -0.5378  -0.5305  -0.5305  -0.5220  -0.5220  -0.5038  -0.5038
    -0.5038  -0.5038  -0.4779  -0.4779  -0.4723  -0.4723  -0.4723  -0.4723
    -0.4627  -0.4627  -0.4618  -0.4420  -0.4420  -0.4219  -0.4219  -0.4081
    -0.4081  -0.3904  -0.3904  -0.3734  -0.3734  -0.3599  -0.3556  -0.3556
    -0.3398  -0.2968  -0.2968  -0.2880  -0.2880  -0.2783  -0.2783  -0.2771
    -0.2771  -0.2771  -0.2771  -0.2404  -0.2388  -0.2388  -0.2206  -0.2206
    -0.2197  -0.2197  -0.2171  -0.2171  -0.2144  -0.2063  -0.2063  -0.2058
    -0.2058  -0.2027  -0.2027  -0.2027  -0.2027  -0.1988  -0.1918  -0.1881
    -0.1875  -0.1875  -0.1875  -0.1875  -0.1857  -0.1857  -0.1847  -0.1846
    -0.1794  -0.1794  -0.1726  -0.1726  -0.1677  -0.1677  -0.1642  -0.1642
    -0.1629  -0.1605  -0.1605  -0.1594  -0.1594  -0.1507  -0.1507  -0.1507
    -0.1507  -0.1453  -0.1453  -0.1335  -0.1300  -0.1300  -0.1280  -0.1280
    -0.0756  -0.0756  -0.0756  -0.0756  -0.0304  -0.0304  -0.0019   0.0261
     0.0261   0.0638   0.0961   0.0961   0.1315   0.1315   0.1561   0.1561
     0.4952   0.4952   0.9026   0.9026   1.0216   1.0216   1.0395   1.0395
     1.0649   1.1340   1.1340   1.1401   1.1401   1.1401   1.1401   1.1414
     1.2522   1.2522   1.6518   1.6518   1.7918   1.7918   1.7918   1.7918
     2.2228   2.2228   2.4995   2.5761   2.6290   2.6290   2.6331   2.6331
     2.7114   2.7114   2.8512   2.8512   3.0316   3.0971   3.0971   3.0971
     3.0971   3.1550   3.1550   3.2902   3.2902   3.3628   3.3628   3.4212
     3.4212   3.4344   3.4344   3.4809   3.4809   3.5017   3.5091   3.5091
     3.7687   3.7687   3.7687   3.7687   3.8441   3.8441   3.9030   4.0315
     4.0315   4.1833   4.1833   4.2160   4.2990   4.2990   4.3450   4.3450
     4.3662   4.3662   4.3662   4.3662   4.3997   4.3997   4.5609   4.5609
     4.6178   4.6178   4.6378   4.6378   4.6508   4.6508   4.7602   4.7602
     4.7602   4.7602   4.7887   4.9235   4.9235   5.0694   5.3266   5.4997
     8.2087   9.0400   9.0400   9.2894   9.2946   9.2946   9.3566   9.3566
     9.5370   9.5370   9.8660   9.8660   9.8682   9.8682   9.9134   9.9186
     9.9186   9.9642   9.9642   9.9642   9.9642  10.1098  10.1117  10.1592
    10.1592  10.2941  10.2941  10.2941  10.2941  10.3446  10.3446  10.6766
    10.6766  10.6828  10.6828  10.7646  10.7646  10.8441  10.8441  10.9685
    10.9685  11.0499  11.0499  11.4075  11.4075  11.4608  11.4608  11.4984
    11.4984  11.7970  11.7973  11.7973  11.7973  11.9182  11.9188  11.9188
    11.9188  11.9402

     occupation numbers 
     1.0000   1.0000   1.0000   1.0000   1.0000   1.0000   1.0000   1.0000
     1.0000   1.0000   1.0000   1.0000   1.0000   1.0000   1.0000   1.0000
     1.0000   1.0000   1.0000   1.0000   1.0000   1.0000   1.0000   1.0000
     1.0000   1.0000   1.0000   1.0000   1.0000   1.0000   1.0000   1.0000
     1.0000   1.0000   1.0000   1.0000   1.0000   1.0000   1.0000   1.0000
     1.0000   1.0000   1.0000   1.0000   1.0000   1.0000   1.0000   1.0000
     1.0000   1.0000   1.0000   1.0000   1.0000   1.0000   1.0000   1.0000
     1.0000   1.0000   1.0000   1.0000   1.0000   1.0000   1.0000   1.0000
     1.0000   1.0000   1.0000   1.0000   1.0000   1.0000   1.0000   1.0000
     1.0000   1.0000   1.0000   1.0000   1.0000   1.0000   1.0000   1.0000
     1.0000   1.0000   1.0000   1.0000   1.0000   1.0000   1.0000   1.0000
     1.0000   1.0000   1.0000   1.0000   1.0000   1.0000   1.0000   1.0000
     1.0000   1.0000   1.0000   1.0000   1.0000   1.0000   1.0000   1.0000
     1.0000   1.0000   1.0000   1.0000   1.0000   1.0000   1.0000   1.0000
     1.0000   1.0000   1.0000   1.0000   1.0000   1.0000   1.0000   1.0000
     1.0000   1.0000   1.0000   1.0000   1.0000   1.0000   1.0000   1.0000
     1.0000   1.0000   1.0000   1.0000   1.0000   1.0000   1.0000   1.0000
     1.0000   1.0000   1.0000   1.0000   1.0000   1.0000   1.0000   1.0000
     1.0000   1.0000   1.0000   1.0000   1.0000   1.0000   1.0000   1.0000
     1.0000   1.0000   1.0000   1.0000   1.0000   1.0000   1.0000   1.0000
     1.0000   1.0000   1.0000   1.0000   1.0000   1.0000   1.0000   1.0000
     1.0000   1.0000   1.0000   1.0000   1.0000   1.0000   1.0000   1.0000
     1.0000   1.0000   1.0000   1.0000   1.0000   1.0000   1.0000   1.0000
     1.0000   1.0000   1.0000   1.0000   1.0000   1.0000   1.0000   1.0000
     1.0000   1.0000   1.0000   1.0000   1.0000   1.0000   1.0000   1.0000
     1.0000   1.0000   1.0000   1.0000   1.0000   1.0000   1.0000   1.0000
     1.0000   1.0000   1.0000   1.0000   1.0000   1.0000   1.0000   1.0000
     1.0000   1.0000   1.0000   1.0000   1.0000   1.0000   1.0000   1.0000
     1.0000   1.0000   1.0000   1.0000   1.0000   1.0000   1.0000   1.0000
     1.0000   1.0000   1.0000   1.0000   1.0000   1.0000   1.0000   1.0000
     1.0000   1.0000   1.0000   1.0000   1.0000   1.0000   1.0000   1.0000
     1.0000   1.0000   1.0000   1.0000   1.0000   1.0000   1.0000   1.0000
     1.0000   1.0000   1.0000   1.0000   1.0000   1.0000   1.0000   1.0000
     1.0000   1.0000   1.0000   1.0000   1.0000   1.0000   1.0000   1.0000
     1.0000   1.0000   1.0000   1.0000   1.0000   1.0000   1.0000   1.0000
     1.0000   1.0000   1.0000   1.0000   1.0000   1.0000   1.0000   1.0000
     0.0000   0.0000   0.0000   0.0000   0.0000   0.0000   0.0000   0.0000
     0.0000   0.0000   0.0000   0.0000   0.0000   0.0000   0.0000   0.0000
     0.0000   0.0000   0.0000   0.0000   0.0000   0.0000   0.0000   0.0000
     0.0000   0.0000   0.0000   0.0000   0.0000   0.0000   0.0000   0.0000
     0.0000   0.0000   0.0000   0.0000   0.0000   0.0000   0.0000   0.0000
     0.0000   0.0000   0.0000   0.0000   0.0000   0.0000   0.0000   0.0000
     0.0000   0.0000   0.0000   0.0000   0.0000   0.0000   0.0000   0.0000
     0.0000   0.0000

          k = 0.0000 0.2500-0.5000 (181252 PWs)   bands (ev):

    -7.2772  -7.2772  -7.0197  -7.0197  -6.8076  -6.8076  -6.8076  -6.8076
    -6.6753  -6.6753  -6.6753  -6.6753  -6.6231  -6.6231  -6.4968  -6.4968
    -6.4968  -6.4968  -6.4673  -6.4673  -6.4049  -6.4049  -6.3797  -6.3797
    -6.3797  -6.3797  -6.3257  -6.3257  -6.3155  -6.3155  -6.2766  -6.2766
    -0.6851  -0.6851  -0.6848  -0.6848  -0.6566  -0.6566  -0.6377  -0.6377
    -0.6368  -0.6368  -0.6361  -0.6361  -0.6361  -0.6361  -0.6313  -0.6313
    -0.6206  -0.6206  -0.6115  -0.6115  -0.5912  -0.5912  -0.5817  -0.5816
    -0.5750  -0.5750  -0.5750  -0.5750  -0.5650  -0.5650  -0.5599  -0.5599
    -0.5567  -0.5567  -0.5567  -0.5567  -0.5535  -0.5535  -0.5535  -0.5535
    -0.5453  -0.5453  -0.5453  -0.5453  -0.5453  -0.5453  -0.5453  -0.5453
    -0.5218  -0.5218  -0.5218  -0.5218  -0.5169  -0.5169  -0.5169  -0.5169
    -0.5002  -0.5001  -0.4743  -0.4743  -0.4743  -0.4743  -0.4736  -0.4736
    -0.4425  -0.4425  -0.4329  -0.4329  -0.4194  -0.4194  -0.4058  -0.4058
    -0.4058  -0.4058  -0.3996  -0.3996  -0.3996  -0.3996  -0.3827  -0.3827
    -0.3366  -0.3366  -0.3240  -0.3239  -0.3191  -0.3191  -0.2540  -0.2540
    -0.2502  -0.2502  -0.2502  -0.2502  -0.2405  -0.2404  -0.2404  -0.2404
    -0.2153  -0.2153  -0.2081  -0.2081  -0.2078  -0.2078  -0.2078  -0.2078
    -0.1937  -0.1937  -0.1937  -0.1937  -0.1877  -0.1877  -0.1848  -0.1847
    -0.1847  -0.1846  -0.1846  -0.1846  -0.1838  -0.1837  -0.1757  -0.1757
    -0.1757  -0.1757  -0.1717  -0.1717  -0.1701  -0.1701  -0.1592  -0.1592
    -0.1592  -0.1592  -0.1551  -0.1551  -0.1551  -0.1551  -0.1511  -0.1510
    -0.1473  -0.1473  -0.1444  -0.1444  -0.1428  -0.1428  -0.1335  -0.1335
    -0.0380  -0.0380  -0.0221  -0.0221  -0.0221  -0.0221   0.0280   0.0280
     0.0513   0.0513   0.0513   0.0513   0.1095   0.1095   0.1161   0.1161
     0.7574   0.7574   0.7574   0.7574   1.0043   1.0043   1.0043   1.0043
     1.0391   1.0391   1.0492   1.0492   1.2054   1.2054   1.3335   1.3335
     1.3335   1.3335   1.3439   1.3439   1.6787   1.6787   1.9641   1.9641
     2.2234   2.2234   2.2234   2.2234   2.4981   2.4981   2.7665   2.7665
     2.8570   2.8570   2.8570   2.8570   2.9262   2.9262   3.0004   3.0005
     3.1187   3.1187   3.3357   3.3357   3.5247   3.5248   3.5317   3.5317
     3.5466   3.5466   3.6549   3.6549   3.6549   3.6549   3.6677   3.6677
     3.7653   3.7653   3.8925   3.8925   3.9228   3.9228   3.9228   3.9228
     4.1118   4.1118   4.1118   4.1118   4.1511   4.1511   4.1692   4.1692
     4.2612   4.2612   4.2612   4.2612   4.3143   4.3143   4.4401   4.4401
     4.4401   4.4401   4.6268   4.6268   4.6268   4.6268   4.7169   4.7169
     4.7169   4.7169   5.0321   5.0321   5.1070   5.1070   5.3080   5.3080
     8.8306   8.8306   9.4218   9.4218   9.4218   9.4218   9.5175   9.5175
     9.6611   9.6611   9.6669   9.6669   9.8732   9.8732   9.8732   9.8732
     9.8973   9.8973   9.8973   9.8973   9.9223   9.9223  10.0192  10.0192
    10.0751  10.0751  10.3906  10.3906  10.4653  10.4653  10.5204  10.5204
    10.6459  10.6459  10.6459  10.6459  10.7779  10.7779  10.9119  10.9119
    11.0648  11.0648  11.3097  11.3097  11.3097  11.3097  11.3744  11.3745
    11.3775  11.3775  11.5657  11.5657  11.5657  11.5658  11.7592  11.7593
    11.9110  11.9111

     occupation numbers 
     1.0000   1.0000   1.0000   1.0000   1.0000   1.0000   1.0000   1.0000
     1.0000   1.0000   1.0000   1.0000   1.0000   1.0000   1.0000   1.0000
     1.0000   1.0000   1.0000   1.0000   1.0000   1.0000   1.0000   1.0000
     1.0000   1.0000   1.0000   1.0000   1.0000   1.0000   1.0000   1.0000
     1.0000   1.0000   1.0000   1.0000   1.0000   1.0000   1.0000   1.0000
     1.0000   1.0000   1.0000   1.0000   1.0000   1.0000   1.0000   1.0000
     1.0000   1.0000   1.0000   1.0000   1.0000   1.0000   1.0000   1.0000
     1.0000   1.0000   1.0000   1.0000   1.0000   1.0000   1.0000   1.0000
     1.0000   1.0000   1.0000   1.0000   1.0000   1.0000   1.0000   1.0000
     1.0000   1.0000   1.0000   1.0000   1.0000   1.0000   1.0000   1.0000
     1.0000   1.0000   1.0000   1.0000   1.0000   1.0000   1.0000   1.0000
     1.0000   1.0000   1.0000   1.0000   1.0000   1.0000   1.0000   1.0000
     1.0000   1.0000   1.0000   1.0000   1.0000   1.0000   1.0000   1.0000
     1.0000   1.0000   1.0000   1.0000   1.0000   1.0000   1.0000   1.0000
     1.0000   1.0000   1.0000   1.0000   1.0000   1.0000   1.0000   1.0000
     1.0000   1.0000   1.0000   1.0000   1.0000   1.0000   1.0000   1.0000
     1.0000   1.0000   1.0000   1.0000   1.0000   1.0000   1.0000   1.0000
     1.0000   1.0000   1.0000   1.0000   1.0000   1.0000   1.0000   1.0000
     1.0000   1.0000   1.0000   1.0000   1.0000   1.0000   1.0000   1.0000
     1.0000   1.0000   1.0000   1.0000   1.0000   1.0000   1.0000   1.0000
     1.0000   1.0000   1.0000   1.0000   1.0000   1.0000   1.0000   1.0000
     1.0000   1.0000   1.0000   1.0000   1.0000   1.0000   1.0000   1.0000
     1.0000   1.0000   1.0000   1.0000   1.0000   1.0000   1.0000   1.0000
     1.0000   1.0000   1.0000   1.0000   1.0000   1.0000   1.0000   1.0000
     1.0000   1.0000   1.0000   1.0000   1.0000   1.0000   1.0000   1.0000
     1.0000   1.0000   1.0000   1.0000   1.0000   1.0000   1.0000   1.0000
     1.0000   1.0000   1.0000   1.0000   1.0000   1.0000   1.0000   1.0000
     1.0000   1.0000   1.0000   1.0000   1.0000   1.0000   1.0000   1.0000
     1.0000   1.0000   1.0000   1.0000   1.0000   1.0000   1.0000   1.0000
     1.0000   1.0000   1.0000   1.0000   1.0000   1.0000   1.0000   1.0000
     1.0000   1.0000   1.0000   1.0000   1.0000   1.0000   1.0000   1.0000
     1.0000   1.0000   1.0000   1.0000   1.0000   1.0000   1.0000   1.0000
     1.0000   1.0000   1.0000   1.0000   1.0000   1.0000   1.0000   1.0000
     1.0000   1.0000   1.0000   1.0000   1.0000   1.0000   1.0000   1.0000
     1.0000   1.0000   1.0000   1.0000   1.0000   1.0000   1.0000   1.0000
     1.0000   1.0000   1.0000   1.0000   1.0000   1.0000   1.0000   1.0000
     0.0000   0.0000   0.0000   0.0000   0.0000   0.0000   0.0000   0.0000
     0.0000   0.0000   0.0000   0.0000   0.0000   0.0000   0.0000   0.0000
     0.0000   0.0000   0.0000   0.0000   0.0000   0.0000   0.0000   0.0000
     0.0000   0.0000   0.0000   0.0000   0.0000   0.0000   0.0000   0.0000
     0.0000   0.0000   0.0000   0.0000   0.0000   0.0000   0.0000   0.0000
     0.0000   0.0000   0.0000   0.0000   0.0000   0.0000   0.0000   0.0000
     0.0000   0.0000   0.0000   0.0000   0.0000   0.0000   0.0000   0.0000
     0.0000   0.0000

          k = 0.0000-0.5000-0.5000 (181132 PWs)   bands (ev):

    -7.1761  -7.1761  -7.1761  -7.1761  -6.7542  -6.7542  -6.7542  -6.7542
    -6.7542  -6.7542  -6.7542  -6.7542  -6.4417  -6.4417  -6.4417  -6.4417
    -6.4417  -6.4417  -6.4417  -6.4417  -6.4255  -6.4255  -6.4255  -6.4255
    -6.4255  -6.4255  -6.4255  -6.4255  -6.2955  -6.2955  -6.2955  -6.2955
    -0.6656  -0.6656  -0.6656  -0.6656  -0.6300  -0.6300  -0.6300  -0.6300
    -0.6256  -0.6256  -0.6256  -0.6256  -0.6256  -0.6256  -0.6256  -0.6256
    -0.6130  -0.6130  -0.6130  -0.6130  -0.6046  -0.6046  -0.6046  -0.6046
    -0.6046  -0.6046  -0.6046  -0.6046  -0.5906  -0.5906  -0.5906  -0.5906
    -0.5506  -0.5506  -0.5506  -0.5506  -0.5505  -0.5505  -0.5505  -0.5505
    -0.5482  -0.5482  -0.5482  -0.5482  -0.5482  -0.5482  -0.5482  -0.5482
    -0.4964  -0.4964  -0.4964  -0.4964  -0.4964  -0.4964  -0.4964  -0.4964
    -0.4877  -0.4877  -0.4877  -0.4877  -0.4877  -0.4877  -0.4877  -0.4877
    -0.4481  -0.4481  -0.4481  -0.4481  -0.4481  -0.4481  -0.4481  -0.4481
    -0.4030  -0.4030  -0.4030  -0.4030  -0.3756  -0.3756  -0.3756  -0.3756
    -0.3756  -0.3756  -0.3756  -0.3756  -0.2932  -0.2932  -0.2932  -0.2932
    -0.2435  -0.2435  -0.2435  -0.2435  -0.2435  -0.2435  -0.2435  -0.2435
    -0.2087  -0.2087  -0.2087  -0.2087  -0.1920  -0.1920  -0.1920  -0.1920
    -0.1920  -0.1920  -0.1920  -0.1920  -0.1827  -0.1827  -0.1827  -0.1827
    -0.1818  -0.1818  -0.1818  -0.1818  -0.1818  -0.1818  -0.1818  -0.1818
    -0.1623  -0.1623  -0.1623  -0.1623  -0.1622  -0.1622  -0.1622  -0.1622
    -0.1601  -0.1601  -0.1601  -0.1601  -0.1492  -0.1492  -0.1492  -0.1492
    -0.1492  -0.1492  -0.1492  -0.1492  -0.0951  -0.0951  -0.0951  -0.0951
    -0.0951  -0.0951  -0.0951  -0.0951   0.0638   0.0638   0.0639   0.0639
     0.0639   0.0639   0.0639   0.0639   0.1362   0.1362   0.1362   0.1362
     0.7754   0.7754   0.7754   0.7754   0.7754   0.7754   0.7754   0.7754
     1.0209   1.0209   1.0209   1.0209   1.5375   1.5375   1.5375   1.5375
     1.5375   1.5375   1.5375   1.5375   1.7759   1.7759   1.7759   1.7759
     1.7759   1.7759   1.7759   1.7759   2.5324   2.5324   2.5324   2.5324
     3.2601   3.2601   3.2601   3.2601   3.2601   3.2601   3.2601   3.2601
     3.2671   3.2671   3.2671   3.2671   3.2671   3.2671   3.2671   3.2671
     3.5829   3.5829   3.5829   3.5829   3.6964   3.6964   3.6964   3.6964
     3.6964   3.6964   3.6964   3.6964   3.7969   3.7969   3.7969   3.7969
     4.1337   4.1337   4.1337   4.1337   4.1337   4.1337   4.1337   4.1337
     4.4456   4.4456   4.4456   4.4456   4.4456   4.4456   4.4456   4.4456
     4.5218   4.5218   4.5218   4.5218   4.5218   4.5218   4.5218   4.5218
     4.7210   4.7210   4.7210   4.7210   5.3490   5.3490   5.3490   5.3490
     9.1540   9.1540   9.1540   9.1541   9.5578   9.5578   9.5578   9.5578
     9.5578   9.5578   9.5578   9.5578   9.6788   9.6788   9.6788   9.6788
    10.1555  10.1555  10.1555  10.1555  10.1555  10.1555  10.1555  10.1555
    10.3246  10.3246  10.3246  10.3246  10.3246  10.3246  10.3246  10.3246
    10.4724  10.4724  10.4724  10.4724  10.4724  10.4724  10.4724  10.4724
    11.4429  11.4429  11.4429  11.4429  11.5070  11.5070  11.5070  11.5070
    11.5070  11.5070  11.5070  11.5070  11.6172  11.6172  11.6172  11.6172
    11.7975  11.7975

     occupation numbers 
     1.0000   1.0000   1.0000   1.0000   1.0000   1.0000   1.0000   1.0000
     1.0000   1.0000   1.0000   1.0000   1.0000   1.0000   1.0000   1.0000
     1.0000   1.0000   1.0000   1.0000   1.0000   1.0000   1.0000   1.0000
     1.0000   1.0000   1.0000   1.0000   1.0000   1.0000   1.0000   1.0000
     1.0000   1.0000   1.0000   1.0000   1.0000   1.0000   1.0000   1.0000
     1.0000   1.0000   1.0000   1.0000   1.0000   1.0000   1.0000   1.0000
     1.0000   1.0000   1.0000   1.0000   1.0000   1.0000   1.0000   1.0000
     1.0000   1.0000   1.0000   1.0000   1.0000   1.0000   1.0000   1.0000
     1.0000   1.0000   1.0000   1.0000   1.0000   1.0000   1.0000   1.0000
     1.0000   1.0000   1.0000   1.0000   1.0000   1.0000   1.0000   1.0000
     1.0000   1.0000   1.0000   1.0000   1.0000   1.0000   1.0000   1.0000
     1.0000   1.0000   1.0000   1.0000   1.0000   1.0000   1.0000   1.0000
     1.0000   1.0000   1.0000   1.0000   1.0000   1.0000   1.0000   1.0000
     1.0000   1.0000   1.0000   1.0000   1.0000   1.0000   1.0000   1.0000
     1.0000   1.0000   1.0000   1.0000   1.0000   1.0000   1.0000   1.0000
     1.0000   1.0000   1.0000   1.0000   1.0000   1.0000   1.0000   1.0000
     1.0000   1.0000   1.0000   1.0000   1.0000   1.0000   1.0000   1.0000
     1.0000   1.0000   1.0000   1.0000   1.0000   1.0000   1.0000   1.0000
     1.0000   1.0000   1.0000   1.0000   1.0000   1.0000   1.0000   1.0000
     1.0000   1.0000   1.0000   1.0000   1.0000   1.0000   1.0000   1.0000
     1.0000   1.0000   1.0000   1.0000   1.0000   1.0000   1.0000   1.0000
     1.0000   1.0000   1.0000   1.0000   1.0000   1.0000   1.0000   1.0000
     1.0000   1.0000   1.0000   1.0000   1.0000   1.0000   1.0000   1.0000
     1.0000   1.0000   1.0000   1.0000   1.0000   1.0000   1.0000   1.0000
     1.0000   1.0000   1.0000   1.0000   1.0000   1.0000   1.0000   1.0000
     1.0000   1.0000   1.0000   1.0000   1.0000   1.0000   1.0000   1.0000
     1.0000   1.0000   1.0000   1.0000   1.0000   1.0000   1.0000   1.0000
     1.0000   1.0000   1.0000   1.0000   1.0000   1.0000   1.0000   1.0000
     1.0000   1.0000   1.0000   1.0000   1.0000   1.0000   1.0000   1.0000
     1.0000   1.0000   1.0000   1.0000   1.0000   1.0000   1.0000   1.0000
     1.0000   1.0000   1.0000   1.0000   1.0000   1.0000   1.0000   1.0000
     1.0000   1.0000   1.0000   1.0000   1.0000   1.0000   1.0000   1.0000
     1.0000   1.0000   1.0000   1.0000   1.0000   1.0000   1.0000   1.0000
     1.0000   1.0000   1.0000   1.0000   1.0000   1.0000   1.0000   1.0000
     1.0000   1.0000   1.0000   1.0000   1.0000   1.0000   1.0000   1.0000
     1.0000   1.0000   1.0000   1.0000   1.0000   1.0000   1.0000   1.0000
     0.0000   0.0000   0.0000   0.0000   0.0000   0.0000   0.0000   0.0000
[...]
     1.0000   1.0000   1.0000   1.0000   1.0000   1.0000   1.0000   1.0000
     1.0000   1.0000   1.0000   1.0000   1.0000   1.0000   1.0000   1.0000
     1.0000   1.0000   1.0000   1.0000   1.0000   1.0000   1.0000   1.0000
     1.0000   1.0000   1.0000   1.0000   1.0000   1.0000   1.0000   1.0000
     1.0000   1.0000   1.0000   1.0000   1.0000   1.0000   1.0000   1.0000
     1.0000   1.0000   1.0000   1.0000   1.0000   1.0000   1.0000   1.0000
     1.0000   1.0000   1.0000   1.0000   1.0000   1.0000   1.0000   1.0000
     1.0000   1.0000   1.0000   1.0000   1.0000   1.0000   1.0000   1.0000
     1.0000   1.0000   1.0000   1.0000   1.0000   1.0000   1.0000   1.0000
     1.0000   1.0000   1.0000   1.0000   1.0000   1.0000   1.0000   1.0000
     1.0000   1.0000   1.0000   1.0000   1.0000   1.0000   1.0000   1.0000
     1.0000   1.0000   1.0000   1.0000   1.0000   1.0000   1.0000   1.0000
     1.0000   1.0000   1.0000   1.0000   1.0000   1.0000   1.0000   1.0000
     1.0000   1.0000   1.0000   1.0000   1.0000   1.0000   1.0000   1.0000
     1.0000   1.0000   1.0000   1.0000   1.0000   1.0000   1.0000   1.0000
     1.0000   1.0000   1.0000   1.0000   1.0000   1.0000   1.0000   1.0000
     1.0000   1.0000   1.0000   1.0000   1.0000   1.0000   1.0000   1.0000
     1.0000   1.0000   1.0000   1.0000   1.0000   1.0000   1.0000   1.0000
     1.0000   1.0000   1.0000   1.0000   1.0000   1.0000   1.0000   1.0000
     0.0000   0.0000   0.0000   0.0000   0.0000   0.0000   0.0000   0.0000
     0.0000   0.0000   0.0000   0.0000   0.0000   0.0000   0.0000   0.0000
     0.0000   0.0000   0.0000   0.0000   0.0000   0.0000   0.0000   0.0000
     0.0000   0.0000   0.0000   0.0000   0.0000   0.0000   0.0000   0.0000
     0.0000   0.0000   0.0000   0.0000   0.0000   0.0000   0.0000   0.0000
     0.0000   0.0000   0.0000   0.0000   0.0000   0.0000   0.0000   0.0000
     0.0000   0.0000   0.0000   0.0000   0.0000   0.0000   0.0000   0.0000
     0.0000   0.0000

          k = 0.2500-0.5000-0.5000 (181184 PWs)   bands (ev):

    -7.1452  -7.1452  -7.1452  -7.1452  -6.9199  -6.9199  -6.9199  -6.9199
    -6.5830  -6.5830  -6.5830  -6.5830  -6.4394  -6.4394  -6.4393  -6.4393
    -6.4393  -6.4393  -6.4393  -6.4393  -6.4279  -6.4279  -6.4279  -6.4279
    -6.4279  -6.4279  -6.4279  -6.4279  -6.3317  -6.3317  -6.3317  -6.3317
    -0.6552  -0.6552  -0.6552  -0.6552  -0.6253  -0.6253  -0.6253  -0.6253
    -0.6155  -0.6155  -0.6155  -0.6155  -0.6155  -0.6155  -0.6155  -0.6155
    -0.6130  -0.6130  -0.6130  -0.6129  -0.6113  -0.6113  -0.6113  -0.6113
    -0.5966  -0.5966  -0.5966  -0.5966  -0.5903  -0.5903  -0.5903  -0.5903
    -0.5848  -0.5848  -0.5848  -0.5848  -0.5651  -0.5651  -0.5651  -0.5651
    -0.5650  -0.5650  -0.5650  -0.5650  -0.5650  -0.5650  -0.5650  -0.5650
    -0.5034  -0.5034  -0.5034  -0.5034  -0.4813  -0.4813  -0.4813  -0.4813
    -0.4813  -0.4813  -0.4813  -0.4813  -0.4456  -0.4456  -0.4456  -0.4456
    -0.4456  -0.4456  -0.4456  -0.4456  -0.4183  -0.4183  -0.4183  -0.4183
    -0.4048  -0.4048  -0.4048  -0.4048  -0.3746  -0.3746  -0.3746  -0.3746
    -0.3746  -0.3746  -0.3746  -0.3746  -0.3074  -0.3074  -0.3074  -0.3074
    -0.2833  -0.2833  -0.2833  -0.2833  -0.2833  -0.2833  -0.2833  -0.2833
    -0.2043  -0.2043  -0.2043  -0.2043  -0.1987  -0.1987  -0.1987  -0.1987
    -0.1855  -0.1855  -0.1855  -0.1854  -0.1768  -0.1768  -0.1768  -0.1767
    -0.1660  -0.1660  -0.1660  -0.1660  -0.1660  -0.1660  -0.1659  -0.1659
    -0.1569  -0.1569  -0.1569  -0.1569  -0.1533  -0.1533  -0.1533  -0.1533
    -0.1483  -0.1483  -0.1483  -0.1483  -0.1483  -0.1483  -0.1483  -0.1483
    -0.1445  -0.1445  -0.1445  -0.1445  -0.0794  -0.0794  -0.0794  -0.0794
    -0.0794  -0.0794  -0.0794  -0.0794   0.0267   0.0267   0.0267   0.0267
     0.0267   0.0267   0.0268   0.0268   0.0864   0.0864   0.0864   0.0864
     0.8948   0.8948   0.8948   0.8948   0.8948   0.8948   0.8948   0.8948
     1.0411   1.0411   1.0411   1.0411   1.4113   1.4113   1.4113   1.4113
     1.4238   1.4238   1.4238   1.4239   1.4239   1.4239   1.4239   1.4239
     2.2352   2.2352   2.2352   2.2352   2.7311   2.7311   2.7311   2.7311
     3.2278   3.2278   3.2278   3.2278   3.2278   3.2278   3.2278   3.2278
     3.2483   3.2483   3.2483   3.2483   3.2483   3.2483   3.2483   3.2483
     3.2931   3.2931   3.2931   3.2931   3.8164   3.8164   3.8164   3.8164
     3.8164   3.8164   3.8164   3.8164   3.8326   3.8326   3.8326   3.8326
     3.8497   3.8497   3.8497   3.8497   4.1072   4.1072   4.1072   4.1072
     4.1072   4.1072   4.1072   4.1072   4.2353   4.2353   4.2353   4.2353
     4.8229   4.8229   4.8229   4.8229   4.9166   4.9166   4.9166   4.9166
     4.9213   4.9213   4.9213   4.9213   5.2809   5.2809   5.2809   5.2809
     9.0362   9.0362   9.0362   9.0362   9.1463   9.1463   9.1463   9.1463
     9.7350   9.7350   9.7350   9.7350   9.8577   9.8577   9.8577   9.8577
     9.9098   9.9098   9.9098   9.9098   9.9098   9.9098   9.9098   9.9098
    10.0967  10.0967  10.0967  10.0967  10.0967  10.0967  10.0967  10.0967
    10.9150  10.9150  10.9150  10.9150  10.9150  10.9150  10.9150  10.9150
    11.4500  11.4500  11.4500  11.4500  11.5284  11.5285  11.5285  11.5285
    11.6421  11.6421  11.6421  11.6421  11.6421  11.6421  11.6421  11.6421
    11.8823  11.8824

     occupation numbers 
     1.0000   1.0000   1.0000   1.0000   1.0000   1.0000   1.0000   1.0000
     1.0000   1.0000   1.0000   1.0000   1.0000   1.0000   1.0000   1.0000
     1.0000   1.0000   1.0000   1.0000   1.0000   1.0000   1.0000   1.0000
     1.0000   1.0000   1.0000   1.0000   1.0000   1.0000   1.0000   1.0000
     1.0000   1.0000   1.0000   1.0000   1.0000   1.0000   1.0000   1.0000
     1.0000   1.0000   1.0000   1.0000   1.0000   1.0000   1.0000   1.0000
     1.0000   1.0000   1.0000   1.0000   1.0000   1.0000   1.0000   1.0000
     1.0000   1.0000   1.0000   1.0000   1.0000   1.0000   1.0000   1.0000
     1.0000   1.0000   1.0000   1.0000   1.0000   1.0000   1.0000   1.0000
     1.0000   1.0000   1.0000   1.0000   1.0000   1.0000   1.0000   1.0000
     1.0000   1.0000   1.0000   1.0000   1.0000   1.0000   1.0000   1.0000
     1.0000   1.0000   1.0000   1.0000   1.0000   1.0000   1.0000   1.0000
     1.0000   1.0000   1.0000   1.0000   1.0000   1.0000   1.0000   1.0000
     1.0000   1.0000   1.0000   1.0000   1.0000   1.0000   1.0000   1.0000
     1.0000   1.0000   1.0000   1.0000   1.0000   1.0000   1.0000   1.0000
     1.0000   1.0000   1.0000   1.0000   1.0000   1.0000   1.0000   1.0000
     1.0000   1.0000   1.0000   1.0000   1.0000   1.0000   1.0000   1.0000
     1.0000   1.0000   1.0000   1.0000   1.0000   1.0000   1.0000   1.0000
     1.0000   1.0000   1.0000   1.0000   1.0000   1.0000   1.0000   1.0000
     1.0000   1.0000   1.0000   1.0000   1.0000   1.0000   1.0000   1.0000
     1.0000   1.0000   1.0000   1.0000   1.0000   1.0000   1.0000   1.0000
     1.0000   1.0000   1.0000   1.0000   1.0000   1.0000   1.0000   1.0000
     1.0000   1.0000   1.0000   1.0000   1.0000   1.0000   1.0000   1.0000
     1.0000   1.0000   1.0000   1.0000   1.0000   1.0000   1.0000   1.0000
     1.0000   1.0000   1.0000   1.0000   1.0000   1.0000   1.0000   1.0000
     1.0000   1.0000   1.0000   1.0000   1.0000   1.0000   1.0000   1.0000
     1.0000   1.0000   1.0000   1.0000   1.0000   1.0000   1.0000   1.0000
     1.0000   1.0000   1.0000   1.0000   1.0000   1.0000   1.0000   1.0000
     1.0000   1.0000   1.0000   1.0000   1.0000   1.0000   1.0000   1.0000
     1.0000   1.0000   1.0000   1.0000   1.0000   1.0000   1.0000   1.0000
     1.0000   1.0000   1.0000   1.0000   1.0000   1.0000   1.0000   1.0000
     1.0000   1.0000   1.0000   1.0000   1.0000   1.0000   1.0000   1.0000
     1.0000   1.0000   1.0000   1.0000   1.0000   1.0000   1.0000   1.0000
     1.0000   1.0000   1.0000   1.0000   1.0000   1.0000   1.0000   1.0000
     1.0000   1.0000   1.0000   1.0000   1.0000   1.0000   1.0000   1.0000
     1.0000   1.0000   1.0000   1.0000   1.0000   1.0000   1.0000   1.0000
     0.0000   0.0000   0.0000   0.0000   0.0000   0.0000   0.0000   0.0000
     0.0000   0.0000   0.0000   0.0000   0.0000   0.0000   0.0000   0.0000
     0.0000   0.0000   0.0000   0.0000   0.0000   0.0000   0.0000   0.0000
     0.0000   0.0000   0.0000   0.0000   0.0000   0.0000   0.0000   0.0000
     0.0000   0.0000   0.0000   0.0000   0.0000   0.0000   0.0000   0.0000
     0.0000   0.0000   0.0000   0.0000   0.0000   0.0000   0.0000   0.0000
     0.0000   0.0000   0.0000   0.0000   0.0000   0.0000   0.0000   0.0000
     0.0000   0.0000

          k =-0.5000-0.5000-0.5000 (180832 PWs)   bands (ev):

    -7.0562  -7.0562  -7.0562  -7.0562  -7.0562  -7.0562  -7.0562  -7.0562
    -6.4337  -6.4337  -6.4337  -6.4337  -6.4337  -6.4336  -6.4336  -6.4336
    -6.4336  -6.4336  -6.4336  -6.4336  -6.4336  -6.4336  -6.4336  -6.4336
    -6.4336  -6.4336  -6.4336  -6.4336  -6.4336  -6.4336  -6.4336  -6.4336
    -0.6248  -0.6248  -0.6248  -0.6248  -0.6248  -0.6248  -0.6248  -0.6248
    -0.6105  -0.6105  -0.6105  -0.6105  -0.6105  -0.6105  -0.6105  -0.6105
    -0.6105  -0.6105  -0.6105  -0.6105  -0.6105  -0.6105  -0.6105  -0.6105
    -0.5913  -0.5913  -0.5913  -0.5913  -0.5913  -0.5913  -0.5913  -0.5913
    -0.5913  -0.5913  -0.5913  -0.5913  -0.5913  -0.5913  -0.5913  -0.5913
    -0.5913  -0.5913  -0.5913  -0.5913  -0.5913  -0.5913  -0.5913  -0.5913
    -0.4565  -0.4565  -0.4565  -0.4564  -0.4564  -0.4564  -0.4564  -0.4564
    -0.4564  -0.4564  -0.4564  -0.4564  -0.4564  -0.4564  -0.4564  -0.4564
    -0.4564  -0.4564  -0.4564  -0.4564  -0.4564  -0.4564  -0.4564  -0.4564
    -0.3445  -0.3445  -0.3445  -0.3445  -0.3445  -0.3445  -0.3445  -0.3445
    -0.3445  -0.3445  -0.3445  -0.3445  -0.3445  -0.3445  -0.3445  -0.3445
    -0.3445  -0.3445  -0.3445  -0.3445  -0.3445  -0.3445  -0.3445  -0.3445
    -0.1924  -0.1924  -0.1924  -0.1924  -0.1924  -0.1924  -0.1924  -0.1924
    -0.1924  -0.1924  -0.1924  -0.1924  -0.1924  -0.1924  -0.1924  -0.1924
    -0.1522  -0.1522  -0.1522  -0.1522  -0.1522  -0.1522  -0.1522  -0.1522
    -0.1522  -0.1522  -0.1522  -0.1522  -0.1522  -0.1522  -0.1522  -0.1522
    -0.1522  -0.1522  -0.1522  -0.1522  -0.1522  -0.1522  -0.1522  -0.1522
    -0.0347  -0.0347  -0.0347  -0.0347  -0.0347  -0.0347  -0.0347  -0.0347
    -0.0347  -0.0347  -0.0347  -0.0347  -0.0347  -0.0347  -0.0347  -0.0347
    -0.0347  -0.0347  -0.0347  -0.0347  -0.0347  -0.0346  -0.0346  -0.0346
     1.1606   1.1606   1.1606   1.1606   1.1606   1.1606   1.1606   1.1606
     1.1606   1.1606   1.1606   1.1606   1.1606   1.1606   1.1606   1.1606
     1.1606   1.1606   1.1606   1.1606   1.1606   1.1606   1.1606   1.1606
     2.7629   2.7629   2.7629   2.7629   2.7629   2.7629   2.7629   2.7629
     3.2190   3.2190   3.2190   3.2190   3.2190   3.2190   3.2190   3.2190
     3.2190   3.2190   3.2190   3.2190   3.2190   3.2190   3.2190   3.2190
     3.2190   3.2190   3.2190   3.2190   3.2190   3.2190   3.2190   3.2190
     4.0018   4.0018   4.0018   4.0018   4.0018   4.0018   4.0018   4.0018
     4.0018   4.0018   4.0018   4.0018   4.0018   4.0018   4.0018   4.0018
     4.0018   4.0018   4.0018   4.0018   4.0018   4.0018   4.0018   4.0018
     5.0923   5.0923   5.0923   5.0923   5.0923   5.0923   5.0923   5.0923
     5.0923   5.0923   5.0923   5.0923   5.0923   5.0923   5.0923   5.0923
     8.9406   8.9406   8.9406   8.9406   8.9406   8.9406   8.9406   8.9406
     9.8558   9.8558   9.8558   9.8558   9.8558   9.8558   9.8558   9.8558
     9.8558   9.8558   9.8558   9.8558   9.8558   9.8558   9.8558   9.8558
     9.8558   9.8558   9.8558   9.8558   9.8558   9.8558   9.8558   9.8558
    11.4620  11.4620  11.4620  11.4620  11.4620  11.4620  11.4620  11.4620
    11.4620  11.4620  11.4620  11.4620  11.4620  11.4620  11.4620  11.4620
    11.4620  11.4620  11.4620  11.4620  11.4620  11.4620  11.4620  11.4620
    12.4105  12.4105

     occupation numbers 
     1.0000   1.0000   1.0000   1.0000   1.0000   1.0000   1.0000   1.0000
     1.0000   1.0000   1.0000   1.0000   1.0000   1.0000   1.0000   1.0000
     1.0000   1.0000   1.0000   1.0000   1.0000   1.0000   1.0000   1.0000
     1.0000   1.0000   1.0000   1.0000   1.0000   1.0000   1.0000   1.0000
     1.0000   1.0000   1.0000   1.0000   1.0000   1.0000   1.0000   1.0000
     1.0000   1.0000   1.0000   1.0000   1.0000   1.0000   1.0000   1.0000
     1.0000   1.0000   1.0000   1.0000   1.0000   1.0000   1.0000   1.0000
     1.0000   1.0000   1.0000   1.0000   1.0000   1.0000   1.0000   1.0000
     1.0000   1.0000   1.0000   1.0000   1.0000   1.0000   1.0000   1.0000
     1.0000   1.0000   1.0000   1.0000   1.0000   1.0000   1.0000   1.0000
     1.0000   1.0000   1.0000   1.0000   1.0000   1.0000   1.0000   1.0000
     1.0000   1.0000   1.0000   1.0000   1.0000   1.0000   1.0000   1.0000
     1.0000   1.0000   1.0000   1.0000   1.0000   1.0000   1.0000   1.0000
     1.0000   1.0000   1.0000   1.0000   1.0000   1.0000   1.0000   1.0000
     1.0000   1.0000   1.0000   1.0000   1.0000   1.0000   1.0000   1.0000
     1.0000   1.0000   1.0000   1.0000   1.0000   1.0000   1.0000   1.0000
     1.0000   1.0000   1.0000   1.0000   1.0000   1.0000   1.0000   1.0000
     1.0000   1.0000   1.0000   1.0000   1.0000   1.0000   1.0000   1.0000
     1.0000   1.0000   1.0000   1.0000   1.0000   1.0000   1.0000   1.0000
     1.0000   1.0000   1.0000   1.0000   1.0000   1.0000   1.0000   1.0000
     1.0000   1.0000   1.0000   1.0000   1.0000   1.0000   1.0000   1.0000
     1.0000   1.0000   1.0000   1.0000   1.0000   1.0000   1.0000   1.0000
     1.0000   1.0000   1.0000   1.0000   1.0000   1.0000   1.0000   1.0000
     1.0000   1.0000   1.0000   1.0000   1.0000   1.0000   1.0000   1.0000
     1.0000   1.0000   1.0000   1.0000   1.0000   1.0000   1.0000   1.0000
     1.0000   1.0000   1.0000   1.0000   1.0000   1.0000   1.0000   1.0000
     1.0000   1.0000   1.0000   1.0000   1.0000   1.0000   1.0000   1.0000
     1.0000   1.0000   1.0000   1.0000   1.0000   1.0000   1.0000   1.0000
     1.0000   1.0000   1.0000   1.0000   1.0000   1.0000   1.0000   1.0000
     1.0000   1.0000   1.0000   1.0000   1.0000   1.0000   1.0000   1.0000
     1.0000   1.0000   1.0000   1.0000   1.0000   1.0000   1.0000   1.0000
     1.0000   1.0000   1.0000   1.0000   1.0000   1.0000   1.0000   1.0000
     1.0000   1.0000   1.0000   1.0000   1.0000   1.0000   1.0000   1.0000
     1.0000   1.0000   1.0000   1.0000   1.0000   1.0000   1.0000   1.0000
     1.0000   1.0000   1.0000   1.0000   1.0000   1.0000   1.0000   1.0000
     1.0000   1.0000   1.0000   1.0000   1.0000   1.0000   1.0000   1.0000
     0.0000   0.0000   0.0000   0.0000   0.0000   0.0000   0.0000   0.0000
     0.0000   0.0000   0.0000   0.0000   0.0000   0.0000   0.0000   0.0000
     0.0000   0.0000   0.0000   0.0000   0.0000   0.0000   0.0000   0.0000
     0.0000   0.0000   0.0000   0.0000   0.0000   0.0000   0.0000   0.0000
     0.0000   0.0000   0.0000   0.0000   0.0000   0.0000   0.0000   0.0000
     0.0000   0.0000   0.0000   0.0000   0.0000   0.0000   0.0000   0.0000
     0.0000   0.0000   0.0000   0.0000   0.0000   0.0000   0.0000   0.0000
     0.0000   0.0000

     the Fermi energy is     6.2513 ev

!    total energy              =   -9924.37877027 Ry
     total all-electron energy =   -140500.319358 Ry
     estimated scf accuracy    <          8.2E-09 Ry
     smearing contrib. (-TS)   =      -0.00000000 Ry
     internal energy E=F+TS    =   -9924.37877027 Ry

     The total energy is F=E-TS. E is the sum of the following terms:
     one-electron contribution =   -2754.08700077 Ry
     hartree contribution      =    1961.34985566 Ry
     xc contribution           =   -1674.73153736 Ry
     ewald contribution        =   -2927.19643238 Ry
     one-center paw contrib.   =   -4529.71365542 Ry
      -> PAW hartree energy AE =     123.26783446 Ry
      -> PAW hartree energy PS =    -122.62599507 Ry
      -> PAW xc energy AE      =    -143.20885041 Ry
      -> PAW xc energy PS      =      47.14744222 Ry
      -> total E_H with PAW    =    1961.99169505 Ry
      -> total E_XC with PAW   =   -1770.79294555 Ry

     total magnetization       =    -0.00 Bohr mag/cell
     absolute magnetization    =     0.00 Bohr mag/cell

     convergence has been achieved in  11 iterations
 
     init_run     :      4.80s CPU      5.97s WALL (       1 calls)
     electrons    :    100.59s CPU    105.08s WALL (       1 calls)

     Called by init_run:
     wfcinit      :      3.27s CPU      4.04s WALL (       1 calls)
     wfcinit:atom :      0.01s CPU      0.01s WALL (       2 calls)
     wfcinit:wfcr :      3.19s CPU      3.25s WALL (       2 calls)
     potinit      :      0.53s CPU      0.63s WALL (       1 calls)
     hinit0       :      0.30s CPU      0.37s WALL (       1 calls)

     Called by electrons:
     c_bands      :     89.75s CPU     91.89s WALL (      12 calls)
     sum_band     :      7.96s CPU      8.09s WALL (      12 calls)
     v_of_rho     :      0.78s CPU      0.87s WALL (      12 calls)
     v_h          :      0.03s CPU      0.03s WALL (      12 calls)
     v_xc         :      0.75s CPU      0.83s WALL (      12 calls)
     newd         :      0.21s CPU      0.23s WALL (      12 calls)
     PAW_pot      :      1.31s CPU      1.34s WALL (      12 calls)
     mix_rho      :      0.18s CPU      0.19s WALL (      12 calls)

     Called by c_bands:
     init_us_2    :      0.94s CPU      0.95s WALL (      50 calls)
     init_us_2:cp :      0.94s CPU      0.95s WALL (      50 calls)
     cegterg      :     78.44s CPU     79.47s WALL (      24 calls)

     Called by sum_band:
     sum_band:wei :      0.01s CPU      0.02s WALL (      12 calls)
     sum_band:loo :      7.00s CPU      7.09s WALL (      12 calls)
     sum_band:buf :      0.14s CPU      0.15s WALL (      24 calls)
     sum_band:ini :      0.46s CPU      0.46s WALL (      24 calls)
     sum_band:cal :      2.44s CPU      2.46s WALL (      24 calls)
     sum_band:bec :      0.09s CPU      0.09s WALL (      24 calls)
     addusdens    :      0.19s CPU      0.20s WALL (      12 calls)
                                        0.00s GPU  (      12 calls)
     addusd:skk   :      0.01s CPU      0.01s WALL (      24 calls)
                                        0.00s GPU  (      24 calls)

     Called by *egterg:
     cdiaghg      :     12.41s CPU     12.49s WALL (     181 calls)
     cegterg:over :      5.92s CPU      5.96s WALL (     159 calls)
     cegterg:upda :      5.09s CPU      5.14s WALL (     159 calls)
     cegterg:last :      8.35s CPU      8.41s WALL (      55 calls)
     cdiaghg:chol :      0.78s CPU      0.78s WALL (     181 calls)
     cdiaghg:inve :      1.19s CPU      1.20s WALL (     181 calls)
     cdiaghg:para :      1.90s CPU      1.91s WALL (     362 calls)
     h_psi        :     39.64s CPU     40.22s WALL (     185 calls)
     s_psi        :      7.89s CPU      7.94s WALL (     185 calls)
     g_psi        :      0.19s CPU      0.19s WALL (     159 calls)

     Called by h_psi:
     h_psi:calbec :      7.87s CPU      7.93s WALL (     185 calls)
     vloc_psi     :     23.66s CPU     23.86s WALL (     185 calls)
     add_vuspsi   :      7.79s CPU      7.94s WALL (     185 calls)

     General routines
     calbec       :     10.31s CPU     10.39s WALL (     209 calls)
     fft          :      0.76s CPU      0.93s WALL (     252 calls)
     ffts         :      0.03s CPU      0.04s WALL (      24 calls)
     fftw         :     25.70s CPU     25.93s WALL (   56484 calls)
 
     Parallel routines

     PAW routines
     PAW_pot      :      1.31s CPU      1.34s WALL (      12 calls)
     PAW_symme    :      0.03s CPU      0.04s WALL (      24 calls)
 
     PWSCF        :   1m51.54s CPU   2m10.13s WALL

 
   This run was terminated on:  12:12:24  25Jun2024            

=------------------------------------------------------------------------------=
   JOB DONE.
=------------------------------------------------------------------------------=
