### Running on host: orfoz384

     Program PWSCF v.7.2 starts on 25Jun2024 at 12: 3: 8 

     This program is part of the open-source Quantum ESPRESSO suite
     for quantum simulation of materials; please cite
         "P. Giannozzi et al., J. Phys.:Condens. Matter 21 395502 (2009);
         "P. Giannozzi et al., J. Phys.:Condens. Matter 29 465901 (2017);
         "P. Giannozzi et al., J. Chem. Phys. 152 154105 (2020);
          URL http://www.quantum-espresso.org", 
     in publications or presentations arising from this work. More details at
     http://www.quantum-espresso.org/quote

     Parallel version (MPI), running on  1120 processors

     MPI processes distributed on    10 nodes
     220942 MiB available memory on the printing compute node when the environment starts
 
     Reading input from scf.85.in

     Current dimensions of program PWSCF are:
     Max number of different atomic species (ntypx) = 10
     Max number of k-points (npk) =  40000
     Max angular momentum in pseudopotentials (lmaxx) =  4
     file S.pbe-n-kjpaw_psl.1.0.0.UPF: wavefunction(s)  3S 3P renormalized
     file Zn.pbe-dnl-kjpaw_psl.1.0.0.UPF: wavefunction(s)  4S 3D renormalized
     Found identity + (  0.0000  0.2500  0.2500) symmetry
     This is a supercell, fractional translations are disabled
 
     K-points division:     npool     =      10
     R & G space division:  proc/nbgrp/npool/nimage =     112
     Subspace diagonalization in iterative solution of the eigenvalue problem:
     one sub-group per band group will be used
     scalapack distributed-memory algorithm (size of sub-group:  3*  3 procs)

 
     Parallelization info
     --------------------
     sticks:   dense  smooth     PW     G-vecs:    dense   smooth      PW
     Min         102     102     26                 8224     8224    1110
     Max         103     103     27                 8233     8233    1121
     Sum       11441   11441   3017               921297   921297  125039
 
     Using Slab Decomposition
 


     bravais-lattice index     =            1
     lattice parameter (alat)  =      20.5686  a.u.
     unit-cell volume          =    8701.8677 (a.u.)^3
     number of atoms/cell      =           64
     number of atomic types    =            2
     number of electrons       =       576.00
     number of Kohn-Sham states=          346
     kinetic-energy cutoff     =      85.0000  Ry
     charge density cutoff     =     340.0000  Ry
     scf convergence threshold =      1.0E-08
     mixing beta               =       0.7000
     number of iterations used =            8  plain     mixing
     Exchange-correlation= SLA  PW   PBX  PBC
                           (   1   4   3   4   0   0   0)

     celldm(1)=  20.568573  celldm(2)=   0.000000  celldm(3)=   0.000000
     celldm(4)=   0.000000  celldm(5)=   0.000000  celldm(6)=   0.000000

     crystal axes: (cart. coord. in units of alat)
               a(1) = (   1.000000   0.000000   0.000000 )  
               a(2) = (   0.000000   1.000000   0.000000 )  
               a(3) = (   0.000000   0.000000   1.000000 )  

     reciprocal axes: (cart. coord. in units 2 pi/alat)
               b(1) = (  1.000000  0.000000  0.000000 )  
               b(2) = (  0.000000  1.000000  0.000000 )  
               b(3) = (  0.000000  0.000000  1.000000 )  


     PseudoPot. # 1 for S  read from file:
     /arf/home/amuhaymin/pseudo/S.pbe-n-kjpaw_psl.1.0.0.UPF
     MD5 check sum: fb45dfebcf3e72a4e1bd4a866ec2e262
     Pseudo is Projector augmented-wave + core cor, Zval =  6.0
     Generated using &quot;atomic&quot; code by A. Dal Corso  v.6.3
     Shape of augmentation charge: PSQ
     Using radial grid of 1151 points,  6 beta functions with: 
                l(1) =   0
                l(2) =   0
                l(3) =   1
                l(4) =   1
                l(5) =   2
                l(6) =   2
     Q(r) pseudized with 0 coefficients 


     PseudoPot. # 2 for Zn read from file:
     /arf/home/amuhaymin/pseudo/Zn.pbe-dnl-kjpaw_psl.1.0.0.UPF
     MD5 check sum: c608214d9520ac179f507641260889e3
     Pseudo is Projector augmented-wave + core cor, Zval = 12.0
     Generated using &quot;atomic&quot; code by A. Dal Corso  v.6.2.2
     Shape of augmentation charge: PSQ
     Using radial grid of 1201 points,  6 beta functions with: 
                l(1) =   0
                l(2) =   0
                l(3) =   1
                l(4) =   1
                l(5) =   2
                l(6) =   2
     Q(r) pseudized with 0 coefficients 


     atomic species   valence    mass     pseudopotential
        S              6.00    32.06500     S ( 1.00)
        Zn            12.00    65.38000     Zn( 1.00)

     Starting magnetic structure 
     atomic species   magnetization
        S            0.000
        Zn           0.000

     24 Sym. Ops. (no inversion) found


                                    s                        frac. trans.

      isym =  1     identity                                     

 cryst.   s( 1) = (     1          0          0      )
                  (     0          1          0      )
                  (     0          0          1      )

 cart.    s( 1) = (  1.0000000  0.0000000  0.0000000 )
                  (  0.0000000  1.0000000  0.0000000 )
                  (  0.0000000  0.0000000  1.0000000 )


      isym =  2     180 deg rotation - cart. axis [0,0,1]        

 cryst.   s( 2) = (    -1          0          0      )
                  (     0         -1          0      )
                  (     0          0          1      )

 cart.    s( 2) = ( -1.0000000  0.0000000  0.0000000 )
                  (  0.0000000 -1.0000000  0.0000000 )
                  (  0.0000000  0.0000000  1.0000000 )


      isym =  3     180 deg rotation - cart. axis [0,1,0]        

 cryst.   s( 3) = (    -1          0          0      )
                  (     0          1          0      )
                  (     0          0         -1      )

 cart.    s( 3) = ( -1.0000000  0.0000000  0.0000000 )
                  (  0.0000000  1.0000000  0.0000000 )
                  (  0.0000000  0.0000000 -1.0000000 )


      isym =  4     180 deg rotation - cart. axis [1,0,0]        

 cryst.   s( 4) = (     1          0          0      )
                  (     0         -1          0      )
                  (     0          0         -1      )

 cart.    s( 4) = (  1.0000000  0.0000000  0.0000000 )
                  (  0.0000000 -1.0000000  0.0000000 )
                  (  0.0000000  0.0000000 -1.0000000 )


      isym =  5     120 deg rotation - cart. axis [-1,-1,-1]     

 cryst.   s( 5) = (     0          0          1      )
                  (     1          0          0      )
                  (     0          1          0      )

 cart.    s( 5) = (  0.0000000  1.0000000  0.0000000 )
                  (  0.0000000  0.0000000  1.0000000 )
                  (  1.0000000  0.0000000  0.0000000 )


      isym =  6     120 deg rotation - cart. axis [-1,1,1]       

 cryst.   s( 6) = (     0          0         -1      )
                  (    -1          0          0      )
                  (     0          1          0      )

 cart.    s( 6) = (  0.0000000 -1.0000000  0.0000000 )
                  (  0.0000000  0.0000000  1.0000000 )
                  ( -1.0000000  0.0000000  0.0000000 )


      isym =  7     120 deg rotation - cart. axis [1,1,-1]       

 cryst.   s( 7) = (     0          0         -1      )
                  (     1          0          0      )
                  (     0         -1          0      )

 cart.    s( 7) = (  0.0000000  1.0000000  0.0000000 )
                  (  0.0000000  0.0000000 -1.0000000 )
                  ( -1.0000000  0.0000000  0.0000000 )


      isym =  8     120 deg rotation - cart. axis [1,-1,1]       

 cryst.   s( 8) = (     0          0          1      )
                  (    -1          0          0      )
                  (     0         -1          0      )

 cart.    s( 8) = (  0.0000000 -1.0000000  0.0000000 )
                  (  0.0000000  0.0000000 -1.0000000 )
                  (  1.0000000  0.0000000  0.0000000 )


      isym =  9     120 deg rotation - cart. axis [1,1,1]        

 cryst.   s( 9) = (     0          1          0      )
                  (     0          0          1      )
                  (     1          0          0      )

 cart.    s( 9) = (  0.0000000  0.0000000  1.0000000 )
                  (  1.0000000  0.0000000  0.0000000 )
                  (  0.0000000  1.0000000  0.0000000 )


      isym = 10     120 deg rotation - cart. axis [-1,1,-1]      

 cryst.   s(10) = (     0         -1          0      )
                  (     0          0         -1      )
                  (     1          0          0      )

 cart.    s(10) = (  0.0000000  0.0000000  1.0000000 )
                  ( -1.0000000  0.0000000  0.0000000 )
                  (  0.0000000 -1.0000000  0.0000000 )


      isym = 11     120 deg rotation - cart. axis [1,-1,-1]      

 cryst.   s(11) = (     0         -1          0      )
                  (     0          0          1      )
                  (    -1          0          0      )

 cart.    s(11) = (  0.0000000  0.0000000 -1.0000000 )
                  ( -1.0000000  0.0000000  0.0000000 )
                  (  0.0000000  1.0000000  0.0000000 )


      isym = 12     120 deg rotation - cart. axis [-1,-1,1]      

 cryst.   s(12) = (     0          1          0      )
                  (     0          0         -1      )
                  (    -1          0          0      )

 cart.    s(12) = (  0.0000000  0.0000000 -1.0000000 )
                  (  1.0000000  0.0000000  0.0000000 )
                  (  0.0000000 -1.0000000  0.0000000 )


      isym = 13     inv. 180 deg rotation - cart. axis [1,1,0]   

 cryst.   s(13) = (     0         -1          0      )
                  (    -1          0          0      )
                  (     0          0          1      )

 cart.    s(13) = (  0.0000000 -1.0000000  0.0000000 )
                  ( -1.0000000  0.0000000  0.0000000 )
                  (  0.0000000  0.0000000  1.0000000 )


      isym = 14     inv. 180 deg rotation - cart. axis [1,-1,0]  

 cryst.   s(14) = (     0          1          0      )
                  (     1          0          0      )
                  (     0          0          1      )

 cart.    s(14) = (  0.0000000  1.0000000  0.0000000 )
                  (  1.0000000  0.0000000  0.0000000 )
                  (  0.0000000  0.0000000  1.0000000 )


      isym = 15     inv.  90 deg rotation - cart. axis [0,0,-1]  

 cryst.   s(15) = (     0          1          0      )
                  (    -1          0          0      )
                  (     0          0         -1      )

 cart.    s(15) = (  0.0000000 -1.0000000  0.0000000 )
                  (  1.0000000  0.0000000  0.0000000 )
                  (  0.0000000  0.0000000 -1.0000000 )


      isym = 16     inv.  90 deg rotation - cart. axis [0,0,1]   

 cryst.   s(16) = (     0         -1          0      )
                  (     1          0          0      )
                  (     0          0         -1      )

 cart.    s(16) = (  0.0000000  1.0000000  0.0000000 )
                  ( -1.0000000  0.0000000  0.0000000 )
                  (  0.0000000  0.0000000 -1.0000000 )


      isym = 17     inv. 180 deg rotation - cart. axis [1,0,1]   

 cryst.   s(17) = (     0          0         -1      )
                  (     0          1          0      )
                  (    -1          0          0      )

 cart.    s(17) = (  0.0000000  0.0000000 -1.0000000 )
                  (  0.0000000  1.0000000  0.0000000 )
                  ( -1.0000000  0.0000000  0.0000000 )


      isym = 18     inv. 180 deg rotation - cart. axis [-1,0,1]  

 cryst.   s(18) = (     0          0          1      )
                  (     0          1          0      )
                  (     1          0          0      )

 cart.    s(18) = (  0.0000000  0.0000000  1.0000000 )
                  (  0.0000000  1.0000000  0.0000000 )
                  (  1.0000000  0.0000000  0.0000000 )


      isym = 19     inv.  90 deg rotation - cart. axis [0,1,0]   

 cryst.   s(19) = (     0          0          1      )
                  (     0         -1          0      )
                  (    -1          0          0      )

 cart.    s(19) = (  0.0000000  0.0000000 -1.0000000 )
                  (  0.0000000 -1.0000000  0.0000000 )
                  (  1.0000000  0.0000000  0.0000000 )


      isym = 20     inv.  90 deg rotation - cart. axis [0,-1,0]  

 cryst.   s(20) = (     0          0         -1      )
                  (     0         -1          0      )
                  (     1          0          0      )

 cart.    s(20) = (  0.0000000  0.0000000  1.0000000 )
                  (  0.0000000 -1.0000000  0.0000000 )
                  ( -1.0000000  0.0000000  0.0000000 )


      isym = 21     inv. 180 deg rotation - cart. axis [0,1,1]   

 cryst.   s(21) = (     1          0          0      )
                  (     0          0         -1      )
                  (     0         -1          0      )

 cart.    s(21) = (  1.0000000  0.0000000  0.0000000 )
                  (  0.0000000  0.0000000 -1.0000000 )
                  (  0.0000000 -1.0000000  0.0000000 )


      isym = 22     inv. 180 deg rotation - cart. axis [0,1,-1]  

 cryst.   s(22) = (     1          0          0      )
                  (     0          0          1      )
                  (     0          1          0      )

 cart.    s(22) = (  1.0000000  0.0000000  0.0000000 )
                  (  0.0000000  0.0000000  1.0000000 )
                  (  0.0000000  1.0000000  0.0000000 )


      isym = 23     inv.  90 deg rotation - cart. axis [-1,0,0]  

 cryst.   s(23) = (    -1          0          0      )
                  (     0          0          1      )
                  (     0         -1          0      )

 cart.    s(23) = ( -1.0000000  0.0000000  0.0000000 )
                  (  0.0000000  0.0000000 -1.0000000 )
                  (  0.0000000  1.0000000  0.0000000 )


      isym = 24     inv.  90 deg rotation - cart. axis [1,0,0]   

 cryst.   s(24) = (    -1          0          0      )
                  (     0          0         -1      )
                  (     0          1          0      )

 cart.    s(24) = ( -1.0000000  0.0000000  0.0000000 )
                  (  0.0000000  0.0000000  1.0000000 )
                  (  0.0000000 -1.0000000  0.0000000 )


     point group T_d (-43m) 
     there are  5 classes
     the character table:

       E     8C3   3C2   6S4   6s_d 
A_1    1.00  1.00  1.00  1.00  1.00
A_2    1.00  1.00  1.00 -1.00 -1.00
E      2.00 -1.00  2.00  0.00  0.00
T_1    3.00  0.00 -1.00  1.00 -1.00
T_2    3.00  0.00 -1.00 -1.00  1.00

     the symmetry operations in each class and the name of the first element:

     E        1
          identity                                               
     8C3      5    7    8    6   12    9   10   11
          120 deg rotation - cart. axis [-1,-1,-1]               
     3C2      2    3    4
          180 deg rotation - cart. axis [0,0,1]                  
     6S4     15   16   20   19   23   24
          inv.  90 deg rotation - cart. axis [0,0,-1]            
     6s_d    13   14   17   18   21   22
          inv. 180 deg rotation - cart. axis [1,1,0]             

   Cartesian axes

     site n.     atom                  positions (alat units)
         1           Zn  tau(   1) = (   0.0000000   0.0000000   0.0000000  )
         2           Zn  tau(   2) = (   0.0000000   0.2500000   0.2500000  )
         3           Zn  tau(   3) = (   0.2500000   0.0000000   0.2500000  )
         4           Zn  tau(   4) = (   0.2500000   0.2500000   0.0000000  )
         5           S   tau(   5) = (   0.1250000   0.3750000   0.3750000  )
         6           S   tau(   6) = (   0.1250000   0.1250000   0.1250000  )
         7           S   tau(   7) = (   0.3750000   0.3750000   0.1250000  )
         8           S   tau(   8) = (   0.3750000   0.1250000   0.3750000  )
         9           Zn  tau(   9) = (   0.0000000   0.0000000   0.5000000  )
        10           Zn  tau(  10) = (   0.0000000   0.2500000   0.7500000  )
        11           Zn  tau(  11) = (   0.2500000   0.0000000   0.7500000  )
        12           Zn  tau(  12) = (   0.2500000   0.2500000   0.5000000  )
        13           S   tau(  13) = (   0.1250000   0.3750000   0.8750000  )
        14           S   tau(  14) = (   0.1250000   0.1250000   0.6250000  )
        15           S   tau(  15) = (   0.3750000   0.3750000   0.6250000  )
        16           S   tau(  16) = (   0.3750000   0.1250000   0.8750000  )
        17           Zn  tau(  17) = (   0.0000000   0.5000000   0.0000000  )
        18           Zn  tau(  18) = (   0.0000000   0.7500000   0.2500000  )
        19           Zn  tau(  19) = (   0.2500000   0.5000000   0.2500000  )
        20           Zn  tau(  20) = (   0.2500000   0.7500000   0.0000000  )
        21           S   tau(  21) = (   0.1250000   0.8750000   0.3750000  )
        22           S   tau(  22) = (   0.1250000   0.6250000   0.1250000  )
        23           S   tau(  23) = (   0.3750000   0.8750000   0.1250000  )
        24           S   tau(  24) = (   0.3750000   0.6250000   0.3750000  )
        25           Zn  tau(  25) = (   0.0000000   0.5000000   0.5000000  )
        26           Zn  tau(  26) = (   0.0000000   0.7500000   0.7500000  )
        27           Zn  tau(  27) = (   0.2500000   0.5000000   0.7500000  )
        28           Zn  tau(  28) = (   0.2500000   0.7500000   0.5000000  )
        29           S   tau(  29) = (   0.1250000   0.8750000   0.8750000  )
        30           S   tau(  30) = (   0.1250000   0.6250000   0.6250000  )
        31           S   tau(  31) = (   0.3750000   0.8750000   0.6250000  )
        32           S   tau(  32) = (   0.3750000   0.6250000   0.8750000  )
        33           Zn  tau(  33) = (   0.5000000   0.0000000   0.0000000  )
        34           Zn  tau(  34) = (   0.5000000   0.2500000   0.2500000  )
        35           Zn  tau(  35) = (   0.7500000   0.0000000   0.2500000  )
        36           Zn  tau(  36) = (   0.7500000   0.2500000   0.0000000  )
        37           S   tau(  37) = (   0.6250000   0.3750000   0.3750000  )
        38           S   tau(  38) = (   0.6250000   0.1250000   0.1250000  )
        39           S   tau(  39) = (   0.8750000   0.3750000   0.1250000  )
        40           S   tau(  40) = (   0.8750000   0.1250000   0.3750000  )
        41           Zn  tau(  41) = (   0.5000000   0.0000000   0.5000000  )
        42           Zn  tau(  42) = (   0.5000000   0.2500000   0.7500000  )
        43           Zn  tau(  43) = (   0.7500000   0.0000000   0.7500000  )
        44           Zn  tau(  44) = (   0.7500000   0.2500000   0.5000000  )
        45           S   tau(  45) = (   0.6250000   0.3750000   0.8750000  )
        46           S   tau(  46) = (   0.6250000   0.1250000   0.6250000  )
        47           S   tau(  47) = (   0.8750000   0.3750000   0.6250000  )
        48           S   tau(  48) = (   0.8750000   0.1250000   0.8750000  )
        49           Zn  tau(  49) = (   0.5000000   0.5000000   0.0000000  )
        50           Zn  tau(  50) = (   0.5000000   0.7500000   0.2500000  )
        51           Zn  tau(  51) = (   0.7500000   0.5000000   0.2500000  )
        52           Zn  tau(  52) = (   0.7500000   0.7500000   0.0000000  )
        53           S   tau(  53) = (   0.6250000   0.8750000   0.3750000  )
        54           S   tau(  54) = (   0.6250000   0.6250000   0.1250000  )
        55           S   tau(  55) = (   0.8750000   0.8750000   0.1250000  )
        56           S   tau(  56) = (   0.8750000   0.6250000   0.3750000  )
        57           Zn  tau(  57) = (   0.5000000   0.5000000   0.5000000  )
        58           Zn  tau(  58) = (   0.5000000   0.7500000   0.7500000  )
        59           Zn  tau(  59) = (   0.7500000   0.5000000   0.7500000  )
        60           Zn  tau(  60) = (   0.7500000   0.7500000   0.5000000  )
        61           S   tau(  61) = (   0.6250000   0.8750000   0.8750000  )
        62           S   tau(  62) = (   0.6250000   0.6250000   0.6250000  )
        63           S   tau(  63) = (   0.8750000   0.8750000   0.6250000  )
        64           S   tau(  64) = (   0.8750000   0.6250000   0.8750000  )

   Crystallographic axes

     site n.     atom                  positions (cryst. coord.)
         1           Zn  tau(   1) = (  0.0000000  0.0000000  0.0000000  )
         2           Zn  tau(   2) = (  0.0000000  0.2500000  0.2500000  )
         3           Zn  tau(   3) = (  0.2500000  0.0000000  0.2500000  )
         4           Zn  tau(   4) = (  0.2500000  0.2500000  0.0000000  )
         5           S   tau(   5) = (  0.1250000  0.3750000  0.3750000  )
         6           S   tau(   6) = (  0.1250000  0.1250000  0.1250000  )
         7           S   tau(   7) = (  0.3750000  0.3750000  0.1250000  )
         8           S   tau(   8) = (  0.3750000  0.1250000  0.3750000  )
         9           Zn  tau(   9) = (  0.0000000  0.0000000  0.5000000  )
        10           Zn  tau(  10) = (  0.0000000  0.2500000  0.7500000  )
        11           Zn  tau(  11) = (  0.2500000  0.0000000  0.7500000  )
        12           Zn  tau(  12) = (  0.2500000  0.2500000  0.5000000  )
        13           S   tau(  13) = (  0.1250000  0.3750000  0.8750000  )
        14           S   tau(  14) = (  0.1250000  0.1250000  0.6250000  )
        15           S   tau(  15) = (  0.3750000  0.3750000  0.6250000  )
        16           S   tau(  16) = (  0.3750000  0.1250000  0.8750000  )
        17           Zn  tau(  17) = (  0.0000000  0.5000000  0.0000000  )
        18           Zn  tau(  18) = (  0.0000000  0.7500000  0.2500000  )
        19           Zn  tau(  19) = (  0.2500000  0.5000000  0.2500000  )
        20           Zn  tau(  20) = (  0.2500000  0.7500000  0.0000000  )
        21           S   tau(  21) = (  0.1250000  0.8750000  0.3750000  )
        22           S   tau(  22) = (  0.1250000  0.6250000  0.1250000  )
        23           S   tau(  23) = (  0.3750000  0.8750000  0.1250000  )
        24           S   tau(  24) = (  0.3750000  0.6250000  0.3750000  )
        25           Zn  tau(  25) = (  0.0000000  0.5000000  0.5000000  )
        26           Zn  tau(  26) = (  0.0000000  0.7500000  0.7500000  )
        27           Zn  tau(  27) = (  0.2500000  0.5000000  0.7500000  )
        28           Zn  tau(  28) = (  0.2500000  0.7500000  0.5000000  )
        29           S   tau(  29) = (  0.1250000  0.8750000  0.8750000  )
        30           S   tau(  30) = (  0.1250000  0.6250000  0.6250000  )
        31           S   tau(  31) = (  0.3750000  0.8750000  0.6250000  )
        32           S   tau(  32) = (  0.3750000  0.6250000  0.8750000  )
        33           Zn  tau(  33) = (  0.5000000  0.0000000  0.0000000  )
        34           Zn  tau(  34) = (  0.5000000  0.2500000  0.2500000  )
        35           Zn  tau(  35) = (  0.7500000  0.0000000  0.2500000  )
        36           Zn  tau(  36) = (  0.7500000  0.2500000  0.0000000  )
        37           S   tau(  37) = (  0.6250000  0.3750000  0.3750000  )
        38           S   tau(  38) = (  0.6250000  0.1250000  0.1250000  )
        39           S   tau(  39) = (  0.8750000  0.3750000  0.1250000  )
        40           S   tau(  40) = (  0.8750000  0.1250000  0.3750000  )
        41           Zn  tau(  41) = (  0.5000000  0.0000000  0.5000000  )
        42           Zn  tau(  42) = (  0.5000000  0.2500000  0.7500000  )
        43           Zn  tau(  43) = (  0.7500000  0.0000000  0.7500000  )
        44           Zn  tau(  44) = (  0.7500000  0.2500000  0.5000000  )
        45           S   tau(  45) = (  0.6250000  0.3750000  0.8750000  )
        46           S   tau(  46) = (  0.6250000  0.1250000  0.6250000  )
        47           S   tau(  47) = (  0.8750000  0.3750000  0.6250000  )
        48           S   tau(  48) = (  0.8750000  0.1250000  0.8750000  )
        49           Zn  tau(  49) = (  0.5000000  0.5000000  0.0000000  )
        50           Zn  tau(  50) = (  0.5000000  0.7500000  0.2500000  )
        51           Zn  tau(  51) = (  0.7500000  0.5000000  0.2500000  )
        52           Zn  tau(  52) = (  0.7500000  0.7500000  0.0000000  )
        53           S   tau(  53) = (  0.6250000  0.8750000  0.3750000  )
        54           S   tau(  54) = (  0.6250000  0.6250000  0.1250000  )
        55           S   tau(  55) = (  0.8750000  0.8750000  0.1250000  )
        56           S   tau(  56) = (  0.8750000  0.6250000  0.3750000  )
        57           Zn  tau(  57) = (  0.5000000  0.5000000  0.5000000  )
        58           Zn  tau(  58) = (  0.5000000  0.7500000  0.7500000  )
        59           Zn  tau(  59) = (  0.7500000  0.5000000  0.7500000  )
        60           Zn  tau(  60) = (  0.7500000  0.7500000  0.5000000  )
        61           S   tau(  61) = (  0.6250000  0.8750000  0.8750000  )
        62           S   tau(  62) = (  0.6250000  0.6250000  0.6250000  )
        63           S   tau(  63) = (  0.8750000  0.8750000  0.6250000  )
        64           S   tau(  64) = (  0.8750000  0.6250000  0.8750000  )

     number of k points=    10  Gaussian smearing, width (Ry)=  0.0010
                       cart. coord. in units 2pi/alat
        k(    1) = (   0.0000000   0.0000000   0.0000000), wk =   0.0156250
        k(    2) = (   0.0000000   0.0000000   0.2500000), wk =   0.0937500
        k(    3) = (   0.0000000   0.0000000  -0.5000000), wk =   0.0468750
        k(    4) = (   0.0000000   0.2500000   0.2500000), wk =   0.1875000
        k(    5) = (   0.0000000   0.2500000  -0.5000000), wk =   0.1875000
        k(    6) = (   0.0000000  -0.5000000  -0.5000000), wk =   0.0468750
        k(    7) = (   0.2500000   0.2500000   0.2500000), wk =   0.1250000
        k(    8) = (   0.2500000   0.2500000  -0.5000000), wk =   0.1875000
        k(    9) = (   0.2500000  -0.5000000  -0.5000000), wk =   0.0937500
        k(   10) = (  -0.5000000  -0.5000000  -0.5000000), wk =   0.0156250

                       cryst. coord.
        k(    1) = (   0.0000000   0.0000000   0.0000000), wk =   0.0156250
        k(    2) = (   0.0000000   0.0000000   0.2500000), wk =   0.0937500
        k(    3) = (   0.0000000   0.0000000  -0.5000000), wk =   0.0468750
        k(    4) = (   0.0000000   0.2500000   0.2500000), wk =   0.1875000
        k(    5) = (   0.0000000   0.2500000  -0.5000000), wk =   0.1875000
        k(    6) = (   0.0000000  -0.5000000  -0.5000000), wk =   0.0468750
        k(    7) = (   0.2500000   0.2500000   0.2500000), wk =   0.1250000
        k(    8) = (   0.2500000   0.2500000  -0.5000000), wk =   0.1875000
        k(    9) = (   0.2500000  -0.5000000  -0.5000000), wk =   0.0937500
        k(   10) = (  -0.5000000  -0.5000000  -0.5000000), wk =   0.0156250

     Dense  grid:   921297 G-vectors     FFT dimensions: ( 125, 125, 125)

     Dynamical RAM for                 wfc:       5.43 MB

     Dynamical RAM for     wfc (w. buffer):      16.28 MB

     Dynamical RAM for           str. fact:       0.25 MB

     Dynamical RAM for           local pot:       0.00 MB

     Dynamical RAM for          nlocal pot:      18.07 MB

     Dynamical RAM for                qrad:       2.96 MB

     Dynamical RAM for          rho,v,vnew:       2.18 MB

     Dynamical RAM for               rhoin:       0.73 MB

     Dynamical RAM for            rho*nmix:       4.02 MB

     Dynamical RAM for           G-vectors:       0.53 MB

     Dynamical RAM for          h,s,v(r/c):       2.42 MB

     Dynamical RAM for          <psi|beta>:       6.08 MB

     Dynamical RAM for                 psi:      10.85 MB

     Dynamical RAM for                hpsi:      10.85 MB

     Dynamical RAM for                spsi:      10.85 MB

     Dynamical RAM for      wfcinit/wfcrot:      17.01 MB

     Dynamical RAM for           addusdens:       2.97 MB

     Estimated static dynamical RAM per process >      42.81 MB

     Estimated max dynamical RAM per process >      87.90 MB

     Estimated total dynamical RAM >      92.19 GB

     Check: negative core charge=   -0.000001
     Generating pointlists ...
     new r_m :   0.0893 (alat units)  1.8370 (a.u.) for type    1
     new r_m :   0.0893 (alat units)  1.8370 (a.u.) for type    2

     Initial potential from superposition of free atoms

     starting charge     575.8798, renormalised to     576.0000
     Starting wfcs are  416 randomized atomic wfcs
     Checking if some PAW data can be deallocated... 
       PAW data deallocated on  560 nodes for type:  1
       PAW data deallocated on  560 nodes for type:  2

     total cpu time spent up to now is        8.1 secs

     Self-consistent Calculation

     iteration #  1     ecut=    85.00 Ry     beta= 0.70
     Davidson diagonalization with overlap

---- Real-time Memory Report at c_bands before calling an iterative solver
           470 MiB given to the printing process from OS
             0 MiB allocation reported by mallinfo(arena+hblkhd)
        208424 MiB available memory on the node where the printing process lives
------------------
     ethr =  1.00E-02,  avg # of iterations =  4.6

     Threshold (ethr) on eigenvalues was too large:
     Diagonalizing with lowered threshold

     Davidson diagonalization with overlap

---- Real-time Memory Report at c_bands before calling an iterative solver
           541 MiB given to the printing process from OS
             0 MiB allocation reported by mallinfo(arena+hblkhd)
        206386 MiB available memory on the node where the printing process lives
------------------
     ethr =  3.25E-04,  avg # of iterations =  4.4

     total cpu time spent up to now is       20.6 secs

     total energy              =   -9923.83653540 Ry
     estimated scf accuracy    <       1.82950616 Ry

     total magnetization       =    -0.00 Bohr mag/cell
     absolute magnetization    =     0.05 Bohr mag/cell

     iteration #  2     ecut=    85.00 Ry     beta= 0.70
     Davidson diagonalization with overlap

---- Real-time Memory Report at c_bands before calling an iterative solver
           650 MiB given to the printing process from OS
             0 MiB allocation reported by mallinfo(arena+hblkhd)
        206215 MiB available memory on the node where the printing process lives
------------------
     ethr =  3.18E-04,  avg # of iterations =  3.3

     total cpu time spent up to now is       27.1 secs

     total energy              =   -9924.28977529 Ry
     estimated scf accuracy    <       0.39739831 Ry

     total magnetization       =     0.00 Bohr mag/cell
     absolute magnetization    =     0.02 Bohr mag/cell

     iteration #  3     ecut=    85.00 Ry     beta= 0.70
     Davidson diagonalization with overlap

---- Real-time Memory Report at c_bands before calling an iterative solver
           736 MiB given to the printing process from OS
             0 MiB allocation reported by mallinfo(arena+hblkhd)
        205792 MiB available memory on the node where the printing process lives
------------------
     ethr =  6.90E-05,  avg # of iterations =  8.2

     total cpu time spent up to now is       35.4 secs

     total energy              =   -9924.36001574 Ry
     estimated scf accuracy    <       0.02715204 Ry

     total magnetization       =    -0.00 Bohr mag/cell
     absolute magnetization    =     0.01 Bohr mag/cell

     iteration #  4     ecut=    85.00 Ry     beta= 0.70
     Davidson diagonalization with overlap

---- Real-time Memory Report at c_bands before calling an iterative solver
           804 MiB given to the printing process from OS
             0 MiB allocation reported by mallinfo(arena+hblkhd)
        205579 MiB available memory on the node where the printing process lives
------------------
     ethr =  4.71E-06,  avg # of iterations = 12.8

     total cpu time spent up to now is       45.0 secs

     total energy              =   -9924.36848442 Ry
     estimated scf accuracy    <       0.01389089 Ry

     total magnetization       =    -0.00 Bohr mag/cell
     absolute magnetization    =     0.01 Bohr mag/cell

     iteration #  5     ecut=    85.00 Ry     beta= 0.70
     Davidson diagonalization with overlap

---- Real-time Memory Report at c_bands before calling an iterative solver
           863 MiB given to the printing process from OS
             0 MiB allocation reported by mallinfo(arena+hblkhd)
        205417 MiB available memory on the node where the printing process lives
------------------
     ethr =  2.41E-06,  avg # of iterations =  6.2

     total cpu time spent up to now is       53.1 secs

     total energy              =   -9924.37048439 Ry
     estimated scf accuracy    <       0.00063283 Ry

     total magnetization       =     0.00 Bohr mag/cell
     absolute magnetization    =     0.00 Bohr mag/cell

     iteration #  6     ecut=    85.00 Ry     beta= 0.70
     Davidson diagonalization with overlap

---- Real-time Memory Report at c_bands before calling an iterative solver
           906 MiB given to the printing process from OS
             0 MiB allocation reported by mallinfo(arena+hblkhd)
        205272 MiB available memory on the node where the printing process lives
------------------
     c_bands:  1 eigenvalues not converged
     ethr =  1.10E-07,  avg # of iterations =  6.2

     total cpu time spent up to now is       60.5 secs

     total energy              =   -9924.37079425 Ry
     estimated scf accuracy    <       0.00009448 Ry

     total magnetization       =    -0.00 Bohr mag/cell
     absolute magnetization    =     0.00 Bohr mag/cell

     iteration #  7     ecut=    85.00 Ry     beta= 0.70
     Davidson diagonalization with overlap

---- Real-time Memory Report at c_bands before calling an iterative solver
           949 MiB given to the printing process from OS
             0 MiB allocation reported by mallinfo(arena+hblkhd)
        205127 MiB available memory on the node where the printing process lives
------------------
     ethr =  1.64E-08,  avg # of iterations =  3.1

     total cpu time spent up to now is       65.5 secs

     total energy              =   -9924.37076786 Ry
     estimated scf accuracy    <       0.00005841 Ry

     total magnetization       =    -0.00 Bohr mag/cell
     absolute magnetization    =     0.00 Bohr mag/cell

     iteration #  8     ecut=    85.00 Ry     beta= 0.70
     Davidson diagonalization with overlap

---- Real-time Memory Report at c_bands before calling an iterative solver
           986 MiB given to the printing process from OS
             0 MiB allocation reported by mallinfo(arena+hblkhd)
        204983 MiB available memory on the node where the printing process lives
------------------
     ethr =  1.01E-08,  avg # of iterations =  2.0

     total cpu time spent up to now is       70.0 secs

     total energy              =   -9924.37078487 Ry
     estimated scf accuracy    <       0.00000164 Ry

     total magnetization       =     0.00 Bohr mag/cell
     absolute magnetization    =     0.00 Bohr mag/cell

     iteration #  9     ecut=    85.00 Ry     beta= 0.70
     Davidson diagonalization with overlap

---- Real-time Memory Report at c_bands before calling an iterative solver
          1015 MiB given to the printing process from OS
             0 MiB allocation reported by mallinfo(arena+hblkhd)
        204838 MiB available memory on the node where the printing process lives
------------------
     ethr =  2.84E-10,  avg # of iterations =  6.7

     total cpu time spent up to now is       78.4 secs

     total energy              =   -9924.37078425 Ry
     estimated scf accuracy    <       0.00000291 Ry

     total magnetization       =    -0.00 Bohr mag/cell
     absolute magnetization    =     0.00 Bohr mag/cell

     iteration # 10     ecut=    85.00 Ry     beta= 0.70
     Davidson diagonalization with overlap

---- Real-time Memory Report at c_bands before calling an iterative solver
          1051 MiB given to the printing process from OS
             0 MiB allocation reported by mallinfo(arena+hblkhd)
        204720 MiB available memory on the node where the printing process lives
------------------
     ethr =  2.84E-10,  avg # of iterations =  3.1

     total cpu time spent up to now is       83.5 secs

     total energy              =   -9924.37078483 Ry
     estimated scf accuracy    <       0.00000001 Ry

     total magnetization       =     0.00 Bohr mag/cell
     absolute magnetization    =     0.00 Bohr mag/cell

     iteration # 11     ecut=    85.00 Ry     beta= 0.70
     Davidson diagonalization with overlap

---- Real-time Memory Report at c_bands before calling an iterative solver
          1075 MiB given to the printing process from OS
             0 MiB allocation reported by mallinfo(arena+hblkhd)
        204581 MiB available memory on the node where the printing process lives
------------------
     ethr =  1.86E-12,  avg # of iterations =  6.3
 
     Magnetic moment per site  (integrated on atomic sphere of radius R)
     atom   1 (R=0.089)  charge= 10.1596  magn= -0.0000
     atom   2 (R=0.089)  charge= 10.1596  magn=  0.0000
     atom   3 (R=0.089)  charge= 10.1596  magn=  0.0000
     atom   4 (R=0.089)  charge= 10.1596  magn=  0.0000
     atom   5 (R=0.089)  charge=  3.9937  magn=  0.0000
     atom   6 (R=0.089)  charge=  3.9933  magn=  0.0000
     atom   7 (R=0.089)  charge=  3.9937  magn=  0.0000
     atom   8 (R=0.089)  charge=  3.9937  magn=  0.0000
     atom   9 (R=0.089)  charge= 10.1597  magn=  0.0000
     atom  10 (R=0.089)  charge= 10.1596  magn=  0.0000
     atom  11 (R=0.089)  charge= 10.1596  magn=  0.0000
     atom  12 (R=0.089)  charge= 10.1595  magn= -0.0000
     atom  13 (R=0.089)  charge=  3.9936  magn= -0.0000
     atom  14 (R=0.089)  charge=  3.9936  magn= -0.0000
     atom  15 (R=0.089)  charge=  3.9935  magn=  0.0000
     atom  16 (R=0.089)  charge=  3.9936  magn= -0.0000
     atom  17 (R=0.089)  charge= 10.1597  magn=  0.0000
     atom  18 (R=0.089)  charge= 10.1596  magn=  0.0000
     atom  19 (R=0.089)  charge= 10.1595  magn= -0.0000
     atom  20 (R=0.089)  charge= 10.1596  magn=  0.0000
     atom  21 (R=0.089)  charge=  3.9936  magn= -0.0000
     atom  22 (R=0.089)  charge=  3.9936  magn= -0.0000
     atom  23 (R=0.089)  charge=  3.9936  magn= -0.0000
     atom  24 (R=0.089)  charge=  3.9935  magn=  0.0000
     atom  25 (R=0.089)  charge= 10.1595  magn= -0.0000
     atom  26 (R=0.089)  charge= 10.1596  magn=  0.0000
     atom  27 (R=0.089)  charge= 10.1595  magn= -0.0000
     atom  28 (R=0.089)  charge= 10.1595  magn= -0.0000
     atom  29 (R=0.089)  charge=  3.9933  magn=  0.0000
     atom  30 (R=0.089)  charge=  3.9937  magn=  0.0000
     atom  31 (R=0.089)  charge=  3.9937  magn=  0.0000
     atom  32 (R=0.089)  charge=  3.9937  magn=  0.0000
     atom  33 (R=0.089)  charge= 10.1597  magn=  0.0000
     atom  34 (R=0.089)  charge= 10.1595  magn= -0.0000
     atom  35 (R=0.089)  charge= 10.1596  magn=  0.0000
     atom  36 (R=0.089)  charge= 10.1596  magn=  0.0000
     atom  37 (R=0.089)  charge=  3.9935  magn=  0.0000
     atom  38 (R=0.089)  charge=  3.9936  magn= -0.0000
     atom  39 (R=0.089)  charge=  3.9936  magn= -0.0000
     atom  40 (R=0.089)  charge=  3.9936  magn= -0.0000
     atom  41 (R=0.089)  charge= 10.1595  magn= -0.0000
     atom  42 (R=0.089)  charge= 10.1595  magn= -0.0000
     atom  43 (R=0.089)  charge= 10.1596  magn=  0.0000
     atom  44 (R=0.089)  charge= 10.1595  magn= -0.0000
     atom  45 (R=0.089)  charge=  3.9937  magn=  0.0000
     atom  46 (R=0.089)  charge=  3.9937  magn=  0.0000
     atom  47 (R=0.089)  charge=  3.9937  magn=  0.0000
     atom  48 (R=0.089)  charge=  3.9933  magn=  0.0000
     atom  49 (R=0.089)  charge= 10.1595  magn= -0.0000
     atom  50 (R=0.089)  charge= 10.1595  magn= -0.0000
     atom  51 (R=0.089)  charge= 10.1595  magn= -0.0000
     atom  52 (R=0.089)  charge= 10.1596  magn=  0.0000
     atom  53 (R=0.089)  charge=  3.9937  magn=  0.0000
     atom  54 (R=0.089)  charge=  3.9937  magn=  0.0000
     atom  55 (R=0.089)  charge=  3.9933  magn=  0.0000
     atom  56 (R=0.089)  charge=  3.9937  magn=  0.0000
     atom  57 (R=0.089)  charge= 10.1595  magn= -0.0000
     atom  58 (R=0.089)  charge= 10.1595  magn= -0.0000
     atom  59 (R=0.089)  charge= 10.1595  magn= -0.0000
     atom  60 (R=0.089)  charge= 10.1595  magn= -0.0000
     atom  61 (R=0.089)  charge=  3.9936  magn= -0.0000
     atom  62 (R=0.089)  charge=  3.9935  magn=  0.0000
     atom  63 (R=0.089)  charge=  3.9936  magn= -0.0000
     atom  64 (R=0.089)  charge=  3.9936  magn= -0.0000

     total cpu time spent up to now is       91.6 secs

     End of self-consistent calculation

 ------ SPIN UP ------------


          k = 0.0000 0.0000 0.0000 (115313 PWs)   bands (ev):

    -7.4622  -6.9204  -6.9204  -6.9204  -6.9204  -6.9204  -6.9204  -6.5968
    -6.5968  -6.5968  -6.5968  -6.5968  -6.5968  -6.5968  -6.5968  -6.5968
    -6.5968  -6.5968  -6.5968  -6.5721  -6.5721  -6.5721  -6.5721  -6.2729
    -6.2729  -6.2729  -6.2673  -6.2673  -6.2673  -6.2673  -6.2673  -6.2673
    -0.7182  -0.7182  -0.7182  -0.7182  -0.7182  -0.7182  -0.6928  -0.6928
    -0.6928  -0.6748  -0.6748  -0.6748  -0.5632  -0.5632  -0.5632  -0.5632
    -0.5632  -0.5632  -0.5632  -0.5632  -0.5541  -0.5541  -0.5541  -0.5541
    -0.5541  -0.5541  -0.5541  -0.5541  -0.5541  -0.5541  -0.5541  -0.5541
    -0.5430  -0.5430  -0.5430  -0.5430  -0.5430  -0.5430  -0.5329  -0.5329
    -0.5329  -0.5329  -0.5329  -0.5329  -0.5329  -0.5329  -0.5329  -0.5329
    -0.5329  -0.5329  -0.5231  -0.5231  -0.5231  -0.5231  -0.5231  -0.5231
    -0.5231  -0.5231  -0.5231  -0.5231  -0.5231  -0.5231  -0.4021  -0.4021
    -0.4021  -0.4020  -0.4020  -0.4020  -0.3971  -0.3971  -0.3971  -0.3971
    -0.3971  -0.3971  -0.3971  -0.3971  -0.3971  -0.3971  -0.3971  -0.3971
    -0.3435  -0.3435  -0.3435  -0.3435  -0.3435  -0.3435  -0.2487  -0.2487
    -0.2487  -0.2487  -0.2487  -0.2487  -0.2306  -0.2306  -0.2306  -0.2306
    -0.2306  -0.2306  -0.2287  -0.2287  -0.2287  -0.2287  -0.2287  -0.2287
    -0.2072  -0.2072  -0.2072  -0.2072  -0.2072  -0.2072  -0.2072  -0.2072
    -0.2072  -0.2072  -0.2072  -0.2072  -0.1933  -0.1933  -0.1641  -0.1641
    -0.1641  -0.1641  -0.1641  -0.1641  -0.1641  -0.1641  -0.1573  -0.1573
    -0.1573  -0.1573  -0.1573  -0.1573  -0.1342  -0.1342  -0.1342  -0.1342
    -0.1342  -0.1342  -0.1342  -0.1342  -0.1342  -0.1342  -0.1342  -0.1342
    -0.1212  -0.1212  -0.1212   0.0023   0.0023   0.0023   0.0023   0.0145
     0.0145   0.0145   0.1870   0.1870   0.1870   0.1870   0.1870   0.1870
     0.3803   0.3803   0.3803   0.3803   1.0508   1.0508   1.0508   1.0508
     1.0508   1.0508   1.0739   1.0739   1.0739   1.6639   1.6639   1.6639
     1.6639   1.6639   1.6639   1.6639   1.6639   1.6639   1.6639   1.6639
     1.6639   2.8903   2.8903   2.8903   2.8903   2.8903   2.8903   2.9128
     2.9128   2.9128   2.9128   2.9128   2.9128   3.0056   3.0056   3.0056
     3.0056   3.0056   3.0056   3.1130   3.1130   3.1130   3.1130   3.1130
     3.1130   3.1130   3.1130   3.1130   3.1130   3.1130   3.1130   3.3950
     3.3950   3.3950   3.3950   3.3950   3.3950   4.3510   4.3510   4.3510
     4.3510   4.3510   4.3510   4.3510   4.3510   4.3510   4.3510   4.3510
     4.3510   4.6708   4.6708   4.6708   4.6708   4.6708   4.6708   4.6708
     4.6708   4.6708   4.6708   4.6708   4.6708   4.7066   4.7066   4.7066
     4.7066   4.7066   4.7066   4.7066   4.7066   5.5453   5.5453   5.5453
     7.5515   8.7969   8.7969   8.7969   8.7969   8.9888   8.9888   8.9888
     9.6026   9.6026   9.6026   9.9704   9.9704   9.9704   9.9704   9.9704
     9.9704  10.1012  10.1012  10.1012  10.1012  10.1012  10.1012  10.3042
    10.3042  10.3042  10.3042  10.3042  10.3042  10.3042  10.3042  10.3042
    10.3042  10.3042  10.3042  11.2374  11.2374  11.2374  11.2375  11.2375
    11.2375  11.4630  11.4630  11.4630  11.4630  11.4630  11.4630  11.9191
    11.9191  11.9191  12.1783  12.1784  12.1784  12.1784  12.1784  12.1784
    12.1784  12.1784

     occupation numbers 
     1.0000   1.0000   1.0000   1.0000   1.0000   1.0000   1.0000   1.0000
     1.0000   1.0000   1.0000   1.0000   1.0000   1.0000   1.0000   1.0000
     1.0000   1.0000   1.0000   1.0000   1.0000   1.0000   1.0000   1.0000
     1.0000   1.0000   1.0000   1.0000   1.0000   1.0000   1.0000   1.0000
     1.0000   1.0000   1.0000   1.0000   1.0000   1.0000   1.0000   1.0000
     1.0000   1.0000   1.0000   1.0000   1.0000   1.0000   1.0000   1.0000
     1.0000   1.0000   1.0000   1.0000   1.0000   1.0000   1.0000   1.0000
     1.0000   1.0000   1.0000   1.0000   1.0000   1.0000   1.0000   1.0000
     1.0000   1.0000   1.0000   1.0000   1.0000   1.0000   1.0000   1.0000
     1.0000   1.0000   1.0000   1.0000   1.0000   1.0000   1.0000   1.0000
     1.0000   1.0000   1.0000   1.0000   1.0000   1.0000   1.0000   1.0000
     1.0000   1.0000   1.0000   1.0000   1.0000   1.0000   1.0000   1.0000
     1.0000   1.0000   1.0000   1.0000   1.0000   1.0000   1.0000   1.0000
     1.0000   1.0000   1.0000   1.0000   1.0000   1.0000   1.0000   1.0000
     1.0000   1.0000   1.0000   1.0000   1.0000   1.0000   1.0000   1.0000
     1.0000   1.0000   1.0000   1.0000   1.0000   1.0000   1.0000   1.0000
     1.0000   1.0000   1.0000   1.0000   1.0000   1.0000   1.0000   1.0000
     1.0000   1.0000   1.0000   1.0000   1.0000   1.0000   1.0000   1.0000
     1.0000   1.0000   1.0000   1.0000   1.0000   1.0000   1.0000   1.0000
     1.0000   1.0000   1.0000   1.0000   1.0000   1.0000   1.0000   1.0000
     1.0000   1.0000   1.0000   1.0000   1.0000   1.0000   1.0000   1.0000
     1.0000   1.0000   1.0000   1.0000   1.0000   1.0000   1.0000   1.0000
     1.0000   1.0000   1.0000   1.0000   1.0000   1.0000   1.0000   1.0000
     1.0000   1.0000   1.0000   1.0000   1.0000   1.0000   1.0000   1.0000
     1.0000   1.0000   1.0000   1.0000   1.0000   1.0000   1.0000   1.0000
     1.0000   1.0000   1.0000   1.0000   1.0000   1.0000   1.0000   1.0000
     1.0000   1.0000   1.0000   1.0000   1.0000   1.0000   1.0000   1.0000
     1.0000   1.0000   1.0000   1.0000   1.0000   1.0000   1.0000   1.0000
     1.0000   1.0000   1.0000   1.0000   1.0000   1.0000   1.0000   1.0000
     1.0000   1.0000   1.0000   1.0000   1.0000   1.0000   1.0000   1.0000
     1.0000   1.0000   1.0000   1.0000   1.0000   1.0000   1.0000   1.0000
     1.0000   1.0000   1.0000   1.0000   1.0000   1.0000   1.0000   1.0000
     1.0000   1.0000   1.0000   1.0000   1.0000   1.0000   1.0000   1.0000
     1.0000   1.0000   1.0000   1.0000   1.0000   1.0000   1.0000   1.0000
     1.0000   1.0000   1.0000   1.0000   1.0000   1.0000   1.0000   1.0000
     1.0000   1.0000   1.0000   1.0000   1.0000   1.0000   1.0000   1.0000
     0.0000   0.0000   0.0000   0.0000   0.0000   0.0000   0.0000   0.0000
     0.0000   0.0000   0.0000   0.0000   0.0000   0.0000   0.0000   0.0000
     0.0000   0.0000   0.0000   0.0000   0.0000   0.0000   0.0000   0.0000
     0.0000   0.0000   0.0000   0.0000   0.0000   0.0000   0.0000   0.0000
     0.0000   0.0000   0.0000   0.0000   0.0000   0.0000   0.0000   0.0000
     0.0000   0.0000   0.0000   0.0000   0.0000   0.0000   0.0000   0.0000
     0.0000   0.0000   0.0000   0.0000   0.0000   0.0000   0.0000   0.0000
     0.0000   0.0000

          k = 0.0000 0.0000 0.2500 (115140 PWs)   bands (ev):

    -7.4238  -7.1379  -6.8961  -6.8961  -6.8961  -6.8961  -6.7217  -6.7217
    -6.7217  -6.7217  -6.6876  -6.5932  -6.5932  -6.5932  -6.5932  -6.5757
    -6.5757  -6.5757  -6.5757  -6.4710  -6.4710  -6.4710  -6.4710  -6.3271
    -6.2924  -6.2924  -6.2924  -6.2924  -6.2721  -6.2721  -6.2681  -6.2681
    -0.7172  -0.7083  -0.7007  -0.7007  -0.7007  -0.7007  -0.6967  -0.6798
    -0.6718  -0.6718  -0.6651  -0.6651  -0.5916  -0.5916  -0.5723  -0.5723
    -0.5723  -0.5723  -0.5651  -0.5651  -0.5626  -0.5626  -0.5626  -0.5626
    -0.5579  -0.5579  -0.5579  -0.5579  -0.5566  -0.5566  -0.5566  -0.5566
    -0.5535  -0.5535  -0.5535  -0.5535  -0.5481  -0.5481  -0.5481  -0.5481
    -0.5423  -0.5423  -0.5423  -0.5423  -0.5370  -0.5370  -0.5370  -0.5370
    -0.5299  -0.5299  -0.5299  -0.5299  -0.5296  -0.5296  -0.5296  -0.5296
    -0.4963  -0.4963  -0.4963  -0.4963  -0.4901  -0.4900  -0.4900  -0.4900
    -0.4675  -0.4675  -0.4246  -0.4246  -0.4246  -0.4246  -0.3953  -0.3953
    -0.3685  -0.3685  -0.3685  -0.3685  -0.3603  -0.3603  -0.3545  -0.3545
    -0.3394  -0.3394  -0.2919  -0.2919  -0.2919  -0.2919  -0.2915  -0.2915
    -0.2385  -0.2385  -0.2385  -0.2385  -0.2254  -0.2254  -0.2254  -0.2254
    -0.2250  -0.2250  -0.2250  -0.2250  -0.2231  -0.2156  -0.2094  -0.2094
    -0.2093  -0.2093  -0.2002  -0.2002  -0.2002  -0.2002  -0.1976  -0.1926
    -0.1926  -0.1926  -0.1926  -0.1906  -0.1899  -0.1899  -0.1899  -0.1899
    -0.1852  -0.1852  -0.1711  -0.1699  -0.1699  -0.1699  -0.1699  -0.1579
    -0.1579  -0.1578  -0.1578  -0.1486  -0.1486  -0.1486  -0.1486  -0.1435
    -0.1325  -0.1325  -0.1325  -0.1325  -0.1276  -0.1276  -0.1240  -0.0918
    -0.0918  -0.0918  -0.0918  -0.0831  -0.0831  -0.0831  -0.0831  -0.0538
     0.0408   0.0408   0.1490   0.1490   0.1490   0.1490   0.1619   0.1619
     0.5814   0.5814   0.5814   0.5814   1.0549   1.0549   1.0668   1.0668
     1.0668   1.0668   1.0711   1.0711   1.2678   1.3597   1.3597   1.3597
     1.3597   1.4166   1.4166   1.4166   1.4166   2.0417   2.0417   2.0417
     2.0417   2.3287   2.6648   2.6648   2.6648   2.6648   2.8137   2.8137
     2.8137   2.8137   2.8313   2.8313   2.8313   2.8313   2.9596   2.9596
     2.9791   2.9791   3.3153   3.3153   3.3193   3.3193   3.3303   3.3303
     3.3303   3.3303   3.4124   3.4124   3.4124   3.4124   3.4641   3.4641
     3.4959   3.4959   3.4959   3.4959   3.7314   3.9697   3.9697   4.2223
     4.2223   4.2223   4.2223   4.3409   4.3409   4.3409   4.3409   4.4701
     4.4701   4.4701   4.4701   4.4933   4.4933   4.4933   4.4933   4.6760
     4.6760   4.6760   4.6760   4.7013   4.7013   4.7013   4.7013   4.7642
     4.7642   4.7739   4.7739   4.7739   4.7739   5.1823   5.4379   5.4379
     7.9505   9.0164   9.0164   9.0164   9.0164   9.0633   9.2181   9.2181
     9.4970   9.6306   9.6697   9.8068   9.8068  10.0303  10.0449  10.0449
    10.0449  10.0449  10.0736  10.0736  10.0736  10.0736  10.2778  10.2778
    10.2778  10.2778  10.3224  10.3224  10.3224  10.3224  10.4260  10.4261
    10.4261  10.4261  10.6427  10.6854  10.6854  11.0459  11.0459  11.0459
    11.0459  11.0552  11.0552  11.5805  11.5805  11.5805  11.5805  11.7124
    11.8226  11.8226  11.8227  11.8227  12.0188  12.0188  12.0188  12.0188
    12.0189  12.0189

     occupation numbers 
     1.0000   1.0000   1.0000   1.0000   1.0000   1.0000   1.0000   1.0000
     1.0000   1.0000   1.0000   1.0000   1.0000   1.0000   1.0000   1.0000
     1.0000   1.0000   1.0000   1.0000   1.0000   1.0000   1.0000   1.0000
     1.0000   1.0000   1.0000   1.0000   1.0000   1.0000   1.0000   1.0000
     1.0000   1.0000   1.0000   1.0000   1.0000   1.0000   1.0000   1.0000
     1.0000   1.0000   1.0000   1.0000   1.0000   1.0000   1.0000   1.0000
     1.0000   1.0000   1.0000   1.0000   1.0000   1.0000   1.0000   1.0000
     1.0000   1.0000   1.0000   1.0000   1.0000   1.0000   1.0000   1.0000
     1.0000   1.0000   1.0000   1.0000   1.0000   1.0000   1.0000   1.0000
     1.0000   1.0000   1.0000   1.0000   1.0000   1.0000   1.0000   1.0000
     1.0000   1.0000   1.0000   1.0000   1.0000   1.0000   1.0000   1.0000
     1.0000   1.0000   1.0000   1.0000   1.0000   1.0000   1.0000   1.0000
     1.0000   1.0000   1.0000   1.0000   1.0000   1.0000   1.0000   1.0000
     1.0000   1.0000   1.0000   1.0000   1.0000   1.0000   1.0000   1.0000
     1.0000   1.0000   1.0000   1.0000   1.0000   1.0000   1.0000   1.0000
     1.0000   1.0000   1.0000   1.0000   1.0000   1.0000   1.0000   1.0000
     1.0000   1.0000   1.0000   1.0000   1.0000   1.0000   1.0000   1.0000
     1.0000   1.0000   1.0000   1.0000   1.0000   1.0000   1.0000   1.0000
     1.0000   1.0000   1.0000   1.0000   1.0000   1.0000   1.0000   1.0000
     1.0000   1.0000   1.0000   1.0000   1.0000   1.0000   1.0000   1.0000
     1.0000   1.0000   1.0000   1.0000   1.0000   1.0000   1.0000   1.0000
     1.0000   1.0000   1.0000   1.0000   1.0000   1.0000   1.0000   1.0000
     1.0000   1.0000   1.0000   1.0000   1.0000   1.0000   1.0000   1.0000
     1.0000   1.0000   1.0000   1.0000   1.0000   1.0000   1.0000   1.0000
     1.0000   1.0000   1.0000   1.0000   1.0000   1.0000   1.0000   1.0000
     1.0000   1.0000   1.0000   1.0000   1.0000   1.0000   1.0000   1.0000
     1.0000   1.0000   1.0000   1.0000   1.0000   1.0000   1.0000   1.0000
     1.0000   1.0000   1.0000   1.0000   1.0000   1.0000   1.0000   1.0000
     1.0000   1.0000   1.0000   1.0000   1.0000   1.0000   1.0000   1.0000
     1.0000   1.0000   1.0000   1.0000   1.0000   1.0000   1.0000   1.0000
     1.0000   1.0000   1.0000   1.0000   1.0000   1.0000   1.0000   1.0000
     1.0000   1.0000   1.0000   1.0000   1.0000   1.0000   1.0000   1.0000
     1.0000   1.0000   1.0000   1.0000   1.0000   1.0000   1.0000   1.0000
     1.0000   1.0000   1.0000   1.0000   1.0000   1.0000   1.0000   1.0000
     1.0000   1.0000   1.0000   1.0000   1.0000   1.0000   1.0000   1.0000
     1.0000   1.0000   1.0000   1.0000   1.0000   1.0000   1.0000   1.0000
     0.0000   0.0000   0.0000   0.0000   0.0000   0.0000   0.0000   0.0000
     0.0000   0.0000   0.0000   0.0000   0.0000   0.0000   0.0000   0.0000
     0.0000   0.0000   0.0000   0.0000   0.0000   0.0000   0.0000   0.0000
     0.0000   0.0000   0.0000   0.0000   0.0000   0.0000   0.0000   0.0000
     0.0000   0.0000   0.0000   0.0000   0.0000   0.0000   0.0000   0.0000
     0.0000   0.0000   0.0000   0.0000   0.0000   0.0000   0.0000   0.0000
     0.0000   0.0000   0.0000   0.0000   0.0000   0.0000   0.0000   0.0000
     0.0000   0.0000

          k = 0.0000 0.0000-0.5000 (115180 PWs)   bands (ev):

    -7.3121  -7.3121  -6.8266  -6.8266  -6.8266  -6.8266  -6.8266  -6.8266
    -6.8266  -6.8266  -6.5845  -6.5845  -6.5845  -6.5845  -6.5845  -6.5845
    -6.5845  -6.5845  -6.4764  -6.4764  -6.3639  -6.3639  -6.3639  -6.3639
    -6.3639  -6.3639  -6.3639  -6.3639  -6.2701  -6.2701  -6.2701  -6.2701
    -0.7071  -0.7071  -0.6929  -0.6929  -0.6486  -0.6486  -0.6486  -0.6486
    -0.6486  -0.6486  -0.6486  -0.6486  -0.6369  -0.6369  -0.6369  -0.6369
    -0.6192  -0.6192  -0.6192  -0.6192  -0.5605  -0.5605  -0.5605  -0.5605
    -0.5605  -0.5605  -0.5605  -0.5605  -0.5461  -0.5461  -0.5461  -0.5461
    -0.5461  -0.5461  -0.5461  -0.5461  -0.5444  -0.5444  -0.5444  -0.5444
    -0.5444  -0.5444  -0.5444  -0.5444  -0.5428  -0.5428  -0.5428  -0.5428
    -0.5427  -0.5427  -0.5427  -0.5427  -0.5195  -0.5195  -0.5195  -0.5195
    -0.5195  -0.5195  -0.5195  -0.5195  -0.4642  -0.4642  -0.4642  -0.4642
    -0.4642  -0.4642  -0.4642  -0.4642  -0.4057  -0.4057  -0.4056  -0.4056
    -0.3769  -0.3769  -0.3769  -0.3769  -0.3244  -0.3244  -0.3244  -0.3244
    -0.2877  -0.2877  -0.2877  -0.2877  -0.2877  -0.2877  -0.2877  -0.2877
    -0.2532  -0.2532  -0.2532  -0.2532  -0.2532  -0.2532  -0.2532  -0.2532
    -0.2142  -0.2142  -0.2142  -0.2142  -0.2142  -0.2142  -0.2142  -0.2142
    -0.2090  -0.2090  -0.1976  -0.1976  -0.1976  -0.1976  -0.1976  -0.1976
    -0.1976  -0.1976  -0.1845  -0.1845  -0.1845  -0.1845  -0.1845  -0.1845
    -0.1845  -0.1844  -0.1828  -0.1828  -0.1575  -0.1575  -0.1569  -0.1569
    -0.1568  -0.1568  -0.1568  -0.1568  -0.1568  -0.1568  -0.1480  -0.1480
    -0.1480  -0.1480  -0.1318  -0.1318  -0.1249  -0.1249  -0.1249  -0.1249
    -0.1249  -0.1249  -0.1249  -0.1249   0.0351   0.0351   0.0351   0.0351
     0.0351   0.0351   0.0351   0.0351   0.1018   0.1018   0.1019   0.1019
     0.9754   0.9754   0.9754   0.9754   0.9754   0.9754   0.9754   0.9754
     1.0636   1.0636   1.0636   1.0636   1.1567   1.1567   1.1567   1.1567
     1.1567   1.1567   1.1567   1.1567   1.7298   1.7298   2.4553   2.4553
     2.4553   2.4553   2.4553   2.4553   2.4553   2.4553   2.6478   2.6478
     2.6478   2.6478   2.6478   2.6478   2.6478   2.6478   3.1324   3.1324
     3.1324   3.1324   3.1446   3.1446   3.1446   3.1446   3.6631   3.6631
     3.6631   3.6631   3.8528   3.8528   3.8528   3.8528   3.8528   3.8528
     3.8528   3.8528   3.8978   3.8978   3.8978   3.8978   3.8978   3.8978
     3.8978   3.8978   3.9826   3.9826   3.9826   3.9826   3.9826   3.9826
     3.9826   3.9826   4.4804   4.4804   4.6734   4.6734   4.6734   4.6734
     4.6734   4.6734   4.6734   4.6734   4.6886   4.6886   4.6886   4.6886
     4.6886   4.6886   4.6886   4.6886   5.1516   5.1516   5.1516   5.1516
     8.7315   8.7315   9.2817   9.2817   9.5363   9.5363   9.5363   9.5363
     9.5363   9.5363   9.5363   9.5363   9.8415   9.8415   9.8415   9.8415
     9.8470   9.8470  10.1898  10.1898  10.1898  10.1898  10.1898  10.1898
    10.1898  10.1898  10.3535  10.3535  10.3535  10.3535  10.7066  10.7066
    10.7066  10.7066  10.7066  10.7066  10.7066  10.7066  10.9436  10.9436
    10.9436  10.9436  10.9436  10.9436  10.9436  10.9436  11.2205  11.2205
    11.7867  11.7867  11.7867  11.7867  11.7867  11.7867  11.7867  11.7867
    12.0729  12.0729

     occupation numbers 
     1.0000   1.0000   1.0000   1.0000   1.0000   1.0000   1.0000   1.0000
     1.0000   1.0000   1.0000   1.0000   1.0000   1.0000   1.0000   1.0000
     1.0000   1.0000   1.0000   1.0000   1.0000   1.0000   1.0000   1.0000
     1.0000   1.0000   1.0000   1.0000   1.0000   1.0000   1.0000   1.0000
     1.0000   1.0000   1.0000   1.0000   1.0000   1.0000   1.0000   1.0000
     1.0000   1.0000   1.0000   1.0000   1.0000   1.0000   1.0000   1.0000
     1.0000   1.0000   1.0000   1.0000   1.0000   1.0000   1.0000   1.0000
     1.0000   1.0000   1.0000   1.0000   1.0000   1.0000   1.0000   1.0000
     1.0000   1.0000   1.0000   1.0000   1.0000   1.0000   1.0000   1.0000
     1.0000   1.0000   1.0000   1.0000   1.0000   1.0000   1.0000   1.0000
     1.0000   1.0000   1.0000   1.0000   1.0000   1.0000   1.0000   1.0000
     1.0000   1.0000   1.0000   1.0000   1.0000   1.0000   1.0000   1.0000
     1.0000   1.0000   1.0000   1.0000   1.0000   1.0000   1.0000   1.0000
     1.0000   1.0000   1.0000   1.0000   1.0000   1.0000   1.0000   1.0000
     1.0000   1.0000   1.0000   1.0000   1.0000   1.0000   1.0000   1.0000
     1.0000   1.0000   1.0000   1.0000   1.0000   1.0000   1.0000   1.0000
     1.0000   1.0000   1.0000   1.0000   1.0000   1.0000   1.0000   1.0000
     1.0000   1.0000   1.0000   1.0000   1.0000   1.0000   1.0000   1.0000
     1.0000   1.0000   1.0000   1.0000   1.0000   1.0000   1.0000   1.0000
     1.0000   1.0000   1.0000   1.0000   1.0000   1.0000   1.0000   1.0000
     1.0000   1.0000   1.0000   1.0000   1.0000   1.0000   1.0000   1.0000
     1.0000   1.0000   1.0000   1.0000   1.0000   1.0000   1.0000   1.0000
     1.0000   1.0000   1.0000   1.0000   1.0000   1.0000   1.0000   1.0000
     1.0000   1.0000   1.0000   1.0000   1.0000   1.0000   1.0000   1.0000
     1.0000   1.0000   1.0000   1.0000   1.0000   1.0000   1.0000   1.0000
     1.0000   1.0000   1.0000   1.0000   1.0000   1.0000   1.0000   1.0000
     1.0000   1.0000   1.0000   1.0000   1.0000   1.0000   1.0000   1.0000
     1.0000   1.0000   1.0000   1.0000   1.0000   1.0000   1.0000   1.0000
     1.0000   1.0000   1.0000   1.0000   1.0000   1.0000   1.0000   1.0000
     1.0000   1.0000   1.0000   1.0000   1.0000   1.0000   1.0000   1.0000
     1.0000   1.0000   1.0000   1.0000   1.0000   1.0000   1.0000   1.0000
     1.0000   1.0000   1.0000   1.0000   1.0000   1.0000   1.0000   1.0000
     1.0000   1.0000   1.0000   1.0000   1.0000   1.0000   1.0000   1.0000
     1.0000   1.0000   1.0000   1.0000   1.0000   1.0000   1.0000   1.0000
     1.0000   1.0000   1.0000   1.0000   1.0000   1.0000   1.0000   1.0000
     1.0000   1.0000   1.0000   1.0000   1.0000   1.0000   1.0000   1.0000
     0.0000   0.0000   0.0000   0.0000   0.0000   0.0000   0.0000   0.0000
     0.0000   0.0000   0.0000   0.0000   0.0000   0.0000   0.0000   0.0000
     0.0000   0.0000   0.0000   0.0000   0.0000   0.0000   0.0000   0.0000
     0.0000   0.0000   0.0000   0.0000   0.0000   0.0000   0.0000   0.0000
     0.0000   0.0000   0.0000   0.0000   0.0000   0.0000   0.0000   0.0000
     0.0000   0.0000   0.0000   0.0000   0.0000   0.0000   0.0000   0.0000
     0.0000   0.0000   0.0000   0.0000   0.0000   0.0000   0.0000   0.0000
     0.0000   0.0000

          k = 0.0000 0.2500 0.2500 (115165 PWs)   bands (ev):

    -7.3863  -7.1075  -7.1075  -6.8852  -6.8731  -6.8731  -6.7093  -6.7093
    -6.7093  -6.7093  -6.6708  -6.6708  -6.6273  -6.6273  -6.5526  -6.5526
    -6.5302  -6.5302  -6.4773  -6.4773  -6.4773  -6.4773  -6.3914  -6.3240
    -6.3240  -6.3150  -6.3150  -6.3040  -6.3040  -6.2829  -6.2829  -6.2731
    -0.6960  -0.6960  -0.6953  -0.6953  -0.6840  -0.6840  -0.6767  -0.6750
    -0.6750  -0.6628  -0.6564  -0.6542  -0.5945  -0.5918  -0.5918  -0.5890
    -0.5890  -0.5808  -0.5745  -0.5745  -0.5745  -0.5745  -0.5696  -0.5696
    -0.5657  -0.5653  -0.5653  -0.5629  -0.5629  -0.5608  -0.5608  -0.5605
    -0.5605  -0.5593  -0.5586  -0.5586  -0.5508  -0.5508  -0.5508  -0.5508
    -0.5501  -0.5501  -0.5501  -0.5501  -0.5424  -0.5424  -0.5420  -0.5420
    -0.5371  -0.5371  -0.5299  -0.5299  -0.5214  -0.5214  -0.5032  -0.5032
    -0.5032  -0.5032  -0.4772  -0.4772  -0.4718  -0.4718  -0.4718  -0.4718
    -0.4620  -0.4620  -0.4612  -0.4413  -0.4413  -0.4212  -0.4212  -0.4075
    -0.4075  -0.3898  -0.3898  -0.3728  -0.3728  -0.3592  -0.3549  -0.3549
    -0.3391  -0.2961  -0.2961  -0.2875  -0.2874  -0.2776  -0.2776  -0.2764
    -0.2764  -0.2764  -0.2764  -0.2397  -0.2381  -0.2381  -0.2199  -0.2199
    -0.2190  -0.2190  -0.2164  -0.2164  -0.2137  -0.2056  -0.2056  -0.2051
    -0.2051  -0.2020  -0.2020  -0.2020  -0.2020  -0.1980  -0.1911  -0.1874
    -0.1868  -0.1868  -0.1868  -0.1868  -0.1850  -0.1850  -0.1840  -0.1840
    -0.1787  -0.1787  -0.1719  -0.1719  -0.1670  -0.1670  -0.1635  -0.1635
    -0.1622  -0.1598  -0.1598  -0.1587  -0.1587  -0.1500  -0.1500  -0.1500
    -0.1500  -0.1446  -0.1446  -0.1328  -0.1293  -0.1293  -0.1273  -0.1273
    -0.0750  -0.0750  -0.0750  -0.0750  -0.0297  -0.0297  -0.0013   0.0267
     0.0267   0.0644   0.0968   0.0968   0.1322   0.1322   0.1568   0.1568
     0.4952   0.4952   0.9027   0.9027   1.0216   1.0216   1.0395   1.0395
     1.0651   1.1341   1.1341   1.1402   1.1402   1.1402   1.1402   1.1415
     1.2524   1.2524   1.6519   1.6519   1.7919   1.7919   1.7919   1.7919
     2.2229   2.2229   2.4996   2.5762   2.6290   2.6290   2.6332   2.6332
     2.7115   2.7115   2.8513   2.8513   3.0317   3.0971   3.0971   3.0971
     3.0971   3.1551   3.1551   3.2903   3.2903   3.3628   3.3628   3.4212
     3.4212   3.4344   3.4344   3.4810   3.4810   3.5017   3.5091   3.5091
     3.7687   3.7687   3.7688   3.7688   3.8442   3.8442   3.9031   4.0316
     4.0316   4.1833   4.1833   4.2161   4.2991   4.2991   4.3451   4.3451
     4.3663   4.3663   4.3663   4.3663   4.3998   4.3998   4.5610   4.5610
     4.6179   4.6179   4.6379   4.6379   4.6509   4.6509   4.7602   4.7602
     4.7602   4.7602   4.7888   4.9236   4.9236   5.0695   5.3267   5.4998
     8.2086   9.0399   9.0399   9.2894   9.2946   9.2946   9.3565   9.3565
     9.5370   9.5370   9.8660   9.8660   9.8681   9.8681   9.9134   9.9186
     9.9186   9.9641   9.9641   9.9641   9.9641  10.1098  10.1117  10.1592
    10.1592  10.2941  10.2941  10.2941  10.2941  10.3446  10.3446  10.6766
    10.6766  10.6827  10.6827  10.7646  10.7646  10.8440  10.8440  10.9684
    10.9684  11.0499  11.0499  11.4075  11.4075  11.4608  11.4608  11.4984
    11.4984  11.7969  11.7973  11.7973  11.7973  11.9175  11.9187  11.9188
    11.9188  11.9402

     occupation numbers 
     1.0000   1.0000   1.0000   1.0000   1.0000   1.0000   1.0000   1.0000
     1.0000   1.0000   1.0000   1.0000   1.0000   1.0000   1.0000   1.0000
     1.0000   1.0000   1.0000   1.0000   1.0000   1.0000   1.0000   1.0000
     1.0000   1.0000   1.0000   1.0000   1.0000   1.0000   1.0000   1.0000
     1.0000   1.0000   1.0000   1.0000   1.0000   1.0000   1.0000   1.0000
     1.0000   1.0000   1.0000   1.0000   1.0000   1.0000   1.0000   1.0000
     1.0000   1.0000   1.0000   1.0000   1.0000   1.0000   1.0000   1.0000
     1.0000   1.0000   1.0000   1.0000   1.0000   1.0000   1.0000   1.0000
     1.0000   1.0000   1.0000   1.0000   1.0000   1.0000   1.0000   1.0000
     1.0000   1.0000   1.0000   1.0000   1.0000   1.0000   1.0000   1.0000
     1.0000   1.0000   1.0000   1.0000   1.0000   1.0000   1.0000   1.0000
     1.0000   1.0000   1.0000   1.0000   1.0000   1.0000   1.0000   1.0000
     1.0000   1.0000   1.0000   1.0000   1.0000   1.0000   1.0000   1.0000
     1.0000   1.0000   1.0000   1.0000   1.0000   1.0000   1.0000   1.0000
     1.0000   1.0000   1.0000   1.0000   1.0000   1.0000   1.0000   1.0000
     1.0000   1.0000   1.0000   1.0000   1.0000   1.0000   1.0000   1.0000
     1.0000   1.0000   1.0000   1.0000   1.0000   1.0000   1.0000   1.0000
     1.0000   1.0000   1.0000   1.0000   1.0000   1.0000   1.0000   1.0000
     1.0000   1.0000   1.0000   1.0000   1.0000   1.0000   1.0000   1.0000
     1.0000   1.0000   1.0000   1.0000   1.0000   1.0000   1.0000   1.0000
     1.0000   1.0000   1.0000   1.0000   1.0000   1.0000   1.0000   1.0000
     1.0000   1.0000   1.0000   1.0000   1.0000   1.0000   1.0000   1.0000
     1.0000   1.0000   1.0000   1.0000   1.0000   1.0000   1.0000   1.0000
     1.0000   1.0000   1.0000   1.0000   1.0000   1.0000   1.0000   1.0000
     1.0000   1.0000   1.0000   1.0000   1.0000   1.0000   1.0000   1.0000
     1.0000   1.0000   1.0000   1.0000   1.0000   1.0000   1.0000   1.0000
     1.0000   1.0000   1.0000   1.0000   1.0000   1.0000   1.0000   1.0000
     1.0000   1.0000   1.0000   1.0000   1.0000   1.0000   1.0000   1.0000
     1.0000   1.0000   1.0000   1.0000   1.0000   1.0000   1.0000   1.0000
     1.0000   1.0000   1.0000   1.0000   1.0000   1.0000   1.0000   1.0000
     1.0000   1.0000   1.0000   1.0000   1.0000   1.0000   1.0000   1.0000
     1.0000   1.0000   1.0000   1.0000   1.0000   1.0000   1.0000   1.0000
     1.0000   1.0000   1.0000   1.0000   1.0000   1.0000   1.0000   1.0000
     1.0000   1.0000   1.0000   1.0000   1.0000   1.0000   1.0000   1.0000
     1.0000   1.0000   1.0000   1.0000   1.0000   1.0000   1.0000   1.0000
     1.0000   1.0000   1.0000   1.0000   1.0000   1.0000   1.0000   1.0000
     0.0000   0.0000   0.0000   0.0000   0.0000   0.0000   0.0000   0.0000
     0.0000   0.0000   0.0000   0.0000   0.0000   0.0000   0.0000   0.0000
     0.0000   0.0000   0.0000   0.0000   0.0000   0.0000   0.0000   0.0000
     0.0000   0.0000   0.0000   0.0000   0.0000   0.0000   0.0000   0.0000
     0.0000   0.0000   0.0000   0.0000   0.0000   0.0000   0.0000   0.0000
     0.0000   0.0000   0.0000   0.0000   0.0000   0.0000   0.0000   0.0000
     0.0000   0.0000   0.0000   0.0000   0.0000   0.0000   0.0000   0.0000
     0.0000   0.0000

          k = 0.0000 0.2500-0.5000 (115164 PWs)   bands (ev):

    -7.2772  -7.2772  -7.0197  -7.0197  -6.8077  -6.8077  -6.8077  -6.8076
    -6.6753  -6.6753  -6.6753  -6.6753  -6.6231  -6.6231  -6.4968  -6.4968
    -6.4968  -6.4968  -6.4673  -6.4673  -6.4049  -6.4049  -6.3797  -6.3797
    -6.3797  -6.3797  -6.3257  -6.3257  -6.3155  -6.3155  -6.2765  -6.2765
    -0.6846  -0.6846  -0.6843  -0.6843  -0.6560  -0.6560  -0.6371  -0.6371
    -0.6363  -0.6363  -0.6355  -0.6355  -0.6355  -0.6355  -0.6307  -0.6307
    -0.6201  -0.6201  -0.6109  -0.6109  -0.5906  -0.5906  -0.5810  -0.5810
    -0.5744  -0.5744  -0.5744  -0.5744  -0.5644  -0.5644  -0.5593  -0.5593
    -0.5561  -0.5561  -0.5561  -0.5561  -0.5529  -0.5529  -0.5528  -0.5528
    -0.5447  -0.5447  -0.5447  -0.5447  -0.5447  -0.5447  -0.5447  -0.5447
    -0.5212  -0.5212  -0.5212  -0.5212  -0.5163  -0.5163  -0.5163  -0.5163
    -0.4995  -0.4995  -0.4737  -0.4737  -0.4737  -0.4737  -0.4730  -0.4730
    -0.4418  -0.4418  -0.4323  -0.4323  -0.4188  -0.4188  -0.4053  -0.4053
    -0.4053  -0.4053  -0.3989  -0.3989  -0.3989  -0.3989  -0.3821  -0.3821
    -0.3359  -0.3359  -0.3233  -0.3233  -0.3184  -0.3184  -0.2533  -0.2533
    -0.2495  -0.2495  -0.2495  -0.2495  -0.2398  -0.2398  -0.2398  -0.2398
    -0.2146  -0.2146  -0.2074  -0.2074  -0.2071  -0.2071  -0.2071  -0.2071
    -0.1930  -0.1930  -0.1930  -0.1930  -0.1870  -0.1870  -0.1840  -0.1840
    -0.1840  -0.1840  -0.1840  -0.1839  -0.1831  -0.1830  -0.1750  -0.1750
    -0.1750  -0.1750  -0.1710  -0.1710  -0.1694  -0.1694  -0.1585  -0.1585
    -0.1585  -0.1584  -0.1544  -0.1544  -0.1544  -0.1544  -0.1503  -0.1503
    -0.1466  -0.1466  -0.1436  -0.1436  -0.1422  -0.1422  -0.1328  -0.1328
    -0.0374  -0.0373  -0.0215  -0.0215  -0.0215  -0.0215   0.0286   0.0286
     0.0519   0.0519   0.0519   0.0519   0.1102   0.1102   0.1168   0.1168
     0.7575   0.7575   0.7575   0.7575   1.0043   1.0043   1.0044   1.0044
     1.0392   1.0392   1.0493   1.0493   1.2055   1.2055   1.3336   1.3336
     1.3336   1.3336   1.3440   1.3440   1.6788   1.6788   1.9642   1.9642
     2.2235   2.2235   2.2236   2.2236   2.4982   2.4982   2.7666   2.7666
     2.8571   2.8571   2.8571   2.8571   2.9263   2.9263   3.0006   3.0006
     3.1188   3.1188   3.3358   3.3358   3.5248   3.5248   3.5318   3.5318
     3.5466   3.5466   3.6550   3.6550   3.6550   3.6550   3.6677   3.6677
     3.7653   3.7653   3.8926   3.8926   3.9229   3.9229   3.9229   3.9229
     4.1119   4.1119   4.1119   4.1119   4.1512   4.1512   4.1693   4.1693
     4.2613   4.2613   4.2613   4.2613   4.3144   4.3144   4.4402   4.4402
     4.4402   4.4402   4.6269   4.6269   4.6269   4.6269   4.7169   4.7169
     4.7169   4.7169   5.0322   5.0322   5.1071   5.1071   5.3081   5.3081
     8.8305   8.8306   9.4217   9.4218   9.4218   9.4218   9.5175   9.5175
     9.6611   9.6611   9.6668   9.6668   9.8731   9.8731   9.8731   9.8731
     9.8973   9.8973   9.8973   9.8973   9.9223   9.9223  10.0192  10.0192
    10.0751  10.0751  10.3906  10.3906  10.4653  10.4653  10.5203  10.5203
    10.6458  10.6458  10.6458  10.6458  10.7779  10.7779  10.9118  10.9118
    11.0648  11.0648  11.3097  11.3097  11.3097  11.3097  11.3744  11.3744
    11.3775  11.3775  11.5657  11.5657  11.5657  11.5658  11.7592  11.7593
    11.9110  11.9110

     occupation numbers 
     1.0000   1.0000   1.0000   1.0000   1.0000   1.0000   1.0000   1.0000
     1.0000   1.0000   1.0000   1.0000   1.0000   1.0000   1.0000   1.0000
     1.0000   1.0000   1.0000   1.0000   1.0000   1.0000   1.0000   1.0000
     1.0000   1.0000   1.0000   1.0000   1.0000   1.0000   1.0000   1.0000
     1.0000   1.0000   1.0000   1.0000   1.0000   1.0000   1.0000   1.0000
     1.0000   1.0000   1.0000   1.0000   1.0000   1.0000   1.0000   1.0000
     1.0000   1.0000   1.0000   1.0000   1.0000   1.0000   1.0000   1.0000
     1.0000   1.0000   1.0000   1.0000   1.0000   1.0000   1.0000   1.0000
     1.0000   1.0000   1.0000   1.0000   1.0000   1.0000   1.0000   1.0000
     1.0000   1.0000   1.0000   1.0000   1.0000   1.0000   1.0000   1.0000
     1.0000   1.0000   1.0000   1.0000   1.0000   1.0000   1.0000   1.0000
     1.0000   1.0000   1.0000   1.0000   1.0000   1.0000   1.0000   1.0000
     1.0000   1.0000   1.0000   1.0000   1.0000   1.0000   1.0000   1.0000
     1.0000   1.0000   1.0000   1.0000   1.0000   1.0000   1.0000   1.0000
     1.0000   1.0000   1.0000   1.0000   1.0000   1.0000   1.0000   1.0000
     1.0000   1.0000   1.0000   1.0000   1.0000   1.0000   1.0000   1.0000
     1.0000   1.0000   1.0000   1.0000   1.0000   1.0000   1.0000   1.0000
     1.0000   1.0000   1.0000   1.0000   1.0000   1.0000   1.0000   1.0000
     1.0000   1.0000   1.0000   1.0000   1.0000   1.0000   1.0000   1.0000
     1.0000   1.0000   1.0000   1.0000   1.0000   1.0000   1.0000   1.0000
     1.0000   1.0000   1.0000   1.0000   1.0000   1.0000   1.0000   1.0000
     1.0000   1.0000   1.0000   1.0000   1.0000   1.0000   1.0000   1.0000
     1.0000   1.0000   1.0000   1.0000   1.0000   1.0000   1.0000   1.0000
     1.0000   1.0000   1.0000   1.0000   1.0000   1.0000   1.0000   1.0000
     1.0000   1.0000   1.0000   1.0000   1.0000   1.0000   1.0000   1.0000
     1.0000   1.0000   1.0000   1.0000   1.0000   1.0000   1.0000   1.0000
     1.0000   1.0000   1.0000   1.0000   1.0000   1.0000   1.0000   1.0000
     1.0000   1.0000   1.0000   1.0000   1.0000   1.0000   1.0000   1.0000
     1.0000   1.0000   1.0000   1.0000   1.0000   1.0000   1.0000   1.0000
     1.0000   1.0000   1.0000   1.0000   1.0000   1.0000   1.0000   1.0000
     1.0000   1.0000   1.0000   1.0000   1.0000   1.0000   1.0000   1.0000
     1.0000   1.0000   1.0000   1.0000   1.0000   1.0000   1.0000   1.0000
     1.0000   1.0000   1.0000   1.0000   1.0000   1.0000   1.0000   1.0000
     1.0000   1.0000   1.0000   1.0000   1.0000   1.0000   1.0000   1.0000
     1.0000   1.0000   1.0000   1.0000   1.0000   1.0000   1.0000   1.0000
     1.0000   1.0000   1.0000   1.0000   1.0000   1.0000   1.0000   1.0000
     0.0000   0.0000   0.0000   0.0000   0.0000   0.0000   0.0000   0.0000
     0.0000   0.0000   0.0000   0.0000   0.0000   0.0000   0.0000   0.0000
     0.0000   0.0000   0.0000   0.0000   0.0000   0.0000   0.0000   0.0000
     0.0000   0.0000   0.0000   0.0000   0.0000   0.0000   0.0000   0.0000
     0.0000   0.0000   0.0000   0.0000   0.0000   0.0000   0.0000   0.0000
     0.0000   0.0000   0.0000   0.0000   0.0000   0.0000   0.0000   0.0000
     0.0000   0.0000   0.0000   0.0000   0.0000   0.0000   0.0000   0.0000
     0.0000   0.0000

          k = 0.0000-0.5000-0.5000 (115116 PWs)   bands (ev):

    -7.1761  -7.1761  -7.1761  -7.1761  -6.7542  -6.7542  -6.7542  -6.7542
    -6.7542  -6.7542  -6.7542  -6.7542  -6.4417  -6.4417  -6.4417  -6.4417
    -6.4417  -6.4417  -6.4417  -6.4417  -6.4255  -6.4255  -6.4255  -6.4255
    -6.4255  -6.4255  -6.4255  -6.4255  -6.2955  -6.2955  -6.2955  -6.2955
    -0.6650  -0.6650  -0.6650  -0.6650  -0.6294  -0.6294  -0.6294  -0.6294
    -0.6251  -0.6251  -0.6251  -0.6251  -0.6251  -0.6251  -0.6250  -0.6250
    -0.6124  -0.6124  -0.6124  -0.6124  -0.6040  -0.6040  -0.6040  -0.6040
    -0.6040  -0.6040  -0.6040  -0.6040  -0.5900  -0.5900  -0.5900  -0.5900
    -0.5499  -0.5499  -0.5499  -0.5499  -0.5499  -0.5499  -0.5499  -0.5499
    -0.5476  -0.5476  -0.5476  -0.5476  -0.5476  -0.5476  -0.5476  -0.5476
    -0.4958  -0.4958  -0.4958  -0.4958  -0.4958  -0.4958  -0.4958  -0.4958
    -0.4871  -0.4871  -0.4871  -0.4871  -0.4871  -0.4871  -0.4871  -0.4871
    -0.4475  -0.4475  -0.4475  -0.4475  -0.4475  -0.4475  -0.4475  -0.4475
    -0.4023  -0.4023  -0.4023  -0.4023  -0.3750  -0.3750  -0.3750  -0.3750
    -0.3750  -0.3750  -0.3750  -0.3750  -0.2925  -0.2925  -0.2925  -0.2925
    -0.2429  -0.2429  -0.2428  -0.2428  -0.2428  -0.2428  -0.2428  -0.2428
    -0.2080  -0.2080  -0.2080  -0.2080  -0.1913  -0.1913  -0.1913  -0.1913
    -0.1913  -0.1913  -0.1913  -0.1913  -0.1820  -0.1820  -0.1820  -0.1820
    -0.1811  -0.1811  -0.1811  -0.1811  -0.1811  -0.1811  -0.1811  -0.1811
    -0.1616  -0.1616  -0.1616  -0.1616  -0.1615  -0.1615  -0.1615  -0.1615
    -0.1594  -0.1594  -0.1594  -0.1594  -0.1485  -0.1485  -0.1485  -0.1485
    -0.1485  -0.1485  -0.1485  -0.1485  -0.0945  -0.0945  -0.0945  -0.0945
    -0.0945  -0.0945  -0.0945  -0.0945   0.0645   0.0645   0.0645   0.0645
     0.0645   0.0645   0.0645   0.0645   0.1369   0.1369   0.1369   0.1369
     0.7754   0.7754   0.7754   0.7754   0.7754   0.7754   0.7754   0.7754
     1.0210   1.0210   1.0210   1.0210   1.5376   1.5376   1.5376   1.5376
     1.5376   1.5376   1.5376   1.5376   1.7760   1.7760   1.7760   1.7760
     1.7760   1.7760   1.7760   1.7760   2.5324   2.5324   2.5324   2.5324
     3.2602   3.2602   3.2602   3.2602   3.2602   3.2602   3.2602   3.2602
     3.2671   3.2671   3.2671   3.2671   3.2671   3.2671   3.2671   3.2671
     3.5830   3.5830   3.5830   3.5830   3.6965   3.6965   3.6965   3.6965
     3.6965   3.6965   3.6965   3.6965   3.7970   3.7970   3.7970   3.7970
     4.1337   4.1337   4.1337   4.1337   4.1337   4.1337   4.1337   4.1337
     4.4457   4.4457   4.4457   4.4457   4.4457   4.4457   4.4457   4.4457
     4.5219   4.5219   4.5219   4.5219   4.5219   4.5219   4.5219   4.5219
     4.7211   4.7211   4.7211   4.7211   5.3491   5.3491   5.3491   5.3491
     9.1540   9.1540   9.1540   9.1540   9.5578   9.5578   9.5578   9.5578
     9.5578   9.5578   9.5578   9.5578   9.6788   9.6788   9.6788   9.6788
    10.1555  10.1555  10.1555  10.1555  10.1555  10.1555  10.1555  10.1555
    10.3245  10.3245  10.3245  10.3245  10.3245  10.3245  10.3245  10.3245
    10.4724  10.4724  10.4724  10.4724  10.4724  10.4724  10.4724  10.4724
    11.4429  11.4429  11.4429  11.4429  11.5070  11.5070  11.5070  11.5070
    11.5070  11.5070  11.5070  11.5071  11.6171  11.6171  11.6172  11.6172
    11.7975  11.7975

     occupation numbers 
     1.0000   1.0000   1.0000   1.0000   1.0000   1.0000   1.0000   1.0000
     1.0000   1.0000   1.0000   1.0000   1.0000   1.0000   1.0000   1.0000
     1.0000   1.0000   1.0000   1.0000   1.0000   1.0000   1.0000   1.0000
     1.0000   1.0000   1.0000   1.0000   1.0000   1.0000   1.0000   1.0000
     1.0000   1.0000   1.0000   1.0000   1.0000   1.0000   1.0000   1.0000
     1.0000   1.0000   1.0000   1.0000   1.0000   1.0000   1.0000   1.0000
     1.0000   1.0000   1.0000   1.0000   1.0000   1.0000   1.0000   1.0000
     1.0000   1.0000   1.0000   1.0000   1.0000   1.0000   1.0000   1.0000
     1.0000   1.0000   1.0000   1.0000   1.0000   1.0000   1.0000   1.0000
     1.0000   1.0000   1.0000   1.0000   1.0000   1.0000   1.0000   1.0000
     1.0000   1.0000   1.0000   1.0000   1.0000   1.0000   1.0000   1.0000
     1.0000   1.0000   1.0000   1.0000   1.0000   1.0000   1.0000   1.0000
     1.0000   1.0000   1.0000   1.0000   1.0000   1.0000   1.0000   1.0000
     1.0000   1.0000   1.0000   1.0000   1.0000   1.0000   1.0000   1.0000
     1.0000   1.0000   1.0000   1.0000   1.0000   1.0000   1.0000   1.0000
     1.0000   1.0000   1.0000   1.0000   1.0000   1.0000   1.0000   1.0000
     1.0000   1.0000   1.0000   1.0000   1.0000   1.0000   1.0000   1.0000
     1.0000   1.0000   1.0000   1.0000   1.0000   1.0000   1.0000   1.0000
     1.0000   1.0000   1.0000   1.0000   1.0000   1.0000   1.0000   1.0000
     1.0000   1.0000   1.0000   1.0000   1.0000   1.0000   1.0000   1.0000
     1.0000   1.0000   1.0000   1.0000   1.0000   1.0000   1.0000   1.0000
     1.0000   1.0000   1.0000   1.0000   1.0000   1.0000   1.0000   1.0000
     1.0000   1.0000   1.0000   1.0000   1.0000   1.0000   1.0000   1.0000
     1.0000   1.0000   1.0000   1.0000   1.0000   1.0000   1.0000   1.0000
     1.0000   1.0000   1.0000   1.0000   1.0000   1.0000   1.0000   1.0000
     1.0000   1.0000   1.0000   1.0000   1.0000   1.0000   1.0000   1.0000
     1.0000   1.0000   1.0000   1.0000   1.0000   1.0000   1.0000   1.0000
     1.0000   1.0000   1.0000   1.0000   1.0000   1.0000   1.0000   1.0000
     1.0000   1.0000   1.0000   1.0000   1.0000   1.0000   1.0000   1.0000
     1.0000   1.0000   1.0000   1.0000   1.0000   1.0000   1.0000   1.0000
     1.0000   1.0000   1.0000   1.0000   1.0000   1.0000   1.0000   1.0000
     1.0000   1.0000   1.0000   1.0000   1.0000   1.0000   1.0000   1.0000
     1.0000   1.0000   1.0000   1.0000   1.0000   1.0000   1.0000   1.0000
     1.0000   1.0000   1.0000   1.0000   1.0000   1.0000   1.0000   1.0000
     1.0000   1.0000   1.0000   1.0000   1.0000   1.0000   1.0000   1.0000
     1.0000   1.0000   1.0000   1.0000   1.0000   1.0000   1.0000   1.0000
[...]
     1.0000   1.0000   1.0000   1.0000   1.0000   1.0000   1.0000   1.0000
     1.0000   1.0000   1.0000   1.0000   1.0000   1.0000   1.0000   1.0000
     1.0000   1.0000   1.0000   1.0000   1.0000   1.0000   1.0000   1.0000
     1.0000   1.0000   1.0000   1.0000   1.0000   1.0000   1.0000   1.0000
     1.0000   1.0000   1.0000   1.0000   1.0000   1.0000   1.0000   1.0000
     1.0000   1.0000   1.0000   1.0000   1.0000   1.0000   1.0000   1.0000
     1.0000   1.0000   1.0000   1.0000   1.0000   1.0000   1.0000   1.0000
     1.0000   1.0000   1.0000   1.0000   1.0000   1.0000   1.0000   1.0000
     1.0000   1.0000   1.0000   1.0000   1.0000   1.0000   1.0000   1.0000
     1.0000   1.0000   1.0000   1.0000   1.0000   1.0000   1.0000   1.0000
     1.0000   1.0000   1.0000   1.0000   1.0000   1.0000   1.0000   1.0000
     1.0000   1.0000   1.0000   1.0000   1.0000   1.0000   1.0000   1.0000
     1.0000   1.0000   1.0000   1.0000   1.0000   1.0000   1.0000   1.0000
     1.0000   1.0000   1.0000   1.0000   1.0000   1.0000   1.0000   1.0000
     1.0000   1.0000   1.0000   1.0000   1.0000   1.0000   1.0000   1.0000
     1.0000   1.0000   1.0000   1.0000   1.0000   1.0000   1.0000   1.0000
     1.0000   1.0000   1.0000   1.0000   1.0000   1.0000   1.0000   1.0000
     1.0000   1.0000   1.0000   1.0000   1.0000   1.0000   1.0000   1.0000
     1.0000   1.0000   1.0000   1.0000   1.0000   1.0000   1.0000   1.0000
     0.0000   0.0000   0.0000   0.0000   0.0000   0.0000   0.0000   0.0000
     0.0000   0.0000   0.0000   0.0000   0.0000   0.0000   0.0000   0.0000
     0.0000   0.0000   0.0000   0.0000   0.0000   0.0000   0.0000   0.0000
     0.0000   0.0000   0.0000   0.0000   0.0000   0.0000   0.0000   0.0000
     0.0000   0.0000   0.0000   0.0000   0.0000   0.0000   0.0000   0.0000
     0.0000   0.0000   0.0000   0.0000   0.0000   0.0000   0.0000   0.0000
     0.0000   0.0000   0.0000   0.0000   0.0000   0.0000   0.0000   0.0000
     0.0000   0.0000

          k = 0.2500-0.5000-0.5000 (115200 PWs)   bands (ev):

    -7.1453  -7.1453  -7.1453  -7.1453  -6.9199  -6.9199  -6.9199  -6.9199
    -6.5830  -6.5830  -6.5830  -6.5830  -6.4393  -6.4393  -6.4393  -6.4393
    -6.4393  -6.4393  -6.4393  -6.4393  -6.4279  -6.4279  -6.4279  -6.4279
    -6.4279  -6.4279  -6.4279  -6.4279  -6.3317  -6.3317  -6.3317  -6.3317
    -0.6547  -0.6547  -0.6547  -0.6547  -0.6247  -0.6247  -0.6247  -0.6247
    -0.6149  -0.6149  -0.6149  -0.6149  -0.6149  -0.6149  -0.6149  -0.6149
    -0.6124  -0.6124  -0.6124  -0.6123  -0.6107  -0.6107  -0.6107  -0.6107
    -0.5960  -0.5960  -0.5960  -0.5960  -0.5897  -0.5897  -0.5897  -0.5897
    -0.5842  -0.5842  -0.5842  -0.5842  -0.5646  -0.5646  -0.5646  -0.5646
    -0.5644  -0.5644  -0.5644  -0.5644  -0.5644  -0.5644  -0.5644  -0.5644
    -0.5027  -0.5027  -0.5027  -0.5027  -0.4807  -0.4807  -0.4807  -0.4807
    -0.4807  -0.4807  -0.4807  -0.4807  -0.4449  -0.4449  -0.4449  -0.4449
    -0.4449  -0.4449  -0.4449  -0.4449  -0.4176  -0.4176  -0.4176  -0.4176
    -0.4042  -0.4042  -0.4042  -0.4042  -0.3740  -0.3740  -0.3740  -0.3740
    -0.3740  -0.3740  -0.3739  -0.3739  -0.3067  -0.3067  -0.3067  -0.3067
    -0.2826  -0.2826  -0.2826  -0.2826  -0.2826  -0.2826  -0.2826  -0.2826
    -0.2036  -0.2036  -0.2036  -0.2036  -0.1980  -0.1980  -0.1980  -0.1980
    -0.1848  -0.1847  -0.1847  -0.1847  -0.1761  -0.1761  -0.1761  -0.1760
    -0.1653  -0.1653  -0.1653  -0.1653  -0.1652  -0.1652  -0.1652  -0.1652
    -0.1562  -0.1562  -0.1562  -0.1562  -0.1526  -0.1526  -0.1526  -0.1526
    -0.1476  -0.1476  -0.1476  -0.1476  -0.1476  -0.1476  -0.1476  -0.1476
    -0.1438  -0.1438  -0.1438  -0.1438  -0.0787  -0.0787  -0.0787  -0.0787
    -0.0787  -0.0787  -0.0787  -0.0787   0.0274   0.0274   0.0274   0.0274
     0.0274   0.0274   0.0274   0.0274   0.0870   0.0870   0.0870   0.0871
     0.8949   0.8949   0.8949   0.8949   0.8949   0.8949   0.8949   0.8949
     1.0411   1.0411   1.0411   1.0411   1.4114   1.4114   1.4114   1.4114
     1.4240   1.4240   1.4240   1.4240   1.4240   1.4240   1.4240   1.4240
     2.2353   2.2353   2.2353   2.2353   2.7312   2.7312   2.7312   2.7312
     3.2278   3.2278   3.2278   3.2278   3.2278   3.2278   3.2278   3.2278
     3.2484   3.2484   3.2484   3.2484   3.2484   3.2484   3.2484   3.2484
     3.2932   3.2932   3.2932   3.2932   3.8164   3.8164   3.8164   3.8164
     3.8164   3.8164   3.8164   3.8164   3.8327   3.8327   3.8327   3.8327
     3.8497   3.8497   3.8497   3.8497   4.1072   4.1072   4.1072   4.1072
     4.1072   4.1072   4.1072   4.1072   4.2354   4.2354   4.2354   4.2354
     4.8230   4.8230   4.8230   4.8230   4.9167   4.9167   4.9167   4.9167
     4.9214   4.9214   4.9214   4.9214   5.2810   5.2810   5.2810   5.2810
     9.0361   9.0361   9.0361   9.0361   9.1462   9.1462   9.1462   9.1462
     9.7350   9.7350   9.7350   9.7350   9.8577   9.8577   9.8577   9.8577
     9.9098   9.9098   9.9098   9.9098   9.9098   9.9098   9.9098   9.9098
    10.0967  10.0967  10.0967  10.0967  10.0967  10.0967  10.0967  10.0967
    10.9150  10.9150  10.9150  10.9150  10.9150  10.9150  10.9150  10.9150
    11.4500  11.4500  11.4500  11.4500  11.5284  11.5284  11.5285  11.5285
    11.6420  11.6420  11.6420  11.6420  11.6420  11.6420  11.6421  11.6421
    11.8823  11.8827

     occupation numbers 
     1.0000   1.0000   1.0000   1.0000   1.0000   1.0000   1.0000   1.0000
     1.0000   1.0000   1.0000   1.0000   1.0000   1.0000   1.0000   1.0000
     1.0000   1.0000   1.0000   1.0000   1.0000   1.0000   1.0000   1.0000
     1.0000   1.0000   1.0000   1.0000   1.0000   1.0000   1.0000   1.0000
     1.0000   1.0000   1.0000   1.0000   1.0000   1.0000   1.0000   1.0000
     1.0000   1.0000   1.0000   1.0000   1.0000   1.0000   1.0000   1.0000
     1.0000   1.0000   1.0000   1.0000   1.0000   1.0000   1.0000   1.0000
     1.0000   1.0000   1.0000   1.0000   1.0000   1.0000   1.0000   1.0000
     1.0000   1.0000   1.0000   1.0000   1.0000   1.0000   1.0000   1.0000
     1.0000   1.0000   1.0000   1.0000   1.0000   1.0000   1.0000   1.0000
     1.0000   1.0000   1.0000   1.0000   1.0000   1.0000   1.0000   1.0000
     1.0000   1.0000   1.0000   1.0000   1.0000   1.0000   1.0000   1.0000
     1.0000   1.0000   1.0000   1.0000   1.0000   1.0000   1.0000   1.0000
     1.0000   1.0000   1.0000   1.0000   1.0000   1.0000   1.0000   1.0000
     1.0000   1.0000   1.0000   1.0000   1.0000   1.0000   1.0000   1.0000
     1.0000   1.0000   1.0000   1.0000   1.0000   1.0000   1.0000   1.0000
     1.0000   1.0000   1.0000   1.0000   1.0000   1.0000   1.0000   1.0000
     1.0000   1.0000   1.0000   1.0000   1.0000   1.0000   1.0000   1.0000
     1.0000   1.0000   1.0000   1.0000   1.0000   1.0000   1.0000   1.0000
     1.0000   1.0000   1.0000   1.0000   1.0000   1.0000   1.0000   1.0000
     1.0000   1.0000   1.0000   1.0000   1.0000   1.0000   1.0000   1.0000
     1.0000   1.0000   1.0000   1.0000   1.0000   1.0000   1.0000   1.0000
     1.0000   1.0000   1.0000   1.0000   1.0000   1.0000   1.0000   1.0000
     1.0000   1.0000   1.0000   1.0000   1.0000   1.0000   1.0000   1.0000
     1.0000   1.0000   1.0000   1.0000   1.0000   1.0000   1.0000   1.0000
     1.0000   1.0000   1.0000   1.0000   1.0000   1.0000   1.0000   1.0000
     1.0000   1.0000   1.0000   1.0000   1.0000   1.0000   1.0000   1.0000
     1.0000   1.0000   1.0000   1.0000   1.0000   1.0000   1.0000   1.0000
     1.0000   1.0000   1.0000   1.0000   1.0000   1.0000   1.0000   1.0000
     1.0000   1.0000   1.0000   1.0000   1.0000   1.0000   1.0000   1.0000
     1.0000   1.0000   1.0000   1.0000   1.0000   1.0000   1.0000   1.0000
     1.0000   1.0000   1.0000   1.0000   1.0000   1.0000   1.0000   1.0000
     1.0000   1.0000   1.0000   1.0000   1.0000   1.0000   1.0000   1.0000
     1.0000   1.0000   1.0000   1.0000   1.0000   1.0000   1.0000   1.0000
     1.0000   1.0000   1.0000   1.0000   1.0000   1.0000   1.0000   1.0000
     1.0000   1.0000   1.0000   1.0000   1.0000   1.0000   1.0000   1.0000
     0.0000   0.0000   0.0000   0.0000   0.0000   0.0000   0.0000   0.0000
     0.0000   0.0000   0.0000   0.0000   0.0000   0.0000   0.0000   0.0000
     0.0000   0.0000   0.0000   0.0000   0.0000   0.0000   0.0000   0.0000
     0.0000   0.0000   0.0000   0.0000   0.0000   0.0000   0.0000   0.0000
     0.0000   0.0000   0.0000   0.0000   0.0000   0.0000   0.0000   0.0000
     0.0000   0.0000   0.0000   0.0000   0.0000   0.0000   0.0000   0.0000
     0.0000   0.0000   0.0000   0.0000   0.0000   0.0000   0.0000   0.0000
     0.0000   0.0000

          k =-0.5000-0.5000-0.5000 (115096 PWs)   bands (ev):

    -7.0562  -7.0562  -7.0562  -7.0562  -7.0562  -7.0562  -7.0562  -7.0562
    -6.4336  -6.4336  -6.4336  -6.4336  -6.4336  -6.4336  -6.4336  -6.4336
    -6.4336  -6.4336  -6.4336  -6.4336  -6.4336  -6.4336  -6.4336  -6.4336
    -6.4336  -6.4336  -6.4336  -6.4336  -6.4336  -6.4336  -6.4336  -6.4336
    -0.6243  -0.6243  -0.6243  -0.6243  -0.6243  -0.6243  -0.6243  -0.6243
    -0.6099  -0.6099  -0.6099  -0.6099  -0.6099  -0.6099  -0.6099  -0.6099
    -0.6098  -0.6098  -0.6098  -0.6098  -0.6098  -0.6098  -0.6098  -0.6098
    -0.5907  -0.5907  -0.5907  -0.5907  -0.5907  -0.5907  -0.5907  -0.5907
    -0.5907  -0.5907  -0.5907  -0.5907  -0.5907  -0.5907  -0.5907  -0.5907
    -0.5907  -0.5907  -0.5907  -0.5907  -0.5907  -0.5907  -0.5907  -0.5907
    -0.4558  -0.4558  -0.4558  -0.4558  -0.4558  -0.4558  -0.4558  -0.4558
    -0.4558  -0.4558  -0.4558  -0.4558  -0.4558  -0.4558  -0.4558  -0.4558
    -0.4558  -0.4558  -0.4558  -0.4558  -0.4558  -0.4558  -0.4558  -0.4558
    -0.3438  -0.3438  -0.3438  -0.3438  -0.3438  -0.3438  -0.3438  -0.3438
    -0.3438  -0.3438  -0.3438  -0.3438  -0.3438  -0.3438  -0.3438  -0.3438
    -0.3438  -0.3438  -0.3438  -0.3438  -0.3438  -0.3438  -0.3438  -0.3438
    -0.1917  -0.1917  -0.1917  -0.1917  -0.1917  -0.1917  -0.1917  -0.1917
    -0.1917  -0.1917  -0.1917  -0.1917  -0.1917  -0.1917  -0.1917  -0.1917
    -0.1515  -0.1515  -0.1515  -0.1515  -0.1515  -0.1515  -0.1515  -0.1515
    -0.1515  -0.1515  -0.1515  -0.1515  -0.1515  -0.1515  -0.1515  -0.1515
    -0.1515  -0.1515  -0.1515  -0.1515  -0.1515  -0.1515  -0.1515  -0.1515
    -0.0340  -0.0340  -0.0340  -0.0340  -0.0340  -0.0340  -0.0340  -0.0340
    -0.0340  -0.0340  -0.0340  -0.0340  -0.0340  -0.0340  -0.0340  -0.0340
    -0.0340  -0.0340  -0.0340  -0.0340  -0.0340  -0.0340  -0.0340  -0.0340
     1.1607   1.1607   1.1607   1.1607   1.1607   1.1607   1.1607   1.1607
     1.1607   1.1607   1.1607   1.1607   1.1607   1.1607   1.1607   1.1607
     1.1607   1.1607   1.1607   1.1607   1.1607   1.1607   1.1607   1.1607
     2.7631   2.7631   2.7631   2.7631   2.7631   2.7631   2.7631   2.7631
     3.2190   3.2190   3.2190   3.2190   3.2190   3.2190   3.2190   3.2190
     3.2190   3.2190   3.2190   3.2190   3.2190   3.2190   3.2190   3.2190
     3.2190   3.2190   3.2190   3.2190   3.2190   3.2190   3.2190   3.2190
     4.0018   4.0018   4.0018   4.0018   4.0018   4.0018   4.0018   4.0018
     4.0018   4.0018   4.0018   4.0018   4.0018   4.0018   4.0018   4.0018
     4.0018   4.0018   4.0018   4.0018   4.0018   4.0018   4.0018   4.0018
     5.0924   5.0924   5.0924   5.0924   5.0924   5.0924   5.0924   5.0924
     5.0924   5.0924   5.0924   5.0924   5.0924   5.0924   5.0924   5.0924
     8.9405   8.9405   8.9405   8.9405   8.9405   8.9405   8.9405   8.9405
     9.8557   9.8557   9.8557   9.8557   9.8557   9.8557   9.8557   9.8557
     9.8557   9.8557   9.8557   9.8557   9.8557   9.8557   9.8557   9.8557
     9.8557   9.8557   9.8557   9.8557   9.8557   9.8557   9.8557   9.8557
    11.4620  11.4620  11.4620  11.4620  11.4620  11.4620  11.4620  11.4620
    11.4620  11.4620  11.4620  11.4620  11.4620  11.4620  11.4620  11.4620
    11.4620  11.4620  11.4620  11.4620  11.4620  11.4620  11.4620  11.4620
    12.4105  12.4105

     occupation numbers 
     1.0000   1.0000   1.0000   1.0000   1.0000   1.0000   1.0000   1.0000
     1.0000   1.0000   1.0000   1.0000   1.0000   1.0000   1.0000   1.0000
     1.0000   1.0000   1.0000   1.0000   1.0000   1.0000   1.0000   1.0000
     1.0000   1.0000   1.0000   1.0000   1.0000   1.0000   1.0000   1.0000
     1.0000   1.0000   1.0000   1.0000   1.0000   1.0000   1.0000   1.0000
     1.0000   1.0000   1.0000   1.0000   1.0000   1.0000   1.0000   1.0000
     1.0000   1.0000   1.0000   1.0000   1.0000   1.0000   1.0000   1.0000
     1.0000   1.0000   1.0000   1.0000   1.0000   1.0000   1.0000   1.0000
     1.0000   1.0000   1.0000   1.0000   1.0000   1.0000   1.0000   1.0000
     1.0000   1.0000   1.0000   1.0000   1.0000   1.0000   1.0000   1.0000
     1.0000   1.0000   1.0000   1.0000   1.0000   1.0000   1.0000   1.0000
     1.0000   1.0000   1.0000   1.0000   1.0000   1.0000   1.0000   1.0000
     1.0000   1.0000   1.0000   1.0000   1.0000   1.0000   1.0000   1.0000
     1.0000   1.0000   1.0000   1.0000   1.0000   1.0000   1.0000   1.0000
     1.0000   1.0000   1.0000   1.0000   1.0000   1.0000   1.0000   1.0000
     1.0000   1.0000   1.0000   1.0000   1.0000   1.0000   1.0000   1.0000
     1.0000   1.0000   1.0000   1.0000   1.0000   1.0000   1.0000   1.0000
     1.0000   1.0000   1.0000   1.0000   1.0000   1.0000   1.0000   1.0000
     1.0000   1.0000   1.0000   1.0000   1.0000   1.0000   1.0000   1.0000
     1.0000   1.0000   1.0000   1.0000   1.0000   1.0000   1.0000   1.0000
     1.0000   1.0000   1.0000   1.0000   1.0000   1.0000   1.0000   1.0000
     1.0000   1.0000   1.0000   1.0000   1.0000   1.0000   1.0000   1.0000
     1.0000   1.0000   1.0000   1.0000   1.0000   1.0000   1.0000   1.0000
     1.0000   1.0000   1.0000   1.0000   1.0000   1.0000   1.0000   1.0000
     1.0000   1.0000   1.0000   1.0000   1.0000   1.0000   1.0000   1.0000
     1.0000   1.0000   1.0000   1.0000   1.0000   1.0000   1.0000   1.0000
     1.0000   1.0000   1.0000   1.0000   1.0000   1.0000   1.0000   1.0000
     1.0000   1.0000   1.0000   1.0000   1.0000   1.0000   1.0000   1.0000
     1.0000   1.0000   1.0000   1.0000   1.0000   1.0000   1.0000   1.0000
     1.0000   1.0000   1.0000   1.0000   1.0000   1.0000   1.0000   1.0000
     1.0000   1.0000   1.0000   1.0000   1.0000   1.0000   1.0000   1.0000
     1.0000   1.0000   1.0000   1.0000   1.0000   1.0000   1.0000   1.0000
     1.0000   1.0000   1.0000   1.0000   1.0000   1.0000   1.0000   1.0000
     1.0000   1.0000   1.0000   1.0000   1.0000   1.0000   1.0000   1.0000
     1.0000   1.0000   1.0000   1.0000   1.0000   1.0000   1.0000   1.0000
     1.0000   1.0000   1.0000   1.0000   1.0000   1.0000   1.0000   1.0000
     0.0000   0.0000   0.0000   0.0000   0.0000   0.0000   0.0000   0.0000
     0.0000   0.0000   0.0000   0.0000   0.0000   0.0000   0.0000   0.0000
     0.0000   0.0000   0.0000   0.0000   0.0000   0.0000   0.0000   0.0000
     0.0000   0.0000   0.0000   0.0000   0.0000   0.0000   0.0000   0.0000
     0.0000   0.0000   0.0000   0.0000   0.0000   0.0000   0.0000   0.0000
     0.0000   0.0000   0.0000   0.0000   0.0000   0.0000   0.0000   0.0000
     0.0000   0.0000   0.0000   0.0000   0.0000   0.0000   0.0000   0.0000
     0.0000   0.0000

     the Fermi energy is     6.2513 ev

!    total energy              =   -9924.37078485 Ry
     total all-electron energy =   -140500.311373 Ry
     estimated scf accuracy    <          9.4E-09 Ry
     smearing contrib. (-TS)   =      -0.00000000 Ry
     internal energy E=F+TS    =   -9924.37078485 Ry

     The total energy is F=E-TS. E is the sum of the following terms:
     one-electron contribution =   -2754.08071411 Ry
     hartree contribution      =    1961.36089518 Ry
     xc contribution           =   -1674.73782060 Ry
     ewald contribution        =   -2927.19643238 Ry
     one-center paw contrib.   =   -4529.71671294 Ry
      -> PAW hartree energy AE =     123.24606657 Ry
      -> PAW hartree energy PS =    -122.60429561 Ry
      -> PAW xc energy AE      =    -143.20754562 Ry
      -> PAW xc energy PS      =      47.14611327 Ry
      -> total E_H with PAW    =    1962.00266614 Ry
      -> total E_XC with PAW   =   -1770.79925295 Ry

     total magnetization       =    -0.00 Bohr mag/cell
     absolute magnetization    =     0.00 Bohr mag/cell

     convergence has been achieved in  11 iterations
 
     init_run     :      5.19s CPU      6.27s WALL (       1 calls)
     electrons    :     75.64s CPU     83.54s WALL (       1 calls)

     Called by init_run:
     wfcinit      :      4.05s CPU      4.43s WALL (       1 calls)
     wfcinit:atom :      0.01s CPU      0.01s WALL (       2 calls)
     wfcinit:wfcr :      4.00s CPU      4.22s WALL (       2 calls)
     potinit      :      0.38s CPU      0.62s WALL (       1 calls)
     hinit0       :      0.15s CPU      0.41s WALL (       1 calls)

     Called by electrons:
     c_bands      :     66.07s CPU     71.09s WALL (      12 calls)
     sum_band     :      7.18s CPU      7.31s WALL (      12 calls)
     v_of_rho     :      0.51s CPU      0.65s WALL (      12 calls)
     v_h          :      0.02s CPU      0.02s WALL (      12 calls)
     v_xc         :      0.48s CPU      0.63s WALL (      12 calls)
     newd         :      0.14s CPU      0.18s WALL (      12 calls)
     PAW_pot      :      1.14s CPU      1.19s WALL (      12 calls)
     mix_rho      :      0.13s CPU      0.16s WALL (      12 calls)

     Called by c_bands:
     init_us_2    :      0.63s CPU      0.64s WALL (      50 calls)
     init_us_2:cp :      0.63s CPU      0.64s WALL (      50 calls)
     cegterg      :     59.01s CPU     59.89s WALL (      24 calls)

     Called by sum_band:
     sum_band:wei :      0.03s CPU      0.03s WALL (      12 calls)
     sum_band:loo :      5.30s CPU      5.38s WALL (      12 calls)
     sum_band:buf :      0.09s CPU      0.09s WALL (      24 calls)
     sum_band:ini :      0.30s CPU      0.31s WALL (      24 calls)
     sum_band:cal :      1.53s CPU      1.55s WALL (      24 calls)
     sum_band:bec :      0.10s CPU      0.11s WALL (      24 calls)
     addusdens    :      0.09s CPU      0.12s WALL (      12 calls)
                                        0.00s GPU  (      12 calls)
     addusd:skk   :      0.00s CPU      0.00s WALL (      24 calls)
                                        0.00s GPU  (      24 calls)

     Called by *egterg:
     cdiaghg      :     12.11s CPU     12.34s WALL (     176 calls)
     cegterg:over :      3.90s CPU      3.93s WALL (     154 calls)
     cegterg:upda :      3.28s CPU      3.32s WALL (     154 calls)
     cegterg:last :      5.46s CPU      5.50s WALL (      56 calls)
     cdiaghg:chol :      0.77s CPU      0.82s WALL (     176 calls)
     cdiaghg:inve :      1.18s CPU      1.19s WALL (     176 calls)
     cdiaghg:para :      1.85s CPU      1.87s WALL (     352 calls)
     h_psi        :     31.50s CPU     32.03s WALL (     180 calls)
     s_psi        :      5.22s CPU      5.26s WALL (     180 calls)
     g_psi        :      0.11s CPU      0.12s WALL (     154 calls)

     Called by h_psi:
     h_psi:calbec :      5.06s CPU      5.13s WALL (     180 calls)
     vloc_psi     :     21.02s CPU     21.23s WALL (     180 calls)
     add_vuspsi   :      5.24s CPU      5.36s WALL (     180 calls)

     General routines
     calbec       :      6.58s CPU      6.68s WALL (     204 calls)
     fft          :      0.46s CPU      0.89s WALL (     252 calls)
     ffts         :      0.03s CPU      0.03s WALL (      24 calls)
     fftw         :     22.87s CPU     23.10s WALL (   56822 calls)
 
     Parallel routines

     PAW routines
     PAW_pot      :      1.14s CPU      1.19s WALL (      12 calls)
     PAW_symme    :      0.06s CPU      0.06s WALL (      24 calls)
 
     PWSCF        :   1m21.53s CPU   1m45.50s WALL

 
   This run was terminated on:  12: 4:53  25Jun2024            

=------------------------------------------------------------------------------=
   JOB DONE.
=------------------------------------------------------------------------------=
