### Running on host: orfoz160

     Program PWSCF v.7.2 starts on 25Jun2024 at 12: 4:24 

     This program is part of the open-source Quantum ESPRESSO suite
     for quantum simulation of materials; please cite
         "P. Giannozzi et al., J. Phys.:Condens. Matter 21 395502 (2009);
         "P. Giannozzi et al., J. Phys.:Condens. Matter 29 465901 (2017);
         "P. Giannozzi et al., J. Chem. Phys. 152 154105 (2020);
          URL http://www.quantum-espresso.org", 
     in publications or presentations arising from this work. More details at
     http://www.quantum-espresso.org/quote

     Parallel version (MPI), running on  1120 processors

     MPI processes distributed on    10 nodes
     218488 MiB available memory on the printing compute node when the environment starts
 
     Reading input from scf.90.in

     Current dimensions of program PWSCF are:
     Max number of different atomic species (ntypx) = 10
     Max number of k-points (npk) =  40000
     Max angular momentum in pseudopotentials (lmaxx) =  4
     file S.pbe-n-kjpaw_psl.1.0.0.UPF: wavefunction(s)  3S 3P renormalized
     file Zn.pbe-dnl-kjpaw_psl.1.0.0.UPF: wavefunction(s)  4S 3D renormalized
     Found identity + (  0.0000  0.2500  0.2500) symmetry
     This is a supercell, fractional translations are disabled
 
     K-points division:     npool     =      10
     R & G space division:  proc/nbgrp/npool/nimage =     112
     Subspace diagonalization in iterative solution of the eigenvalue problem:
     one sub-group per band group will be used
     scalapack distributed-memory algorithm (size of sub-group:  3*  3 procs)

 
     Parallelization info
     --------------------
     sticks:   dense  smooth     PW     G-vecs:    dense   smooth      PW
     Min         108     108     28                 8956     8956    1214
     Max         109     109     29                 8961     8961    1223
     Sum       12109   12109   3197              1003385  1003385  136411
 
     Using Slab Decomposition
 


     bravais-lattice index     =            1
     lattice parameter (alat)  =      20.5686  a.u.
     unit-cell volume          =    8701.8677 (a.u.)^3
     number of atoms/cell      =           64
     number of atomic types    =            2
     number of electrons       =       576.00
     number of Kohn-Sham states=          346
     kinetic-energy cutoff     =      90.0000  Ry
     charge density cutoff     =     360.0000  Ry
     scf convergence threshold =      1.0E-08
     mixing beta               =       0.7000
     number of iterations used =            8  plain     mixing
     Exchange-correlation= SLA  PW   PBX  PBC
                           (   1   4   3   4   0   0   0)

     celldm(1)=  20.568573  celldm(2)=   0.000000  celldm(3)=   0.000000
     celldm(4)=   0.000000  celldm(5)=   0.000000  celldm(6)=   0.000000

     crystal axes: (cart. coord. in units of alat)
               a(1) = (   1.000000   0.000000   0.000000 )  
               a(2) = (   0.000000   1.000000   0.000000 )  
               a(3) = (   0.000000   0.000000   1.000000 )  

     reciprocal axes: (cart. coord. in units 2 pi/alat)
               b(1) = (  1.000000  0.000000  0.000000 )  
               b(2) = (  0.000000  1.000000  0.000000 )  
               b(3) = (  0.000000  0.000000  1.000000 )  


     PseudoPot. # 1 for S  read from file:
     /arf/home/amuhaymin/pseudo/S.pbe-n-kjpaw_psl.1.0.0.UPF
     MD5 check sum: fb45dfebcf3e72a4e1bd4a866ec2e262
     Pseudo is Projector augmented-wave + core cor, Zval =  6.0
     Generated using &quot;atomic&quot; code by A. Dal Corso  v.6.3
     Shape of augmentation charge: PSQ
     Using radial grid of 1151 points,  6 beta functions with: 
                l(1) =   0
                l(2) =   0
                l(3) =   1
                l(4) =   1
                l(5) =   2
                l(6) =   2
     Q(r) pseudized with 0 coefficients 


     PseudoPot. # 2 for Zn read from file:
     /arf/home/amuhaymin/pseudo/Zn.pbe-dnl-kjpaw_psl.1.0.0.UPF
     MD5 check sum: c608214d9520ac179f507641260889e3
     Pseudo is Projector augmented-wave + core cor, Zval = 12.0
     Generated using &quot;atomic&quot; code by A. Dal Corso  v.6.2.2
     Shape of augmentation charge: PSQ
     Using radial grid of 1201 points,  6 beta functions with: 
                l(1) =   0
                l(2) =   0
                l(3) =   1
                l(4) =   1
                l(5) =   2
                l(6) =   2
     Q(r) pseudized with 0 coefficients 


     atomic species   valence    mass     pseudopotential
        S              6.00    32.06500     S ( 1.00)
        Zn            12.00    65.38000     Zn( 1.00)

     Starting magnetic structure 
     atomic species   magnetization
        S            0.000
        Zn           0.000

     24 Sym. Ops. (no inversion) found


                                    s                        frac. trans.

      isym =  1     identity                                     

 cryst.   s( 1) = (     1          0          0      )
                  (     0          1          0      )
                  (     0          0          1      )

 cart.    s( 1) = (  1.0000000  0.0000000  0.0000000 )
                  (  0.0000000  1.0000000  0.0000000 )
                  (  0.0000000  0.0000000  1.0000000 )


      isym =  2     180 deg rotation - cart. axis [0,0,1]        

 cryst.   s( 2) = (    -1          0          0      )
                  (     0         -1          0      )
                  (     0          0          1      )

 cart.    s( 2) = ( -1.0000000  0.0000000  0.0000000 )
                  (  0.0000000 -1.0000000  0.0000000 )
                  (  0.0000000  0.0000000  1.0000000 )


      isym =  3     180 deg rotation - cart. axis [0,1,0]        

 cryst.   s( 3) = (    -1          0          0      )
                  (     0          1          0      )
                  (     0          0         -1      )

 cart.    s( 3) = ( -1.0000000  0.0000000  0.0000000 )
                  (  0.0000000  1.0000000  0.0000000 )
                  (  0.0000000  0.0000000 -1.0000000 )


      isym =  4     180 deg rotation - cart. axis [1,0,0]        

 cryst.   s( 4) = (     1          0          0      )
                  (     0         -1          0      )
                  (     0          0         -1      )

 cart.    s( 4) = (  1.0000000  0.0000000  0.0000000 )
                  (  0.0000000 -1.0000000  0.0000000 )
                  (  0.0000000  0.0000000 -1.0000000 )


      isym =  5     120 deg rotation - cart. axis [-1,-1,-1]     

 cryst.   s( 5) = (     0          0          1      )
                  (     1          0          0      )
                  (     0          1          0      )

 cart.    s( 5) = (  0.0000000  1.0000000  0.0000000 )
                  (  0.0000000  0.0000000  1.0000000 )
                  (  1.0000000  0.0000000  0.0000000 )


      isym =  6     120 deg rotation - cart. axis [-1,1,1]       

 cryst.   s( 6) = (     0          0         -1      )
                  (    -1          0          0      )
                  (     0          1          0      )

 cart.    s( 6) = (  0.0000000 -1.0000000  0.0000000 )
                  (  0.0000000  0.0000000  1.0000000 )
                  ( -1.0000000  0.0000000  0.0000000 )


      isym =  7     120 deg rotation - cart. axis [1,1,-1]       

 cryst.   s( 7) = (     0          0         -1      )
                  (     1          0          0      )
                  (     0         -1          0      )

 cart.    s( 7) = (  0.0000000  1.0000000  0.0000000 )
                  (  0.0000000  0.0000000 -1.0000000 )
                  ( -1.0000000  0.0000000  0.0000000 )


      isym =  8     120 deg rotation - cart. axis [1,-1,1]       

 cryst.   s( 8) = (     0          0          1      )
                  (    -1          0          0      )
                  (     0         -1          0      )

 cart.    s( 8) = (  0.0000000 -1.0000000  0.0000000 )
                  (  0.0000000  0.0000000 -1.0000000 )
                  (  1.0000000  0.0000000  0.0000000 )


      isym =  9     120 deg rotation - cart. axis [1,1,1]        

 cryst.   s( 9) = (     0          1          0      )
                  (     0          0          1      )
                  (     1          0          0      )

 cart.    s( 9) = (  0.0000000  0.0000000  1.0000000 )
                  (  1.0000000  0.0000000  0.0000000 )
                  (  0.0000000  1.0000000  0.0000000 )


      isym = 10     120 deg rotation - cart. axis [-1,1,-1]      

 cryst.   s(10) = (     0         -1          0      )
                  (     0          0         -1      )
                  (     1          0          0      )

 cart.    s(10) = (  0.0000000  0.0000000  1.0000000 )
                  ( -1.0000000  0.0000000  0.0000000 )
                  (  0.0000000 -1.0000000  0.0000000 )


      isym = 11     120 deg rotation - cart. axis [1,-1,-1]      

 cryst.   s(11) = (     0         -1          0      )
                  (     0          0          1      )
                  (    -1          0          0      )

 cart.    s(11) = (  0.0000000  0.0000000 -1.0000000 )
                  ( -1.0000000  0.0000000  0.0000000 )
                  (  0.0000000  1.0000000  0.0000000 )


      isym = 12     120 deg rotation - cart. axis [-1,-1,1]      

 cryst.   s(12) = (     0          1          0      )
                  (     0          0         -1      )
                  (    -1          0          0      )

 cart.    s(12) = (  0.0000000  0.0000000 -1.0000000 )
                  (  1.0000000  0.0000000  0.0000000 )
                  (  0.0000000 -1.0000000  0.0000000 )


      isym = 13     inv. 180 deg rotation - cart. axis [1,1,0]   

 cryst.   s(13) = (     0         -1          0      )
                  (    -1          0          0      )
                  (     0          0          1      )

 cart.    s(13) = (  0.0000000 -1.0000000  0.0000000 )
                  ( -1.0000000  0.0000000  0.0000000 )
                  (  0.0000000  0.0000000  1.0000000 )


      isym = 14     inv. 180 deg rotation - cart. axis [1,-1,0]  

 cryst.   s(14) = (     0          1          0      )
                  (     1          0          0      )
                  (     0          0          1      )

 cart.    s(14) = (  0.0000000  1.0000000  0.0000000 )
                  (  1.0000000  0.0000000  0.0000000 )
                  (  0.0000000  0.0000000  1.0000000 )


      isym = 15     inv.  90 deg rotation - cart. axis [0,0,-1]  

 cryst.   s(15) = (     0          1          0      )
                  (    -1          0          0      )
                  (     0          0         -1      )

 cart.    s(15) = (  0.0000000 -1.0000000  0.0000000 )
                  (  1.0000000  0.0000000  0.0000000 )
                  (  0.0000000  0.0000000 -1.0000000 )


      isym = 16     inv.  90 deg rotation - cart. axis [0,0,1]   

 cryst.   s(16) = (     0         -1          0      )
                  (     1          0          0      )
                  (     0          0         -1      )

 cart.    s(16) = (  0.0000000  1.0000000  0.0000000 )
                  ( -1.0000000  0.0000000  0.0000000 )
                  (  0.0000000  0.0000000 -1.0000000 )


      isym = 17     inv. 180 deg rotation - cart. axis [1,0,1]   

 cryst.   s(17) = (     0          0         -1      )
                  (     0          1          0      )
                  (    -1          0          0      )

 cart.    s(17) = (  0.0000000  0.0000000 -1.0000000 )
                  (  0.0000000  1.0000000  0.0000000 )
                  ( -1.0000000  0.0000000  0.0000000 )


      isym = 18     inv. 180 deg rotation - cart. axis [-1,0,1]  

 cryst.   s(18) = (     0          0          1      )
                  (     0          1          0      )
                  (     1          0          0      )

 cart.    s(18) = (  0.0000000  0.0000000  1.0000000 )
                  (  0.0000000  1.0000000  0.0000000 )
                  (  1.0000000  0.0000000  0.0000000 )


      isym = 19     inv.  90 deg rotation - cart. axis [0,1,0]   

 cryst.   s(19) = (     0          0          1      )
                  (     0         -1          0      )
                  (    -1          0          0      )

 cart.    s(19) = (  0.0000000  0.0000000 -1.0000000 )
                  (  0.0000000 -1.0000000  0.0000000 )
                  (  1.0000000  0.0000000  0.0000000 )


      isym = 20     inv.  90 deg rotation - cart. axis [0,-1,0]  

 cryst.   s(20) = (     0          0         -1      )
                  (     0         -1          0      )
                  (     1          0          0      )

 cart.    s(20) = (  0.0000000  0.0000000  1.0000000 )
                  (  0.0000000 -1.0000000  0.0000000 )
                  ( -1.0000000  0.0000000  0.0000000 )


      isym = 21     inv. 180 deg rotation - cart. axis [0,1,1]   

 cryst.   s(21) = (     1          0          0      )
                  (     0          0         -1      )
                  (     0         -1          0      )

 cart.    s(21) = (  1.0000000  0.0000000  0.0000000 )
                  (  0.0000000  0.0000000 -1.0000000 )
                  (  0.0000000 -1.0000000  0.0000000 )


      isym = 22     inv. 180 deg rotation - cart. axis [0,1,-1]  

 cryst.   s(22) = (     1          0          0      )
                  (     0          0          1      )
                  (     0          1          0      )

 cart.    s(22) = (  1.0000000  0.0000000  0.0000000 )
                  (  0.0000000  0.0000000  1.0000000 )
                  (  0.0000000  1.0000000  0.0000000 )


      isym = 23     inv.  90 deg rotation - cart. axis [-1,0,0]  

 cryst.   s(23) = (    -1          0          0      )
                  (     0          0          1      )
                  (     0         -1          0      )

 cart.    s(23) = ( -1.0000000  0.0000000  0.0000000 )
                  (  0.0000000  0.0000000 -1.0000000 )
                  (  0.0000000  1.0000000  0.0000000 )


      isym = 24     inv.  90 deg rotation - cart. axis [1,0,0]   

 cryst.   s(24) = (    -1          0          0      )
                  (     0          0         -1      )
                  (     0          1          0      )

 cart.    s(24) = ( -1.0000000  0.0000000  0.0000000 )
                  (  0.0000000  0.0000000  1.0000000 )
                  (  0.0000000 -1.0000000  0.0000000 )


     point group T_d (-43m) 
     there are  5 classes
     the character table:

       E     8C3   3C2   6S4   6s_d 
A_1    1.00  1.00  1.00  1.00  1.00
A_2    1.00  1.00  1.00 -1.00 -1.00
E      2.00 -1.00  2.00  0.00  0.00
T_1    3.00  0.00 -1.00  1.00 -1.00
T_2    3.00  0.00 -1.00 -1.00  1.00

     the symmetry operations in each class and the name of the first element:

     E        1
          identity                                               
     8C3      5    7    8    6   12    9   10   11
          120 deg rotation - cart. axis [-1,-1,-1]               
     3C2      2    3    4
          180 deg rotation - cart. axis [0,0,1]                  
     6S4     15   16   20   19   23   24
          inv.  90 deg rotation - cart. axis [0,0,-1]            
     6s_d    13   14   17   18   21   22
          inv. 180 deg rotation - cart. axis [1,1,0]             

   Cartesian axes

     site n.     atom                  positions (alat units)
         1           Zn  tau(   1) = (   0.0000000   0.0000000   0.0000000  )
         2           Zn  tau(   2) = (   0.0000000   0.2500000   0.2500000  )
         3           Zn  tau(   3) = (   0.2500000   0.0000000   0.2500000  )
         4           Zn  tau(   4) = (   0.2500000   0.2500000   0.0000000  )
         5           S   tau(   5) = (   0.1250000   0.3750000   0.3750000  )
         6           S   tau(   6) = (   0.1250000   0.1250000   0.1250000  )
         7           S   tau(   7) = (   0.3750000   0.3750000   0.1250000  )
         8           S   tau(   8) = (   0.3750000   0.1250000   0.3750000  )
         9           Zn  tau(   9) = (   0.0000000   0.0000000   0.5000000  )
        10           Zn  tau(  10) = (   0.0000000   0.2500000   0.7500000  )
        11           Zn  tau(  11) = (   0.2500000   0.0000000   0.7500000  )
        12           Zn  tau(  12) = (   0.2500000   0.2500000   0.5000000  )
        13           S   tau(  13) = (   0.1250000   0.3750000   0.8750000  )
        14           S   tau(  14) = (   0.1250000   0.1250000   0.6250000  )
        15           S   tau(  15) = (   0.3750000   0.3750000   0.6250000  )
        16           S   tau(  16) = (   0.3750000   0.1250000   0.8750000  )
        17           Zn  tau(  17) = (   0.0000000   0.5000000   0.0000000  )
        18           Zn  tau(  18) = (   0.0000000   0.7500000   0.2500000  )
        19           Zn  tau(  19) = (   0.2500000   0.5000000   0.2500000  )
        20           Zn  tau(  20) = (   0.2500000   0.7500000   0.0000000  )
        21           S   tau(  21) = (   0.1250000   0.8750000   0.3750000  )
        22           S   tau(  22) = (   0.1250000   0.6250000   0.1250000  )
        23           S   tau(  23) = (   0.3750000   0.8750000   0.1250000  )
        24           S   tau(  24) = (   0.3750000   0.6250000   0.3750000  )
        25           Zn  tau(  25) = (   0.0000000   0.5000000   0.5000000  )
        26           Zn  tau(  26) = (   0.0000000   0.7500000   0.7500000  )
        27           Zn  tau(  27) = (   0.2500000   0.5000000   0.7500000  )
        28           Zn  tau(  28) = (   0.2500000   0.7500000   0.5000000  )
        29           S   tau(  29) = (   0.1250000   0.8750000   0.8750000  )
        30           S   tau(  30) = (   0.1250000   0.6250000   0.6250000  )
        31           S   tau(  31) = (   0.3750000   0.8750000   0.6250000  )
        32           S   tau(  32) = (   0.3750000   0.6250000   0.8750000  )
        33           Zn  tau(  33) = (   0.5000000   0.0000000   0.0000000  )
        34           Zn  tau(  34) = (   0.5000000   0.2500000   0.2500000  )
        35           Zn  tau(  35) = (   0.7500000   0.0000000   0.2500000  )
        36           Zn  tau(  36) = (   0.7500000   0.2500000   0.0000000  )
        37           S   tau(  37) = (   0.6250000   0.3750000   0.3750000  )
        38           S   tau(  38) = (   0.6250000   0.1250000   0.1250000  )
        39           S   tau(  39) = (   0.8750000   0.3750000   0.1250000  )
        40           S   tau(  40) = (   0.8750000   0.1250000   0.3750000  )
        41           Zn  tau(  41) = (   0.5000000   0.0000000   0.5000000  )
        42           Zn  tau(  42) = (   0.5000000   0.2500000   0.7500000  )
        43           Zn  tau(  43) = (   0.7500000   0.0000000   0.7500000  )
        44           Zn  tau(  44) = (   0.7500000   0.2500000   0.5000000  )
        45           S   tau(  45) = (   0.6250000   0.3750000   0.8750000  )
        46           S   tau(  46) = (   0.6250000   0.1250000   0.6250000  )
        47           S   tau(  47) = (   0.8750000   0.3750000   0.6250000  )
        48           S   tau(  48) = (   0.8750000   0.1250000   0.8750000  )
        49           Zn  tau(  49) = (   0.5000000   0.5000000   0.0000000  )
        50           Zn  tau(  50) = (   0.5000000   0.7500000   0.2500000  )
        51           Zn  tau(  51) = (   0.7500000   0.5000000   0.2500000  )
        52           Zn  tau(  52) = (   0.7500000   0.7500000   0.0000000  )
        53           S   tau(  53) = (   0.6250000   0.8750000   0.3750000  )
        54           S   tau(  54) = (   0.6250000   0.6250000   0.1250000  )
        55           S   tau(  55) = (   0.8750000   0.8750000   0.1250000  )
        56           S   tau(  56) = (   0.8750000   0.6250000   0.3750000  )
        57           Zn  tau(  57) = (   0.5000000   0.5000000   0.5000000  )
        58           Zn  tau(  58) = (   0.5000000   0.7500000   0.7500000  )
        59           Zn  tau(  59) = (   0.7500000   0.5000000   0.7500000  )
        60           Zn  tau(  60) = (   0.7500000   0.7500000   0.5000000  )
        61           S   tau(  61) = (   0.6250000   0.8750000   0.8750000  )
        62           S   tau(  62) = (   0.6250000   0.6250000   0.6250000  )
        63           S   tau(  63) = (   0.8750000   0.8750000   0.6250000  )
        64           S   tau(  64) = (   0.8750000   0.6250000   0.8750000  )

   Crystallographic axes

     site n.     atom                  positions (cryst. coord.)
         1           Zn  tau(   1) = (  0.0000000  0.0000000  0.0000000  )
         2           Zn  tau(   2) = (  0.0000000  0.2500000  0.2500000  )
         3           Zn  tau(   3) = (  0.2500000  0.0000000  0.2500000  )
         4           Zn  tau(   4) = (  0.2500000  0.2500000  0.0000000  )
         5           S   tau(   5) = (  0.1250000  0.3750000  0.3750000  )
         6           S   tau(   6) = (  0.1250000  0.1250000  0.1250000  )
         7           S   tau(   7) = (  0.3750000  0.3750000  0.1250000  )
         8           S   tau(   8) = (  0.3750000  0.1250000  0.3750000  )
         9           Zn  tau(   9) = (  0.0000000  0.0000000  0.5000000  )
        10           Zn  tau(  10) = (  0.0000000  0.2500000  0.7500000  )
        11           Zn  tau(  11) = (  0.2500000  0.0000000  0.7500000  )
        12           Zn  tau(  12) = (  0.2500000  0.2500000  0.5000000  )
        13           S   tau(  13) = (  0.1250000  0.3750000  0.8750000  )
        14           S   tau(  14) = (  0.1250000  0.1250000  0.6250000  )
        15           S   tau(  15) = (  0.3750000  0.3750000  0.6250000  )
        16           S   tau(  16) = (  0.3750000  0.1250000  0.8750000  )
        17           Zn  tau(  17) = (  0.0000000  0.5000000  0.0000000  )
        18           Zn  tau(  18) = (  0.0000000  0.7500000  0.2500000  )
        19           Zn  tau(  19) = (  0.2500000  0.5000000  0.2500000  )
        20           Zn  tau(  20) = (  0.2500000  0.7500000  0.0000000  )
        21           S   tau(  21) = (  0.1250000  0.8750000  0.3750000  )
        22           S   tau(  22) = (  0.1250000  0.6250000  0.1250000  )
        23           S   tau(  23) = (  0.3750000  0.8750000  0.1250000  )
        24           S   tau(  24) = (  0.3750000  0.6250000  0.3750000  )
        25           Zn  tau(  25) = (  0.0000000  0.5000000  0.5000000  )
        26           Zn  tau(  26) = (  0.0000000  0.7500000  0.7500000  )
        27           Zn  tau(  27) = (  0.2500000  0.5000000  0.7500000  )
        28           Zn  tau(  28) = (  0.2500000  0.7500000  0.5000000  )
        29           S   tau(  29) = (  0.1250000  0.8750000  0.8750000  )
        30           S   tau(  30) = (  0.1250000  0.6250000  0.6250000  )
        31           S   tau(  31) = (  0.3750000  0.8750000  0.6250000  )
        32           S   tau(  32) = (  0.3750000  0.6250000  0.8750000  )
        33           Zn  tau(  33) = (  0.5000000  0.0000000  0.0000000  )
        34           Zn  tau(  34) = (  0.5000000  0.2500000  0.2500000  )
        35           Zn  tau(  35) = (  0.7500000  0.0000000  0.2500000  )
        36           Zn  tau(  36) = (  0.7500000  0.2500000  0.0000000  )
        37           S   tau(  37) = (  0.6250000  0.3750000  0.3750000  )
        38           S   tau(  38) = (  0.6250000  0.1250000  0.1250000  )
        39           S   tau(  39) = (  0.8750000  0.3750000  0.1250000  )
        40           S   tau(  40) = (  0.8750000  0.1250000  0.3750000  )
        41           Zn  tau(  41) = (  0.5000000  0.0000000  0.5000000  )
        42           Zn  tau(  42) = (  0.5000000  0.2500000  0.7500000  )
        43           Zn  tau(  43) = (  0.7500000  0.0000000  0.7500000  )
        44           Zn  tau(  44) = (  0.7500000  0.2500000  0.5000000  )
        45           S   tau(  45) = (  0.6250000  0.3750000  0.8750000  )
        46           S   tau(  46) = (  0.6250000  0.1250000  0.6250000  )
        47           S   tau(  47) = (  0.8750000  0.3750000  0.6250000  )
        48           S   tau(  48) = (  0.8750000  0.1250000  0.8750000  )
        49           Zn  tau(  49) = (  0.5000000  0.5000000  0.0000000  )
        50           Zn  tau(  50) = (  0.5000000  0.7500000  0.2500000  )
        51           Zn  tau(  51) = (  0.7500000  0.5000000  0.2500000  )
        52           Zn  tau(  52) = (  0.7500000  0.7500000  0.0000000  )
        53           S   tau(  53) = (  0.6250000  0.8750000  0.3750000  )
        54           S   tau(  54) = (  0.6250000  0.6250000  0.1250000  )
        55           S   tau(  55) = (  0.8750000  0.8750000  0.1250000  )
        56           S   tau(  56) = (  0.8750000  0.6250000  0.3750000  )
        57           Zn  tau(  57) = (  0.5000000  0.5000000  0.5000000  )
        58           Zn  tau(  58) = (  0.5000000  0.7500000  0.7500000  )
        59           Zn  tau(  59) = (  0.7500000  0.5000000  0.7500000  )
        60           Zn  tau(  60) = (  0.7500000  0.7500000  0.5000000  )
        61           S   tau(  61) = (  0.6250000  0.8750000  0.8750000  )
        62           S   tau(  62) = (  0.6250000  0.6250000  0.6250000  )
        63           S   tau(  63) = (  0.8750000  0.8750000  0.6250000  )
        64           S   tau(  64) = (  0.8750000  0.6250000  0.8750000  )

     number of k points=    10  Gaussian smearing, width (Ry)=  0.0010
                       cart. coord. in units 2pi/alat
        k(    1) = (   0.0000000   0.0000000   0.0000000), wk =   0.0156250
        k(    2) = (   0.0000000   0.0000000   0.2500000), wk =   0.0937500
        k(    3) = (   0.0000000   0.0000000  -0.5000000), wk =   0.0468750
        k(    4) = (   0.0000000   0.2500000   0.2500000), wk =   0.1875000
        k(    5) = (   0.0000000   0.2500000  -0.5000000), wk =   0.1875000
        k(    6) = (   0.0000000  -0.5000000  -0.5000000), wk =   0.0468750
        k(    7) = (   0.2500000   0.2500000   0.2500000), wk =   0.1250000
        k(    8) = (   0.2500000   0.2500000  -0.5000000), wk =   0.1875000
        k(    9) = (   0.2500000  -0.5000000  -0.5000000), wk =   0.0937500
        k(   10) = (  -0.5000000  -0.5000000  -0.5000000), wk =   0.0156250

                       cryst. coord.
        k(    1) = (   0.0000000   0.0000000   0.0000000), wk =   0.0156250
        k(    2) = (   0.0000000   0.0000000   0.2500000), wk =   0.0937500
        k(    3) = (   0.0000000   0.0000000  -0.5000000), wk =   0.0468750
        k(    4) = (   0.0000000   0.2500000   0.2500000), wk =   0.1875000
        k(    5) = (   0.0000000   0.2500000  -0.5000000), wk =   0.1875000
        k(    6) = (   0.0000000  -0.5000000  -0.5000000), wk =   0.0468750
        k(    7) = (   0.2500000   0.2500000   0.2500000), wk =   0.1250000
        k(    8) = (   0.2500000   0.2500000  -0.5000000), wk =   0.1875000
        k(    9) = (   0.2500000  -0.5000000  -0.5000000), wk =   0.0937500
        k(   10) = (  -0.5000000  -0.5000000  -0.5000000), wk =   0.0156250

     Dense  grid:  1003385 G-vectors     FFT dimensions: ( 125, 125, 125)

     Dynamical RAM for                 wfc:       5.91 MB

     Dynamical RAM for     wfc (w. buffer):      17.74 MB

     Dynamical RAM for           str. fact:       0.27 MB

     Dynamical RAM for           local pot:       0.00 MB

     Dynamical RAM for          nlocal pot:      19.69 MB

     Dynamical RAM for                qrad:       3.05 MB

     Dynamical RAM for          rho,v,vnew:       2.25 MB

     Dynamical RAM for               rhoin:       0.75 MB

     Dynamical RAM for            rho*nmix:       4.37 MB

     Dynamical RAM for           G-vectors:       0.58 MB

     Dynamical RAM for          h,s,v(r/c):       2.42 MB

     Dynamical RAM for          <psi|beta>:       6.08 MB

     Dynamical RAM for                 psi:      11.83 MB

     Dynamical RAM for                hpsi:      11.83 MB

     Dynamical RAM for                spsi:      11.83 MB

     Dynamical RAM for      wfcinit/wfcrot:      18.18 MB

     Dynamical RAM for           addusdens:       3.24 MB

     Estimated static dynamical RAM per process >      46.17 MB

     Estimated max dynamical RAM per process >      94.52 MB

     Estimated total dynamical RAM >      99.08 GB

     Check: negative core charge=   -0.000002
     Generating pointlists ...
     new r_m :   0.0893 (alat units)  1.8370 (a.u.) for type    1
     new r_m :   0.0893 (alat units)  1.8370 (a.u.) for type    2

     Initial potential from superposition of free atoms

     starting charge     575.8798, renormalised to     576.0000
     Starting wfcs are  416 randomized atomic wfcs
     Checking if some PAW data can be deallocated... 
       PAW data deallocated on  560 nodes for type:  1
       PAW data deallocated on  560 nodes for type:  2

     total cpu time spent up to now is       10.4 secs

     Self-consistent Calculation

     iteration #  1     ecut=    90.00 Ry     beta= 0.70
     Davidson diagonalization with overlap

---- Real-time Memory Report at c_bands before calling an iterative solver
           471 MiB given to the printing process from OS
             0 MiB allocation reported by mallinfo(arena+hblkhd)
        205161 MiB available memory on the node where the printing process lives
------------------
     ethr =  1.00E-02,  avg # of iterations =  4.6

     Threshold (ethr) on eigenvalues was too large:
     Diagonalizing with lowered threshold

     Davidson diagonalization with overlap

---- Real-time Memory Report at c_bands before calling an iterative solver
           544 MiB given to the printing process from OS
             0 MiB allocation reported by mallinfo(arena+hblkhd)
        203329 MiB available memory on the node where the printing process lives
------------------
     ethr =  3.26E-04,  avg # of iterations =  4.5

     total cpu time spent up to now is       23.5 secs

     total energy              =   -9923.84017493 Ry
     estimated scf accuracy    <       1.82979477 Ry

     total magnetization       =     0.00 Bohr mag/cell
     absolute magnetization    =     0.05 Bohr mag/cell

     iteration #  2     ecut=    90.00 Ry     beta= 0.70
     Davidson diagonalization with overlap

---- Real-time Memory Report at c_bands before calling an iterative solver
           654 MiB given to the printing process from OS
             0 MiB allocation reported by mallinfo(arena+hblkhd)
        203135 MiB available memory on the node where the printing process lives
------------------
     ethr =  3.18E-04,  avg # of iterations =  3.2

     total cpu time spent up to now is       29.8 secs

     total energy              =   -9924.29382751 Ry
     estimated scf accuracy    <       0.39735780 Ry

     total magnetization       =    -0.00 Bohr mag/cell
     absolute magnetization    =     0.02 Bohr mag/cell

     iteration #  3     ecut=    90.00 Ry     beta= 0.70
     Davidson diagonalization with overlap

---- Real-time Memory Report at c_bands before calling an iterative solver
           738 MiB given to the printing process from OS
             0 MiB allocation reported by mallinfo(arena+hblkhd)
        202634 MiB available memory on the node where the printing process lives
------------------
     ethr =  6.90E-05,  avg # of iterations =  7.5

     total cpu time spent up to now is       38.9 secs

     total energy              =   -9924.36401621 Ry
     estimated scf accuracy    <       0.02703345 Ry

     total magnetization       =     0.00 Bohr mag/cell
     absolute magnetization    =     0.01 Bohr mag/cell

     iteration #  4     ecut=    90.00 Ry     beta= 0.70
     Davidson diagonalization with overlap

---- Real-time Memory Report at c_bands before calling an iterative solver
           809 MiB given to the printing process from OS
             0 MiB allocation reported by mallinfo(arena+hblkhd)
        202405 MiB available memory on the node where the printing process lives
------------------
     ethr =  4.69E-06,  avg # of iterations = 13.2

     total cpu time spent up to now is       49.1 secs

     total energy              =   -9924.37244627 Ry
     estimated scf accuracy    <       0.01398022 Ry

     total magnetization       =    -0.00 Bohr mag/cell
     absolute magnetization    =     0.01 Bohr mag/cell

     iteration #  5     ecut=    90.00 Ry     beta= 0.70
     Davidson diagonalization with overlap

---- Real-time Memory Report at c_bands before calling an iterative solver
           866 MiB given to the printing process from OS
             0 MiB allocation reported by mallinfo(arena+hblkhd)
        202254 MiB available memory on the node where the printing process lives
------------------
     c_bands:  1 eigenvalues not converged
     ethr =  2.43E-06,  avg # of iterations =  6.4

     total cpu time spent up to now is       56.4 secs

     total energy              =   -9924.37446370 Ry
     estimated scf accuracy    <       0.00063341 Ry

     total magnetization       =     0.00 Bohr mag/cell
     absolute magnetization    =     0.00 Bohr mag/cell

     iteration #  6     ecut=    90.00 Ry     beta= 0.70
     Davidson diagonalization with overlap

---- Real-time Memory Report at c_bands before calling an iterative solver
           915 MiB given to the printing process from OS
             0 MiB allocation reported by mallinfo(arena+hblkhd)
        202074 MiB available memory on the node where the printing process lives
------------------
     ethr =  1.10E-07,  avg # of iterations =  5.9

     total cpu time spent up to now is       63.9 secs

     total energy              =   -9924.37477591 Ry
     estimated scf accuracy    <       0.00009619 Ry

     total magnetization       =    -0.00 Bohr mag/cell
     absolute magnetization    =     0.00 Bohr mag/cell

     iteration #  7     ecut=    90.00 Ry     beta= 0.70
     Davidson diagonalization with overlap

---- Real-time Memory Report at c_bands before calling an iterative solver
           954 MiB given to the printing process from OS
             0 MiB allocation reported by mallinfo(arena+hblkhd)
        201928 MiB available memory on the node where the printing process lives
------------------
     ethr =  1.67E-08,  avg # of iterations =  5.0

     total cpu time spent up to now is       70.5 secs

     total energy              =   -9924.37474882 Ry
     estimated scf accuracy    <       0.00005989 Ry

     total magnetization       =     0.00 Bohr mag/cell
     absolute magnetization    =     0.00 Bohr mag/cell

     iteration #  8     ecut=    90.00 Ry     beta= 0.70
     Davidson diagonalization with overlap

---- Real-time Memory Report at c_bands before calling an iterative solver
           996 MiB given to the printing process from OS
             0 MiB allocation reported by mallinfo(arena+hblkhd)
        201805 MiB available memory on the node where the printing process lives
------------------
     ethr =  1.04E-08,  avg # of iterations =  2.0

     total cpu time spent up to now is       75.7 secs

     total energy              =   -9924.37476654 Ry
     estimated scf accuracy    <       0.00000185 Ry

     total magnetization       =    -0.00 Bohr mag/cell
     absolute magnetization    =     0.00 Bohr mag/cell

     iteration #  9     ecut=    90.00 Ry     beta= 0.70
     Davidson diagonalization with overlap

---- Real-time Memory Report at c_bands before calling an iterative solver
          1024 MiB given to the printing process from OS
             0 MiB allocation reported by mallinfo(arena+hblkhd)
        201646 MiB available memory on the node where the printing process lives
------------------
     c_bands:  1 eigenvalues not converged
     ethr =  3.21E-10,  avg # of iterations =  7.0

     total cpu time spent up to now is       83.4 secs

     total energy              =   -9924.37476579 Ry
     estimated scf accuracy    <       0.00000308 Ry

     total magnetization       =     0.00 Bohr mag/cell
     absolute magnetization    =     0.00 Bohr mag/cell

     iteration # 10     ecut=    90.00 Ry     beta= 0.70
     Davidson diagonalization with overlap

---- Real-time Memory Report at c_bands before calling an iterative solver
          1058 MiB given to the printing process from OS
             0 MiB allocation reported by mallinfo(arena+hblkhd)
        201504 MiB available memory on the node where the printing process lives
------------------
     ethr =  3.21E-10,  avg # of iterations =  2.9
 
     Magnetic moment per site  (integrated on atomic sphere of radius R)
     atom   1 (R=0.089)  charge= 10.1596  magn= -0.0000
     atom   2 (R=0.089)  charge= 10.1596  magn=  0.0000
     atom   3 (R=0.089)  charge= 10.1596  magn=  0.0000
     atom   4 (R=0.089)  charge= 10.1596  magn=  0.0000
     atom   5 (R=0.089)  charge=  3.9938  magn=  0.0000
     atom   6 (R=0.089)  charge=  3.9933  magn= -0.0000
     atom   7 (R=0.089)  charge=  3.9938  magn=  0.0000
     atom   8 (R=0.089)  charge=  3.9938  magn=  0.0000
     atom   9 (R=0.089)  charge= 10.1597  magn=  0.0000
     atom  10 (R=0.089)  charge= 10.1596  magn=  0.0000
     atom  11 (R=0.089)  charge= 10.1596  magn=  0.0000
     atom  12 (R=0.089)  charge= 10.1595  magn= -0.0000
     atom  13 (R=0.089)  charge=  3.9936  magn= -0.0000
     atom  14 (R=0.089)  charge=  3.9936  magn= -0.0000
     atom  15 (R=0.089)  charge=  3.9936  magn=  0.0000
     atom  16 (R=0.089)  charge=  3.9936  magn= -0.0000
     atom  17 (R=0.089)  charge= 10.1597  magn=  0.0000
     atom  18 (R=0.089)  charge= 10.1596  magn=  0.0000
     atom  19 (R=0.089)  charge= 10.1595  magn= -0.0000
     atom  20 (R=0.089)  charge= 10.1596  magn=  0.0000
     atom  21 (R=0.089)  charge=  3.9936  magn= -0.0000
     atom  22 (R=0.089)  charge=  3.9936  magn= -0.0000
     atom  23 (R=0.089)  charge=  3.9936  magn= -0.0000
     atom  24 (R=0.089)  charge=  3.9936  magn=  0.0000
     atom  25 (R=0.089)  charge= 10.1596  magn= -0.0000
     atom  26 (R=0.089)  charge= 10.1596  magn=  0.0000
     atom  27 (R=0.089)  charge= 10.1595  magn= -0.0000
     atom  28 (R=0.089)  charge= 10.1595  magn= -0.0000
     atom  29 (R=0.089)  charge=  3.9933  magn= -0.0000
     atom  30 (R=0.089)  charge=  3.9938  magn=  0.0000
     atom  31 (R=0.089)  charge=  3.9938  magn=  0.0000
     atom  32 (R=0.089)  charge=  3.9938  magn=  0.0000
     atom  33 (R=0.089)  charge= 10.1597  magn=  0.0000
     atom  34 (R=0.089)  charge= 10.1595  magn= -0.0000
     atom  35 (R=0.089)  charge= 10.1596  magn=  0.0000
     atom  36 (R=0.089)  charge= 10.1596  magn=  0.0000
     atom  37 (R=0.089)  charge=  3.9936  magn=  0.0000
     atom  38 (R=0.089)  charge=  3.9936  magn= -0.0000
     atom  39 (R=0.089)  charge=  3.9936  magn= -0.0000
     atom  40 (R=0.089)  charge=  3.9936  magn= -0.0000
     atom  41 (R=0.089)  charge= 10.1596  magn= -0.0000
     atom  42 (R=0.089)  charge= 10.1595  magn= -0.0000
     atom  43 (R=0.089)  charge= 10.1596  magn=  0.0000
     atom  44 (R=0.089)  charge= 10.1595  magn= -0.0000
     atom  45 (R=0.089)  charge=  3.9938  magn=  0.0000
     atom  46 (R=0.089)  charge=  3.9938  magn=  0.0000
     atom  47 (R=0.089)  charge=  3.9938  magn=  0.0000
     atom  48 (R=0.089)  charge=  3.9933  magn= -0.0000
     atom  49 (R=0.089)  charge= 10.1596  magn= -0.0000
     atom  50 (R=0.089)  charge= 10.1595  magn= -0.0000
     atom  51 (R=0.089)  charge= 10.1595  magn= -0.0000
     atom  52 (R=0.089)  charge= 10.1596  magn=  0.0000
     atom  53 (R=0.089)  charge=  3.9938  magn=  0.0000
     atom  54 (R=0.089)  charge=  3.9938  magn=  0.0000
     atom  55 (R=0.089)  charge=  3.9933  magn= -0.0000
     atom  56 (R=0.089)  charge=  3.9938  magn=  0.0000
     atom  57 (R=0.089)  charge= 10.1596  magn= -0.0000
     atom  58 (R=0.089)  charge= 10.1595  magn= -0.0000
     atom  59 (R=0.089)  charge= 10.1595  magn= -0.0000
     atom  60 (R=0.089)  charge= 10.1595  magn= -0.0000
     atom  61 (R=0.089)  charge=  3.9936  magn= -0.0000
     atom  62 (R=0.089)  charge=  3.9936  magn=  0.0000
     atom  63 (R=0.089)  charge=  3.9936  magn= -0.0000
     atom  64 (R=0.089)  charge=  3.9936  magn= -0.0000

     total cpu time spent up to now is       88.7 secs

     End of self-consistent calculation

 ------ SPIN UP ------------


          k = 0.0000 0.0000 0.0000 (125183 PWs)   bands (ev):

    -7.4622  -6.9204  -6.9204  -6.9204  -6.9204  -6.9204  -6.9204  -6.5968
    -6.5968  -6.5968  -6.5968  -6.5968  -6.5968  -6.5968  -6.5968  -6.5968
    -6.5968  -6.5968  -6.5968  -6.5721  -6.5721  -6.5721  -6.5721  -6.2730
    -6.2730  -6.2730  -6.2673  -6.2673  -6.2673  -6.2673  -6.2673  -6.2673
    -0.7186  -0.7186  -0.7186  -0.7185  -0.7185  -0.7185  -0.6932  -0.6932
    -0.6932  -0.6750  -0.6750  -0.6750  -0.5636  -0.5636  -0.5636  -0.5636
    -0.5636  -0.5636  -0.5636  -0.5636  -0.5545  -0.5545  -0.5545  -0.5545
    -0.5545  -0.5545  -0.5545  -0.5545  -0.5545  -0.5545  -0.5545  -0.5545
    -0.5433  -0.5433  -0.5433  -0.5433  -0.5433  -0.5433  -0.5333  -0.5333
    -0.5333  -0.5333  -0.5333  -0.5333  -0.5333  -0.5333  -0.5333  -0.5333
    -0.5333  -0.5333  -0.5235  -0.5235  -0.5235  -0.5235  -0.5235  -0.5235
    -0.5235  -0.5235  -0.5235  -0.5235  -0.5235  -0.5235  -0.4024  -0.4024
    -0.4024  -0.4024  -0.4024  -0.4024  -0.3974  -0.3974  -0.3974  -0.3974
    -0.3974  -0.3974  -0.3974  -0.3974  -0.3974  -0.3974  -0.3974  -0.3974
    -0.3439  -0.3439  -0.3439  -0.3439  -0.3439  -0.3439  -0.2491  -0.2491
    -0.2491  -0.2491  -0.2491  -0.2491  -0.2310  -0.2310  -0.2310  -0.2310
    -0.2310  -0.2310  -0.2290  -0.2290  -0.2290  -0.2290  -0.2290  -0.2290
    -0.2076  -0.2076  -0.2076  -0.2076  -0.2076  -0.2076  -0.2076  -0.2076
    -0.2076  -0.2076  -0.2076  -0.2076  -0.1937  -0.1937  -0.1646  -0.1646
    -0.1646  -0.1646  -0.1646  -0.1646  -0.1646  -0.1646  -0.1577  -0.1577
    -0.1577  -0.1577  -0.1577  -0.1577  -0.1347  -0.1347  -0.1346  -0.1346
    -0.1346  -0.1346  -0.1346  -0.1346  -0.1346  -0.1346  -0.1346  -0.1346
    -0.1217  -0.1217  -0.1217   0.0019   0.0019   0.0019   0.0019   0.0141
     0.0141   0.0141   0.1866   0.1866   0.1866   0.1866   0.1866   0.1866
     0.3803   0.3803   0.3803   0.3803   1.0508   1.0508   1.0508   1.0508
     1.0508   1.0508   1.0738   1.0738   1.0738   1.6638   1.6638   1.6638
     1.6638   1.6638   1.6638   1.6638   1.6638   1.6638   1.6638   1.6638
     1.6638   2.8902   2.8902   2.8902   2.8902   2.8902   2.8902   2.9127
     2.9127   2.9127   2.9127   2.9127   2.9127   3.0055   3.0055   3.0055
     3.0055   3.0055   3.0055   3.1129   3.1129   3.1129   3.1129   3.1129
     3.1129   3.1129   3.1129   3.1129   3.1129   3.1129   3.1129   3.3950
     3.3950   3.3950   3.3950   3.3950   3.3950   4.3509   4.3509   4.3509
     4.3509   4.3509   4.3509   4.3509   4.3509   4.3509   4.3509   4.3509
     4.3509   4.6707   4.6707   4.6707   4.6707   4.6707   4.6707   4.6707
     4.6707   4.6708   4.6708   4.6708   4.6708   4.7065   4.7065   4.7065
     4.7065   4.7065   4.7065   4.7065   4.7065   5.5452   5.5452   5.5452
     7.5515   8.7969   8.7969   8.7969   8.7969   8.9888   8.9888   8.9888
     9.6026   9.6026   9.6026   9.9704   9.9704   9.9704   9.9704   9.9704
     9.9704  10.1012  10.1012  10.1012  10.1012  10.1012  10.1012  10.3042
    10.3043  10.3043  10.3043  10.3043  10.3043  10.3043  10.3043  10.3043
    10.3043  10.3043  10.3043  11.2374  11.2374  11.2374  11.2374  11.2374
    11.2374  11.4630  11.4630  11.4630  11.4630  11.4630  11.4630  11.9192
    11.9192  11.9193  12.1783  12.1783  12.1783  12.1783  12.1784  12.1784
    12.1784  12.1784

     occupation numbers 
     1.0000   1.0000   1.0000   1.0000   1.0000   1.0000   1.0000   1.0000
     1.0000   1.0000   1.0000   1.0000   1.0000   1.0000   1.0000   1.0000
     1.0000   1.0000   1.0000   1.0000   1.0000   1.0000   1.0000   1.0000
     1.0000   1.0000   1.0000   1.0000   1.0000   1.0000   1.0000   1.0000
     1.0000   1.0000   1.0000   1.0000   1.0000   1.0000   1.0000   1.0000
     1.0000   1.0000   1.0000   1.0000   1.0000   1.0000   1.0000   1.0000
     1.0000   1.0000   1.0000   1.0000   1.0000   1.0000   1.0000   1.0000
     1.0000   1.0000   1.0000   1.0000   1.0000   1.0000   1.0000   1.0000
     1.0000   1.0000   1.0000   1.0000   1.0000   1.0000   1.0000   1.0000
     1.0000   1.0000   1.0000   1.0000   1.0000   1.0000   1.0000   1.0000
     1.0000   1.0000   1.0000   1.0000   1.0000   1.0000   1.0000   1.0000
     1.0000   1.0000   1.0000   1.0000   1.0000   1.0000   1.0000   1.0000
     1.0000   1.0000   1.0000   1.0000   1.0000   1.0000   1.0000   1.0000
     1.0000   1.0000   1.0000   1.0000   1.0000   1.0000   1.0000   1.0000
     1.0000   1.0000   1.0000   1.0000   1.0000   1.0000   1.0000   1.0000
     1.0000   1.0000   1.0000   1.0000   1.0000   1.0000   1.0000   1.0000
     1.0000   1.0000   1.0000   1.0000   1.0000   1.0000   1.0000   1.0000
     1.0000   1.0000   1.0000   1.0000   1.0000   1.0000   1.0000   1.0000
     1.0000   1.0000   1.0000   1.0000   1.0000   1.0000   1.0000   1.0000
     1.0000   1.0000   1.0000   1.0000   1.0000   1.0000   1.0000   1.0000
     1.0000   1.0000   1.0000   1.0000   1.0000   1.0000   1.0000   1.0000
     1.0000   1.0000   1.0000   1.0000   1.0000   1.0000   1.0000   1.0000
     1.0000   1.0000   1.0000   1.0000   1.0000   1.0000   1.0000   1.0000
     1.0000   1.0000   1.0000   1.0000   1.0000   1.0000   1.0000   1.0000
     1.0000   1.0000   1.0000   1.0000   1.0000   1.0000   1.0000   1.0000
     1.0000   1.0000   1.0000   1.0000   1.0000   1.0000   1.0000   1.0000
     1.0000   1.0000   1.0000   1.0000   1.0000   1.0000   1.0000   1.0000
     1.0000   1.0000   1.0000   1.0000   1.0000   1.0000   1.0000   1.0000
     1.0000   1.0000   1.0000   1.0000   1.0000   1.0000   1.0000   1.0000
     1.0000   1.0000   1.0000   1.0000   1.0000   1.0000   1.0000   1.0000
     1.0000   1.0000   1.0000   1.0000   1.0000   1.0000   1.0000   1.0000
     1.0000   1.0000   1.0000   1.0000   1.0000   1.0000   1.0000   1.0000
     1.0000   1.0000   1.0000   1.0000   1.0000   1.0000   1.0000   1.0000
     1.0000   1.0000   1.0000   1.0000   1.0000   1.0000   1.0000   1.0000
     1.0000   1.0000   1.0000   1.0000   1.0000   1.0000   1.0000   1.0000
     1.0000   1.0000   1.0000   1.0000   1.0000   1.0000   1.0000   1.0000
     0.0000   0.0000   0.0000   0.0000   0.0000   0.0000   0.0000   0.0000
     0.0000   0.0000   0.0000   0.0000   0.0000   0.0000   0.0000   0.0000
     0.0000   0.0000   0.0000   0.0000   0.0000   0.0000   0.0000   0.0000
     0.0000   0.0000   0.0000   0.0000   0.0000   0.0000   0.0000   0.0000
     0.0000   0.0000   0.0000   0.0000   0.0000   0.0000   0.0000   0.0000
     0.0000   0.0000   0.0000   0.0000   0.0000   0.0000   0.0000   0.0000
     0.0000   0.0000   0.0000   0.0000   0.0000   0.0000   0.0000   0.0000
     0.0000   0.0000

          k = 0.0000 0.0000 0.2500 (125398 PWs)   bands (ev):

    -7.4238  -7.1380  -6.8961  -6.8961  -6.8961  -6.8961  -6.7217  -6.7217
    -6.7217  -6.7217  -6.6877  -6.5932  -6.5932  -6.5932  -6.5932  -6.5758
    -6.5758  -6.5758  -6.5758  -6.4710  -6.4710  -6.4710  -6.4710  -6.3271
    -6.2924  -6.2924  -6.2924  -6.2924  -6.2722  -6.2722  -6.2681  -6.2681
    -0.7175  -0.7086  -0.7011  -0.7011  -0.7010  -0.7010  -0.6970  -0.6801
    -0.6721  -0.6721  -0.6655  -0.6655  -0.5920  -0.5920  -0.5726  -0.5726
    -0.5726  -0.5726  -0.5655  -0.5655  -0.5630  -0.5630  -0.5630  -0.5630
    -0.5583  -0.5583  -0.5583  -0.5583  -0.5569  -0.5569  -0.5569  -0.5569
    -0.5538  -0.5538  -0.5538  -0.5538  -0.5485  -0.5485  -0.5485  -0.5485
    -0.5426  -0.5426  -0.5426  -0.5426  -0.5374  -0.5374  -0.5374  -0.5374
    -0.5303  -0.5303  -0.5303  -0.5303  -0.5300  -0.5300  -0.5300  -0.5300
    -0.4967  -0.4967  -0.4967  -0.4967  -0.4904  -0.4904  -0.4904  -0.4904
    -0.4679  -0.4679  -0.4250  -0.4250  -0.4250  -0.4250  -0.3957  -0.3957
    -0.3688  -0.3688  -0.3688  -0.3688  -0.3607  -0.3607  -0.3550  -0.3550
    -0.3398  -0.3398  -0.2923  -0.2923  -0.2923  -0.2923  -0.2919  -0.2919
    -0.2389  -0.2389  -0.2389  -0.2389  -0.2258  -0.2258  -0.2258  -0.2258
    -0.2254  -0.2254  -0.2254  -0.2254  -0.2235  -0.2161  -0.2098  -0.2097
    -0.2097  -0.2097  -0.2007  -0.2006  -0.2006  -0.2006  -0.1980  -0.1930
    -0.1930  -0.1930  -0.1930  -0.1910  -0.1903  -0.1903  -0.1903  -0.1903
    -0.1856  -0.1856  -0.1715  -0.1703  -0.1703  -0.1703  -0.1703  -0.1583
    -0.1583  -0.1583  -0.1583  -0.1490  -0.1490  -0.1490  -0.1490  -0.1440
    -0.1329  -0.1329  -0.1329  -0.1329  -0.1280  -0.1280  -0.1245  -0.0922
    -0.0922  -0.0922  -0.0922  -0.0835  -0.0835  -0.0835  -0.0835  -0.0542
     0.0404   0.0404   0.1486   0.1486   0.1486   0.1486   0.1615   0.1615
     0.5814   0.5814   0.5814   0.5814   1.0548   1.0548   1.0667   1.0667
     1.0667   1.0667   1.0710   1.0710   1.2677   1.3597   1.3597   1.3597
     1.3597   1.4165   1.4165   1.4165   1.4165   2.0416   2.0416   2.0416
     2.0416   2.3286   2.6647   2.6647   2.6647   2.6648   2.8137   2.8137
     2.8137   2.8137   2.8312   2.8312   2.8312   2.8312   2.9596   2.9596
     2.9790   2.9790   3.3153   3.3153   3.3193   3.3193   3.3302   3.3302
     3.3302   3.3302   3.4123   3.4123   3.4123   3.4123   3.4641   3.4641
     3.4958   3.4958   3.4958   3.4958   3.7313   3.9696   3.9696   4.2222
     4.2222   4.2222   4.2222   4.3408   4.3408   4.3408   4.3408   4.4701
     4.4701   4.4701   4.4701   4.4933   4.4933   4.4933   4.4933   4.6759
     4.6759   4.6759   4.6759   4.7012   4.7012   4.7012   4.7012   4.7641
     4.7641   4.7738   4.7738   4.7738   4.7738   5.1822   5.4378   5.4378
     7.9505   9.0164   9.0164   9.0164   9.0164   9.0633   9.2180   9.2180
     9.4970   9.6306   9.6697   9.8068   9.8068  10.0303  10.0449  10.0449
    10.0449  10.0449  10.0736  10.0736  10.0736  10.0736  10.2778  10.2778
    10.2778  10.2778  10.3224  10.3224  10.3224  10.3224  10.4261  10.4261
    10.4261  10.4261  10.6427  10.6853  10.6853  11.0459  11.0459  11.0459
    11.0459  11.0552  11.0552  11.5805  11.5805  11.5805  11.5805  11.7125
    11.8226  11.8226  11.8226  11.8227  12.0188  12.0189  12.0189  12.0189
    12.0189  12.0189

     occupation numbers 
     1.0000   1.0000   1.0000   1.0000   1.0000   1.0000   1.0000   1.0000
     1.0000   1.0000   1.0000   1.0000   1.0000   1.0000   1.0000   1.0000
     1.0000   1.0000   1.0000   1.0000   1.0000   1.0000   1.0000   1.0000
     1.0000   1.0000   1.0000   1.0000   1.0000   1.0000   1.0000   1.0000
     1.0000   1.0000   1.0000   1.0000   1.0000   1.0000   1.0000   1.0000
     1.0000   1.0000   1.0000   1.0000   1.0000   1.0000   1.0000   1.0000
     1.0000   1.0000   1.0000   1.0000   1.0000   1.0000   1.0000   1.0000
     1.0000   1.0000   1.0000   1.0000   1.0000   1.0000   1.0000   1.0000
     1.0000   1.0000   1.0000   1.0000   1.0000   1.0000   1.0000   1.0000
     1.0000   1.0000   1.0000   1.0000   1.0000   1.0000   1.0000   1.0000
     1.0000   1.0000   1.0000   1.0000   1.0000   1.0000   1.0000   1.0000
     1.0000   1.0000   1.0000   1.0000   1.0000   1.0000   1.0000   1.0000
     1.0000   1.0000   1.0000   1.0000   1.0000   1.0000   1.0000   1.0000
     1.0000   1.0000   1.0000   1.0000   1.0000   1.0000   1.0000   1.0000
     1.0000   1.0000   1.0000   1.0000   1.0000   1.0000   1.0000   1.0000
     1.0000   1.0000   1.0000   1.0000   1.0000   1.0000   1.0000   1.0000
     1.0000   1.0000   1.0000   1.0000   1.0000   1.0000   1.0000   1.0000
     1.0000   1.0000   1.0000   1.0000   1.0000   1.0000   1.0000   1.0000
     1.0000   1.0000   1.0000   1.0000   1.0000   1.0000   1.0000   1.0000
     1.0000   1.0000   1.0000   1.0000   1.0000   1.0000   1.0000   1.0000
     1.0000   1.0000   1.0000   1.0000   1.0000   1.0000   1.0000   1.0000
     1.0000   1.0000   1.0000   1.0000   1.0000   1.0000   1.0000   1.0000
     1.0000   1.0000   1.0000   1.0000   1.0000   1.0000   1.0000   1.0000
     1.0000   1.0000   1.0000   1.0000   1.0000   1.0000   1.0000   1.0000
     1.0000   1.0000   1.0000   1.0000   1.0000   1.0000   1.0000   1.0000
     1.0000   1.0000   1.0000   1.0000   1.0000   1.0000   1.0000   1.0000
     1.0000   1.0000   1.0000   1.0000   1.0000   1.0000   1.0000   1.0000
     1.0000   1.0000   1.0000   1.0000   1.0000   1.0000   1.0000   1.0000
     1.0000   1.0000   1.0000   1.0000   1.0000   1.0000   1.0000   1.0000
     1.0000   1.0000   1.0000   1.0000   1.0000   1.0000   1.0000   1.0000
     1.0000   1.0000   1.0000   1.0000   1.0000   1.0000   1.0000   1.0000
     1.0000   1.0000   1.0000   1.0000   1.0000   1.0000   1.0000   1.0000
     1.0000   1.0000   1.0000   1.0000   1.0000   1.0000   1.0000   1.0000
     1.0000   1.0000   1.0000   1.0000   1.0000   1.0000   1.0000   1.0000
     1.0000   1.0000   1.0000   1.0000   1.0000   1.0000   1.0000   1.0000
     1.0000   1.0000   1.0000   1.0000   1.0000   1.0000   1.0000   1.0000
     0.0000   0.0000   0.0000   0.0000   0.0000   0.0000   0.0000   0.0000
     0.0000   0.0000   0.0000   0.0000   0.0000   0.0000   0.0000   0.0000
     0.0000   0.0000   0.0000   0.0000   0.0000   0.0000   0.0000   0.0000
     0.0000   0.0000   0.0000   0.0000   0.0000   0.0000   0.0000   0.0000
     0.0000   0.0000   0.0000   0.0000   0.0000   0.0000   0.0000   0.0000
     0.0000   0.0000   0.0000   0.0000   0.0000   0.0000   0.0000   0.0000
     0.0000   0.0000   0.0000   0.0000   0.0000   0.0000   0.0000   0.0000
     0.0000   0.0000

          k = 0.0000 0.0000-0.5000 (125518 PWs)   bands (ev):

    -7.3121  -7.3121  -6.8266  -6.8266  -6.8266  -6.8266  -6.8266  -6.8266
    -6.8266  -6.8266  -6.5845  -6.5845  -6.5845  -6.5845  -6.5845  -6.5845
    -6.5845  -6.5845  -6.4765  -6.4765  -6.3640  -6.3640  -6.3640  -6.3640
    -6.3640  -6.3640  -6.3640  -6.3640  -6.2702  -6.2702  -6.2701  -6.2701
    -0.7074  -0.7074  -0.6932  -0.6932  -0.6489  -0.6489  -0.6489  -0.6489
    -0.6489  -0.6489  -0.6489  -0.6489  -0.6372  -0.6372  -0.6372  -0.6372
    -0.6195  -0.6195  -0.6195  -0.6195  -0.5608  -0.5608  -0.5608  -0.5608
    -0.5608  -0.5608  -0.5608  -0.5608  -0.5465  -0.5465  -0.5465  -0.5465
    -0.5465  -0.5465  -0.5465  -0.5465  -0.5448  -0.5448  -0.5448  -0.5448
    -0.5448  -0.5448  -0.5448  -0.5448  -0.5431  -0.5431  -0.5431  -0.5431
    -0.5431  -0.5431  -0.5431  -0.5431  -0.5199  -0.5199  -0.5199  -0.5199
    -0.5199  -0.5199  -0.5199  -0.5199  -0.4646  -0.4646  -0.4646  -0.4646
    -0.4646  -0.4646  -0.4646  -0.4646  -0.4061  -0.4061  -0.4061  -0.4061
    -0.3773  -0.3773  -0.3773  -0.3773  -0.3248  -0.3248  -0.3248  -0.3248
    -0.2881  -0.2881  -0.2881  -0.2881  -0.2881  -0.2881  -0.2881  -0.2881
    -0.2536  -0.2536  -0.2536  -0.2536  -0.2536  -0.2536  -0.2536  -0.2536
    -0.2146  -0.2146  -0.2146  -0.2146  -0.2146  -0.2146  -0.2146  -0.2146
    -0.2094  -0.2094  -0.1981  -0.1980  -0.1980  -0.1980  -0.1980  -0.1980
    -0.1980  -0.1980  -0.1849  -0.1849  -0.1849  -0.1849  -0.1849  -0.1849
    -0.1849  -0.1849  -0.1832  -0.1832  -0.1579  -0.1579  -0.1573  -0.1573
    -0.1573  -0.1573  -0.1573  -0.1573  -0.1573  -0.1573  -0.1485  -0.1485
    -0.1485  -0.1485  -0.1323  -0.1323  -0.1253  -0.1253  -0.1253  -0.1253
    -0.1253  -0.1253  -0.1253  -0.1253   0.0347   0.0347   0.0347   0.0347
     0.0347   0.0347   0.0347   0.0347   0.1014   0.1014   0.1014   0.1014
     0.9753   0.9753   0.9753   0.9753   0.9753   0.9753   0.9753   0.9753
     1.0635   1.0635   1.0635   1.0635   1.1566   1.1566   1.1566   1.1566
     1.1566   1.1566   1.1566   1.1566   1.7297   1.7297   2.4552   2.4552
     2.4552   2.4552   2.4552   2.4552   2.4552   2.4552   2.6477   2.6477
     2.6477   2.6477   2.6477   2.6477   2.6477   2.6477   3.1323   3.1323
     3.1323   3.1323   3.1445   3.1445   3.1445   3.1445   3.6631   3.6631
     3.6631   3.6631   3.8527   3.8527   3.8527   3.8527   3.8527   3.8527
     3.8527   3.8527   3.8977   3.8977   3.8977   3.8977   3.8977   3.8977
     3.8977   3.8977   3.9826   3.9826   3.9826   3.9826   3.9826   3.9826
     3.9826   3.9826   4.4803   4.4803   4.6733   4.6733   4.6733   4.6733
     4.6733   4.6733   4.6733   4.6733   4.6885   4.6885   4.6885   4.6885
     4.6885   4.6885   4.6885   4.6885   5.1515   5.1515   5.1515   5.1515
     8.7315   8.7315   9.2817   9.2817   9.5363   9.5363   9.5363   9.5364
     9.5364   9.5364   9.5364   9.5364   9.8414   9.8414   9.8414   9.8414
     9.8470   9.8470  10.1898  10.1898  10.1898  10.1898  10.1898  10.1898
    10.1898  10.1898  10.3534  10.3535  10.3535  10.3535  10.7066  10.7066
    10.7066  10.7066  10.7066  10.7066  10.7066  10.7066  10.9436  10.9436
    10.9436  10.9436  10.9436  10.9436  10.9436  10.9436  11.2205  11.2205
    11.7867  11.7867  11.7867  11.7867  11.7867  11.7867  11.7867  11.7867
    12.0729  12.0729

     occupation numbers 
     1.0000   1.0000   1.0000   1.0000   1.0000   1.0000   1.0000   1.0000
     1.0000   1.0000   1.0000   1.0000   1.0000   1.0000   1.0000   1.0000
     1.0000   1.0000   1.0000   1.0000   1.0000   1.0000   1.0000   1.0000
     1.0000   1.0000   1.0000   1.0000   1.0000   1.0000   1.0000   1.0000
     1.0000   1.0000   1.0000   1.0000   1.0000   1.0000   1.0000   1.0000
     1.0000   1.0000   1.0000   1.0000   1.0000   1.0000   1.0000   1.0000
     1.0000   1.0000   1.0000   1.0000   1.0000   1.0000   1.0000   1.0000
     1.0000   1.0000   1.0000   1.0000   1.0000   1.0000   1.0000   1.0000
     1.0000   1.0000   1.0000   1.0000   1.0000   1.0000   1.0000   1.0000
     1.0000   1.0000   1.0000   1.0000   1.0000   1.0000   1.0000   1.0000
     1.0000   1.0000   1.0000   1.0000   1.0000   1.0000   1.0000   1.0000
     1.0000   1.0000   1.0000   1.0000   1.0000   1.0000   1.0000   1.0000
     1.0000   1.0000   1.0000   1.0000   1.0000   1.0000   1.0000   1.0000
     1.0000   1.0000   1.0000   1.0000   1.0000   1.0000   1.0000   1.0000
     1.0000   1.0000   1.0000   1.0000   1.0000   1.0000   1.0000   1.0000
     1.0000   1.0000   1.0000   1.0000   1.0000   1.0000   1.0000   1.0000
     1.0000   1.0000   1.0000   1.0000   1.0000   1.0000   1.0000   1.0000
     1.0000   1.0000   1.0000   1.0000   1.0000   1.0000   1.0000   1.0000
     1.0000   1.0000   1.0000   1.0000   1.0000   1.0000   1.0000   1.0000
     1.0000   1.0000   1.0000   1.0000   1.0000   1.0000   1.0000   1.0000
     1.0000   1.0000   1.0000   1.0000   1.0000   1.0000   1.0000   1.0000
     1.0000   1.0000   1.0000   1.0000   1.0000   1.0000   1.0000   1.0000
     1.0000   1.0000   1.0000   1.0000   1.0000   1.0000   1.0000   1.0000
     1.0000   1.0000   1.0000   1.0000   1.0000   1.0000   1.0000   1.0000
     1.0000   1.0000   1.0000   1.0000   1.0000   1.0000   1.0000   1.0000
     1.0000   1.0000   1.0000   1.0000   1.0000   1.0000   1.0000   1.0000
     1.0000   1.0000   1.0000   1.0000   1.0000   1.0000   1.0000   1.0000
     1.0000   1.0000   1.0000   1.0000   1.0000   1.0000   1.0000   1.0000
     1.0000   1.0000   1.0000   1.0000   1.0000   1.0000   1.0000   1.0000
     1.0000   1.0000   1.0000   1.0000   1.0000   1.0000   1.0000   1.0000
     1.0000   1.0000   1.0000   1.0000   1.0000   1.0000   1.0000   1.0000
     1.0000   1.0000   1.0000   1.0000   1.0000   1.0000   1.0000   1.0000
     1.0000   1.0000   1.0000   1.0000   1.0000   1.0000   1.0000   1.0000
     1.0000   1.0000   1.0000   1.0000   1.0000   1.0000   1.0000   1.0000
     1.0000   1.0000   1.0000   1.0000   1.0000   1.0000   1.0000   1.0000
     1.0000   1.0000   1.0000   1.0000   1.0000   1.0000   1.0000   1.0000
     0.0000   0.0000   0.0000   0.0000   0.0000   0.0000   0.0000   0.0000
     0.0000   0.0000   0.0000   0.0000   0.0000   0.0000   0.0000   0.0000
     0.0000   0.0000   0.0000   0.0000   0.0000   0.0000   0.0000   0.0000
     0.0000   0.0000   0.0000   0.0000   0.0000   0.0000   0.0000   0.0000
     0.0000   0.0000   0.0000   0.0000   0.0000   0.0000   0.0000   0.0000
     0.0000   0.0000   0.0000   0.0000   0.0000   0.0000   0.0000   0.0000
     0.0000   0.0000   0.0000   0.0000   0.0000   0.0000   0.0000   0.0000
     0.0000   0.0000

          k = 0.0000 0.2500 0.2500 (125400 PWs)   bands (ev):

    -7.3863  -7.1075  -7.1075  -6.8852  -6.8732  -6.8732  -6.7094  -6.7094
    -6.7094  -6.7094  -6.6708  -6.6708  -6.6273  -6.6273  -6.5527  -6.5526
    -6.5303  -6.5303  -6.4773  -6.4773  -6.4773  -6.4773  -6.3914  -6.3240
    -6.3240  -6.3150  -6.3150  -6.3040  -6.3040  -6.2830  -6.2829  -6.2732
    -0.6963  -0.6963  -0.6957  -0.6957  -0.6843  -0.6843  -0.6770  -0.6753
    -0.6753  -0.6631  -0.6568  -0.6546  -0.5949  -0.5922  -0.5922  -0.5893
    -0.5893  -0.5812  -0.5749  -0.5748  -0.5748  -0.5748  -0.5700  -0.5700
    -0.5660  -0.5656  -0.5656  -0.5633  -0.5633  -0.5612  -0.5612  -0.5608
    -0.5608  -0.5597  -0.5589  -0.5589  -0.5511  -0.5511  -0.5511  -0.5511
    -0.5505  -0.5505  -0.5505  -0.5505  -0.5428  -0.5428  -0.5424  -0.5424
    -0.5375  -0.5375  -0.5303  -0.5303  -0.5217  -0.5217  -0.5036  -0.5036
    -0.5036  -0.5036  -0.4776  -0.4776  -0.4721  -0.4721  -0.4721  -0.4721
    -0.4624  -0.4624  -0.4616  -0.4417  -0.4417  -0.4216  -0.4216  -0.4079
    -0.4079  -0.3902  -0.3902  -0.3732  -0.3732  -0.3596  -0.3554  -0.3554
    -0.3395  -0.2965  -0.2965  -0.2878  -0.2878  -0.2780  -0.2780  -0.2768
    -0.2768  -0.2768  -0.2768  -0.2401  -0.2385  -0.2385  -0.2203  -0.2203
    -0.2194  -0.2194  -0.2169  -0.2168  -0.2141  -0.2060  -0.2060  -0.2055
    -0.2055  -0.2024  -0.2024  -0.2024  -0.2024  -0.1985  -0.1915  -0.1878
    -0.1872  -0.1872  -0.1872  -0.1872  -0.1855  -0.1854  -0.1844  -0.1844
    -0.1791  -0.1791  -0.1723  -0.1723  -0.1674  -0.1674  -0.1640  -0.1640
    -0.1626  -0.1602  -0.1602  -0.1592  -0.1592  -0.1504  -0.1504  -0.1504
    -0.1504  -0.1450  -0.1450  -0.1332  -0.1297  -0.1297  -0.1277  -0.1277
    -0.0754  -0.0754  -0.0754  -0.0754  -0.0301  -0.0301  -0.0016   0.0263
     0.0263   0.0640   0.0964   0.0964   0.1318   0.1318   0.1564   0.1564
     0.4952   0.4952   0.9026   0.9026   1.0216   1.0216   1.0395   1.0395
     1.0650   1.1340   1.1340   1.1402   1.1402   1.1402   1.1402   1.1414
     1.2523   1.2523   1.6518   1.6518   1.7918   1.7918   1.7918   1.7918
     2.2228   2.2228   2.4995   2.5761   2.6290   2.6290   2.6331   2.6331
     2.7114   2.7114   2.8512   2.8512   3.0316   3.0971   3.0971   3.0971
     3.0971   3.1550   3.1550   3.2902   3.2902   3.3628   3.3628   3.4211
     3.4211   3.4343   3.4344   3.4809   3.4809   3.5016   3.5091   3.5091
     3.7687   3.7687   3.7687   3.7687   3.8441   3.8441   3.9030   4.0315
     4.0315   4.1833   4.1833   4.2160   4.2990   4.2990   4.3450   4.3450
     4.3662   4.3662   4.3662   4.3662   4.3997   4.3997   4.5609   4.5609
     4.6178   4.6178   4.6378   4.6378   4.6508   4.6508   4.7602   4.7602
     4.7602   4.7602   4.7887   4.9235   4.9235   5.0694   5.3266   5.4997
     8.2086   9.0399   9.0399   9.2894   9.2946   9.2946   9.3566   9.3566
     9.5370   9.5370   9.8660   9.8660   9.8681   9.8681   9.9134   9.9186
     9.9186   9.9641   9.9641   9.9641   9.9641  10.1098  10.1117  10.1592
    10.1592  10.2941  10.2941  10.2941  10.2941  10.3445  10.3445  10.6766
    10.6766  10.6827  10.6827  10.7646  10.7646  10.8440  10.8440  10.9684
    10.9684  11.0499  11.0499  11.4075  11.4075  11.4608  11.4608  11.4983
    11.4983  11.7969  11.7972  11.7973  11.7973  11.9180  11.9187  11.9188
    11.9188  11.9397

     occupation numbers 
     1.0000   1.0000   1.0000   1.0000   1.0000   1.0000   1.0000   1.0000
     1.0000   1.0000   1.0000   1.0000   1.0000   1.0000   1.0000   1.0000
     1.0000   1.0000   1.0000   1.0000   1.0000   1.0000   1.0000   1.0000
     1.0000   1.0000   1.0000   1.0000   1.0000   1.0000   1.0000   1.0000
     1.0000   1.0000   1.0000   1.0000   1.0000   1.0000   1.0000   1.0000
     1.0000   1.0000   1.0000   1.0000   1.0000   1.0000   1.0000   1.0000
     1.0000   1.0000   1.0000   1.0000   1.0000   1.0000   1.0000   1.0000
     1.0000   1.0000   1.0000   1.0000   1.0000   1.0000   1.0000   1.0000
     1.0000   1.0000   1.0000   1.0000   1.0000   1.0000   1.0000   1.0000
     1.0000   1.0000   1.0000   1.0000   1.0000   1.0000   1.0000   1.0000
     1.0000   1.0000   1.0000   1.0000   1.0000   1.0000   1.0000   1.0000
     1.0000   1.0000   1.0000   1.0000   1.0000   1.0000   1.0000   1.0000
     1.0000   1.0000   1.0000   1.0000   1.0000   1.0000   1.0000   1.0000
     1.0000   1.0000   1.0000   1.0000   1.0000   1.0000   1.0000   1.0000
     1.0000   1.0000   1.0000   1.0000   1.0000   1.0000   1.0000   1.0000
     1.0000   1.0000   1.0000   1.0000   1.0000   1.0000   1.0000   1.0000
     1.0000   1.0000   1.0000   1.0000   1.0000   1.0000   1.0000   1.0000
     1.0000   1.0000   1.0000   1.0000   1.0000   1.0000   1.0000   1.0000
     1.0000   1.0000   1.0000   1.0000   1.0000   1.0000   1.0000   1.0000
     1.0000   1.0000   1.0000   1.0000   1.0000   1.0000   1.0000   1.0000
     1.0000   1.0000   1.0000   1.0000   1.0000   1.0000   1.0000   1.0000
     1.0000   1.0000   1.0000   1.0000   1.0000   1.0000   1.0000   1.0000
     1.0000   1.0000   1.0000   1.0000   1.0000   1.0000   1.0000   1.0000
     1.0000   1.0000   1.0000   1.0000   1.0000   1.0000   1.0000   1.0000
     1.0000   1.0000   1.0000   1.0000   1.0000   1.0000   1.0000   1.0000
     1.0000   1.0000   1.0000   1.0000   1.0000   1.0000   1.0000   1.0000
     1.0000   1.0000   1.0000   1.0000   1.0000   1.0000   1.0000   1.0000
     1.0000   1.0000   1.0000   1.0000   1.0000   1.0000   1.0000   1.0000
     1.0000   1.0000   1.0000   1.0000   1.0000   1.0000   1.0000   1.0000
     1.0000   1.0000   1.0000   1.0000   1.0000   1.0000   1.0000   1.0000
     1.0000   1.0000   1.0000   1.0000   1.0000   1.0000   1.0000   1.0000
     1.0000   1.0000   1.0000   1.0000   1.0000   1.0000   1.0000   1.0000
     1.0000   1.0000   1.0000   1.0000   1.0000   1.0000   1.0000   1.0000
     1.0000   1.0000   1.0000   1.0000   1.0000   1.0000   1.0000   1.0000
     1.0000   1.0000   1.0000   1.0000   1.0000   1.0000   1.0000   1.0000
     1.0000   1.0000   1.0000   1.0000   1.0000   1.0000   1.0000   1.0000
     0.0000   0.0000   0.0000   0.0000   0.0000   0.0000   0.0000   0.0000
     0.0000   0.0000   0.0000   0.0000   0.0000   0.0000   0.0000   0.0000
     0.0000   0.0000   0.0000   0.0000   0.0000   0.0000   0.0000   0.0000
     0.0000   0.0000   0.0000   0.0000   0.0000   0.0000   0.0000   0.0000
     0.0000   0.0000   0.0000   0.0000   0.0000   0.0000   0.0000   0.0000
     0.0000   0.0000   0.0000   0.0000   0.0000   0.0000   0.0000   0.0000
     0.0000   0.0000   0.0000   0.0000   0.0000   0.0000   0.0000   0.0000
     0.0000   0.0000

          k = 0.0000 0.2500-0.5000 (125492 PWs)   bands (ev):

    -7.2773  -7.2772  -7.0197  -7.0197  -6.8077  -6.8077  -6.8077  -6.8077
    -6.6753  -6.6753  -6.6753  -6.6753  -6.6232  -6.6231  -6.4969  -6.4969
    -6.4969  -6.4969  -6.4673  -6.4673  -6.4050  -6.4049  -6.3797  -6.3797
    -6.3797  -6.3797  -6.3258  -6.3257  -6.3155  -6.3155  -6.2766  -6.2766
    -0.6849  -0.6849  -0.6846  -0.6846  -0.6564  -0.6564  -0.6374  -0.6374
    -0.6366  -0.6366  -0.6359  -0.6359  -0.6359  -0.6359  -0.6311  -0.6311
    -0.6204  -0.6204  -0.6113  -0.6113  -0.5910  -0.5910  -0.5814  -0.5814
    -0.5747  -0.5747  -0.5747  -0.5747  -0.5647  -0.5647  -0.5597  -0.5597
    -0.5565  -0.5565  -0.5565  -0.5565  -0.5532  -0.5532  -0.5532  -0.5532
    -0.5451  -0.5451  -0.5451  -0.5451  -0.5451  -0.5451  -0.5451  -0.5451
    -0.5215  -0.5215  -0.5215  -0.5215  -0.5167  -0.5167  -0.5167  -0.5167
    -0.4999  -0.4999  -0.4740  -0.4740  -0.4740  -0.4740  -0.4734  -0.4734
    -0.4422  -0.4422  -0.4327  -0.4327  -0.4192  -0.4192  -0.4056  -0.4056
    -0.4056  -0.4056  -0.3993  -0.3993  -0.3993  -0.3993  -0.3825  -0.3825
    -0.3363  -0.3363  -0.3237  -0.3237  -0.3189  -0.3189  -0.2537  -0.2537
    -0.2499  -0.2499  -0.2499  -0.2499  -0.2402  -0.2402  -0.2402  -0.2402
    -0.2150  -0.2150  -0.2078  -0.2078  -0.2075  -0.2075  -0.2075  -0.2075
    -0.1934  -0.1934  -0.1934  -0.1934  -0.1874  -0.1874  -0.1845  -0.1845
    -0.1844  -0.1844  -0.1844  -0.1844  -0.1835  -0.1835  -0.1754  -0.1754
    -0.1754  -0.1754  -0.1714  -0.1714  -0.1698  -0.1698  -0.1589  -0.1589
    -0.1589  -0.1589  -0.1548  -0.1548  -0.1548  -0.1548  -0.1508  -0.1508
    -0.1470  -0.1470  -0.1441  -0.1441  -0.1426  -0.1426  -0.1332  -0.1332
    -0.0377  -0.0377  -0.0218  -0.0218  -0.0218  -0.0218   0.0282   0.0282
     0.0515   0.0515   0.0515   0.0515   0.1098   0.1098   0.1164   0.1164
     0.7574   0.7574   0.7575   0.7575   1.0043   1.0043   1.0043   1.0043
     1.0391   1.0391   1.0492   1.0492   1.2054   1.2054   1.3335   1.3335
     1.3335   1.3335   1.3439   1.3440   1.6787   1.6787   1.9641   1.9641
     2.2234   2.2234   2.2234   2.2235   2.4981   2.4981   2.7665   2.7665
     2.8570   2.8570   2.8570   2.8570   2.9262   2.9262   3.0005   3.0005
     3.1187   3.1187   3.3357   3.3357   3.5247   3.5247   3.5317   3.5317
     3.5465   3.5466   3.6549   3.6549   3.6549   3.6549   3.6677   3.6677
     3.7652   3.7653   3.8925   3.8925   3.9228   3.9228   3.9228   3.9228
     4.1118   4.1118   4.1118   4.1118   4.1511   4.1511   4.1692   4.1692
     4.2612   4.2612   4.2612   4.2612   4.3143   4.3143   4.4401   4.4401
     4.4401   4.4401   4.6268   4.6268   4.6268   4.6268   4.7169   4.7169
     4.7169   4.7169   5.0321   5.0321   5.1070   5.1070   5.3080   5.3080
     8.8306   8.8306   9.4218   9.4218   9.4218   9.4218   9.5175   9.5175
     9.6611   9.6611   9.6668   9.6668   9.8731   9.8731   9.8731   9.8731
     9.8973   9.8973   9.8973   9.8973   9.9223   9.9223  10.0192  10.0192
    10.0751  10.0751  10.3905  10.3906  10.4653  10.4653  10.5203  10.5203
    10.6458  10.6458  10.6458  10.6458  10.7779  10.7779  10.9118  10.9118
    11.0647  11.0647  11.3097  11.3097  11.3097  11.3097  11.3744  11.3744
    11.3775  11.3775  11.5657  11.5657  11.5657  11.5658  11.7592  11.7592
    11.9109  11.9110

     occupation numbers 
     1.0000   1.0000   1.0000   1.0000   1.0000   1.0000   1.0000   1.0000
     1.0000   1.0000   1.0000   1.0000   1.0000   1.0000   1.0000   1.0000
     1.0000   1.0000   1.0000   1.0000   1.0000   1.0000   1.0000   1.0000
     1.0000   1.0000   1.0000   1.0000   1.0000   1.0000   1.0000   1.0000
     1.0000   1.0000   1.0000   1.0000   1.0000   1.0000   1.0000   1.0000
     1.0000   1.0000   1.0000   1.0000   1.0000   1.0000   1.0000   1.0000
     1.0000   1.0000   1.0000   1.0000   1.0000   1.0000   1.0000   1.0000
     1.0000   1.0000   1.0000   1.0000   1.0000   1.0000   1.0000   1.0000
     1.0000   1.0000   1.0000   1.0000   1.0000   1.0000   1.0000   1.0000
     1.0000   1.0000   1.0000   1.0000   1.0000   1.0000   1.0000   1.0000
     1.0000   1.0000   1.0000   1.0000   1.0000   1.0000   1.0000   1.0000
     1.0000   1.0000   1.0000   1.0000   1.0000   1.0000   1.0000   1.0000
     1.0000   1.0000   1.0000   1.0000   1.0000   1.0000   1.0000   1.0000
     1.0000   1.0000   1.0000   1.0000   1.0000   1.0000   1.0000   1.0000
     1.0000   1.0000   1.0000   1.0000   1.0000   1.0000   1.0000   1.0000
     1.0000   1.0000   1.0000   1.0000   1.0000   1.0000   1.0000   1.0000
     1.0000   1.0000   1.0000   1.0000   1.0000   1.0000   1.0000   1.0000
     1.0000   1.0000   1.0000   1.0000   1.0000   1.0000   1.0000   1.0000
     1.0000   1.0000   1.0000   1.0000   1.0000   1.0000   1.0000   1.0000
     1.0000   1.0000   1.0000   1.0000   1.0000   1.0000   1.0000   1.0000
     1.0000   1.0000   1.0000   1.0000   1.0000   1.0000   1.0000   1.0000
     1.0000   1.0000   1.0000   1.0000   1.0000   1.0000   1.0000   1.0000
     1.0000   1.0000   1.0000   1.0000   1.0000   1.0000   1.0000   1.0000
     1.0000   1.0000   1.0000   1.0000   1.0000   1.0000   1.0000   1.0000
     1.0000   1.0000   1.0000   1.0000   1.0000   1.0000   1.0000   1.0000
     1.0000   1.0000   1.0000   1.0000   1.0000   1.0000   1.0000   1.0000
     1.0000   1.0000   1.0000   1.0000   1.0000   1.0000   1.0000   1.0000
     1.0000   1.0000   1.0000   1.0000   1.0000   1.0000   1.0000   1.0000
     1.0000   1.0000   1.0000   1.0000   1.0000   1.0000   1.0000   1.0000
     1.0000   1.0000   1.0000   1.0000   1.0000   1.0000   1.0000   1.0000
     1.0000   1.0000   1.0000   1.0000   1.0000   1.0000   1.0000   1.0000
     1.0000   1.0000   1.0000   1.0000   1.0000   1.0000   1.0000   1.0000
     1.0000   1.0000   1.0000   1.0000   1.0000   1.0000   1.0000   1.0000
     1.0000   1.0000   1.0000   1.0000   1.0000   1.0000   1.0000   1.0000
     1.0000   1.0000   1.0000   1.0000   1.0000   1.0000   1.0000   1.0000
     1.0000   1.0000   1.0000   1.0000   1.0000   1.0000   1.0000   1.0000
     0.0000   0.0000   0.0000   0.0000   0.0000   0.0000   0.0000   0.0000
     0.0000   0.0000   0.0000   0.0000   0.0000   0.0000   0.0000   0.0000
     0.0000   0.0000   0.0000   0.0000   0.0000   0.0000   0.0000   0.0000
     0.0000   0.0000   0.0000   0.0000   0.0000   0.0000   0.0000   0.0000
     0.0000   0.0000   0.0000   0.0000   0.0000   0.0000   0.0000   0.0000
     0.0000   0.0000   0.0000   0.0000   0.0000   0.0000   0.0000   0.0000
     0.0000   0.0000   0.0000   0.0000   0.0000   0.0000   0.0000   0.0000
     0.0000   0.0000

          k = 0.0000-0.5000-0.5000 (125416 PWs)   bands (ev):

    -7.1762  -7.1761  -7.1761  -7.1761  -6.7542  -6.7542  -6.7542  -6.7542
    -6.7542  -6.7542  -6.7542  -6.7542  -6.4417  -6.4417  -6.4417  -6.4417
    -6.4417  -6.4417  -6.4417  -6.4417  -6.4256  -6.4256  -6.4256  -6.4256
    -6.4256  -6.4256  -6.4256  -6.4256  -6.2956  -6.2956  -6.2956  -6.2956
    -0.6654  -0.6654  -0.6654  -0.6654  -0.6298  -0.6298  -0.6298  -0.6298
    -0.6254  -0.6254  -0.6254  -0.6254  -0.6254  -0.6254  -0.6254  -0.6254
    -0.6127  -0.6127  -0.6127  -0.6127  -0.6043  -0.6043  -0.6043  -0.6043
    -0.6043  -0.6043  -0.6043  -0.6043  -0.5904  -0.5904  -0.5904  -0.5904
    -0.5503  -0.5503  -0.5503  -0.5503  -0.5503  -0.5503  -0.5503  -0.5503
    -0.5480  -0.5480  -0.5480  -0.5480  -0.5480  -0.5480  -0.5480  -0.5480
    -0.4961  -0.4961  -0.4961  -0.4961  -0.4961  -0.4961  -0.4961  -0.4961
    -0.4874  -0.4874  -0.4874  -0.4874  -0.4874  -0.4874  -0.4874  -0.4874
    -0.4479  -0.4479  -0.4479  -0.4479  -0.4479  -0.4479  -0.4479  -0.4479
    -0.4027  -0.4027  -0.4027  -0.4027  -0.3754  -0.3754  -0.3754  -0.3754
    -0.3754  -0.3754  -0.3754  -0.3754  -0.2929  -0.2929  -0.2929  -0.2929
    -0.2433  -0.2433  -0.2433  -0.2433  -0.2433  -0.2433  -0.2433  -0.2433
    -0.2084  -0.2084  -0.2084  -0.2084  -0.1917  -0.1917  -0.1917  -0.1917
    -0.1917  -0.1917  -0.1917  -0.1917  -0.1825  -0.1825  -0.1825  -0.1825
    -0.1815  -0.1815  -0.1815  -0.1815  -0.1815  -0.1815  -0.1815  -0.1815
    -0.1620  -0.1620  -0.1620  -0.1620  -0.1620  -0.1620  -0.1620  -0.1620
    -0.1599  -0.1599  -0.1598  -0.1598  -0.1489  -0.1489  -0.1489  -0.1489
    -0.1489  -0.1489  -0.1489  -0.1489  -0.0949  -0.0949  -0.0949  -0.0949
    -0.0949  -0.0949  -0.0949  -0.0949   0.0641   0.0641   0.0641   0.0641
     0.0641   0.0641   0.0641   0.0641   0.1365   0.1365   0.1365   0.1365
     0.7754   0.7754   0.7754   0.7754   0.7754   0.7754   0.7754   0.7754
     1.0209   1.0209   1.0209   1.0209   1.5375   1.5375   1.5375   1.5375
     1.5375   1.5375   1.5375   1.5375   1.7759   1.7759   1.7759   1.7759
     1.7759   1.7759   1.7759   1.7759   2.5324   2.5324   2.5324   2.5324
     3.2601   3.2601   3.2601   3.2601   3.2601   3.2601   3.2601   3.2601
     3.2671   3.2671   3.2671   3.2671   3.2671   3.2671   3.2671   3.2671
     3.5830   3.5830   3.5830   3.5830   3.6964   3.6964   3.6964   3.6964
     3.6964   3.6964   3.6964   3.6964   3.7969   3.7969   3.7969   3.7969
     4.1337   4.1337   4.1337   4.1337   4.1337   4.1337   4.1337   4.1337
     4.4456   4.4456   4.4456   4.4456   4.4456   4.4456   4.4456   4.4456
     4.5218   4.5218   4.5218   4.5218   4.5218   4.5218   4.5218   4.5218
     4.7210   4.7210   4.7210   4.7210   5.3490   5.3490   5.3490   5.3490
     9.1540   9.1540   9.1540   9.1540   9.5578   9.5578   9.5578   9.5578
     9.5578   9.5578   9.5578   9.5578   9.6788   9.6788   9.6788   9.6788
    10.1555  10.1555  10.1555  10.1555  10.1555  10.1555  10.1555  10.1555
    10.3245  10.3245  10.3245  10.3245  10.3245  10.3245  10.3245  10.3245
    10.4723  10.4723  10.4724  10.4724  10.4724  10.4724  10.4724  10.4724
    11.4428  11.4428  11.4428  11.4428  11.5070  11.5070  11.5070  11.5070
    11.5070  11.5070  11.5070  11.5071  11.6171  11.6171  11.6172  11.6172
    11.7975  11.7975

     occupation numbers 
     1.0000   1.0000   1.0000   1.0000   1.0000   1.0000   1.0000   1.0000
     1.0000   1.0000   1.0000   1.0000   1.0000   1.0000   1.0000   1.0000
     1.0000   1.0000   1.0000   1.0000   1.0000   1.0000   1.0000   1.0000
     1.0000   1.0000   1.0000   1.0000   1.0000   1.0000   1.0000   1.0000
     1.0000   1.0000   1.0000   1.0000   1.0000   1.0000   1.0000   1.0000
     1.0000   1.0000   1.0000   1.0000   1.0000   1.0000   1.0000   1.0000
     1.0000   1.0000   1.0000   1.0000   1.0000   1.0000   1.0000   1.0000
     1.0000   1.0000   1.0000   1.0000   1.0000   1.0000   1.0000   1.0000
     1.0000   1.0000   1.0000   1.0000   1.0000   1.0000   1.0000   1.0000
     1.0000   1.0000   1.0000   1.0000   1.0000   1.0000   1.0000   1.0000
     1.0000   1.0000   1.0000   1.0000   1.0000   1.0000   1.0000   1.0000
     1.0000   1.0000   1.0000   1.0000   1.0000   1.0000   1.0000   1.0000
     1.0000   1.0000   1.0000   1.0000   1.0000   1.0000   1.0000   1.0000
     1.0000   1.0000   1.0000   1.0000   1.0000   1.0000   1.0000   1.0000
     1.0000   1.0000   1.0000   1.0000   1.0000   1.0000   1.0000   1.0000
     1.0000   1.0000   1.0000   1.0000   1.0000   1.0000   1.0000   1.0000
     1.0000   1.0000   1.0000   1.0000   1.0000   1.0000   1.0000   1.0000
     1.0000   1.0000   1.0000   1.0000   1.0000   1.0000   1.0000   1.0000
     1.0000   1.0000   1.0000   1.0000   1.0000   1.0000   1.0000   1.0000
     1.0000   1.0000   1.0000   1.0000   1.0000   1.0000   1.0000   1.0000
     1.0000   1.0000   1.0000   1.0000   1.0000   1.0000   1.0000   1.0000
     1.0000   1.0000   1.0000   1.0000   1.0000   1.0000   1.0000   1.0000
     1.0000   1.0000   1.0000   1.0000   1.0000   1.0000   1.0000   1.0000
     1.0000   1.0000   1.0000   1.0000   1.0000   1.0000   1.0000   1.0000
     1.0000   1.0000   1.0000   1.0000   1.0000   1.0000   1.0000   1.0000
     1.0000   1.0000   1.0000   1.0000   1.0000   1.0000   1.0000   1.0000
     1.0000   1.0000   1.0000   1.0000   1.0000   1.0000   1.0000   1.0000
     1.0000   1.0000   1.0000   1.0000   1.0000   1.0000   1.0000   1.0000
     1.0000   1.0000   1.0000   1.0000   1.0000   1.0000   1.0000   1.0000
     1.0000   1.0000   1.0000   1.0000   1.0000   1.0000   1.0000   1.0000
     1.0000   1.0000   1.0000   1.0000   1.0000   1.0000   1.0000   1.0000
     1.0000   1.0000   1.0000   1.0000   1.0000   1.0000   1.0000   1.0000
     1.0000   1.0000   1.0000   1.0000   1.0000   1.0000   1.0000   1.0000
     1.0000   1.0000   1.0000   1.0000   1.0000   1.0000   1.0000   1.0000
     1.0000   1.0000   1.0000   1.0000   1.0000   1.0000   1.0000   1.0000
     1.0000   1.0000   1.0000   1.0000   1.0000   1.0000   1.0000   1.0000
     0.0000   0.0000   0.0000   0.0000   0.0000   0.0000   0.0000   0.0000
     0.0000   0.0000   0.0000   0.0000   0.0000   0.0000   0.0000   0.0000
     0.0000   0.0000   0.0000   0.0000   0.0000   0.0000   0.0000   0.0000
     0.0000   0.0000   0.0000   0.0000   0.0000   0.0000   0.0000   0.0000
     0.0000   0.0000   0.0000   0.0000   0.0000   0.0000   0.0000   0.0000
     0.0000   0.0000   0.0000   0.0000   0.0000   0.0000   0.0000   0.0000
     0.0000   0.0000   0.0000   0.0000   0.0000   0.0000   0.0000   0.0000
     0.0000   0.0000

          k = 0.2500 0.2500 0.2500 (125469 PWs)   bands (ev):

    -7.3497  -7.0782  -7.0782  -7.0782  -6.8651  -6.8651  -6.8651  -6.7242
[...]
     1.0000   1.0000   1.0000   1.0000   1.0000   1.0000   1.0000   1.0000
     1.0000   1.0000   1.0000   1.0000   1.0000   1.0000   1.0000   1.0000
     1.0000   1.0000   1.0000   1.0000   1.0000   1.0000   1.0000   1.0000
     1.0000   1.0000   1.0000   1.0000   1.0000   1.0000   1.0000   1.0000
     1.0000   1.0000   1.0000   1.0000   1.0000   1.0000   1.0000   1.0000
     1.0000   1.0000   1.0000   1.0000   1.0000   1.0000   1.0000   1.0000
     1.0000   1.0000   1.0000   1.0000   1.0000   1.0000   1.0000   1.0000
     1.0000   1.0000   1.0000   1.0000   1.0000   1.0000   1.0000   1.0000
     1.0000   1.0000   1.0000   1.0000   1.0000   1.0000   1.0000   1.0000
     1.0000   1.0000   1.0000   1.0000   1.0000   1.0000   1.0000   1.0000
     1.0000   1.0000   1.0000   1.0000   1.0000   1.0000   1.0000   1.0000
     1.0000   1.0000   1.0000   1.0000   1.0000   1.0000   1.0000   1.0000
     1.0000   1.0000   1.0000   1.0000   1.0000   1.0000   1.0000   1.0000
     1.0000   1.0000   1.0000   1.0000   1.0000   1.0000   1.0000   1.0000
     1.0000   1.0000   1.0000   1.0000   1.0000   1.0000   1.0000   1.0000
     1.0000   1.0000   1.0000   1.0000   1.0000   1.0000   1.0000   1.0000
     1.0000   1.0000   1.0000   1.0000   1.0000   1.0000   1.0000   1.0000
     1.0000   1.0000   1.0000   1.0000   1.0000   1.0000   1.0000   1.0000
     1.0000   1.0000   1.0000   1.0000   1.0000   1.0000   1.0000   1.0000
     0.0000   0.0000   0.0000   0.0000   0.0000   0.0000   0.0000   0.0000
     0.0000   0.0000   0.0000   0.0000   0.0000   0.0000   0.0000   0.0000
     0.0000   0.0000   0.0000   0.0000   0.0000   0.0000   0.0000   0.0000
     0.0000   0.0000   0.0000   0.0000   0.0000   0.0000   0.0000   0.0000
     0.0000   0.0000   0.0000   0.0000   0.0000   0.0000   0.0000   0.0000
     0.0000   0.0000   0.0000   0.0000   0.0000   0.0000   0.0000   0.0000
     0.0000   0.0000   0.0000   0.0000   0.0000   0.0000   0.0000   0.0000
     0.0000   0.0000

          k = 0.2500-0.5000-0.5000 (125460 PWs)   bands (ev):

    -7.1453  -7.1453  -7.1453  -7.1453  -6.9199  -6.9199  -6.9199  -6.9199
    -6.5830  -6.5830  -6.5830  -6.5830  -6.4394  -6.4394  -6.4394  -6.4394
    -6.4394  -6.4394  -6.4394  -6.4394  -6.4280  -6.4280  -6.4279  -6.4279
    -6.4279  -6.4279  -6.4279  -6.4279  -6.3318  -6.3317  -6.3317  -6.3317
    -0.6550  -0.6550  -0.6550  -0.6550  -0.6250  -0.6250  -0.6250  -0.6250
    -0.6153  -0.6153  -0.6153  -0.6153  -0.6153  -0.6153  -0.6153  -0.6153
    -0.6127  -0.6127  -0.6127  -0.6127  -0.6111  -0.6111  -0.6111  -0.6111
    -0.5964  -0.5963  -0.5963  -0.5963  -0.5901  -0.5901  -0.5901  -0.5901
    -0.5845  -0.5845  -0.5845  -0.5845  -0.5649  -0.5649  -0.5649  -0.5649
    -0.5648  -0.5648  -0.5648  -0.5648  -0.5648  -0.5648  -0.5647  -0.5647
    -0.5031  -0.5031  -0.5031  -0.5031  -0.4811  -0.4811  -0.4810  -0.4810
    -0.4810  -0.4810  -0.4810  -0.4810  -0.4453  -0.4453  -0.4453  -0.4453
    -0.4453  -0.4453  -0.4453  -0.4453  -0.4180  -0.4180  -0.4180  -0.4180
    -0.4046  -0.4046  -0.4046  -0.4046  -0.3744  -0.3744  -0.3744  -0.3744
    -0.3744  -0.3744  -0.3744  -0.3744  -0.3071  -0.3071  -0.3071  -0.3071
    -0.2830  -0.2830  -0.2830  -0.2830  -0.2830  -0.2830  -0.2830  -0.2830
    -0.2040  -0.2040  -0.2040  -0.2040  -0.1985  -0.1984  -0.1984  -0.1984
    -0.1852  -0.1852  -0.1852  -0.1852  -0.1765  -0.1765  -0.1765  -0.1765
    -0.1657  -0.1657  -0.1657  -0.1657  -0.1657  -0.1657  -0.1657  -0.1657
    -0.1566  -0.1566  -0.1566  -0.1566  -0.1530  -0.1530  -0.1530  -0.1530
    -0.1481  -0.1481  -0.1481  -0.1481  -0.1481  -0.1481  -0.1481  -0.1481
    -0.1442  -0.1442  -0.1442  -0.1442  -0.0791  -0.0791  -0.0791  -0.0791
    -0.0791  -0.0791  -0.0791  -0.0791   0.0270   0.0270   0.0270   0.0270
     0.0270   0.0270   0.0270   0.0270   0.0866   0.0867   0.0867   0.0867
     0.8948   0.8948   0.8949   0.8949   0.8949   0.8949   0.8949   0.8949
     1.0411   1.0411   1.0411   1.0411   1.4113   1.4113   1.4113   1.4113
     1.4239   1.4239   1.4239   1.4239   1.4239   1.4239   1.4239   1.4239
     2.2352   2.2352   2.2352   2.2352   2.7311   2.7311   2.7311   2.7311
     3.2277   3.2277   3.2277   3.2277   3.2278   3.2278   3.2278   3.2278
     3.2483   3.2483   3.2483   3.2483   3.2483   3.2483   3.2483   3.2483
     3.2931   3.2931   3.2931   3.2931   3.8164   3.8164   3.8164   3.8164
     3.8164   3.8164   3.8164   3.8164   3.8326   3.8326   3.8326   3.8326
     3.8497   3.8497   3.8497   3.8497   4.1071   4.1071   4.1071   4.1072
     4.1072   4.1072   4.1072   4.1072   4.2353   4.2353   4.2353   4.2353
     4.8229   4.8229   4.8229   4.8229   4.9166   4.9166   4.9166   4.9166
     4.9213   4.9213   4.9213   4.9213   5.2809   5.2809   5.2809   5.2809
     9.0361   9.0361   9.0362   9.0362   9.1462   9.1462   9.1462   9.1462
     9.7350   9.7350   9.7350   9.7350   9.8577   9.8577   9.8577   9.8577
     9.9098   9.9098   9.9098   9.9098   9.9098   9.9098   9.9098   9.9098
    10.0967  10.0967  10.0967  10.0967  10.0967  10.0967  10.0967  10.0967
    10.9150  10.9150  10.9150  10.9150  10.9150  10.9150  10.9150  10.9150
    11.4500  11.4500  11.4500  11.4500  11.5285  11.5285  11.5285  11.5285
    11.6420  11.6420  11.6420  11.6420  11.6420  11.6420  11.6421  11.6421
    11.8823  11.8823

     occupation numbers 
     1.0000   1.0000   1.0000   1.0000   1.0000   1.0000   1.0000   1.0000
     1.0000   1.0000   1.0000   1.0000   1.0000   1.0000   1.0000   1.0000
     1.0000   1.0000   1.0000   1.0000   1.0000   1.0000   1.0000   1.0000
     1.0000   1.0000   1.0000   1.0000   1.0000   1.0000   1.0000   1.0000
     1.0000   1.0000   1.0000   1.0000   1.0000   1.0000   1.0000   1.0000
     1.0000   1.0000   1.0000   1.0000   1.0000   1.0000   1.0000   1.0000
     1.0000   1.0000   1.0000   1.0000   1.0000   1.0000   1.0000   1.0000
     1.0000   1.0000   1.0000   1.0000   1.0000   1.0000   1.0000   1.0000
     1.0000   1.0000   1.0000   1.0000   1.0000   1.0000   1.0000   1.0000
     1.0000   1.0000   1.0000   1.0000   1.0000   1.0000   1.0000   1.0000
     1.0000   1.0000   1.0000   1.0000   1.0000   1.0000   1.0000   1.0000
     1.0000   1.0000   1.0000   1.0000   1.0000   1.0000   1.0000   1.0000
     1.0000   1.0000   1.0000   1.0000   1.0000   1.0000   1.0000   1.0000
     1.0000   1.0000   1.0000   1.0000   1.0000   1.0000   1.0000   1.0000
     1.0000   1.0000   1.0000   1.0000   1.0000   1.0000   1.0000   1.0000
     1.0000   1.0000   1.0000   1.0000   1.0000   1.0000   1.0000   1.0000
     1.0000   1.0000   1.0000   1.0000   1.0000   1.0000   1.0000   1.0000
     1.0000   1.0000   1.0000   1.0000   1.0000   1.0000   1.0000   1.0000
     1.0000   1.0000   1.0000   1.0000   1.0000   1.0000   1.0000   1.0000
     1.0000   1.0000   1.0000   1.0000   1.0000   1.0000   1.0000   1.0000
     1.0000   1.0000   1.0000   1.0000   1.0000   1.0000   1.0000   1.0000
     1.0000   1.0000   1.0000   1.0000   1.0000   1.0000   1.0000   1.0000
     1.0000   1.0000   1.0000   1.0000   1.0000   1.0000   1.0000   1.0000
     1.0000   1.0000   1.0000   1.0000   1.0000   1.0000   1.0000   1.0000
     1.0000   1.0000   1.0000   1.0000   1.0000   1.0000   1.0000   1.0000
     1.0000   1.0000   1.0000   1.0000   1.0000   1.0000   1.0000   1.0000
     1.0000   1.0000   1.0000   1.0000   1.0000   1.0000   1.0000   1.0000
     1.0000   1.0000   1.0000   1.0000   1.0000   1.0000   1.0000   1.0000
     1.0000   1.0000   1.0000   1.0000   1.0000   1.0000   1.0000   1.0000
     1.0000   1.0000   1.0000   1.0000   1.0000   1.0000   1.0000   1.0000
     1.0000   1.0000   1.0000   1.0000   1.0000   1.0000   1.0000   1.0000
     1.0000   1.0000   1.0000   1.0000   1.0000   1.0000   1.0000   1.0000
     1.0000   1.0000   1.0000   1.0000   1.0000   1.0000   1.0000   1.0000
     1.0000   1.0000   1.0000   1.0000   1.0000   1.0000   1.0000   1.0000
     1.0000   1.0000   1.0000   1.0000   1.0000   1.0000   1.0000   1.0000
     1.0000   1.0000   1.0000   1.0000   1.0000   1.0000   1.0000   1.0000
     0.0000   0.0000   0.0000   0.0000   0.0000   0.0000   0.0000   0.0000
     0.0000   0.0000   0.0000   0.0000   0.0000   0.0000   0.0000   0.0000
     0.0000   0.0000   0.0000   0.0000   0.0000   0.0000   0.0000   0.0000
     0.0000   0.0000   0.0000   0.0000   0.0000   0.0000   0.0000   0.0000
     0.0000   0.0000   0.0000   0.0000   0.0000   0.0000   0.0000   0.0000
     0.0000   0.0000   0.0000   0.0000   0.0000   0.0000   0.0000   0.0000
     0.0000   0.0000   0.0000   0.0000   0.0000   0.0000   0.0000   0.0000
     0.0000   0.0000

          k =-0.5000-0.5000-0.5000 (125400 PWs)   bands (ev):

    -7.0563  -7.0563  -7.0563  -7.0563  -7.0562  -7.0562  -7.0562  -7.0562
    -6.4337  -6.4337  -6.4337  -6.4337  -6.4337  -6.4337  -6.4337  -6.4337
    -6.4337  -6.4337  -6.4337  -6.4337  -6.4337  -6.4337  -6.4337  -6.4337
    -6.4337  -6.4337  -6.4337  -6.4337  -6.4337  -6.4336  -6.4336  -6.4336
    -0.6246  -0.6246  -0.6246  -0.6246  -0.6246  -0.6246  -0.6246  -0.6246
    -0.6102  -0.6102  -0.6102  -0.6102  -0.6102  -0.6102  -0.6102  -0.6102
    -0.6102  -0.6102  -0.6102  -0.6102  -0.6102  -0.6102  -0.6102  -0.6102
    -0.5911  -0.5911  -0.5911  -0.5911  -0.5911  -0.5911  -0.5911  -0.5911
    -0.5911  -0.5911  -0.5911  -0.5911  -0.5911  -0.5911  -0.5911  -0.5911
    -0.5911  -0.5911  -0.5911  -0.5911  -0.5911  -0.5911  -0.5911  -0.5911
    -0.4562  -0.4562  -0.4562  -0.4562  -0.4562  -0.4562  -0.4562  -0.4562
    -0.4562  -0.4562  -0.4562  -0.4562  -0.4562  -0.4562  -0.4562  -0.4562
    -0.4562  -0.4562  -0.4562  -0.4562  -0.4562  -0.4562  -0.4562  -0.4562
    -0.3442  -0.3442  -0.3442  -0.3442  -0.3442  -0.3442  -0.3442  -0.3442
    -0.3442  -0.3442  -0.3442  -0.3442  -0.3442  -0.3442  -0.3442  -0.3442
    -0.3442  -0.3442  -0.3442  -0.3442  -0.3442  -0.3442  -0.3442  -0.3442
    -0.1921  -0.1921  -0.1921  -0.1921  -0.1921  -0.1921  -0.1921  -0.1921
    -0.1921  -0.1921  -0.1921  -0.1921  -0.1921  -0.1921  -0.1921  -0.1921
    -0.1520  -0.1520  -0.1519  -0.1519  -0.1519  -0.1519  -0.1519  -0.1519
    -0.1519  -0.1519  -0.1519  -0.1519  -0.1519  -0.1519  -0.1519  -0.1519
    -0.1519  -0.1519  -0.1519  -0.1519  -0.1519  -0.1519  -0.1519  -0.1519
    -0.0344  -0.0344  -0.0344  -0.0344  -0.0344  -0.0344  -0.0344  -0.0344
    -0.0344  -0.0344  -0.0344  -0.0344  -0.0344  -0.0344  -0.0344  -0.0344
    -0.0344  -0.0344  -0.0344  -0.0344  -0.0344  -0.0344  -0.0344  -0.0344
     1.1606   1.1606   1.1606   1.1606   1.1606   1.1606   1.1606   1.1606
     1.1606   1.1606   1.1606   1.1606   1.1606   1.1606   1.1606   1.1606
     1.1606   1.1606   1.1606   1.1606   1.1606   1.1606   1.1606   1.1606
     2.7630   2.7630   2.7630   2.7630   2.7630   2.7630   2.7630   2.7630
     3.2190   3.2190   3.2190   3.2190   3.2190   3.2190   3.2190   3.2190
     3.2190   3.2190   3.2190   3.2190   3.2190   3.2190   3.2190   3.2190
     3.2190   3.2190   3.2190   3.2190   3.2190   3.2190   3.2190   3.2190
     4.0018   4.0018   4.0018   4.0018   4.0018   4.0018   4.0018   4.0018
     4.0018   4.0018   4.0018   4.0018   4.0018   4.0018   4.0018   4.0018
     4.0018   4.0018   4.0018   4.0018   4.0018   4.0018   4.0018   4.0018
     5.0923   5.0923   5.0923   5.0923   5.0923   5.0923   5.0923   5.0923
     5.0923   5.0923   5.0923   5.0923   5.0923   5.0923   5.0923   5.0923
     8.9405   8.9405   8.9405   8.9405   8.9405   8.9405   8.9405   8.9406
     9.8557   9.8557   9.8557   9.8557   9.8557   9.8557   9.8557   9.8557
     9.8557   9.8557   9.8557   9.8557   9.8557   9.8557   9.8557   9.8557
     9.8557   9.8557   9.8557   9.8557   9.8557   9.8557   9.8557   9.8557
    11.4619  11.4619  11.4619  11.4620  11.4620  11.4620  11.4620  11.4620
    11.4620  11.4620  11.4620  11.4620  11.4620  11.4620  11.4620  11.4620
    11.4620  11.4620  11.4620  11.4620  11.4620  11.4620  11.4620  11.4620
    12.4105  12.4105

     occupation numbers 
     1.0000   1.0000   1.0000   1.0000   1.0000   1.0000   1.0000   1.0000
     1.0000   1.0000   1.0000   1.0000   1.0000   1.0000   1.0000   1.0000
     1.0000   1.0000   1.0000   1.0000   1.0000   1.0000   1.0000   1.0000
     1.0000   1.0000   1.0000   1.0000   1.0000   1.0000   1.0000   1.0000
     1.0000   1.0000   1.0000   1.0000   1.0000   1.0000   1.0000   1.0000
     1.0000   1.0000   1.0000   1.0000   1.0000   1.0000   1.0000   1.0000
     1.0000   1.0000   1.0000   1.0000   1.0000   1.0000   1.0000   1.0000
     1.0000   1.0000   1.0000   1.0000   1.0000   1.0000   1.0000   1.0000
     1.0000   1.0000   1.0000   1.0000   1.0000   1.0000   1.0000   1.0000
     1.0000   1.0000   1.0000   1.0000   1.0000   1.0000   1.0000   1.0000
     1.0000   1.0000   1.0000   1.0000   1.0000   1.0000   1.0000   1.0000
     1.0000   1.0000   1.0000   1.0000   1.0000   1.0000   1.0000   1.0000
     1.0000   1.0000   1.0000   1.0000   1.0000   1.0000   1.0000   1.0000
     1.0000   1.0000   1.0000   1.0000   1.0000   1.0000   1.0000   1.0000
     1.0000   1.0000   1.0000   1.0000   1.0000   1.0000   1.0000   1.0000
     1.0000   1.0000   1.0000   1.0000   1.0000   1.0000   1.0000   1.0000
     1.0000   1.0000   1.0000   1.0000   1.0000   1.0000   1.0000   1.0000
     1.0000   1.0000   1.0000   1.0000   1.0000   1.0000   1.0000   1.0000
     1.0000   1.0000   1.0000   1.0000   1.0000   1.0000   1.0000   1.0000
     1.0000   1.0000   1.0000   1.0000   1.0000   1.0000   1.0000   1.0000
     1.0000   1.0000   1.0000   1.0000   1.0000   1.0000   1.0000   1.0000
     1.0000   1.0000   1.0000   1.0000   1.0000   1.0000   1.0000   1.0000
     1.0000   1.0000   1.0000   1.0000   1.0000   1.0000   1.0000   1.0000
     1.0000   1.0000   1.0000   1.0000   1.0000   1.0000   1.0000   1.0000
     1.0000   1.0000   1.0000   1.0000   1.0000   1.0000   1.0000   1.0000
     1.0000   1.0000   1.0000   1.0000   1.0000   1.0000   1.0000   1.0000
     1.0000   1.0000   1.0000   1.0000   1.0000   1.0000   1.0000   1.0000
     1.0000   1.0000   1.0000   1.0000   1.0000   1.0000   1.0000   1.0000
     1.0000   1.0000   1.0000   1.0000   1.0000   1.0000   1.0000   1.0000
     1.0000   1.0000   1.0000   1.0000   1.0000   1.0000   1.0000   1.0000
     1.0000   1.0000   1.0000   1.0000   1.0000   1.0000   1.0000   1.0000
     1.0000   1.0000   1.0000   1.0000   1.0000   1.0000   1.0000   1.0000
     1.0000   1.0000   1.0000   1.0000   1.0000   1.0000   1.0000   1.0000
     1.0000   1.0000   1.0000   1.0000   1.0000   1.0000   1.0000   1.0000
     1.0000   1.0000   1.0000   1.0000   1.0000   1.0000   1.0000   1.0000
     1.0000   1.0000   1.0000   1.0000   1.0000   1.0000   1.0000   1.0000
     0.0000   0.0000   0.0000   0.0000   0.0000   0.0000   0.0000   0.0000
     0.0000   0.0000   0.0000   0.0000   0.0000   0.0000   0.0000   0.0000
     0.0000   0.0000   0.0000   0.0000   0.0000   0.0000   0.0000   0.0000
     0.0000   0.0000   0.0000   0.0000   0.0000   0.0000   0.0000   0.0000
     0.0000   0.0000   0.0000   0.0000   0.0000   0.0000   0.0000   0.0000
     0.0000   0.0000   0.0000   0.0000   0.0000   0.0000   0.0000   0.0000
     0.0000   0.0000   0.0000   0.0000   0.0000   0.0000   0.0000   0.0000
     0.0000   0.0000

     the Fermi energy is     6.2513 ev

!    total energy              =   -9924.37476641 Ry
     total all-electron energy =   -140500.315354 Ry
     estimated scf accuracy    <          9.7E-09 Ry
     smearing contrib. (-TS)   =      -0.00000000 Ry
     internal energy E=F+TS    =   -9924.37476641 Ry

     The total energy is F=E-TS. E is the sum of the following terms:
     one-electron contribution =   -2754.08168680 Ry
     hartree contribution      =    1961.35342187 Ry
     xc contribution           =   -1674.73482720 Ry
     ewald contribution        =   -2927.19643238 Ry
     one-center paw contrib.   =   -4529.71524190 Ry
      -> PAW hartree energy AE =     123.25780822 Ry
      -> PAW hartree energy PS =    -122.61599710 Ry
      -> PAW xc energy AE      =    -143.20820703 Ry
      -> PAW xc energy PS      =      47.14679211 Ry
      -> total E_H with PAW    =    1961.99523299 Ry
      -> total E_XC with PAW   =   -1770.79624212 Ry

     total magnetization       =    -0.00 Bohr mag/cell
     absolute magnetization    =     0.00 Bohr mag/cell

     convergence has been achieved in  10 iterations
 
     init_run     :      3.66s CPU      5.16s WALL (       1 calls)
     electrons    :     71.48s CPU     78.31s WALL (       1 calls)

     Called by init_run:
     wfcinit      :      2.68s CPU      3.62s WALL (       1 calls)
     wfcinit:atom :      0.01s CPU      0.01s WALL (       2 calls)
     wfcinit:wfcr :      2.63s CPU      2.69s WALL (       2 calls)
     potinit      :      0.34s CPU      0.54s WALL (       1 calls)
     hinit0       :      0.15s CPU      0.34s WALL (       1 calls)

     Called by electrons:
     c_bands      :     62.44s CPU     66.96s WALL (      11 calls)
     sum_band     :      6.01s CPU      6.14s WALL (      11 calls)
     v_of_rho     :      0.49s CPU      0.63s WALL (      11 calls)
     v_h          :      0.02s CPU      0.02s WALL (      11 calls)
     v_xc         :      0.47s CPU      0.61s WALL (      11 calls)
     newd         :      0.13s CPU      0.15s WALL (      11 calls)
     PAW_pot      :      0.99s CPU      1.02s WALL (      11 calls)
     mix_rho      :      0.11s CPU      0.13s WALL (      11 calls)

     Called by c_bands:
     init_us_2    :      0.63s CPU      0.67s WALL (      46 calls)
     init_us_2:cp :      0.63s CPU      0.67s WALL (      46 calls)
     cegterg      :     54.94s CPU     55.74s WALL (      22 calls)

     Called by sum_band:
     sum_band:wei :      0.01s CPU      0.01s WALL (      11 calls)
     sum_band:loo :      5.19s CPU      5.27s WALL (      11 calls)
     sum_band:buf :      0.09s CPU      0.09s WALL (      22 calls)
     sum_band:ini :      0.31s CPU      0.34s WALL (      22 calls)
     sum_band:cal :      1.51s CPU      1.52s WALL (      22 calls)
     sum_band:bec :      0.09s CPU      0.09s WALL (      22 calls)
     addusdens    :      0.10s CPU      0.11s WALL (      11 calls)
                                        0.00s GPU  (      11 calls)
     addusd:skk   :      0.00s CPU      0.00s WALL (      22 calls)
                                        0.00s GPU  (      22 calls)

     Called by *egterg:
     cdiaghg      :     11.41s CPU     11.48s WALL (     180 calls)
     cegterg:over :      3.70s CPU      3.76s WALL (     160 calls)
     cegterg:upda :      2.98s CPU      3.00s WALL (     160 calls)
     cegterg:last :      5.03s CPU      5.06s WALL (      48 calls)
     cdiaghg:chol :      0.71s CPU      0.71s WALL (     180 calls)
     cdiaghg:inve :      1.08s CPU      1.09s WALL (     180 calls)
     cdiaghg:para :      1.72s CPU      1.73s WALL (     360 calls)
     h_psi        :     27.96s CPU     28.42s WALL (     184 calls)
     s_psi        :      5.00s CPU      5.04s WALL (     184 calls)
     g_psi        :      0.11s CPU      0.11s WALL (     160 calls)

     Called by h_psi:
     h_psi:calbec :      4.89s CPU      4.94s WALL (     184 calls)
     vloc_psi     :     17.86s CPU     18.02s WALL (     184 calls)
     add_vuspsi   :      5.02s CPU      5.16s WALL (     184 calls)

     General routines
     calbec       :      6.40s CPU      6.45s WALL (     206 calls)
     fft          :      0.44s CPU      0.83s WALL (     231 calls)
     ffts         :      0.03s CPU      0.03s WALL (      22 calls)
     fftw         :     19.76s CPU     19.94s WALL (   50144 calls)
 
     Parallel routines

     PAW routines
     PAW_pot      :      0.99s CPU      1.02s WALL (      11 calls)
     PAW_symme    :      0.03s CPU      0.03s WALL (      22 calls)
 
     PWSCF        :   1m20.73s CPU   1m45.22s WALL

 
   This run was terminated on:  12: 6: 9  25Jun2024            

=------------------------------------------------------------------------------=
   JOB DONE.
=------------------------------------------------------------------------------=
