
     Program PWSCF v.7.2 starts on 10Jul2024 at 16:59:51 

     This program is part of the open-source Quantum ESPRESSO suite
     for quantum simulation of materials; please cite
         "P. Giannozzi et al., J. Phys.:Condens. Matter 21 395502 (2009);
         "P. Giannozzi et al., J. Phys.:Condens. Matter 29 465901 (2017);
         "P. Giannozzi et al., J. Chem. Phys. 152 154105 (2020);
          URL http://www.quantum-espresso.org", 
     in publications or presentations arising from this work. More details at
     http://www.quantum-espresso.org/quote

     Parallel version (MPI), running on   784 processors

     MPI processes distributed on     7 nodes
     231420 MiB available memory on the printing compute node when the environment starts
 
     Reading input from 3.Co_vac_in_ZnS.nscf.qn2.in

     Current dimensions of program PWSCF are:
     Max number of different atomic species (ntypx) = 10
     Max number of k-points (npk) =  40000
     Max angular momentum in pseudopotentials (lmaxx) =  4

     Atomic positions and unit cell read from directory:
     ./out/Co_vac_qn2.save/
 
     file S.pbe-n-kjpaw_psl.1.0.0.UPF: wavefunction(s)  3S 3P renormalized
     file Zn.pbe-dnl-kjpaw_psl.1.0.0.UPF: wavefunction(s)  4S 3D renormalized
     file Co.pbe-spn-kjpaw_psl.0.3.1.UPF: wavefunction(s)  3P 3D renormalized
     [opt_tetra]  Optimized tetrahedron method is used.
 
     K-points division:     npool     =       7
     R & G space division:  proc/nbgrp/npool/nimage =     112
     Subspace diagonalization in iterative solution of the eigenvalue problem:
     one sub-group per band group will be used
     scalapack distributed-memory algorithm (size of sub-group:  3*  3 procs)

 
     Parallelization info
     --------------------
     sticks:   dense  smooth     PW     G-vecs:    dense   smooth      PW
     Min         180     180     46                19282    19282    2562
     Max         181     181     47                19291    19291    2573
     Sum       20217   20217   5249              2160009  2160009  287777
 
     Using Slab Decomposition
 


     bravais-lattice index     =            1
     lattice parameter (alat)  =      20.5686  a.u.
     unit-cell volume          =    8701.8437 (a.u.)^3
     number of atoms/cell      =           63
     number of atomic types    =            3
     number of electrons       =       577.00
     number of Kohn-Sham states=          347
     kinetic-energy cutoff     =     150.0000  Ry
     charge density cutoff     =     600.0000  Ry
     Exchange-correlation= SLA  PW   PBX  PBC
                           (   1   4   3   4   0   0   0)

     celldm(1)=  20.568554  celldm(2)=   0.000000  celldm(3)=   0.000000
     celldm(4)=   0.000000  celldm(5)=   0.000000  celldm(6)=   0.000000

     crystal axes: (cart. coord. in units of alat)
               a(1) = (   1.000000   0.000000   0.000000 )  
               a(2) = (   0.000000   1.000000   0.000000 )  
               a(3) = (   0.000000   0.000000   1.000000 )  

     reciprocal axes: (cart. coord. in units 2 pi/alat)
               b(1) = (  1.000000  0.000000  0.000000 )  
               b(2) = (  0.000000  1.000000  0.000000 )  
               b(3) = (  0.000000  0.000000  1.000000 )  


     PseudoPot. # 1 for S  read from file:
     /arf/home/amuhaymin/pseudo/S.pbe-n-kjpaw_psl.1.0.0.UPF
     MD5 check sum: fb45dfebcf3e72a4e1bd4a866ec2e262
     Pseudo is Projector augmented-wave + core cor, Zval =  6.0
     Generated using &quot;atomic&quot; code by A. Dal Corso  v.6.3
     Shape of augmentation charge: PSQ
     Using radial grid of 1151 points,  6 beta functions with: 
                l(1) =   0
                l(2) =   0
                l(3) =   1
                l(4) =   1
                l(5) =   2
                l(6) =   2
     Q(r) pseudized with 0 coefficients 


     PseudoPot. # 2 for Zn read from file:
     /arf/home/amuhaymin/pseudo/Zn.pbe-dnl-kjpaw_psl.1.0.0.UPF
     MD5 check sum: c608214d9520ac179f507641260889e3
     Pseudo is Projector augmented-wave + core cor, Zval = 12.0
     Generated using &quot;atomic&quot; code by A. Dal Corso  v.6.2.2
     Shape of augmentation charge: PSQ
     Using radial grid of 1201 points,  6 beta functions with: 
                l(1) =   0
                l(2) =   0
                l(3) =   1
                l(4) =   1
                l(5) =   2
                l(6) =   2
     Q(r) pseudized with 0 coefficients 


     PseudoPot. # 3 for Co read from file:
     /arf/home/amuhaymin/pseudo/Co.pbe-spn-kjpaw_psl.0.3.1.UPF
     MD5 check sum: b0a1ad65bf214e88c1f3d33b20c7d919
     Pseudo is Projector augmented-wave + core cor, Zval = 17.0
     Generated using &quot;atomic&quot; code by A. Dal Corso  v.6.2.2
     Shape of augmentation charge: PSQ
     Using radial grid of 1193 points,  6 beta functions with: 
                l(1) =   0
                l(2) =   0
                l(3) =   1
                l(4) =   1
                l(5) =   2
                l(6) =   2
     Q(r) pseudized with 0 coefficients 


     atomic species   valence    mass     pseudopotential
        S              6.00    32.06500     S ( 1.00)
        Zn            12.00    65.38000     Zn( 1.00)
        Co            17.00    63.54600     Co( 1.00)

     Starting magnetic structure 
     atomic species   magnetization
        S            0.000
        Zn           0.000
        Co           0.059

      6 Sym. Ops. (no inversion) found


                                    s                        frac. trans.

      isym =  1     identity                                     

 cryst.   s( 1) = (     1          0          0      )
                  (     0          1          0      )
                  (     0          0          1      )

 cart.    s( 1) = (  1.0000000  0.0000000  0.0000000 )
                  (  0.0000000  1.0000000  0.0000000 )
                  (  0.0000000  0.0000000  1.0000000 )


      isym =  2     120 deg rotation - cart. axis [-1,-1,-1]     

 cryst.   s( 2) = (     0          0          1      )
                  (     1          0          0      )
                  (     0          1          0      )

 cart.    s( 2) = (  0.0000000  1.0000000  0.0000000 )
                  (  0.0000000  0.0000000  1.0000000 )
                  (  1.0000000  0.0000000  0.0000000 )


      isym =  3     120 deg rotation - cart. axis [1,1,1]        

 cryst.   s( 3) = (     0          1          0      )
                  (     0          0          1      )
                  (     1          0          0      )

 cart.    s( 3) = (  0.0000000  0.0000000  1.0000000 )
                  (  1.0000000  0.0000000  0.0000000 )
                  (  0.0000000  1.0000000  0.0000000 )


      isym =  4     inv. 180 deg rotation - cart. axis [1,-1,0]  

 cryst.   s( 4) = (     0          1          0      )
                  (     1          0          0      )
                  (     0          0          1      )

 cart.    s( 4) = (  0.0000000  1.0000000  0.0000000 )
                  (  1.0000000  0.0000000  0.0000000 )
                  (  0.0000000  0.0000000  1.0000000 )


      isym =  5     inv. 180 deg rotation - cart. axis [-1,0,1]  

 cryst.   s( 5) = (     0          0          1      )
                  (     0          1          0      )
                  (     1          0          0      )

 cart.    s( 5) = (  0.0000000  0.0000000  1.0000000 )
                  (  0.0000000  1.0000000  0.0000000 )
                  (  1.0000000  0.0000000  0.0000000 )


      isym =  6     inv. 180 deg rotation - cart. axis [0,1,-1]  

 cryst.   s( 6) = (     1          0          0      )
                  (     0          0          1      )
                  (     0          1          0      )

 cart.    s( 6) = (  1.0000000  0.0000000  0.0000000 )
                  (  0.0000000  0.0000000  1.0000000 )
                  (  0.0000000  1.0000000  0.0000000 )


     point group C_3v (3m)  
     there are  3 classes
     the character table:

       E     2C3   3s_v 
A_1    1.00  1.00  1.00
A_2    1.00  1.00 -1.00
E      2.00 -1.00  0.00

     the symmetry operations in each class and the name of the first element:

     E        1
          identity                                               
     2C3      2    3
          120 deg rotation - cart. axis [-1,-1,-1]               
     3s_v     4    5    6
          inv. 180 deg rotation - cart. axis [1,-1,0]            

   Cartesian axes

     site n.     atom                  positions (alat units)
         1           Zn  tau(   1) = (  -0.0000771  -0.0000771  -0.0000771  )
         2           Zn  tau(   2) = (   0.0024716   0.2526273   0.2526273  )
         3           Zn  tau(   3) = (   0.2526273   0.0024716   0.2526273  )
         4           Zn  tau(   4) = (   0.2526273   0.2526273   0.0024716  )
         5           S   tau(   5) = (   0.1291081   0.3779776   0.3779776  )
         6           S   tau(   6) = (   0.1260652   0.1260652   0.1260652  )
         7           S   tau(   7) = (   0.3779776   0.3779776   0.1291081  )
         8           S   tau(   8) = (   0.3779776   0.1291081   0.3779776  )
         9           Zn  tau(   9) = (  -0.0045565  -0.0045565   0.5057394  )
        10           Zn  tau(  10) = (  -0.0015220   0.2519184   0.7502456  )
        11           Zn  tau(  11) = (   0.2519184  -0.0015220   0.7502456  )
        12           Zn  tau(  12) = (   0.2601341   0.2601341   0.5070605  )
        13           S   tau(  13) = (   0.1254976   0.3759445   0.8763837  )
        14           S   tau(  14) = (   0.1274645   0.1274645   0.6252087  )
        15           S   tau(  15) = (   0.3908665   0.3908665   0.6246409  )
        16           S   tau(  16) = (   0.3759445   0.1254976   0.8763837  )
        17           Zn  tau(  17) = (  -0.0045565   0.5057394  -0.0045565  )
        18           Zn  tau(  18) = (  -0.0015220   0.7502456   0.2519184  )
        19           Zn  tau(  19) = (   0.2601341   0.5070605   0.2601341  )
        20           Zn  tau(  20) = (   0.2519184   0.7502456  -0.0015220  )
        21           S   tau(  21) = (   0.1254976   0.8763837   0.3759445  )
        22           S   tau(  22) = (   0.1274645   0.6252087   0.1274645  )
        23           S   tau(  23) = (   0.3759445   0.8763837   0.1254976  )
        24           S   tau(  24) = (   0.3908665   0.6246409   0.3908665  )
        25           Zn  tau(  25) = (  -0.0014335   0.5015491   0.5015491  )
        26           Zn  tau(  26) = (  -0.0081937   0.7487689   0.7487689  )
        27           Zn  tau(  27) = (   0.2531153   0.4992501   0.7497470  )
        28           Zn  tau(  28) = (   0.2531153   0.7497470   0.4992501  )
        29           S   tau(  29) = (   0.1236195   0.8740195   0.8740195  )
        30           S   tau(  30) = (   0.1255822   0.6260386   0.6260386  )
        31           S   tau(  31) = (   0.3776289   0.8730410   0.6260741  )
        32           S   tau(  32) = (   0.3776289   0.6260741   0.8730410  )
        33           Zn  tau(  33) = (   0.5057394  -0.0045565  -0.0045565  )
        34           Zn  tau(  34) = (   0.5070605   0.2601341   0.2601341  )
        35           Zn  tau(  35) = (   0.7502456  -0.0015220   0.2519184  )
        36           Zn  tau(  36) = (   0.7502456   0.2519184  -0.0015220  )
        37           S   tau(  37) = (   0.6246409   0.3908665   0.3908665  )
        38           S   tau(  38) = (   0.6252087   0.1274645   0.1274645  )
        39           S   tau(  39) = (   0.8763837   0.3759445   0.1254976  )
        40           S   tau(  40) = (   0.8763837   0.1254976   0.3759445  )
        41           Zn  tau(  41) = (   0.5015491  -0.0014335   0.5015491  )
        42           Zn  tau(  42) = (   0.4992501   0.2531153   0.7497470  )
        43           Zn  tau(  43) = (   0.7487689  -0.0081937   0.7487689  )
        44           Zn  tau(  44) = (   0.7497470   0.2531153   0.4992501  )
        45           S   tau(  45) = (   0.6260741   0.3776289   0.8730410  )
        46           S   tau(  46) = (   0.6260386   0.1255822   0.6260386  )
        47           S   tau(  47) = (   0.8730410   0.3776289   0.6260741  )
        48           S   tau(  48) = (   0.8740195   0.1236195   0.8740195  )
        49           Zn  tau(  49) = (   0.5015491   0.5015491  -0.0014335  )
        50           Zn  tau(  50) = (   0.4992501   0.7497470   0.2531153  )
        51           Zn  tau(  51) = (   0.7497470   0.4992501   0.2531153  )
        52           Zn  tau(  52) = (   0.7487689   0.7487689  -0.0081937  )
        53           S   tau(  53) = (   0.6260741   0.8730410   0.3776289  )
        54           S   tau(  54) = (   0.6260386   0.6260386   0.1255822  )
        55           S   tau(  55) = (   0.8740195   0.8740195   0.1236195  )
        56           S   tau(  56) = (   0.8730410   0.6260741   0.3776289  )
        57           Co  tau(  57) = (   0.5365473   0.5365473   0.5365473  )
        58           Zn  tau(  58) = (   0.5047015   0.6993471   0.6993471  )
        59           Zn  tau(  59) = (   0.6993471   0.5047015   0.6993471  )
        60           Zn  tau(  60) = (   0.6993471   0.6993471   0.5047015  )
        61           S   tau(  61) = (   0.6196619   0.8655878   0.8655878  )
        62           S   tau(  62) = (   0.8655878   0.8655878   0.6196619  )
        63           S   tau(  63) = (   0.8655878   0.6196619   0.8655878  )

   Crystallographic axes

     site n.     atom                  positions (cryst. coord.)
         1           Zn  tau(   1) = ( -0.0000771 -0.0000771 -0.0000771  )
         2           Zn  tau(   2) = (  0.0024716  0.2526273  0.2526273  )
         3           Zn  tau(   3) = (  0.2526273  0.0024716  0.2526273  )
         4           Zn  tau(   4) = (  0.2526273  0.2526273  0.0024716  )
         5           S   tau(   5) = (  0.1291081  0.3779776  0.3779776  )
         6           S   tau(   6) = (  0.1260652  0.1260652  0.1260652  )
         7           S   tau(   7) = (  0.3779776  0.3779776  0.1291081  )
         8           S   tau(   8) = (  0.3779776  0.1291081  0.3779776  )
         9           Zn  tau(   9) = ( -0.0045565 -0.0045565  0.5057394  )
        10           Zn  tau(  10) = ( -0.0015220  0.2519184  0.7502456  )
        11           Zn  tau(  11) = (  0.2519184 -0.0015220  0.7502456  )
        12           Zn  tau(  12) = (  0.2601341  0.2601341  0.5070605  )
        13           S   tau(  13) = (  0.1254976  0.3759445  0.8763837  )
        14           S   tau(  14) = (  0.1274645  0.1274645  0.6252087  )
        15           S   tau(  15) = (  0.3908665  0.3908665  0.6246409  )
        16           S   tau(  16) = (  0.3759445  0.1254976  0.8763837  )
        17           Zn  tau(  17) = ( -0.0045565  0.5057394 -0.0045565  )
        18           Zn  tau(  18) = ( -0.0015220  0.7502456  0.2519184  )
        19           Zn  tau(  19) = (  0.2601341  0.5070605  0.2601341  )
        20           Zn  tau(  20) = (  0.2519184  0.7502456 -0.0015220  )
        21           S   tau(  21) = (  0.1254976  0.8763837  0.3759445  )
        22           S   tau(  22) = (  0.1274645  0.6252087  0.1274645  )
        23           S   tau(  23) = (  0.3759445  0.8763837  0.1254976  )
        24           S   tau(  24) = (  0.3908665  0.6246409  0.3908665  )
        25           Zn  tau(  25) = ( -0.0014335  0.5015491  0.5015491  )
        26           Zn  tau(  26) = ( -0.0081937  0.7487689  0.7487689  )
        27           Zn  tau(  27) = (  0.2531153  0.4992501  0.7497470  )
        28           Zn  tau(  28) = (  0.2531153  0.7497470  0.4992501  )
        29           S   tau(  29) = (  0.1236195  0.8740195  0.8740195  )
        30           S   tau(  30) = (  0.1255822  0.6260386  0.6260386  )
        31           S   tau(  31) = (  0.3776289  0.8730410  0.6260741  )
        32           S   tau(  32) = (  0.3776289  0.6260741  0.8730410  )
        33           Zn  tau(  33) = (  0.5057394 -0.0045565 -0.0045565  )
        34           Zn  tau(  34) = (  0.5070605  0.2601341  0.2601341  )
        35           Zn  tau(  35) = (  0.7502456 -0.0015220  0.2519184  )
        36           Zn  tau(  36) = (  0.7502456  0.2519184 -0.0015220  )
        37           S   tau(  37) = (  0.6246409  0.3908665  0.3908665  )
        38           S   tau(  38) = (  0.6252087  0.1274645  0.1274645  )
        39           S   tau(  39) = (  0.8763837  0.3759445  0.1254976  )
        40           S   tau(  40) = (  0.8763837  0.1254976  0.3759445  )
        41           Zn  tau(  41) = (  0.5015491 -0.0014335  0.5015491  )
        42           Zn  tau(  42) = (  0.4992501  0.2531153  0.7497470  )
        43           Zn  tau(  43) = (  0.7487689 -0.0081937  0.7487689  )
        44           Zn  tau(  44) = (  0.7497470  0.2531153  0.4992501  )
        45           S   tau(  45) = (  0.6260741  0.3776289  0.8730410  )
        46           S   tau(  46) = (  0.6260386  0.1255822  0.6260386  )
        47           S   tau(  47) = (  0.8730410  0.3776289  0.6260741  )
        48           S   tau(  48) = (  0.8740195  0.1236195  0.8740195  )
        49           Zn  tau(  49) = (  0.5015491  0.5015491 -0.0014335  )
        50           Zn  tau(  50) = (  0.4992501  0.7497470  0.2531153  )
        51           Zn  tau(  51) = (  0.7497470  0.4992501  0.2531153  )
        52           Zn  tau(  52) = (  0.7487689  0.7487689 -0.0081937  )
        53           S   tau(  53) = (  0.6260741  0.8730410  0.3776289  )
        54           S   tau(  54) = (  0.6260386  0.6260386  0.1255822  )
        55           S   tau(  55) = (  0.8740195  0.8740195  0.1236195  )
        56           S   tau(  56) = (  0.8730410  0.6260741  0.3776289  )
        57           Co  tau(  57) = (  0.5365473  0.5365473  0.5365473  )
        58           Zn  tau(  58) = (  0.5047015  0.6993471  0.6993471  )
        59           Zn  tau(  59) = (  0.6993471  0.5047015  0.6993471  )
        60           Zn  tau(  60) = (  0.6993471  0.6993471  0.5047015  )
        61           S   tau(  61) = (  0.6196619  0.8655878  0.8655878  )
        62           S   tau(  62) = (  0.8655878  0.8655878  0.6196619  )
        63           S   tau(  63) = (  0.8655878  0.6196619  0.8655878  )

     number of k points=    13 (tetrahedron method)
                       cart. coord. in units 2pi/alat
        k(    1) = (   0.0000000   0.0000000   0.0000000), wk =   0.0156250
        k(    2) = (   0.0000000   0.0000000   0.2500000), wk =   0.0937500
        k(    3) = (   0.0000000   0.0000000  -0.5000000), wk =   0.0468750
        k(    4) = (   0.0000000   0.2500000   0.2500000), wk =   0.0937500
        k(    5) = (   0.0000000   0.2500000  -0.5000000), wk =   0.1875000
        k(    6) = (   0.0000000  -0.5000000  -0.5000000), wk =   0.0468750
        k(    7) = (   0.2500000   0.2500000   0.2500000), wk =   0.0312500
        k(    8) = (   0.2500000   0.2500000  -0.5000000), wk =   0.0937500
        k(    9) = (   0.2500000  -0.5000000  -0.5000000), wk =   0.0937500
        k(   10) = (  -0.5000000  -0.5000000  -0.5000000), wk =   0.0156250
        k(   11) = (  -0.2500000   0.0000000   0.2500000), wk =   0.0937500
        k(   12) = (   0.2500000  -0.2500000   0.2500000), wk =   0.0937500
        k(   13) = (   0.2500000  -0.2500000  -0.5000000), wk =   0.0937500

                       cryst. coord.
        k(    1) = (   0.0000000   0.0000000   0.0000000), wk =   0.0156250
        k(    2) = (   0.0000000   0.0000000   0.2500000), wk =   0.0937500
        k(    3) = (   0.0000000   0.0000000  -0.5000000), wk =   0.0468750
        k(    4) = (   0.0000000   0.2500000   0.2500000), wk =   0.0937500
        k(    5) = (   0.0000000   0.2500000  -0.5000000), wk =   0.1875000
        k(    6) = (   0.0000000  -0.5000000  -0.5000000), wk =   0.0468750
        k(    7) = (   0.2500000   0.2500000   0.2500000), wk =   0.0312500
        k(    8) = (   0.2500000   0.2500000  -0.5000000), wk =   0.0937500
        k(    9) = (   0.2500000  -0.5000000  -0.5000000), wk =   0.0937500
        k(   10) = (  -0.5000000  -0.5000000  -0.5000000), wk =   0.0156250
        k(   11) = (  -0.2500000   0.0000000   0.2500000), wk =   0.0937500
        k(   12) = (   0.2500000  -0.2500000   0.2500000), wk =   0.0937500
        k(   13) = (   0.2500000  -0.2500000  -0.5000000), wk =   0.0937500

     Dense  grid:  2160009 G-vectors     FFT dimensions: ( 162, 162, 162)

     Dynamical RAM for                 wfc:      12.76 MB

     Dynamical RAM for     wfc (w. buffer):      63.80 MB

     Dynamical RAM for           str. fact:       0.88 MB

     Dynamical RAM for           local pot:       0.00 MB

     Dynamical RAM for          nlocal pot:      41.70 MB

     Dynamical RAM for                qrad:       5.90 MB

     Dynamical RAM for          rho,v,vnew:       4.17 MB

     Dynamical RAM for           G-vectors:       1.25 MB

     Dynamical RAM for          h,s,v(r/c):       2.44 MB

     Dynamical RAM for          <psi|beta>:       6.00 MB

     Dynamical RAM for                 psi:      25.52 MB

     Dynamical RAM for                hpsi:      25.52 MB

     Dynamical RAM for                spsi:      25.52 MB

     Dynamical RAM for      wfcinit/wfcrot:      34.28 MB

     Dynamical RAM for           addusdens:       9.67 MB

     Estimated static dynamical RAM per process >     121.28 MB

     Estimated max dynamical RAM per process >     206.29 MB

     Estimated total dynamical RAM >     157.94 GB

     Check: negative core charge=   -0.000001
     Generating pointlists ...
     new r_m :   0.0887 (alat units)  1.8246 (a.u.) for type    1
     new r_m :   0.0887 (alat units)  1.8246 (a.u.) for type    2
     new r_m :   0.0924 (alat units)  1.9011 (a.u.) for type    3

     The potential is recalculated from file :
     ./out/Co_vac_qn2.save/charge-density

     Starting wfcs are  413 randomized atomic wfcs
     Checking if some PAW data can be deallocated... 
       PAW data deallocated on  400 nodes for type:  1
       PAW data deallocated on  396 nodes for type:  2
       PAW data deallocated on  772 nodes for type:  3

     Band Structure Calculation
     Davidson diagonalization with overlap

     Computing kpt #:     1  of     4 on this pool
     total cpu time spent up to now is      104.0 secs

     Computing kpt #:     2  of     4 on this pool
     total cpu time spent up to now is      195.4 secs

     Computing kpt #:     3  of     4 on this pool
     c_bands:  2 eigenvalues not converged
     total cpu time spent up to now is      292.7 secs

     Computing kpt #:     4  of     4 on this pool
     total cpu time spent up to now is      381.9 secs

     ethr =  1.73E-12,  avg # of iterations =106.8

     total cpu time spent up to now is      384.6 secs

     End of band structure calculation

 ------ SPIN UP ------------


          k = 0.0000 0.0000 0.0000 (269825 PWs)   bands (ev):

   -88.1972 -52.4694 -50.9929 -50.9929  -7.5199  -7.0126  -7.0126  -6.9986
    -6.9851  -6.9851  -6.9586  -6.7662  -6.7550  -6.7550  -6.7346  -6.6987
    -6.6826  -6.6826  -6.6726  -6.6726  -6.6320  -6.6320  -6.5496  -6.4933
    -6.4863  -6.4863  -6.4250  -6.4076  -6.4076  -6.3334  -6.3168  -6.2336
    -6.2336  -6.1091  -6.1091  -0.9097  -0.9067  -0.9067  -0.8883  -0.8665
    -0.8665  -0.8373  -0.8371  -0.8371  -0.8055  -0.8055  -0.7984  -0.7976
    -0.7976  -0.7876  -0.7847  -0.7847  -0.7727  -0.7727  -0.7645  -0.7564
    -0.7524  -0.7524  -0.7448  -0.7395  -0.7395  -0.7317  -0.7263  -0.7263
    -0.7139  -0.7114  -0.7114  -0.7113  -0.7002  -0.6903  -0.6903  -0.6863
    -0.6829  -0.6829  -0.6624  -0.6624  -0.6619  -0.6615  -0.6501  -0.6501
    -0.6442  -0.6442  -0.6369  -0.6227  -0.6227  -0.6154  -0.6154  -0.6146
    -0.6108  -0.5854  -0.5854  -0.5831  -0.5831  -0.5761  -0.5745  -0.5613
    -0.5613  -0.5500  -0.5500  -0.5463  -0.5316  -0.5316  -0.5286  -0.5192
    -0.5098  -0.5098  -0.4887  -0.4887  -0.4879  -0.4866  -0.4854  -0.4844
    -0.4844  -0.4753  -0.4753  -0.4710  -0.4636  -0.4577  -0.4577  -0.4499
    -0.4499  -0.4381  -0.4381  -0.4345  -0.4299  -0.4299  -0.4125  -0.4104
    -0.4104  -0.4091  -0.4041  -0.3991  -0.3991  -0.3927  -0.3817  -0.3817
    -0.3788  -0.3788  -0.3743  -0.3599  -0.3599  -0.3481  -0.3477  -0.3386
    -0.3386  -0.3201  -0.3192  -0.3192  -0.3055  -0.3055  -0.2961  -0.2891
    -0.2869  -0.2869  -0.2839  -0.2713  -0.2707  -0.2707  -0.2673  -0.2673
    -0.2535  -0.2507  -0.2507  -0.2352  -0.2194  -0.2194  -0.2059  -0.1903
    -0.1903  -0.1832  -0.1743  -0.1539  -0.1495  -0.1495  -0.1240  -0.1240
    -0.1010  -0.1010  -0.0974  -0.0659  -0.0165  -0.0165  -0.0062   0.0069
     0.0069   0.0266   0.0266   0.0591   0.0591   0.1208   0.3500   0.3500
     0.3616   0.4131   0.8932   0.8932   0.9142   0.9437   0.9753   0.9753
     1.0048   1.0800   1.1514   1.1514   1.4260   1.4260   1.5268   1.5455
     1.5455   1.5512   1.5512   1.5703   1.9716   1.9716   2.1056   2.2748
     2.6550   2.6550   2.7442   2.7442   2.7646   2.7646   2.7723   2.7857
     2.8064   2.8064   2.8348   2.8348   2.8461   2.8689   2.9480   2.9480
     2.9687   2.9860   2.9888   2.9888   3.0296   3.0296   3.0885   3.0895
     3.0895   3.0997   3.1007   3.1007   3.2079   3.3904   3.4209   3.4209
     3.5870   3.5870   3.5905   4.0195   4.0196   4.1632   4.1992   4.2149
     4.2149   4.2509   4.2685   4.2686   4.3198   4.3321   4.3321   4.4116
     4.4227   4.4227   4.5014   4.5152   4.5152   4.5199   4.5304   4.5304
     4.5725   4.5725   4.6162   4.6311   4.6354   4.6354   4.7555   4.8270
     4.8270   4.9589   5.2921   5.2921   5.4146   5.7062   5.7062   6.2219
     6.2220   7.6420   8.3139   8.3139   8.6327   8.6658   8.6658   8.7580
     8.8156   8.8156   8.9527   8.9894   9.4138   9.4138   9.4920   9.6245
     9.6245   9.8012   9.8012   9.8063   9.9137  10.0119  10.0119  10.0172
    10.0172  10.0973  10.1283  10.1283  10.1566  10.1566  10.1807  10.1827
    10.1827  10.1928  10.2313  10.5541  10.5834  10.5834  10.9101  11.0967
    11.0967  11.1637  11.1637  11.2056  11.2478  11.2478  11.2606  11.4881
    11.6601  11.6601  11.7032  11.7919  11.8477  11.8911  11.8911  11.9136
    11.9136  11.9653  11.9653

     occupation numbers 
     1.0000   1.0000   1.0000   1.0000   1.0000   1.0000   1.0000   1.0000
     1.0000   1.0000   1.0000   1.0000   1.0000   1.0000   1.0000   1.0000
     1.0000   1.0000   1.0000   1.0000   1.0000   1.0000   1.0000   1.0000
     1.0000   1.0000   1.0000   1.0000   1.0000   1.0000   1.0000   1.0000
     1.0000   1.0000   1.0000   1.0000   1.0000   1.0000   1.0000   1.0000
     1.0000   1.0000   1.0000   1.0000   1.0000   1.0000   1.0000   1.0000
     1.0000   1.0000   1.0000   1.0000   1.0000   1.0000   1.0000   1.0000
     1.0000   1.0000   1.0000   1.0000   1.0000   1.0000   1.0000   1.0000
     1.0000   1.0000   1.0000   1.0000   1.0000   1.0000   1.0000   1.0000
     1.0000   1.0000   1.0000   1.0000   1.0000   1.0000   1.0000   1.0000
     1.0000   1.0000   1.0000   1.0000   1.0000   1.0000   1.0000   1.0000
     1.0000   1.0000   1.0000   1.0000   1.0000   1.0000   1.0000   1.0000
     1.0000   1.0000   1.0000   1.0000   1.0000   1.0000   1.0000   1.0000
     1.0000   1.0000   1.0000   1.0000   1.0000   1.0000   1.0000   1.0000
     1.0000   1.0000   1.0000   1.0000   1.0000   1.0000   1.0000   1.0000
     1.0000   1.0000   1.0000   1.0000   1.0000   1.0000   1.0000   1.0000
     1.0000   1.0000   1.0000   1.0000   1.0000   1.0000   1.0000   1.0000
     1.0000   1.0000   1.0000   1.0000   1.0000   1.0000   1.0000   1.0000
     1.0000   1.0000   1.0000   1.0000   1.0000   1.0000   1.0000   1.0000
     1.0000   1.0000   1.0000   1.0000   1.0000   1.0000   1.0000   1.0000
     1.0000   1.0000   1.0000   1.0000   1.0000   1.0000   1.0000   1.0000
     1.0000   1.0000   1.0000   1.0000   1.0000   1.0000   1.0000   1.0000
     1.0000   1.0000   1.0000   1.0000   1.0000   1.0000   1.0000   1.0000
     1.0000   1.0000   1.0000   1.0000   1.0000   1.0000   1.0000   1.0000
     1.0000   1.0000   1.0000   1.0000   1.0000   1.0000   1.0000   1.0000
     1.0000   1.0000   1.0000   1.0000   1.0000   1.0000   1.0000   1.0000
     1.0000   1.0000   1.0000   1.0000   1.0000   1.0000   1.0000   1.0000
     1.0000   1.0000   1.0000   1.0000   1.0000   1.0000   1.0000   1.0000
     1.0000   1.0000   1.0000   1.0000   1.0000   1.0000   1.0000   1.0000
     1.0000   1.0000   1.0000   1.0000   1.0000   1.0000   1.0000   1.0000
     1.0000   1.0000   1.0000   1.0000   1.0000   1.0000   1.0000   1.0000
     1.0000   1.0000   1.0000   1.0000   1.0000   1.0000   1.0000   1.0000
     1.0000   1.0000   1.0000   1.0000   1.0000   1.0000   1.0000   1.0000
     1.0000   1.0000   1.0000   1.0000   1.0000   1.0000   1.0000   1.0000
     1.0000   1.0000   1.0000   1.0000   1.0000   1.0000   1.0000   1.0000
     1.0000   1.0000   1.0000   1.0000   1.0000   1.0000   1.0000   1.0000
     1.0000   0.0000   0.0000   0.0000   0.0000   0.0000   0.0000   0.0000
     0.0000   0.0000   0.0000   0.0000   0.0000   0.0000   0.0000   0.0000
     0.0000   0.0000   0.0000   0.0000   0.0000   0.0000   0.0000   0.0000
     0.0000   0.0000   0.0000   0.0000   0.0000   0.0000   0.0000   0.0000
     0.0000   0.0000   0.0000   0.0000   0.0000   0.0000   0.0000   0.0000
     0.0000   0.0000   0.0000   0.0000   0.0000   0.0000   0.0000   0.0000
     0.0000   0.0000   0.0000   0.0000   0.0000   0.0000   0.0000   0.0000
     0.0000   0.0000   0.0000

          k = 0.0000 0.0000 0.2500 (269876 PWs)   bands (ev):

   -88.1972 -52.4694 -50.9929 -50.9929  -7.4857  -7.1940  -6.9929  -6.9846
    -6.9622  -6.9570  -6.8189  -6.8031  -6.7946  -6.7876  -6.7651  -6.7568
    -6.6990  -6.6722  -6.6622  -6.6259  -6.6051  -6.5629  -6.5409  -6.4926
    -6.4675  -6.4594  -6.4436  -6.4220  -6.4103  -6.3301  -6.3288  -6.2503
    -6.2385  -6.1219  -6.1122  -0.9064  -0.8984  -0.8967  -0.8755  -0.8593
    -0.8563  -0.8404  -0.8282  -0.8269  -0.8109  -0.8087  -0.8025  -0.7958
    -0.7946  -0.7907  -0.7859  -0.7844  -0.7710  -0.7696  -0.7630  -0.7614
    -0.7566  -0.7556  -0.7494  -0.7464  -0.7421  -0.7396  -0.7394  -0.7306
    -0.7221  -0.7141  -0.7101  -0.7086  -0.7056  -0.7040  -0.6902  -0.6891
    -0.6843  -0.6811  -0.6714  -0.6688  -0.6659  -0.6573  -0.6571  -0.6490
    -0.6487  -0.6394  -0.6379  -0.6303  -0.6289  -0.6210  -0.6164  -0.6136
    -0.6129  -0.6051  -0.6041  -0.5905  -0.5873  -0.5854  -0.5751  -0.5721
    -0.5680  -0.5629  -0.5552  -0.5457  -0.5415  -0.5294  -0.5200  -0.5194
    -0.5020  -0.4961  -0.4950  -0.4888  -0.4877  -0.4816  -0.4803  -0.4729
    -0.4707  -0.4701  -0.4663  -0.4598  -0.4592  -0.4552  -0.4514  -0.4448
    -0.4387  -0.4374  -0.4297  -0.4258  -0.4240  -0.4163  -0.4078  -0.4061
    -0.4004  -0.4001  -0.3966  -0.3948  -0.3888  -0.3880  -0.3819  -0.3812
    -0.3766  -0.3702  -0.3699  -0.3618  -0.3585  -0.3472  -0.3443  -0.3369
    -0.3348  -0.3226  -0.3156  -0.3078  -0.3067  -0.3016  -0.2969  -0.2920
    -0.2905  -0.2818  -0.2796  -0.2770  -0.2742  -0.2688  -0.2679  -0.2592
    -0.2578  -0.2554  -0.2443  -0.2419  -0.2337  -0.2257  -0.2132  -0.2131
    -0.2016  -0.1904  -0.1806  -0.1751  -0.1601  -0.1490  -0.1445  -0.1280
    -0.1185  -0.0976  -0.0936  -0.0791  -0.0362  -0.0291  -0.0073  -0.0032
     0.0021   0.0177   0.0219   0.0507   0.0513   0.0985   0.4791   0.5052
     0.5185   0.5548   0.8714   0.8947   0.9054   0.9462   0.9721   0.9888
     1.0289   1.0496   1.1029   1.2249   1.2329   1.2602   1.2882   1.3012
     1.5199   1.5309   1.5598   1.7719   1.8797   2.0909   2.0921   2.3472
     2.3594   2.5253   2.5485   2.5780   2.5817   2.6271   2.7014   2.7038
     2.7083   2.7328   2.8194   2.8559   2.8770   2.8973   2.9320   2.9765
     3.1025   3.1572   3.1664   3.1726   3.2164   3.2403   3.2686   3.2983
     3.3142   3.3617   3.3919   3.3942   3.4170   3.4216   3.4691   3.5143
     3.5913   3.5978   3.6534   3.8887   3.8899   4.0538   4.0691   4.1120
     4.1310   4.1469   4.1839   4.2147   4.2632   4.2728   4.3289   4.3411
     4.3509   4.3864   4.4194   4.4288   4.4615   4.5037   4.5243   4.5284
     4.5622   4.5815   4.6102   4.6407   4.6525   4.6740   4.7641   4.7877
     4.8271   4.8795   5.2015   5.2017   5.3632   5.6696   5.7035   6.2004
     6.2207   7.7864   8.2171   8.2870   8.6667   8.8717   8.9116   8.9187
     8.9846   9.0420   9.0580   9.2169   9.4314   9.4920   9.6055   9.6118
     9.6715   9.7184   9.7285   9.7848   9.8374   9.8858   9.9507  10.0279
    10.0529  10.0553  10.1064  10.1933  10.2141  10.2288  10.2600  10.3111
    10.3111  10.3851  10.4948  10.5046  10.5436  10.5462  10.5986  10.7482
    10.8070  10.9003  10.9130  11.0606  11.1370  11.1859  11.3451  11.3900
    11.5676  11.5957  11.6436  11.6518  11.7041  11.7121  11.7632  11.7740
    11.7950  11.8543  11.8599

     occupation numbers 
     1.0000   1.0000   1.0000   1.0000   1.0000   1.0000   1.0000   1.0000
     1.0000   1.0000   1.0000   1.0000   1.0000   1.0000   1.0000   1.0000
     1.0000   1.0000   1.0000   1.0000   1.0000   1.0000   1.0000   1.0000
     1.0000   1.0000   1.0000   1.0000   1.0000   1.0000   1.0000   1.0000
     1.0000   1.0000   1.0000   1.0000   1.0000   1.0000   1.0000   1.0000
     1.0000   1.0000   1.0000   1.0000   1.0000   1.0000   1.0000   1.0000
     1.0000   1.0000   1.0000   1.0000   1.0000   1.0000   1.0000   1.0000
     1.0000   1.0000   1.0000   1.0000   1.0000   1.0000   1.0000   1.0000
     1.0000   1.0000   1.0000   1.0000   1.0000   1.0000   1.0000   1.0000
     1.0000   1.0000   1.0000   1.0000   1.0000   1.0000   1.0000   1.0000
     1.0000   1.0000   1.0000   1.0000   1.0000   1.0000   1.0000   1.0000
     1.0000   1.0000   1.0000   1.0000   1.0000   1.0000   1.0000   1.0000
     1.0000   1.0000   1.0000   1.0000   1.0000   1.0000   1.0000   1.0000
     1.0000   1.0000   1.0000   1.0000   1.0000   1.0000   1.0000   1.0000
     1.0000   1.0000   1.0000   1.0000   1.0000   1.0000   1.0000   1.0000
     1.0000   1.0000   1.0000   1.0000   1.0000   1.0000   1.0000   1.0000
     1.0000   1.0000   1.0000   1.0000   1.0000   1.0000   1.0000   1.0000
     1.0000   1.0000   1.0000   1.0000   1.0000   1.0000   1.0000   1.0000
     1.0000   1.0000   1.0000   1.0000   1.0000   1.0000   1.0000   1.0000
     1.0000   1.0000   1.0000   1.0000   1.0000   1.0000   1.0000   1.0000
     1.0000   1.0000   1.0000   1.0000   1.0000   1.0000   1.0000   1.0000
     1.0000   1.0000   1.0000   1.0000   1.0000   1.0000   1.0000   1.0000
     1.0000   1.0000   1.0000   1.0000   1.0000   1.0000   1.0000   1.0000
     1.0000   1.0000   1.0000   1.0000   1.0000   1.0000   1.0000   1.0000
     1.0000   1.0000   1.0000   1.0000   1.0000   1.0000   1.0000   1.0000
     1.0000   1.0000   1.0000   1.0000   1.0000   1.0000   1.0000   1.0000
     1.0000   1.0000   1.0000   1.0000   1.0000   1.0000   1.0000   1.0000
     1.0000   1.0000   1.0000   1.0000   1.0000   1.0000   1.0000   1.0000
     1.0000   1.0000   1.0000   1.0000   1.0000   1.0000   1.0000   1.0000
     1.0000   1.0000   1.0000   1.0000   1.0000   1.0000   1.0000   1.0000
     1.0000   1.0000   1.0000   1.0000   1.0000   1.0000   1.0000   1.0000
     1.0000   1.0000   1.0000   1.0000   1.0000   1.0000   1.0000   1.0000
     1.0000   1.0000   1.0000   1.0000   1.0000   1.0000   1.0000   1.0000
     1.0000   1.0000   1.0000   1.0000   1.0000   1.0000   1.0000   1.0000
     1.0000   1.0000   1.0000   1.0000   1.0000   1.0000   1.0000   1.0000
     1.0000   1.0000   1.0000   1.0000   1.0000   1.0000   1.0000   1.0000
     1.0000   0.0000   0.0000   0.0000   0.0000   0.0000   0.0000   0.0000
     0.0000   0.0000   0.0000   0.0000   0.0000   0.0000   0.0000   0.0000
     0.0000   0.0000   0.0000   0.0000   0.0000   0.0000   0.0000   0.0000
     0.0000   0.0000   0.0000   0.0000   0.0000   0.0000   0.0000   0.0000
     0.0000   0.0000   0.0000   0.0000   0.0000   0.0000   0.0000   0.0000
     0.0000   0.0000   0.0000   0.0000   0.0000   0.0000   0.0000   0.0000
     0.0000   0.0000   0.0000   0.0000   0.0000   0.0000   0.0000   0.0000
     0.0000   0.0000   0.0000

          k = 0.0000 0.0000-0.5000 (270152 PWs)   bands (ev):

   -88.1972 -52.4694 -50.9929 -50.9929  -7.4188  -7.3191  -6.9613  -6.9595
    -6.9415  -6.9079  -6.8845  -6.8751  -6.8449  -6.7980  -6.7577  -6.7217
    -6.6666  -6.6573  -6.6236  -6.6157  -6.5949  -6.5601  -6.5095  -6.4910
    -6.4749  -6.4578  -6.4466  -6.4203  -6.3955  -6.3547  -6.3270  -6.2681
    -6.2432  -6.1361  -6.1153  -0.9050  -0.8839  -0.8824  -0.8576  -0.8501
    -0.8413  -0.8396  -0.8234  -0.8216  -0.8160  -0.8134  -0.8064  -0.7997
    -0.7951  -0.7880  -0.7854  -0.7782  -0.7782  -0.7740  -0.7685  -0.7669
    -0.7663  -0.7636  -0.7573  -0.7546  -0.7494  -0.7465  -0.7436  -0.7327
    -0.7274  -0.7140  -0.7123  -0.7108  -0.7070  -0.7028  -0.6964  -0.6933
    -0.6921  -0.6877  -0.6834  -0.6731  -0.6683  -0.6619  -0.6573  -0.6531
    -0.6493  -0.6402  -0.6346  -0.6311  -0.6248  -0.6220  -0.6191  -0.6155
    -0.6152  -0.6090  -0.6069  -0.5930  -0.5920  -0.5880  -0.5854  -0.5726
    -0.5698  -0.5667  -0.5579  -0.5534  -0.5444  -0.5140  -0.5130  -0.5050
    -0.5046  -0.4902  -0.4845  -0.4843  -0.4835  -0.4770  -0.4741  -0.4712
    -0.4705  -0.4684  -0.4641  -0.4621  -0.4560  -0.4532  -0.4464  -0.4425
    -0.4365  -0.4336  -0.4293  -0.4197  -0.4166  -0.4148  -0.4101  -0.4070
    -0.4038  -0.4014  -0.3945  -0.3932  -0.3912  -0.3888  -0.3809  -0.3803
    -0.3778  -0.3698  -0.3632  -0.3511  -0.3499  -0.3441  -0.3388  -0.3310
    -0.3299  -0.3293  -0.3250  -0.3142  -0.3055  -0.3005  -0.2996  -0.2974
    -0.2923  -0.2865  -0.2860  -0.2816  -0.2757  -0.2706  -0.2695  -0.2673
    -0.2574  -0.2556  -0.2516  -0.2393  -0.2387  -0.2167  -0.2140  -0.2014
    -0.2005  -0.1999  -0.1870  -0.1664  -0.1570  -0.1385  -0.1342  -0.1251
    -0.1147  -0.0902  -0.0837  -0.0793  -0.0677  -0.0534  -0.0294  -0.0178
    -0.0069   0.0086   0.0176   0.0453   0.0486   0.0683   0.5908   0.7900
     0.7954   0.8122   0.8759   0.8810   0.9088   0.9109   0.9128   0.9267
     0.9720   1.0020   1.0418   1.0516   1.0707   1.1000   1.1056   1.3596
     1.3915   1.4789   1.5191   1.7522   1.9354   2.1870   2.2607   2.3072
     2.3391   2.4170   2.4894   2.4956   2.5298   2.5412   2.5727   2.5754
     2.5853   2.5889   2.7148   2.8243   2.9296   2.9318   2.9824   3.0279
     3.1063   3.1894   3.1994   3.2644   3.4194   3.4891   3.5017   3.5381
     3.5740   3.6292   3.6466   3.6791   3.7134   3.7375   3.7505   3.7634
     3.7744   3.7799   3.7964   3.8109   3.8207   3.8303   3.8371   3.8399
     3.8728   3.8918   3.9102   3.9570   3.9772   4.1155   4.1371   4.1586
     4.2095   4.3325   4.3823   4.4685   4.4749   4.5151   4.5208   4.5469
     4.5812   4.5824   4.6041   4.6165   4.6429   4.6642   4.6943   4.8176
     4.9168   4.9776   5.0148   5.0508   5.3606   5.6304   5.7018   6.1823
     6.2193   7.7837   8.1516   8.5801   8.7546   8.8991   9.1455   9.1759
     9.3385   9.3391   9.4075   9.4354   9.4553   9.5057   9.5154   9.5442
     9.6114   9.6344   9.6736   9.6774   9.8593   9.8727   9.9281   9.9599
     9.9700  10.0366  10.0784  10.0790  10.1276  10.2211  10.2484  10.3822
    10.4175  10.4461  10.4489  10.5577  10.6256  10.6481  10.7376  10.7804
    10.8187  10.8560  10.8647  10.9009  10.9177  11.0192  11.0578  11.0610
    11.1007  11.1883  11.3069  11.4950  11.5293  11.5764  11.6791  11.6944
    11.7520  11.8356  11.8658

     occupation numbers 
     1.0000   1.0000   1.0000   1.0000   1.0000   1.0000   1.0000   1.0000
     1.0000   1.0000   1.0000   1.0000   1.0000   1.0000   1.0000   1.0000
     1.0000   1.0000   1.0000   1.0000   1.0000   1.0000   1.0000   1.0000
     1.0000   1.0000   1.0000   1.0000   1.0000   1.0000   1.0000   1.0000
     1.0000   1.0000   1.0000   1.0000   1.0000   1.0000   1.0000   1.0000
     1.0000   1.0000   1.0000   1.0000   1.0000   1.0000   1.0000   1.0000
     1.0000   1.0000   1.0000   1.0000   1.0000   1.0000   1.0000   1.0000
     1.0000   1.0000   1.0000   1.0000   1.0000   1.0000   1.0000   1.0000
     1.0000   1.0000   1.0000   1.0000   1.0000   1.0000   1.0000   1.0000
     1.0000   1.0000   1.0000   1.0000   1.0000   1.0000   1.0000   1.0000
     1.0000   1.0000   1.0000   1.0000   1.0000   1.0000   1.0000   1.0000
     1.0000   1.0000   1.0000   1.0000   1.0000   1.0000   1.0000   1.0000
     1.0000   1.0000   1.0000   1.0000   1.0000   1.0000   1.0000   1.0000
     1.0000   1.0000   1.0000   1.0000   1.0000   1.0000   1.0000   1.0000
     1.0000   1.0000   1.0000   1.0000   1.0000   1.0000   1.0000   1.0000
     1.0000   1.0000   1.0000   1.0000   1.0000   1.0000   1.0000   1.0000
     1.0000   1.0000   1.0000   1.0000   1.0000   1.0000   1.0000   1.0000
     1.0000   1.0000   1.0000   1.0000   1.0000   1.0000   1.0000   1.0000
     1.0000   1.0000   1.0000   1.0000   1.0000   1.0000   1.0000   1.0000
     1.0000   1.0000   1.0000   1.0000   1.0000   1.0000   1.0000   1.0000
     1.0000   1.0000   1.0000   1.0000   1.0000   1.0000   1.0000   1.0000
     1.0000   1.0000   1.0000   1.0000   1.0000   1.0000   1.0000   1.0000
     1.0000   1.0000   1.0000   1.0000   1.0000   1.0000   1.0000   1.0000
     1.0000   1.0000   1.0000   1.0000   1.0000   1.0000   1.0000   1.0000
     1.0000   1.0000   1.0000   1.0000   1.0000   1.0000   1.0000   1.0000
     1.0000   1.0000   1.0000   1.0000   1.0000   1.0000   1.0000   1.0000
     1.0000   1.0000   1.0000   1.0000   1.0000   1.0000   1.0000   1.0000
     1.0000   1.0000   1.0000   1.0000   1.0000   1.0000   1.0000   1.0000
     1.0000   1.0000   1.0000   1.0000   1.0000   1.0000   1.0000   1.0000
     1.0000   1.0000   1.0000   1.0000   1.0000   1.0000   1.0000   1.0000
     1.0000   1.0000   1.0000   1.0000   1.0000   1.0000   1.0000   1.0000
     1.0000   1.0000   1.0000   1.0000   1.0000   1.0000   1.0000   1.0000
     1.0000   1.0000   1.0000   1.0000   1.0000   1.0000   1.0000   1.0000
     1.0000   1.0000   1.0000   1.0000   1.0000   1.0000   1.0000   1.0000
     1.0000   1.0000   1.0000   1.0000   1.0000   1.0000   1.0000   1.0000
     1.0000   1.0000   1.0000   1.0000   1.0000   1.0000   1.0000   1.0000
     1.0000   0.0000   0.0000   0.0000   0.0000   0.0000   0.0000   0.0000
     0.0000   0.0000   0.0000   0.0000   0.0000   0.0000   0.0000   0.0000
     0.0000   0.0000   0.0000   0.0000   0.0000   0.0000   0.0000   0.0000
     0.0000   0.0000   0.0000   0.0000   0.0000   0.0000   0.0000   0.0000
     0.0000   0.0000   0.0000   0.0000   0.0000   0.0000   0.0000   0.0000
     0.0000   0.0000   0.0000   0.0000   0.0000   0.0000   0.0000   0.0000
     0.0000   0.0000   0.0000   0.0000   0.0000   0.0000   0.0000   0.0000
     0.0000   0.0000   0.0000

          k = 0.0000 0.2500 0.2500 (269929 PWs)   bands (ev):

   -88.1972 -52.4694 -50.9929 -50.9929  -7.4522  -7.1774  -7.1598  -6.9759
    -6.9485  -6.9239  -6.8090  -6.8072  -6.7972  -6.7790  -6.7585  -6.7579
    -6.6943  -6.6476  -6.6411  -6.6124  -6.5927  -6.5590  -6.5473  -6.4775
    -6.4648  -6.4522  -6.4405  -6.4307  -6.4132  -6.3416  -6.3244  -6.2649
    -6.2484  -6.1292  -6.1197  -0.8980  -0.8960  -0.8893  -0.8638  -0.8508
    -0.8487  -0.8312  -0.8285  -0.8207  -0.8144  -0.8121  -0.8030  -0.8004
    -0.7957  -0.7929  -0.7865  -0.7830  -0.7749  -0.7675  -0.7652  -0.7629
    -0.7587  -0.7573  -0.7545  -0.7496  -0.7492  -0.7397  -0.7347  -0.7312
    -0.7263  -0.7250  -0.7117  -0.7110  -0.7035  -0.7016  -0.7010  -0.6885
    -0.6830  -0.6819  -0.6754  -0.6666  -0.6636  -0.6612  -0.6600  -0.6532
    -0.6450  -0.6398  -0.6397  -0.6376  -0.6283  -0.6250  -0.6210  -0.6192
    -0.6085  -0.6017  -0.6015  -0.5908  -0.5892  -0.5849  -0.5781  -0.5777
    -0.5722  -0.5694  -0.5650  -0.5629  -0.5508  -0.5413  -0.5312  -0.5272
    -0.5033  -0.4984  -0.4978  -0.4894  -0.4870  -0.4824  -0.4797  -0.4758
    -0.4732  -0.4644  -0.4638  -0.4583  -0.4536  -0.4499  -0.4450  -0.4438
    -0.4377  -0.4315  -0.4275  -0.4271  -0.4187  -0.4156  -0.4107  -0.4070
    -0.4033  -0.3977  -0.3967  -0.3935  -0.3884  -0.3816  -0.3797  -0.3775
    -0.3748  -0.3730  -0.3611  -0.3596  -0.3527  -0.3450  -0.3407  -0.3403
    -0.3321  -0.3274  -0.3237  -0.3139  -0.3044  -0.3011  -0.3004  -0.2942
    -0.2889  -0.2877  -0.2799  -0.2740  -0.2705  -0.2663  -0.2641  -0.2584
    -0.2558  -0.2518  -0.2364  -0.2282  -0.2216  -0.2139  -0.2109  -0.2106
    -0.1964  -0.1898  -0.1843  -0.1663  -0.1575  -0.1520  -0.1309  -0.1305
    -0.1091  -0.0938  -0.0870  -0.0646  -0.0453  -0.0435  -0.0143  -0.0064
    -0.0045   0.0153   0.0190   0.0468   0.0507   0.0914   0.4455   0.4771
     0.6524   0.7831   0.8780   0.8882   0.8962   0.9394   0.9758   0.9950
     1.0156   1.0457   1.0460   1.0683   1.0992   1.2729   1.3072   1.3667
     1.4607   1.5362   1.6624   1.6629   1.8371   1.8754   2.0852   2.1904
     2.3383   2.4311   2.4734   2.5336   2.5747   2.6258   2.6420   2.7214
     2.7544   2.8026   2.9468   2.9653   2.9720   3.0014   3.0397   3.0418
     3.0876   3.1238   3.1399   3.1556   3.2439   3.2495   3.2916   3.3058
     3.3620   3.4232   3.4678   3.4934   3.5709   3.5912   3.6133   3.6761
     3.6911   3.7103   3.7834   3.7952   3.8420   3.9327   3.9554   4.0536
     4.0593   4.0647   4.1459   4.1659   4.2040   4.2321   4.2364   4.2689
     4.3065   4.3456   4.3559   4.3890   4.3989   4.4355   4.4802   4.5291
     4.5431   4.5737   4.5749   4.6135   4.6206   4.7272   4.7647   4.8222
     4.8338   4.8926   5.1121   5.2569   5.3327   5.6706   5.6982   6.2012
     6.2200   7.8885   8.1854   8.2671   8.6793   8.9536   9.0135   9.1121
     9.1258   9.1860   9.2113   9.3900   9.4659   9.4901   9.6474   9.6491
     9.6861   9.7211   9.7597   9.7910   9.8162   9.8360   9.8521   9.8999
     9.9071   9.9752  10.0127  10.1309  10.1594  10.1994  10.2055  10.2979
    10.3070  10.3853  10.4458  10.5739  10.6105  10.6694  10.7008  10.7764
    10.8037  10.8348  10.8484  10.9561  11.0301  11.1912  11.2207  11.2611
    11.2889  11.4308  11.5298  11.5371  11.6184  11.6547  11.6814  11.7286
    11.7415  11.7826  11.8064

     occupation numbers 
     1.0000   1.0000   1.0000   1.0000   1.0000   1.0000   1.0000   1.0000
     1.0000   1.0000   1.0000   1.0000   1.0000   1.0000   1.0000   1.0000
     1.0000   1.0000   1.0000   1.0000   1.0000   1.0000   1.0000   1.0000
     1.0000   1.0000   1.0000   1.0000   1.0000   1.0000   1.0000   1.0000
     1.0000   1.0000   1.0000   1.0000   1.0000   1.0000   1.0000   1.0000
     1.0000   1.0000   1.0000   1.0000   1.0000   1.0000   1.0000   1.0000
     1.0000   1.0000   1.0000   1.0000   1.0000   1.0000   1.0000   1.0000
     1.0000   1.0000   1.0000   1.0000   1.0000   1.0000   1.0000   1.0000
     1.0000   1.0000   1.0000   1.0000   1.0000   1.0000   1.0000   1.0000
     1.0000   1.0000   1.0000   1.0000   1.0000   1.0000   1.0000   1.0000
     1.0000   1.0000   1.0000   1.0000   1.0000   1.0000   1.0000   1.0000
     1.0000   1.0000   1.0000   1.0000   1.0000   1.0000   1.0000   1.0000
     1.0000   1.0000   1.0000   1.0000   1.0000   1.0000   1.0000   1.0000
     1.0000   1.0000   1.0000   1.0000   1.0000   1.0000   1.0000   1.0000
     1.0000   1.0000   1.0000   1.0000   1.0000   1.0000   1.0000   1.0000
     1.0000   1.0000   1.0000   1.0000   1.0000   1.0000   1.0000   1.0000
     1.0000   1.0000   1.0000   1.0000   1.0000   1.0000   1.0000   1.0000
     1.0000   1.0000   1.0000   1.0000   1.0000   1.0000   1.0000   1.0000
     1.0000   1.0000   1.0000   1.0000   1.0000   1.0000   1.0000   1.0000
     1.0000   1.0000   1.0000   1.0000   1.0000   1.0000   1.0000   1.0000
     1.0000   1.0000   1.0000   1.0000   1.0000   1.0000   1.0000   1.0000
     1.0000   1.0000   1.0000   1.0000   1.0000   1.0000   1.0000   1.0000
     1.0000   1.0000   1.0000   1.0000   1.0000   1.0000   1.0000   1.0000
     1.0000   1.0000   1.0000   1.0000   1.0000   1.0000   1.0000   1.0000
     1.0000   1.0000   1.0000   1.0000   1.0000   1.0000   1.0000   1.0000
     1.0000   1.0000   1.0000   1.0000   1.0000   1.0000   1.0000   1.0000
     1.0000   1.0000   1.0000   1.0000   1.0000   1.0000   1.0000   1.0000
     1.0000   1.0000   1.0000   1.0000   1.0000   1.0000   1.0000   1.0000
     1.0000   1.0000   1.0000   1.0000   1.0000   1.0000   1.0000   1.0000
     1.0000   1.0000   1.0000   1.0000   1.0000   1.0000   1.0000   1.0000
     1.0000   1.0000   1.0000   1.0000   1.0000   1.0000   1.0000   1.0000
     1.0000   1.0000   1.0000   1.0000   1.0000   1.0000   1.0000   1.0000
     1.0000   1.0000   1.0000   1.0000   1.0000   1.0000   1.0000   1.0000
     1.0000   1.0000   1.0000   1.0000   1.0000   1.0000   1.0000   1.0000
     1.0000   1.0000   1.0000   1.0000   1.0000   1.0000   1.0000   1.0000
     1.0000   1.0000   1.0000   1.0000   1.0000   1.0000   1.0000   1.0000
     1.0000   0.0000   0.0000   0.0000   0.0000   0.0000   0.0000   0.0000
     0.0000   0.0000   0.0000   0.0000   0.0000   0.0000   0.0000   0.0000
     0.0000   0.0000   0.0000   0.0000   0.0000   0.0000   0.0000   0.0000
     0.0000   0.0000   0.0000   0.0000   0.0000   0.0000   0.0000   0.0000
     0.0000   0.0000   0.0000   0.0000   0.0000   0.0000   0.0000   0.0000
     0.0000   0.0000   0.0000   0.0000   0.0000   0.0000   0.0000   0.0000
     0.0000   0.0000   0.0000   0.0000   0.0000   0.0000   0.0000   0.0000
     0.0000   0.0000   0.0000

          k = 0.0000 0.2500-0.5000 (269962 PWs)   bands (ev):

   -88.1972 -52.4694 -50.9929 -50.9929  -7.3870  -7.2904  -7.1238  -7.0274
    -6.9444  -6.9079  -6.8519  -6.8336  -6.7999  -6.7734  -6.7550  -6.6884
    -6.6598  -6.6415  -6.6263  -6.6188  -6.5833  -6.5458  -6.5067  -6.4957
    -6.4740  -6.4621  -6.4442  -6.4212  -6.4024  -6.3587  -6.3226  -6.2821
    -6.2550  -6.1415  -6.1236  -0.8963  -0.8838  -0.8779  -0.8462  -0.8407
    -0.8364  -0.8310  -0.8237  -0.8207  -0.8157  -0.8139  -0.8077  -0.8032
    -0.7963  -0.7920  -0.7882  -0.7840  -0.7780  -0.7748  -0.7712  -0.7660
    -0.7638  -0.7593  -0.7552  -0.7509  -0.7484  -0.7462  -0.7437  -0.7344
    -0.7317  -0.7262  -0.7154  -0.7113  -0.7070  -0.7040  -0.7003  -0.6929
    -0.6885  -0.6801  -0.6763  -0.6728  -0.6652  -0.6601  -0.6569  -0.6509
    -0.6480  -0.6394  -0.6367  -0.6319  -0.6303  -0.6246  -0.6222  -0.6152
    -0.6128  -0.6098  -0.6050  -0.5966  -0.5921  -0.5896  -0.5849  -0.5764
    -0.5753  -0.5682  -0.5609  -0.5558  -0.5502  -0.5429  -0.5299  -0.5201
    -0.5175  -0.5105  -0.5011  -0.4979  -0.4938  -0.4883  -0.4812  -0.4798
    -0.4760  -0.4741  -0.4697  -0.4618  -0.4553  -0.4520  -0.4491  -0.4420
    -0.4403  -0.4357  -0.4308  -0.4241  -0.4214  -0.4132  -0.4075  -0.4059
    -0.4032  -0.4005  -0.3957  -0.3911  -0.3871  -0.3838  -0.3780  -0.3750
    -0.3711  -0.3655  -0.3608  -0.3561  -0.3513  -0.3432  -0.3376  -0.3333
    -0.3301  -0.3201  -0.3152  -0.3085  -0.3037  -0.2992  -0.2947  -0.2904
    -0.2873  -0.2842  -0.2795  -0.2719  -0.2689  -0.2654  -0.2634  -0.2545
    -0.2529  -0.2464  -0.2319  -0.2282  -0.2223  -0.2100  -0.2065  -0.2003
    -0.1912  -0.1852  -0.1782  -0.1700  -0.1595  -0.1540  -0.1297  -0.1246
    -0.1049  -0.0883  -0.0779  -0.0627  -0.0513  -0.0461  -0.0283  -0.0117
    -0.0071   0.0054   0.0154   0.0470   0.0486   0.0748   0.5761   0.6432
     0.6935   0.7323   0.7942   0.8551   0.8822   0.9308   0.9412   0.9633
     1.0139   1.0387   1.0952   1.1239   1.1756   1.2224   1.2621   1.3049
     1.3816   1.4601   1.5262   1.7949   1.8093   1.9227   1.9827   2.1516
     2.1996   2.3356   2.4100   2.4625   2.6522   2.6629   2.7060   2.7213
     2.7600   2.7846   2.8115   2.8382   2.8646   2.9551   3.0144   3.1432
     3.1701   3.2776   3.3308   3.3740   3.3893   3.4293   3.4458   3.4809
     3.4941   3.5335   3.5476   3.5685   3.6003   3.6098   3.6450   3.7110
     3.7515   3.7839   3.8246   3.8461   3.8659   3.8943   3.9221   3.9617
     3.9733   4.0247   4.0608   4.0688   4.0988   4.1085   4.1449   4.1716
     4.2231   4.2464   4.2884   4.3046   4.3472   4.3779   4.4062   4.4411
     4.4812   4.5352   4.5599   4.6091   4.6454   4.7353   4.8368   4.8905
     4.9178   4.9514   5.0487   5.1739   5.3495   5.6404   5.6847   6.1872
     6.2139   7.9045   8.0799   8.4603   8.9051   8.9856   9.2300   9.2728
     9.3056   9.3681   9.3793   9.4475   9.4609   9.5066   9.5566   9.6211
     9.6466   9.6691   9.7175   9.7598   9.7760   9.7991   9.8152   9.8458
     9.8998   9.9140   9.9799  10.0444  10.0839  10.1648  10.1991  10.2953
    10.3809  10.4032  10.4480  10.5195  10.5445  10.6072  10.6705  10.6969
    10.8249  10.8416  10.8950  11.0092  11.0846  11.1521  11.2008  11.2483
    11.2716  11.3072  11.3378  11.3717  11.3999  11.4692  11.5143  11.5653
    11.5901  11.6445  11.6824

     occupation numbers 
     1.0000   1.0000   1.0000   1.0000   1.0000   1.0000   1.0000   1.0000
     1.0000   1.0000   1.0000   1.0000   1.0000   1.0000   1.0000   1.0000
     1.0000   1.0000   1.0000   1.0000   1.0000   1.0000   1.0000   1.0000
     1.0000   1.0000   1.0000   1.0000   1.0000   1.0000   1.0000   1.0000
     1.0000   1.0000   1.0000   1.0000   1.0000   1.0000   1.0000   1.0000
     1.0000   1.0000   1.0000   1.0000   1.0000   1.0000   1.0000   1.0000
     1.0000   1.0000   1.0000   1.0000   1.0000   1.0000   1.0000   1.0000
     1.0000   1.0000   1.0000   1.0000   1.0000   1.0000   1.0000   1.0000
     1.0000   1.0000   1.0000   1.0000   1.0000   1.0000   1.0000   1.0000
     1.0000   1.0000   1.0000   1.0000   1.0000   1.0000   1.0000   1.0000
     1.0000   1.0000   1.0000   1.0000   1.0000   1.0000   1.0000   1.0000
     1.0000   1.0000   1.0000   1.0000   1.0000   1.0000   1.0000   1.0000
     1.0000   1.0000   1.0000   1.0000   1.0000   1.0000   1.0000   1.0000
     1.0000   1.0000   1.0000   1.0000   1.0000   1.0000   1.0000   1.0000
     1.0000   1.0000   1.0000   1.0000   1.0000   1.0000   1.0000   1.0000
     1.0000   1.0000   1.0000   1.0000   1.0000   1.0000   1.0000   1.0000
     1.0000   1.0000   1.0000   1.0000   1.0000   1.0000   1.0000   1.0000
     1.0000   1.0000   1.0000   1.0000   1.0000   1.0000   1.0000   1.0000
     1.0000   1.0000   1.0000   1.0000   1.0000   1.0000   1.0000   1.0000
     1.0000   1.0000   1.0000   1.0000   1.0000   1.0000   1.0000   1.0000
     1.0000   1.0000   1.0000   1.0000   1.0000   1.0000   1.0000   1.0000
     1.0000   1.0000   1.0000   1.0000   1.0000   1.0000   1.0000   1.0000
     1.0000   1.0000   1.0000   1.0000   1.0000   1.0000   1.0000   1.0000
     1.0000   1.0000   1.0000   1.0000   1.0000   1.0000   1.0000   1.0000
     1.0000   1.0000   1.0000   1.0000   1.0000   1.0000   1.0000   1.0000
     1.0000   1.0000   1.0000   1.0000   1.0000   1.0000   1.0000   1.0000
     1.0000   1.0000   1.0000   1.0000   1.0000   1.0000   1.0000   1.0000
     1.0000   1.0000   1.0000   1.0000   1.0000   1.0000   1.0000   1.0000
     1.0000   1.0000   1.0000   1.0000   1.0000   1.0000   1.0000   1.0000
     1.0000   1.0000   1.0000   1.0000   1.0000   1.0000   1.0000   1.0000
     1.0000   1.0000   1.0000   1.0000   1.0000   1.0000   1.0000   1.0000
     1.0000   1.0000   1.0000   1.0000   1.0000   1.0000   1.0000   1.0000
     1.0000   1.0000   1.0000   1.0000   1.0000   1.0000   1.0000   1.0000
     1.0000   1.0000   1.0000   1.0000   1.0000   1.0000   1.0000   1.0000
     1.0000   1.0000   1.0000   1.0000   1.0000   1.0000   1.0000   1.0000
     1.0000   1.0000   1.0000   1.0000   1.0000   1.0000   1.0000   1.0000
     1.0000   0.0000   0.0000   0.0000   0.0000   0.0000   0.0000   0.0000
     0.0000   0.0000   0.0000   0.0000   0.0000   0.0000   0.0000   0.0000
     0.0000   0.0000   0.0000   0.0000   0.0000   0.0000   0.0000   0.0000
     0.0000   0.0000   0.0000   0.0000   0.0000   0.0000   0.0000   0.0000
     0.0000   0.0000   0.0000   0.0000   0.0000   0.0000   0.0000   0.0000
     0.0000   0.0000   0.0000   0.0000   0.0000   0.0000   0.0000   0.0000
     0.0000   0.0000   0.0000   0.0000   0.0000   0.0000   0.0000   0.0000
     0.0000   0.0000   0.0000

          k = 0.0000-0.5000-0.5000 (269920 PWs)   bands (ev):

   -88.1972 -52.4694 -50.9929 -50.9929  -7.3238  -7.2435  -7.2356  -7.1247
    -6.9248  -6.8791  -6.8434  -6.8396  -6.8288  -6.8116  -6.6965  -6.6558
    -6.6514  -6.6182  -6.6003  -6.5767  -6.5725  -6.5328  -6.5311  -6.5169
    -6.4919  -6.4651  -6.4332  -6.4197  -6.3997  -6.3634  -6.3139  -6.3121
    -6.2626  -6.1497  -6.1295  -0.8846  -0.8839  -0.8716  -0.8422  -0.8293
    -0.8271  -0.8255  -0.8219  -0.8214  -0.8160  -0.8147  -0.8117  -0.7988
    -0.7945  -0.7922  -0.7882  -0.7875  -0.7800  -0.7779  -0.7760  -0.7661
    -0.7635  -0.7608  -0.7570  -0.7474  -0.7471  -0.7444  -0.7379  -0.7349
    -0.7268  -0.7252  -0.7207  -0.7164  -0.7161  -0.7073  -0.7038  -0.6863
    -0.6841  -0.6838  -0.6743  -0.6705  -0.6699  -0.6632  -0.6583  -0.6479
    -0.6474  -0.6415  -0.6402  -0.6369  -0.6363  -0.6287  -0.6159  -0.6132
    -0.6102  -0.6073  -0.6056  -0.6007  -0.5987  -0.5970  -0.5824  -0.5805
    -0.5738  -0.5727  -0.5655  -0.5644  -0.5559  -0.5471  -0.5470  -0.5450
    -0.5334  -0.5161  -0.5153  -0.5070  -0.5039  -0.4980  -0.4963  -0.4784
    -0.4747  -0.4733  -0.4717  -0.4597  -0.4525  -0.4505  -0.4480  -0.4380
    -0.4373  -0.4365  -0.4315  -0.4300  -0.4227  -0.4124  -0.4055  -0.4034
    -0.4034  -0.3999  -0.3936  -0.3907  -0.3846  -0.3842  -0.3747  -0.3670
    -0.3663  -0.3651  -0.3597  -0.3565  -0.3463  -0.3424  -0.3376  -0.3217
    -0.3181  -0.3164  -0.3092  -0.3062  -0.3050  -0.2996  -0.2912  -0.2884
    -0.2818  -0.2798  -0.2776  -0.2742  -0.2734  -0.2606  -0.2557  -0.2539
    -0.2494  -0.2461  -0.2345  -0.2317  -0.2225  -0.2149  -0.2127  -0.2042
    -0.1921  -0.1901  -0.1686  -0.1627  -0.1538  -0.1332  -0.1218  -0.1121
    -0.0898  -0.0833  -0.0587  -0.0437  -0.0339  -0.0328  -0.0278  -0.0112
    -0.0043   0.0002   0.0202   0.0490   0.0525   0.0868   0.6126   0.6240
     0.6583   0.6855   0.7161   0.7835   0.8511   0.8596   0.8668   0.9185
     0.9849   0.9898   1.1031   1.2934   1.3332   1.3745   1.4379   1.4866
     1.4915   1.5965   1.5979   1.6126   1.6371   1.6471   1.7625   1.9713
     2.0284   2.2570   2.3717   2.4446   2.5077   2.5083   2.6039   2.9996
     3.0735   3.0747   3.0869   3.0959   3.1321   3.1465   3.1695   3.1911
     3.2085   3.2213   3.2357   3.2507   3.2633   3.2854   3.3364   3.4030
     3.4534   3.4850   3.4996   3.5359   3.5443   3.5742   3.5909   3.6705
     3.6881   3.7066   3.7426   3.8360   3.8773   3.9383   3.9723   3.9842
     4.0136   4.0201   4.0422   4.0861   4.1363   4.1687   4.1914   4.2354
     4.2359   4.2811   4.2871   4.3015   4.3595   4.4007   4.4105   4.4360
     4.4856   4.5099   4.5615   4.5687   4.5928   4.6174   4.6536   4.6925
     5.0256   5.0697   5.1200   5.2734   5.3138   5.6214   5.6932   6.1801
     6.2210   8.0149   8.0252   8.4757   8.8882   9.1696   9.2325   9.2978
     9.3297   9.3766   9.3946   9.4021   9.4113   9.4362   9.4856   9.5013
     9.5813   9.5965   9.7847   9.8450   9.8466   9.9790   9.9822   9.9881
     9.9904  10.0592  10.0853  10.0874  10.1145  10.1675  10.1851  10.1888
    10.2210  10.2419  10.2728  10.2881  10.3171  10.3655  10.3778  10.5530
    10.6809  10.8491  10.9466  11.0775  11.2272  11.2449  11.2530  11.3314
    11.3568  11.3889  11.4205  11.4239  11.4417  11.4791  11.4934  11.5365
    11.6158  11.6299  11.6368

     occupation numbers 
     1.0000   1.0000   1.0000   1.0000   1.0000   1.0000   1.0000   1.0000
     1.0000   1.0000   1.0000   1.0000   1.0000   1.0000   1.0000   1.0000
     1.0000   1.0000   1.0000   1.0000   1.0000   1.0000   1.0000   1.0000
     1.0000   1.0000   1.0000   1.0000   1.0000   1.0000   1.0000   1.0000
     1.0000   1.0000   1.0000   1.0000   1.0000   1.0000   1.0000   1.0000
     1.0000   1.0000   1.0000   1.0000   1.0000   1.0000   1.0000   1.0000
     1.0000   1.0000   1.0000   1.0000   1.0000   1.0000   1.0000   1.0000
     1.0000   1.0000   1.0000   1.0000   1.0000   1.0000   1.0000   1.0000
     1.0000   1.0000   1.0000   1.0000   1.0000   1.0000   1.0000   1.0000
     1.0000   1.0000   1.0000   1.0000   1.0000   1.0000   1.0000   1.0000
     1.0000   1.0000   1.0000   1.0000   1.0000   1.0000   1.0000   1.0000
     1.0000   1.0000   1.0000   1.0000   1.0000   1.0000   1.0000   1.0000
     1.0000   1.0000   1.0000   1.0000   1.0000   1.0000   1.0000   1.0000
     1.0000   1.0000   1.0000   1.0000   1.0000   1.0000   1.0000   1.0000
     1.0000   1.0000   1.0000   1.0000   1.0000   1.0000   1.0000   1.0000
     1.0000   1.0000   1.0000   1.0000   1.0000   1.0000   1.0000   1.0000
     1.0000   1.0000   1.0000   1.0000   1.0000   1.0000   1.0000   1.0000
     1.0000   1.0000   1.0000   1.0000   1.0000   1.0000   1.0000   1.0000
     1.0000   1.0000   1.0000   1.0000   1.0000   1.0000   1.0000   1.0000
     1.0000   1.0000   1.0000   1.0000   1.0000   1.0000   1.0000   1.0000
     1.0000   1.0000   1.0000   1.0000   1.0000   1.0000   1.0000   1.0000
     1.0000   1.0000   1.0000   1.0000   1.0000   1.0000   1.0000   1.0000
     1.0000   1.0000   1.0000   1.0000   1.0000   1.0000   1.0000   1.0000
     1.0000   1.0000   1.0000   1.0000   1.0000   1.0000   1.0000   1.0000
     1.0000   1.0000   1.0000   1.0000   1.0000   1.0000   1.0000   1.0000
     1.0000   1.0000   1.0000   1.0000   1.0000   1.0000   1.0000   1.0000
     1.0000   1.0000   1.0000   1.0000   1.0000   1.0000   1.0000   1.0000
     1.0000   1.0000   1.0000   1.0000   1.0000   1.0000   1.0000   1.0000
     1.0000   1.0000   1.0000   1.0000   1.0000   1.0000   1.0000   1.0000
     1.0000   1.0000   1.0000   1.0000   1.0000   1.0000   1.0000   1.0000
     1.0000   1.0000   1.0000   1.0000   1.0000   1.0000   1.0000   1.0000
     1.0000   1.0000   1.0000   1.0000   1.0000   1.0000   1.0000   1.0000
     1.0000   1.0000   1.0000   1.0000   1.0000   1.0000   1.0000   1.0000
     1.0000   1.0000   1.0000   1.0000   1.0000   1.0000   1.0000   1.0000
     1.0000   1.0000   1.0000   1.0000   1.0000   1.0000   1.0000   1.0000
     1.0000   1.0000   1.0000   1.0000   1.0000   1.0000   1.0000   1.0000
     1.0000   0.0000   0.0000   0.0000   0.0000   0.0000   0.0000   0.0000
     0.0000   0.0000   0.0000   0.0000   0.0000   0.0000   0.0000   0.0000
     0.0000   0.0000   0.0000   0.0000   0.0000   0.0000   0.0000   0.0000
     0.0000   0.0000   0.0000   0.0000   0.0000   0.0000   0.0000   0.0000
     0.0000   0.0000   0.0000   0.0000   0.0000   0.0000   0.0000   0.0000
     0.0000   0.0000   0.0000   0.0000   0.0000   0.0000   0.0000   0.0000
     0.0000   0.0000   0.0000   0.0000   0.0000   0.0000   0.0000   0.0000
     0.0000   0.0000   0.0000

          k = 0.2500 0.2500 0.2500 (269935 PWs)   bands (ev):

   -88.1972 -52.4694 -50.9929 -50.9929  -7.4197  -7.1503  -7.1503  -7.1330
    -6.9385  -6.9385  -6.8903  -6.7760  -6.7598  -6.7598  -6.7172  -6.6887
    -6.6887  -6.6608  -6.6512  -6.5903  -6.5903  -6.5434  -6.5434  -6.4832
    -6.4636  -6.4636  -6.4276  -6.4276  -6.4116  -6.3561  -6.3217  -6.2695
    -6.2695  -6.1319  -6.1319  -0.8908  -0.8886  -0.8886  -0.8544  -0.8428
    -0.8428  -0.8240  -0.8209  -0.8209  -0.8161  -0.8161  -0.8031  -0.8024
    -0.7971  -0.7971  -0.7851  -0.7851  -0.7736  -0.7697  -0.7687  -0.7687
    -0.7613  -0.7613  -0.7592  -0.7495  -0.7495  -0.7393  -0.7328  -0.7328
    -0.7303  -0.7235  -0.7235  -0.7104  -0.7022  -0.7022  -0.6997  -0.6935
    -0.6935  -0.6824  -0.6823  -0.6697  -0.6697  -0.6656  -0.6481  -0.6481
    -0.6430  -0.6430  -0.6310  -0.6304  -0.6294  -0.6294  -0.6094  -0.6094
    -0.6078  -0.6078  -0.6039  -0.5955  -0.5935  -0.5935  -0.5912  -0.5795
    -0.5726  -0.5726  -0.5499  -0.5499  -0.5485  -0.5352  -0.5316  -0.5316
    -0.5187  -0.5187  -0.5037  -0.4958  -0.4941  -0.4941  -0.4816  -0.4816
    -0.4765  -0.4765  -0.4758  -0.4606  -0.4493  -0.4493  -0.4454  -0.4387
    -0.4387  -0.4332  -0.4306  -0.4306  -0.4119  -0.4104  -0.4104  -0.4058
    -0.4058  -0.4005  -0.3996  -0.3854  -0.3824  -0.3824  -0.3763  -0.3763
    -0.3719  -0.3713  -0.3545  -0.3545  -0.3508  -0.3356  -0.3356  -0.3354
    -0.3216  -0.3216  -0.3112  -0.3112  -0.3094  -0.2987  -0.2981  -0.2981
    -0.2959  -0.2846  -0.2846  -0.2687  -0.2687  -0.2633  -0.2630  -0.2562
    -0.2562  -0.2508  -0.2270  -0.2270  -0.2185  -0.2142  -0.2142  -0.1892
    -0.1892  -0.1865  -0.1784  -0.1676  -0.1493  -0.1493  -0.1386  -0.1386
    -0.1138  -0.0974  -0.0974  -0.0682  -0.0501  -0.0501  -0.0179  -0.0179
    -0.0103   0.0134   0.0134   0.0518   0.0518   0.0692   0.5774   0.5774
     0.5925   0.7331   0.8464   0.8464   0.9461   0.9704   0.9820   0.9820
     1.0102   1.0102   1.0906   1.1760   1.1760   1.2091   1.3133   1.3133
     1.3465   1.4968   1.5529   1.5529   1.7597   2.0153   2.0153   2.2162
     2.2162   2.4090   2.5927   2.5927   2.6447   2.6899   2.6899   2.7208
     2.7390   2.7725   2.7725   2.8815   3.0068   3.0068   3.0827   3.1310
     3.1310   3.2324   3.2324   3.2627   3.2916   3.2916   3.2924   3.3835
     3.3835   3.4327   3.4864   3.4864   3.5187   3.5777   3.6230   3.6230
     3.7014   3.7366   3.7366   3.9219   3.9283   3.9283   3.9504   4.0071
     4.0071   4.0641   4.0822   4.0822   4.1392   4.1392   4.1525   4.1753
     4.2480   4.2480   4.2746   4.3026   4.4221   4.4221   4.4628   4.4640
     4.4640   4.6848   4.7006   4.7006   4.7282   4.7460   4.7460   4.8546
     4.8546   4.9543   5.1615   5.1615   5.3139   5.7026   5.7026   6.2204
     6.2206   8.0750   8.1698   8.1698   8.7221   8.8183   9.1741   9.1741
     9.2671   9.2671   9.2853   9.3518   9.3809   9.3809   9.5280   9.5720
     9.5720   9.7252   9.7252   9.7712   9.8918   9.8918   9.9130   9.9628
     9.9628  10.0524  10.1030  10.1030  10.1175  10.1750  10.1984  10.1984
    10.2703  10.2703  10.3317  10.3474  10.3474  10.3708  10.6716  10.6716
    10.8635  11.0453  11.0453  11.0784  11.0805  11.2236  11.2731  11.2731
    11.3444  11.3444  11.3547  11.4887  11.5341  11.5341  11.6642  11.6642
    11.7042  11.7453  11.7453

     occupation numbers 
     1.0000   1.0000   1.0000   1.0000   1.0000   1.0000   1.0000   1.0000
     1.0000   1.0000   1.0000   1.0000   1.0000   1.0000   1.0000   1.0000
     1.0000   1.0000   1.0000   1.0000   1.0000   1.0000   1.0000   1.0000
     1.0000   1.0000   1.0000   1.0000   1.0000   1.0000   1.0000   1.0000
     1.0000   1.0000   1.0000   1.0000   1.0000   1.0000   1.0000   1.0000
     1.0000   1.0000   1.0000   1.0000   1.0000   1.0000   1.0000   1.0000
     1.0000   1.0000   1.0000   1.0000   1.0000   1.0000   1.0000   1.0000
     1.0000   1.0000   1.0000   1.0000   1.0000   1.0000   1.0000   1.0000
     1.0000   1.0000   1.0000   1.0000   1.0000   1.0000   1.0000   1.0000
     1.0000   1.0000   1.0000   1.0000   1.0000   1.0000   1.0000   1.0000
     1.0000   1.0000   1.0000   1.0000   1.0000   1.0000   1.0000   1.0000
     1.0000   1.0000   1.0000   1.0000   1.0000   1.0000   1.0000   1.0000
     1.0000   1.0000   1.0000   1.0000   1.0000   1.0000   1.0000   1.0000
     1.0000   1.0000   1.0000   1.0000   1.0000   1.0000   1.0000   1.0000
     1.0000   1.0000   1.0000   1.0000   1.0000   1.0000   1.0000   1.0000
     1.0000   1.0000   1.0000   1.0000   1.0000   1.0000   1.0000   1.0000
     1.0000   1.0000   1.0000   1.0000   1.0000   1.0000   1.0000   1.0000
     1.0000   1.0000   1.0000   1.0000   1.0000   1.0000   1.0000   1.0000
     1.0000   1.0000   1.0000   1.0000   1.0000   1.0000   1.0000   1.0000
     1.0000   1.0000   1.0000   1.0000   1.0000   1.0000   1.0000   1.0000
     1.0000   1.0000   1.0000   1.0000   1.0000   1.0000   1.0000   1.0000
     1.0000   1.0000   1.0000   1.0000   1.0000   1.0000   1.0000   1.0000
     1.0000   1.0000   1.0000   1.0000   1.0000   1.0000   1.0000   1.0000
     1.0000   1.0000   1.0000   1.0000   1.0000   1.0000   1.0000   1.0000
     1.0000   1.0000   1.0000   1.0000   1.0000   1.0000   1.0000   1.0000
     1.0000   1.0000   1.0000   1.0000   1.0000   1.0000   1.0000   1.0000
     1.0000   1.0000   1.0000   1.0000   1.0000   1.0000   1.0000   1.0000
     1.0000   1.0000   1.0000   1.0000   1.0000   1.0000   1.0000   1.0000
     1.0000   1.0000   1.0000   1.0000   1.0000   1.0000   1.0000   1.0000
     1.0000   1.0000   1.0000   1.0000   1.0000   1.0000   1.0000   1.0000
     1.0000   1.0000   1.0000   1.0000   1.0000   1.0000   1.0000   1.0000
     1.0000   1.0000   1.0000   1.0000   1.0000   1.0000   1.0000   1.0000
     1.0000   1.0000   1.0000   1.0000   1.0000   1.0000   1.0000   1.0000
     1.0000   1.0000   1.0000   1.0000   1.0000   1.0000   1.0000   1.0000
     1.0000   1.0000   1.0000   1.0000   1.0000   1.0000   1.0000   1.0000
     1.0000   1.0000   1.0000   1.0000   1.0000   1.0000   1.0000   1.0000
     1.0000   0.0000   0.0000   0.0000   0.0000   0.0000   0.0000   0.0000
     0.0000   0.0000   0.0000   0.0000   0.0000   0.0000   0.0000   0.0000
     0.0000   0.0000   0.0000   0.0000   0.0000   0.0000   0.0000   0.0000
     0.0000   0.0000   0.0000   0.0000   0.0000   0.0000   0.0000   0.0000
     0.0000   0.0000   0.0000   0.0000   0.0000   0.0000   0.0000   0.0000
     0.0000   0.0000   0.0000   0.0000   0.0000   0.0000   0.0000   0.0000
     0.0000   0.0000   0.0000   0.0000   0.0000   0.0000   0.0000   0.0000
     0.0000   0.0000   0.0000

          k = 0.2500 0.2500-0.5000 (269988 PWs)   bands (ev):

   -88.1972 -52.4694 -50.9929 -50.9929  -7.3566  -7.2619  -7.1086  -7.0925
    -7.0379  -6.9739  -6.9063  -6.7739  -6.7382  -6.7375  -6.7055  -6.6916
    -6.6501  -6.6346  -6.6300  -6.5743  -6.5729  -6.5445  -6.5148  -6.4941
    -6.4810  -6.4753  -6.4266  -6.4227  -6.4068  -6.3704  -6.3218  -6.2890
    -6.2745  -6.1453  -6.1349  -0.8893  -0.8797  -0.8782  -0.8404  -0.8322
    -0.8315  -0.8234  -0.8216  -0.8200  -0.8171  -0.8142  -0.8067  -0.8045
    -0.7963  -0.7958  -0.7896  -0.7853  -0.7828  -0.7795  -0.7741  -0.7721
    -0.7644  -0.7635  -0.7607  -0.7487  -0.7487  -0.7437  -0.7392  -0.7342
    -0.7325  -0.7257  -0.7230  -0.7081  -0.7081  -0.6995  -0.6962  -0.6960
    -0.6898  -0.6817  -0.6772  -0.6683  -0.6619  -0.6605  -0.6526  -0.6526
    -0.6463  -0.6429  -0.6378  -0.6334  -0.6276  -0.6259  -0.6224  -0.6194
    -0.6133  -0.6116  -0.6016  -0.5979  -0.5915  -0.5859  -0.5835  -0.5782
    -0.5781  -0.5700  -0.5605  -0.5598  -0.5452  -0.5410  -0.5338  -0.5280
    -0.5200  -0.5132  -0.5099  -0.5040  -0.4995  -0.4971  -0.4902  -0.4850
    -0.4840  -0.4796  -0.4742  -0.4689  -0.4580  -0.4513  -0.4486  -0.4428
    -0.4384  -0.4352  -0.4323  -0.4297  -0.4180  -0.4113  -0.4084  -0.4026
    -0.4008  -0.3987  -0.3939  -0.3875  -0.3787  -0.3785  -0.3750  -0.3722
    -0.3694  -0.3559  -0.3543  -0.3483  -0.3468  -0.3370  -0.3301  -0.3264
    -0.3220  -0.3218  -0.3090  -0.3081  -0.2992  -0.2980  -0.2928  -0.2885
    -0.2883  -0.2845  -0.2781  -0.2728  -0.2723  -0.2698  -0.2607  -0.2556
    -0.2537  -0.2396  -0.2371  -0.2314  -0.2210  -0.2140  -0.2124  -0.2027
    -0.1910  -0.1882  -0.1743  -0.1742  -0.1620  -0.1462  -0.1427  -0.1269
    -0.1076  -0.0909  -0.0746  -0.0640  -0.0588  -0.0434  -0.0243  -0.0199
    -0.0097   0.0017   0.0112   0.0503   0.0510   0.0602   0.5706   0.6836
     0.7234   0.7845   0.8156   0.8659   0.9031   0.9254   0.9788   0.9807
     1.0181   1.0199   1.0680   1.0840   1.1064   1.1647   1.2529   1.3533
     1.3852   1.4807   1.6199   1.6273   1.6623   1.8770   1.8956   2.1044
     2.3208   2.4864   2.5911   2.6024   2.6360   2.6512   2.6945   2.7273
     2.7848   2.7937   2.8319   2.8521   2.9338   2.9773   2.9797   3.0351
     3.2305   3.2911   3.3212   3.3653   3.3999   3.4132   3.4703   3.4896
     3.5147   3.5156   3.5537   3.5627   3.6406   3.6448   3.6661   3.6679
     3.6834   3.7148   3.7329   3.7430   3.7994   3.8102   3.8335   3.8366
     3.8960   3.9223   3.9928   4.0112   4.0395   4.0747   4.1654   4.2014
     4.2273   4.2742   4.2764   4.3493   4.3536   4.4226   4.4390   4.4777
     4.5367   4.5475   4.5946   4.7465   4.7789   4.8740   4.8799   4.9325
     4.9930   5.0021   5.0421   5.1340   5.3014   5.6631   5.6973   6.2012
     6.2166   7.9583   8.2114   8.3861   8.8727   8.9627   9.0352   9.0647
     9.1810   9.3151   9.3685   9.4006   9.4828   9.4902   9.5797   9.5895
     9.6186   9.6553   9.6876   9.7128   9.7895   9.7919   9.8374   9.8524
     9.8897   9.8915   9.9578  10.0089  10.0149  10.0712  10.1576  10.1582
    10.3172  10.3172  10.3369  10.4654  10.5933  10.6064  10.6656  10.7178
    10.7829  10.9110  10.9955  11.0506  11.0972  11.1676  11.2889  11.3012
    11.3648  11.4197  11.4693  11.4797  11.5383  11.5729  11.5829  11.5983
    11.6236  11.6526  11.6668

     occupation numbers 
     1.0000   1.0000   1.0000   1.0000   1.0000   1.0000   1.0000   1.0000
     1.0000   1.0000   1.0000   1.0000   1.0000   1.0000   1.0000   1.0000
     1.0000   1.0000   1.0000   1.0000   1.0000   1.0000   1.0000   1.0000
     1.0000   1.0000   1.0000   1.0000   1.0000   1.0000   1.0000   1.0000
     1.0000   1.0000   1.0000   1.0000   1.0000   1.0000   1.0000   1.0000
     1.0000   1.0000   1.0000   1.0000   1.0000   1.0000   1.0000   1.0000
     1.0000   1.0000   1.0000   1.0000   1.0000   1.0000   1.0000   1.0000
     1.0000   1.0000   1.0000   1.0000   1.0000   1.0000   1.0000   1.0000
     1.0000   1.0000   1.0000   1.0000   1.0000   1.0000   1.0000   1.0000
     1.0000   1.0000   1.0000   1.0000   1.0000   1.0000   1.0000   1.0000
     1.0000   1.0000   1.0000   1.0000   1.0000   1.0000   1.0000   1.0000
     1.0000   1.0000   1.0000   1.0000   1.0000   1.0000   1.0000   1.0000
     1.0000   1.0000   1.0000   1.0000   1.0000   1.0000   1.0000   1.0000
     1.0000   1.0000   1.0000   1.0000   1.0000   1.0000   1.0000   1.0000
     1.0000   1.0000   1.0000   1.0000   1.0000   1.0000   1.0000   1.0000
     1.0000   1.0000   1.0000   1.0000   1.0000   1.0000   1.0000   1.0000
     1.0000   1.0000   1.0000   1.0000   1.0000   1.0000   1.0000   1.0000
     1.0000   1.0000   1.0000   1.0000   1.0000   1.0000   1.0000   1.0000
     1.0000   1.0000   1.0000   1.0000   1.0000   1.0000   1.0000   1.0000
     1.0000   1.0000   1.0000   1.0000   1.0000   1.0000   1.0000   1.0000
     1.0000   1.0000   1.0000   1.0000   1.0000   1.0000   1.0000   1.0000
     1.0000   1.0000   1.0000   1.0000   1.0000   1.0000   1.0000   1.0000
     1.0000   1.0000   1.0000   1.0000   1.0000   1.0000   1.0000   1.0000
     1.0000   1.0000   1.0000   1.0000   1.0000   1.0000   1.0000   1.0000
     1.0000   1.0000   1.0000   1.0000   1.0000   1.0000   1.0000   1.0000
     1.0000   1.0000   1.0000   1.0000   1.0000   1.0000   1.0000   1.0000
     1.0000   1.0000   1.0000   1.0000   1.0000   1.0000   1.0000   1.0000
     1.0000   1.0000   1.0000   1.0000   1.0000   1.0000   1.0000   1.0000
     1.0000   1.0000   1.0000   1.0000   1.0000   1.0000   1.0000   1.0000
     1.0000   1.0000   1.0000   1.0000   1.0000   1.0000   1.0000   1.0000
     1.0000   1.0000   1.0000   1.0000   1.0000   1.0000   1.0000   1.0000
     1.0000   1.0000   1.0000   1.0000   1.0000   1.0000   1.0000   1.0000
     1.0000   1.0000   1.0000   1.0000   1.0000   1.0000   1.0000   1.0000
     1.0000   1.0000   1.0000   1.0000   1.0000   1.0000   1.0000   1.0000
     1.0000   1.0000   1.0000   1.0000   1.0000   1.0000   1.0000   1.0000
     1.0000   1.0000   1.0000   1.0000   1.0000   1.0000   1.0000   1.0000
     1.0000   0.0000   0.0000   0.0000   0.0000   0.0000   0.0000   0.0000
     0.0000   0.0000   0.0000   0.0000   0.0000   0.0000   0.0000   0.0000
     0.0000   0.0000   0.0000   0.0000   0.0000   0.0000   0.0000   0.0000
     0.0000   0.0000   0.0000   0.0000   0.0000   0.0000   0.0000   0.0000
     0.0000   0.0000   0.0000   0.0000   0.0000   0.0000   0.0000   0.0000
     0.0000   0.0000   0.0000   0.0000   0.0000   0.0000   0.0000   0.0000
     0.0000   0.0000   0.0000   0.0000   0.0000   0.0000   0.0000   0.0000
     0.0000   0.0000   0.0000

          k = 0.2500-0.5000-0.5000 (269956 PWs)   bands (ev):

   -88.1972 -52.4694 -50.9929 -50.9929  -7.2969  -7.2146  -7.2078  -7.1104
    -7.0567  -6.9903  -6.9755  -6.7993  -6.7424  -6.6874  -6.6817  -6.6490
    -6.6163  -6.6021  -6.5773  -6.5755  -6.5709  -6.5372  -6.5329  -6.5110
    -6.4980  -6.4631  -6.4321  -6.4227  -6.4044  -6.3793  -6.3175  -6.3141
    -6.2850  -6.1536  -6.1425  -0.8802  -0.8794  -0.8728  -0.8369  -0.8252
    -0.8250  -0.8232  -0.8215  -0.8192  -0.8153  -0.8152  -0.8100  -0.7989
    -0.7958  -0.7920  -0.7898  -0.7889  -0.7825  -0.7820  -0.7785  -0.7758
    -0.7678  -0.7678  -0.7614  -0.7486  -0.7474  -0.7420  -0.7398  -0.7333
    -0.7318  -0.7254  -0.7239  -0.7117  -0.7116  -0.6975  -0.6965  -0.6896
    -0.6892  -0.6800  -0.6762  -0.6674  -0.6635  -0.6620  -0.6591  -0.6528
    -0.6511  -0.6485  -0.6436  -0.6372  -0.6331  -0.6257  -0.6233  -0.6158
    -0.6109  -0.6089  -0.6028  -0.5951  -0.5909  -0.5808  -0.5756  -0.5740
    -0.5714  -0.5650  -0.5558  -0.5522  -0.5485  -0.5471  -0.5423  -0.5355
    -0.5321  -0.5203  -0.5184  -0.5159  -0.5101  -0.5055  -0.4991  -0.4924
    -0.4826  -0.4767  -0.4717  -0.4710  -0.4689  -0.4562  -0.4524  -0.4491
    -0.4404  -0.4355  -0.4350  -0.4304  -0.4218  -0.4093  -0.4080  -0.3990
    -0.3962  -0.3929  -0.3899  -0.3831  -0.3822  -0.3735  -0.3723  -0.3672
    -0.3637  -0.3550  -0.3529  -0.3512  -0.3387  -0.3337  -0.3291  -0.3212
    -0.3158  -0.3150  -0.3074  -0.3050  -0.3043  -0.2950  -0.2884  -0.2851
    -0.2819  -0.2806  -0.2725  -0.2690  -0.2678  -0.2609  -0.2559  -0.2554
    -0.2462  -0.2393  -0.2336  -0.2316  -0.2268  -0.2179  -0.2092  -0.2088
    -0.2063  -0.1809  -0.1759  -0.1697  -0.1601  -0.1547  -0.1329  -0.1328
    -0.1099  -0.1038  -0.0821  -0.0690  -0.0563  -0.0498  -0.0402  -0.0248
    -0.0127   0.0076   0.0158   0.0500   0.0510   0.0563   0.6455   0.7146
     0.7437   0.7678   0.8197   0.8493   0.8670   0.9242   0.9253   0.9395
     0.9862   1.0113   1.1338   1.2008   1.2371   1.2718   1.2775   1.3085
     1.3136   1.3507   1.3701   1.6251   1.7312   1.7809   2.0405   2.1365
     2.1657   2.2806   2.4903   2.6190   2.6492   2.6813   2.7601   2.9617
     3.0285   3.0377   3.0598   3.0703   3.0915   3.0998   3.1118   3.1314
     3.1346   3.1730   3.1763   3.2167   3.2313   3.2513   3.2553   3.2838
     3.3326   3.3838   3.5682   3.6188   3.6205   3.6432   3.6626   3.6644
     3.6924   3.7081   3.7342   3.7488   3.7686   3.7825   3.8120   3.9005
     3.9051   3.9426   3.9712   3.9762   3.9923   4.0213   4.0448   4.1152
     4.1238   4.2018   4.2239   4.2556   4.4766   4.5009   4.5827   4.6529
     4.6638   4.7113   4.7445   4.7676   4.7970   4.8234   4.8584   4.9079
     5.0046   5.0563   5.0766   5.2149   5.2461   5.6595   5.6946   6.1972
     6.2193   8.1021   8.1145   8.5189   8.7801   8.9212   8.9546   9.0035
     9.0875   9.1424   9.2549   9.4425   9.5202   9.5313   9.5552   9.6037
     9.6075   9.6728   9.6730   9.7123   9.7230   9.7278   9.7478   9.7559
     9.8052   9.8895   9.9002   9.9361   9.9788   9.9853   9.9957  10.1656
    10.2079  10.2346  10.3126  10.5586  10.6715  10.6875  10.7118  10.7543
    10.9337  10.9508  11.0291  11.0754  11.2257  11.2479  11.2994  11.3587
    11.3902  11.4037  11.4461  11.4958  11.5107  11.5191  11.5655  11.6034
    11.6815  11.7538  11.7707

     occupation numbers 
     1.0000   1.0000   1.0000   1.0000   1.0000   1.0000   1.0000   1.0000
     1.0000   1.0000   1.0000   1.0000   1.0000   1.0000   1.0000   1.0000
     1.0000   1.0000   1.0000   1.0000   1.0000   1.0000   1.0000   1.0000
     1.0000   1.0000   1.0000   1.0000   1.0000   1.0000   1.0000   1.0000
     1.0000   1.0000   1.0000   1.0000   1.0000   1.0000   1.0000   1.0000
     1.0000   1.0000   1.0000   1.0000   1.0000   1.0000   1.0000   1.0000
     1.0000   1.0000   1.0000   1.0000   1.0000   1.0000   1.0000   1.0000
     1.0000   1.0000   1.0000   1.0000   1.0000   1.0000   1.0000   1.0000
     1.0000   1.0000   1.0000   1.0000   1.0000   1.0000   1.0000   1.0000
     1.0000   1.0000   1.0000   1.0000   1.0000   1.0000   1.0000   1.0000
     1.0000   1.0000   1.0000   1.0000   1.0000   1.0000   1.0000   1.0000
     1.0000   1.0000   1.0000   1.0000   1.0000   1.0000   1.0000   1.0000
[...]
     7.0286   7.9168   8.3418   8.5091   8.7058   8.9300   9.0082   9.1126
     9.1619   9.1893   9.2373   9.3809   9.4115   9.5670   9.6399   9.6726
     9.6825   9.7445   9.7718   9.7918   9.8223   9.8453   9.8608   9.8715
     9.9017   9.9902  10.0503  10.0898  10.1293  10.1758  10.2211  10.3116
    10.3341  10.4400  10.4537  10.5612  10.6001  10.6356  10.6983  10.7708
    10.8064  10.8351  10.8541  10.9623  11.0676  11.1690  11.2157  11.3038
    11.3860  11.4487  11.4895  11.5402  11.5922  11.6347  11.6498  11.6840
    11.7096  11.7656  11.8263

     occupation numbers 
     1.0000   1.0000   1.0000   1.0000   1.0000   1.0000   1.0000   1.0000
     1.0000   1.0000   1.0000   1.0000   1.0000   1.0000   1.0000   1.0000
     1.0000   1.0000   1.0000   1.0000   1.0000   1.0000   1.0000   1.0000
     1.0000   1.0000   1.0000   1.0000   1.0000   1.0000   1.0000   1.0000
     1.0000   1.0000   1.0000   1.0000   1.0000   1.0000   1.0000   1.0000
     1.0000   1.0000   1.0000   1.0000   1.0000   1.0000   1.0000   1.0000
     1.0000   1.0000   1.0000   1.0000   1.0000   1.0000   1.0000   1.0000
     1.0000   1.0000   1.0000   1.0000   1.0000   1.0000   1.0000   1.0000
     1.0000   1.0000   1.0000   1.0000   1.0000   1.0000   1.0000   1.0000
     1.0000   1.0000   1.0000   1.0000   1.0000   1.0000   1.0000   1.0000
     1.0000   1.0000   1.0000   1.0000   1.0000   1.0000   1.0000   1.0000
     1.0000   1.0000   1.0000   1.0000   1.0000   1.0000   1.0000   1.0000
     1.0000   1.0000   1.0000   1.0000   1.0000   1.0000   1.0000   1.0000
     1.0000   1.0000   1.0000   1.0000   1.0000   1.0000   1.0000   1.0000
     1.0000   1.0000   1.0000   1.0000   1.0000   1.0000   1.0000   1.0000
     1.0000   1.0000   1.0000   1.0000   1.0000   1.0000   1.0000   1.0000
     1.0000   1.0000   1.0000   1.0000   1.0000   1.0000   1.0000   1.0000
     1.0000   1.0000   1.0000   1.0000   1.0000   1.0000   1.0000   1.0000
     1.0000   1.0000   1.0000   1.0000   1.0000   1.0000   1.0000   1.0000
     1.0000   1.0000   1.0000   1.0000   1.0000   1.0000   1.0000   1.0000
     1.0000   1.0000   1.0000   1.0000   1.0000   1.0000   1.0000   1.0000
     1.0000   1.0000   1.0000   1.0000   1.0000   1.0000   1.0000   1.0000
     1.0000   1.0000   1.0000   1.0000   1.0000   1.0000   1.0000   1.0000
     1.0000   1.0000   1.0000   1.0000   1.0000   1.0000   1.0000   1.0000
     1.0000   1.0000   1.0000   1.0000   1.0000   1.0000   1.0000   1.0000
     1.0000   1.0000   1.0000   1.0000   1.0000   1.0000   1.0000   1.0000
     1.0000   1.0000   1.0000   1.0000   1.0000   1.0000   1.0000   1.0000
     1.0000   1.0000   1.0000   1.0000   1.0000   1.0000   1.0000   1.0000
     1.0000   1.0000   1.0000   1.0000   1.0000   1.0000   1.0000   1.0000
     1.0000   1.0000   1.0000   1.0000   1.0000   1.0000   1.0000   1.0000
     1.0000   1.0000   1.0000   1.0000   1.0000   1.0000   1.0000   1.0000
     1.0000   1.0000   1.0000   1.0000   1.0000   1.0000   1.0000   1.0000
     1.0000   1.0000   1.0000   1.0000   1.0000   1.0000   1.0000   1.0000
     1.0000   1.0000   1.0000   1.0000   1.0000   1.0000   1.0000   1.0000
     1.0000   1.0000   1.0000   1.0000   1.0000   1.0000   1.0000   1.0000
     1.0000   1.0000   1.0000   1.0000   1.0000   1.0000   1.0000   1.0000
     0.0000   0.0000   0.0000   0.0000   0.0000   0.0000   0.0000   0.0000
     0.0000   0.0000   0.0000   0.0000   0.0000   0.0000   0.0000   0.0000
     0.0000   0.0000   0.0000   0.0000   0.0000   0.0000   0.0000   0.0000
     0.0000   0.0000   0.0000   0.0000   0.0000   0.0000   0.0000   0.0000
     0.0000   0.0000   0.0000   0.0000   0.0000   0.0000   0.0000   0.0000
     0.0000   0.0000   0.0000   0.0000   0.0000   0.0000   0.0000   0.0000
     0.0000   0.0000   0.0000   0.0000   0.0000   0.0000   0.0000   0.0000
     0.0000   0.0000   0.0000

          k = 0.2500-0.2500 0.2500 (269935 PWs)   bands (ev):

   -86.7619 -50.4242 -49.9272 -49.9272  -7.4201  -7.1519  -7.1512  -7.1316
    -6.9422  -6.9286  -6.9022  -6.7758  -6.7588  -6.7588  -6.7124  -6.6874
    -6.6863  -6.6826  -6.6477  -6.6140  -6.5745  -6.5422  -6.5104  -6.4816
    -6.4696  -6.4572  -6.4492  -6.4417  -6.4178  -6.3570  -6.3226  -6.2644
    -6.2594  -6.1333  -6.1330  -0.8904  -0.8890  -0.8882  -0.8506  -0.8434
    -0.8425  -0.8275  -0.8211  -0.8208  -0.8140  -0.8113  -0.8073  -0.8060
    -0.7971  -0.7927  -0.7863  -0.7855  -0.7785  -0.7726  -0.7670  -0.7670
    -0.7648  -0.7597  -0.7582  -0.7518  -0.7464  -0.7452  -0.7395  -0.7350
    -0.7293  -0.7211  -0.7190  -0.7128  -0.7116  -0.7024  -0.6942  -0.6918
    -0.6847  -0.6825  -0.6718  -0.6659  -0.6646  -0.6603  -0.6553  -0.6518
    -0.6455  -0.6391  -0.6371  -0.6342  -0.6303  -0.6281  -0.6200  -0.6195
    -0.6133  -0.6130  -0.6038  -0.5992  -0.5890  -0.5857  -0.5830  -0.5794
    -0.5702  -0.5682  -0.5510  -0.5488  -0.5450  -0.5397  -0.5286  -0.5245
    -0.5183  -0.5140  -0.5092  -0.5082  -0.4982  -0.4865  -0.4856  -0.4844
    -0.4759  -0.4737  -0.4700  -0.4610  -0.4605  -0.4512  -0.4483  -0.4450
    -0.4402  -0.4400  -0.4365  -0.4289  -0.4184  -0.4129  -0.4095  -0.4073
    -0.4056  -0.3945  -0.3925  -0.3901  -0.3819  -0.3809  -0.3768  -0.3756
    -0.3691  -0.3678  -0.3615  -0.3556  -0.3540  -0.3447  -0.3387  -0.3360
    -0.3325  -0.3257  -0.3138  -0.3115  -0.3055  -0.2957  -0.2937  -0.2898
    -0.2891  -0.2801  -0.2800  -0.2745  -0.2711  -0.2659  -0.2615  -0.2559
    -0.2502  -0.2392  -0.2390  -0.2277  -0.2246  -0.2201  -0.2175  -0.2019
    -0.1970  -0.1816  -0.1810  -0.1766  -0.1717  -0.1536  -0.1512  -0.1278
    -0.1126  -0.0939  -0.0931  -0.0650  -0.0528  -0.0493  -0.0245  -0.0215
    -0.0193  -0.0006   0.0030   0.0367   0.0389   0.0676   0.5539   0.5839
     0.6063   0.7777   0.8312   0.8418   0.9317   0.9474   0.9818   0.9851
     1.0043   1.0106   1.0990   1.1383   1.1733   1.1847   1.2722   1.3333
     1.3428   1.4717   1.6503   1.6640   1.7718   1.9640   2.0071   2.1674
     2.2062   2.3791   2.5660   2.6197   2.6227   2.6702   2.6887   2.7025
     2.7271   2.7956   2.8030   2.8627   3.0123   3.0399   3.0750   3.1052
     3.1755   3.2416   3.2693   3.2766   3.3037   3.3098   3.3399   3.3754
     3.3987   3.4250   3.4588   3.5119   3.5596   3.5839   3.6896   3.7079
     3.7353   3.7892   3.7989   3.8944   3.8967   3.9521   3.9744   3.9974
     4.0056   4.0332   4.0895   4.1138   4.1559   4.1603   4.1786   4.1936
     4.2220   4.2370   4.2618   4.3216   4.3379   4.4381   4.5145   4.5814
     4.6114   4.6367   4.7000   4.7116   4.7401   4.7539   4.8220   4.8970
     4.9611   4.9885   5.2066   5.2304   6.0491   6.1256   6.8822   6.9134
     7.0345   7.9387   8.4039   8.5807   8.7116   8.8191   9.1484   9.2059
     9.2364   9.2591   9.2889   9.3388   9.3718   9.4291   9.5408   9.5697
     9.5832   9.7087   9.7325   9.7740   9.8797   9.9291   9.9416   9.9926
    10.0227  10.0612  10.1003  10.1099  10.1482  10.1518  10.2037  10.2055
    10.2506  10.2588  10.2908  10.2947  10.3396  10.4391  10.6666  10.7380
    10.8244  11.0355  11.0395  11.0752  11.1510  11.2070  11.2634  11.2780
    11.3173  11.3537  11.3700  11.4686  11.5222  11.6037  11.6475  11.6907
    11.7162  11.7516  11.7550

     occupation numbers 
     1.0000   1.0000   1.0000   1.0000   1.0000   1.0000   1.0000   1.0000
     1.0000   1.0000   1.0000   1.0000   1.0000   1.0000   1.0000   1.0000
     1.0000   1.0000   1.0000   1.0000   1.0000   1.0000   1.0000   1.0000
     1.0000   1.0000   1.0000   1.0000   1.0000   1.0000   1.0000   1.0000
     1.0000   1.0000   1.0000   1.0000   1.0000   1.0000   1.0000   1.0000
     1.0000   1.0000   1.0000   1.0000   1.0000   1.0000   1.0000   1.0000
     1.0000   1.0000   1.0000   1.0000   1.0000   1.0000   1.0000   1.0000
     1.0000   1.0000   1.0000   1.0000   1.0000   1.0000   1.0000   1.0000
     1.0000   1.0000   1.0000   1.0000   1.0000   1.0000   1.0000   1.0000
     1.0000   1.0000   1.0000   1.0000   1.0000   1.0000   1.0000   1.0000
     1.0000   1.0000   1.0000   1.0000   1.0000   1.0000   1.0000   1.0000
     1.0000   1.0000   1.0000   1.0000   1.0000   1.0000   1.0000   1.0000
     1.0000   1.0000   1.0000   1.0000   1.0000   1.0000   1.0000   1.0000
     1.0000   1.0000   1.0000   1.0000   1.0000   1.0000   1.0000   1.0000
     1.0000   1.0000   1.0000   1.0000   1.0000   1.0000   1.0000   1.0000
     1.0000   1.0000   1.0000   1.0000   1.0000   1.0000   1.0000   1.0000
     1.0000   1.0000   1.0000   1.0000   1.0000   1.0000   1.0000   1.0000
     1.0000   1.0000   1.0000   1.0000   1.0000   1.0000   1.0000   1.0000
     1.0000   1.0000   1.0000   1.0000   1.0000   1.0000   1.0000   1.0000
     1.0000   1.0000   1.0000   1.0000   1.0000   1.0000   1.0000   1.0000
     1.0000   1.0000   1.0000   1.0000   1.0000   1.0000   1.0000   1.0000
     1.0000   1.0000   1.0000   1.0000   1.0000   1.0000   1.0000   1.0000
     1.0000   1.0000   1.0000   1.0000   1.0000   1.0000   1.0000   1.0000
     1.0000   1.0000   1.0000   1.0000   1.0000   1.0000   1.0000   1.0000
     1.0000   1.0000   1.0000   1.0000   1.0000   1.0000   1.0000   1.0000
     1.0000   1.0000   1.0000   1.0000   1.0000   1.0000   1.0000   1.0000
     1.0000   1.0000   1.0000   1.0000   1.0000   1.0000   1.0000   1.0000
     1.0000   1.0000   1.0000   1.0000   1.0000   1.0000   1.0000   1.0000
     1.0000   1.0000   1.0000   1.0000   1.0000   1.0000   1.0000   1.0000
     1.0000   1.0000   1.0000   1.0000   1.0000   1.0000   1.0000   1.0000
     1.0000   1.0000   1.0000   1.0000   1.0000   1.0000   1.0000   1.0000
     1.0000   1.0000   1.0000   1.0000   1.0000   1.0000   1.0000   1.0000
     1.0000   1.0000   1.0000   1.0000   1.0000   1.0000   1.0000   1.0000
     1.0000   1.0000   1.0000   1.0000   1.0000   1.0000   1.0000   1.0000
     1.0000   1.0000   1.0000   1.0000   1.0000   1.0000   1.0000   1.0000
     1.0000   1.0000   1.0000   1.0000   1.0000   1.0000   1.0000   1.0000
     0.0000   0.0000   0.0000   0.0000   0.0000   0.0000   0.0000   0.0000
     0.0000   0.0000   0.0000   0.0000   0.0000   0.0000   0.0000   0.0000
     0.0000   0.0000   0.0000   0.0000   0.0000   0.0000   0.0000   0.0000
     0.0000   0.0000   0.0000   0.0000   0.0000   0.0000   0.0000   0.0000
     0.0000   0.0000   0.0000   0.0000   0.0000   0.0000   0.0000   0.0000
     0.0000   0.0000   0.0000   0.0000   0.0000   0.0000   0.0000   0.0000
     0.0000   0.0000   0.0000   0.0000   0.0000   0.0000   0.0000   0.0000
     0.0000   0.0000   0.0000

          k = 0.2500-0.2500-0.5000 (269988 PWs)   bands (ev):

   -86.7619 -50.4242 -49.9272 -49.9272  -7.3566  -7.2634  -7.1117  -7.0930
    -7.0178  -6.9952  -6.9063  -6.7653  -6.7571  -6.7284  -6.7007  -6.6935
    -6.6664  -6.6329  -6.6270  -6.5803  -6.5586  -6.5356  -6.5171  -6.4898
    -6.4838  -6.4653  -6.4593  -6.4318  -6.4012  -6.3731  -6.3217  -6.2850
    -6.2658  -6.1466  -6.1353  -0.8893  -0.8792  -0.8785  -0.8402  -0.8344
    -0.8301  -0.8265  -0.8214  -0.8182  -0.8146  -0.8129  -0.8101  -0.8069
    -0.7997  -0.7933  -0.7917  -0.7815  -0.7799  -0.7765  -0.7742  -0.7724
    -0.7665  -0.7623  -0.7611  -0.7528  -0.7464  -0.7422  -0.7401  -0.7368
    -0.7307  -0.7273  -0.7205  -0.7167  -0.7056  -0.7022  -0.6976  -0.6924
    -0.6849  -0.6770  -0.6736  -0.6687  -0.6664  -0.6627  -0.6588  -0.6539
    -0.6479  -0.6422  -0.6377  -0.6363  -0.6312  -0.6277  -0.6262  -0.6183
    -0.6136  -0.6077  -0.6034  -0.6020  -0.5960  -0.5835  -0.5795  -0.5752
    -0.5735  -0.5696  -0.5625  -0.5559  -0.5516  -0.5401  -0.5309  -0.5241
    -0.5211  -0.5181  -0.5134  -0.5040  -0.5018  -0.4936  -0.4904  -0.4835
    -0.4784  -0.4727  -0.4716  -0.4655  -0.4629  -0.4623  -0.4555  -0.4465
    -0.4414  -0.4389  -0.4349  -0.4292  -0.4150  -0.4137  -0.4085  -0.4046
    -0.3974  -0.3957  -0.3886  -0.3882  -0.3838  -0.3746  -0.3738  -0.3722
    -0.3708  -0.3628  -0.3579  -0.3497  -0.3466  -0.3390  -0.3343  -0.3312
    -0.3236  -0.3186  -0.3152  -0.3106  -0.3036  -0.3009  -0.2961  -0.2903
    -0.2843  -0.2804  -0.2769  -0.2738  -0.2694  -0.2639  -0.2600  -0.2574
    -0.2549  -0.2471  -0.2406  -0.2313  -0.2243  -0.2139  -0.2103  -0.2055
    -0.1921  -0.1835  -0.1810  -0.1738  -0.1578  -0.1566  -0.1436  -0.1336
    -0.1068  -0.1012  -0.0792  -0.0754  -0.0587  -0.0546  -0.0366  -0.0211
    -0.0199   0.0009   0.0049   0.0365   0.0401   0.0655   0.5881   0.6488
     0.6777   0.7807   0.8426   0.8719   0.8992   0.9224   0.9662   0.9813
     1.0112   1.0163   1.0526   1.0820   1.1106   1.1875   1.2788   1.3804
     1.4102   1.5110   1.5836   1.6445   1.6722   1.8454   1.8842   2.0517
     2.2383   2.5533   2.5843   2.6012   2.6218   2.6836   2.7188   2.7413
     2.7799   2.8146   2.8437   2.9004   2.9162   2.9580   2.9975   3.0444
     3.2200   3.2763   3.3654   3.3750   3.4098   3.4490   3.4726   3.4972
     3.5105   3.5302   3.5737   3.5882   3.6138   3.6385   3.6744   3.6807
     3.6886   3.7336   3.7465   3.7649   3.7995   3.8245   3.8432   3.8845
     3.9155   3.9504   3.9836   4.0363   4.0830   4.1223   4.1509   4.1949
     4.2590   4.2734   4.3077   4.3335   4.3789   4.4182   4.4615   4.4844
     4.5371   4.6232   4.7089   4.7715   4.8528   4.8874   4.9319   4.9568
     5.0036   5.0507   5.0744   5.1350   6.0686   6.1048   6.8801   6.9122
     7.0404   8.1463   8.1830   8.6770   8.9109   8.9455   9.0093   9.0539
     9.2121   9.3039   9.3860   9.4075   9.4675   9.5251   9.5650   9.5899
     9.6200   9.6420   9.6851   9.7229   9.7811   9.7933   9.8462   9.8569
     9.9176   9.9472   9.9683  10.0028  10.0256  10.0839  10.0977  10.1862
    10.2743  10.3568  10.3845  10.4603  10.5416  10.6335  10.6731  10.7162
    10.7810  10.8690  11.0108  11.0709  11.0766  11.1768  11.2717  11.3542
    11.3796  11.4275  11.4612  11.4833  11.5011  11.5252  11.5700  11.6137
    11.6434  11.6839  11.6975

     occupation numbers 
     1.0000   1.0000   1.0000   1.0000   1.0000   1.0000   1.0000   1.0000
     1.0000   1.0000   1.0000   1.0000   1.0000   1.0000   1.0000   1.0000
     1.0000   1.0000   1.0000   1.0000   1.0000   1.0000   1.0000   1.0000
     1.0000   1.0000   1.0000   1.0000   1.0000   1.0000   1.0000   1.0000
     1.0000   1.0000   1.0000   1.0000   1.0000   1.0000   1.0000   1.0000
     1.0000   1.0000   1.0000   1.0000   1.0000   1.0000   1.0000   1.0000
     1.0000   1.0000   1.0000   1.0000   1.0000   1.0000   1.0000   1.0000
     1.0000   1.0000   1.0000   1.0000   1.0000   1.0000   1.0000   1.0000
     1.0000   1.0000   1.0000   1.0000   1.0000   1.0000   1.0000   1.0000
     1.0000   1.0000   1.0000   1.0000   1.0000   1.0000   1.0000   1.0000
     1.0000   1.0000   1.0000   1.0000   1.0000   1.0000   1.0000   1.0000
     1.0000   1.0000   1.0000   1.0000   1.0000   1.0000   1.0000   1.0000
     1.0000   1.0000   1.0000   1.0000   1.0000   1.0000   1.0000   1.0000
     1.0000   1.0000   1.0000   1.0000   1.0000   1.0000   1.0000   1.0000
     1.0000   1.0000   1.0000   1.0000   1.0000   1.0000   1.0000   1.0000
     1.0000   1.0000   1.0000   1.0000   1.0000   1.0000   1.0000   1.0000
     1.0000   1.0000   1.0000   1.0000   1.0000   1.0000   1.0000   1.0000
     1.0000   1.0000   1.0000   1.0000   1.0000   1.0000   1.0000   1.0000
     1.0000   1.0000   1.0000   1.0000   1.0000   1.0000   1.0000   1.0000
     1.0000   1.0000   1.0000   1.0000   1.0000   1.0000   1.0000   1.0000
     1.0000   1.0000   1.0000   1.0000   1.0000   1.0000   1.0000   1.0000
     1.0000   1.0000   1.0000   1.0000   1.0000   1.0000   1.0000   1.0000
     1.0000   1.0000   1.0000   1.0000   1.0000   1.0000   1.0000   1.0000
     1.0000   1.0000   1.0000   1.0000   1.0000   1.0000   1.0000   1.0000
     1.0000   1.0000   1.0000   1.0000   1.0000   1.0000   1.0000   1.0000
     1.0000   1.0000   1.0000   1.0000   1.0000   1.0000   1.0000   1.0000
     1.0000   1.0000   1.0000   1.0000   1.0000   1.0000   1.0000   1.0000
     1.0000   1.0000   1.0000   1.0000   1.0000   1.0000   1.0000   1.0000
     1.0000   1.0000   1.0000   1.0000   1.0000   1.0000   1.0000   1.0000
     1.0000   1.0000   1.0000   1.0000   1.0000   1.0000   1.0000   1.0000
     1.0000   1.0000   1.0000   1.0000   1.0000   1.0000   1.0000   1.0000
     1.0000   1.0000   1.0000   1.0000   1.0000   1.0000   1.0000   1.0000
     1.0000   1.0000   1.0000   1.0000   1.0000   1.0000   1.0000   1.0000
     1.0000   1.0000   1.0000   1.0000   1.0000   1.0000   1.0000   1.0000
     1.0000   1.0000   1.0000   1.0000   1.0000   1.0000   1.0000   1.0000
     1.0000   1.0000   1.0000   1.0000   1.0000   1.0000   1.0000   1.0000
     0.0000   0.0000   0.0000   0.0000   0.0000   0.0000   0.0000   0.0000
     0.0000   0.0000   0.0000   0.0000   0.0000   0.0000   0.0000   0.0000
     0.0000   0.0000   0.0000   0.0000   0.0000   0.0000   0.0000   0.0000
     0.0000   0.0000   0.0000   0.0000   0.0000   0.0000   0.0000   0.0000
     0.0000   0.0000   0.0000   0.0000   0.0000   0.0000   0.0000   0.0000
     0.0000   0.0000   0.0000   0.0000   0.0000   0.0000   0.0000   0.0000
     0.0000   0.0000   0.0000   0.0000   0.0000   0.0000   0.0000   0.0000
     0.0000   0.0000   0.0000

     the Fermi energy is     6.9278 ev
     (compare with:     6.9551 eV, computed in scf)

     Writing all to output data dir ./out/Co_vac_qn2.save/
 
     init_run     :      3.32s CPU      4.12s WALL (       1 calls)
     electrons    :    373.58s CPU    379.19s WALL (       1 calls)

     Called by init_run:
     wfcinit      :      0.00s CPU      0.06s WALL (       1 calls)
     wfcinit:atom :      0.07s CPU      0.08s WALL (       4 calls)
     wfcinit:wfcr :      6.02s CPU      6.29s WALL (       4 calls)
     potinit      :      1.07s CPU      1.33s WALL (       1 calls)
     hinit0       :      0.59s CPU      0.75s WALL (       1 calls)

     Called by electrons:
     c_bands      :    373.23s CPU    378.82s WALL (       1 calls)
     v_of_rho     :      0.55s CPU      0.68s WALL (       1 calls)
     v_h          :      0.02s CPU      0.02s WALL (       1 calls)
     v_xc         :      0.53s CPU      0.66s WALL (       1 calls)
     newd         :      0.08s CPU      0.09s WALL (       1 calls)
     PAW_pot      :      0.18s CPU      0.20s WALL (       1 calls)

     Called by c_bands:
     init_us_2    :      0.11s CPU      0.14s WALL (       4 calls)
     init_us_2:cp :      0.11s CPU      0.14s WALL (       4 calls)
     cegterg      :    329.23s CPU    334.22s WALL (      22 calls)

     Called by sum_band:

     Called by *egterg:
     cdiaghg      :     35.73s CPU     36.20s WALL (     413 calls)
     cegterg:over :     29.96s CPU     30.35s WALL (     409 calls)
     cegterg:upda :     28.30s CPU     28.63s WALL (     409 calls)
     cegterg:last :     52.39s CPU     53.02s WALL (     159 calls)
     cdiaghg:chol :      2.07s CPU      2.11s WALL (     413 calls)
     cdiaghg:inve :      3.03s CPU      3.08s WALL (     413 calls)
     cdiaghg:para :      5.27s CPU      5.32s WALL (     826 calls)
     h_psi        :    150.75s CPU    153.25s WALL (     435 calls)
     s_psi        :     30.96s CPU     31.36s WALL (     435 calls)
     g_psi        :      1.05s CPU      1.06s WALL (     409 calls)

     Called by h_psi:
     h_psi:calbec :     30.38s CPU     30.83s WALL (     435 calls)
     vloc_psi     :     87.84s CPU     89.13s WALL (     435 calls)
     add_vuspsi   :     31.07s CPU     31.49s WALL (     435 calls)

     General routines
     calbec       :     30.38s CPU     30.83s WALL (     435 calls)
     fft          :      0.96s CPU      1.27s WALL (      21 calls)
     fftw         :     81.45s CPU     82.66s WALL (  114074 calls)
 
     Parallel routines

     PAW routines
     PAW_pot      :      0.18s CPU      0.20s WALL (       1 calls)
 
     PWSCF        :   6m25.40s CPU   6m38.61s WALL

 
   This run was terminated on:  17: 6:30  10Jul2024            

=------------------------------------------------------------------------------=
   JOB DONE.
=------------------------------------------------------------------------------=
