
     Program PWSCF v.7.3.1 starts on 16Apr2024 at  9:11: 6 

     This program is part of the open-source Quantum ESPRESSO suite
     for quantum simulation of materials; please cite
         "P. Giannozzi et al., J. Phys.:Condens. Matter 21 395502 (2009);
         "P. Giannozzi et al., J. Phys.:Condens. Matter 29 465901 (2017);
         "P. Giannozzi et al., J. Chem. Phys. 152 154105 (2020);
          URL http://www.quantum-espresso.org", 
     in publications or presentations arising from this work. More details at
     http://www.quantum-espresso.org/quote

     Parallel version (MPI), running on    10 processors

     MPI processes distributed on     1 nodes
     1191 MiB available memory on the printing compute node when the environment starts

     Reading input from relax.in

     Current dimensions of program PWSCF are:
     Max number of different atomic species (ntypx) = 10
     Max number of k-points (npk) =  40000
     Max angular momentum in pseudopotentials (lmaxx) =  4
     file Fe.pbe-spn-kjpaw_psl.1.0.0.UPF: wavefunction(s)  3P 3D renormalized
     Found identity + ( -0.5000 -0.5000 -0.5000) symmetry
     This is a supercell, fractional translations are disabled

     R & G space division:  proc/nbgrp/npool/nimage =      10
     Subspace diagonalization in iterative solution of the eigenvalue problem:
     a serial algorithm will be used


     Parallelization info
     --------------------
     sticks:   dense  smooth     PW     G-vecs:    dense   smooth      PW
     Min         159      90     27                 4793     2047     339
     Max         160      91     28                 4794     2048     342
     Sum        1597     901    277                47937    20479    3407

     Using Slab Decomposition



     bravais-lattice index     =            1
     lattice parameter (alat)  =       5.3479  a.u.
     unit-cell volume          =     152.9523 (a.u.)^3
     number of atoms/cell      =            2
     number of atomic types    =            1
     number of electrons       =        32.00
     number of Kohn-Sham states=           20
     kinetic-energy cutoff     =     100.0000  Ry
     charge density cutoff     =     700.0000  Ry
     scf convergence threshold =      4.0E-10
     mixing beta               =       0.4000
     number of iterations used =            8  plain     mixing
     energy convergence thresh.=      1.0E-04
     force convergence thresh. =      1.0E-03
     Exchange-correlation= SLA  PW   PBX  PBC
                           (   1   4   3   4   0   0   0)
     nstep                     =           50


     celldm(1)=   5.347925  celldm(2)=   0.000000  celldm(3)=   0.000000
     celldm(4)=   0.000000  celldm(5)=   0.000000  celldm(6)=   0.000000

     crystal axes: (cart. coord. in units of alat)
               a(1) = (   1.000000   0.000000   0.000000 )  
               a(2) = (   0.000000   1.000000   0.000000 )  
               a(3) = (   0.000000   0.000000   1.000000 )  

     reciprocal axes: (cart. coord. in units 2 pi/alat)
               b(1) = (  1.000000  0.000000  0.000000 )  
               b(2) = (  0.000000  1.000000  0.000000 )  
               b(3) = (  0.000000  0.000000  1.000000 )  


     PseudoPot. # 1 for Fe read from file:
     /home/abdul/git_repo/ZnS/pseudo/QE/Fe.pbe-spn-kjpaw_psl.1.0.0.UPF
     MD5 check sum: fc81f059e5c5069939230b1155715ae8
     Pseudo is Projector augmented-wave + core cor, Zval = 16.0
     Generated using &quot;atomic&quot; code by A. Dal Corso  v.6.3
     Shape of augmentation charge: PSQ
     Using radial grid of 1191 points,  6 beta functions with: 
                l(1) =   0
                l(2) =   0
                l(3) =   1
                l(4) =   1
                l(5) =   2
                l(6) =   2
     Q(r) pseudized with 0 coefficients 


     atomic species   valence    mass     pseudopotential
     Fe               16.00    55.84500     Fe( 1.00)

     Starting magnetic structure 
     atomic species   magnetization
     Fe              0.312

     48 Sym. Ops., with inversion, found


                                    s                        frac. trans.

      isym =  1     identity                                     

 cryst.   s( 1) = (     1          0          0      )
                  (     0          1          0      )
                  (     0          0          1      )

 cart.    s( 1) = (  1.0000000  0.0000000  0.0000000 )
                  (  0.0000000  1.0000000  0.0000000 )
                  (  0.0000000  0.0000000  1.0000000 )


      isym =  2     180 deg rotation - cart. axis [0,0,1]        

 cryst.   s( 2) = (    -1          0          0      )
                  (     0         -1          0      )
                  (     0          0          1      )

 cart.    s( 2) = ( -1.0000000  0.0000000  0.0000000 )
                  (  0.0000000 -1.0000000  0.0000000 )
                  (  0.0000000  0.0000000  1.0000000 )


      isym =  3     180 deg rotation - cart. axis [0,1,0]        

 cryst.   s( 3) = (    -1          0          0      )
                  (     0          1          0      )
                  (     0          0         -1      )

 cart.    s( 3) = ( -1.0000000  0.0000000  0.0000000 )
                  (  0.0000000  1.0000000  0.0000000 )
                  (  0.0000000  0.0000000 -1.0000000 )


      isym =  4     180 deg rotation - cart. axis [1,0,0]        

 cryst.   s( 4) = (     1          0          0      )
                  (     0         -1          0      )
                  (     0          0         -1      )

 cart.    s( 4) = (  1.0000000  0.0000000  0.0000000 )
                  (  0.0000000 -1.0000000  0.0000000 )
                  (  0.0000000  0.0000000 -1.0000000 )


      isym =  5     180 deg rotation - cart. axis [1,1,0]        

 cryst.   s( 5) = (     0          1          0      )
                  (     1          0          0      )
                  (     0          0         -1      )

 cart.    s( 5) = (  0.0000000  1.0000000  0.0000000 )
                  (  1.0000000  0.0000000  0.0000000 )
                  (  0.0000000  0.0000000 -1.0000000 )


      isym =  6     180 deg rotation - cart. axis [1,-1,0]       

 cryst.   s( 6) = (     0         -1          0      )
                  (    -1          0          0      )
                  (     0          0         -1      )

 cart.    s( 6) = (  0.0000000 -1.0000000  0.0000000 )
                  ( -1.0000000  0.0000000  0.0000000 )
                  (  0.0000000  0.0000000 -1.0000000 )


      isym =  7      90 deg rotation - cart. axis [0,0,-1]       

 cryst.   s( 7) = (     0         -1          0      )
                  (     1          0          0      )
                  (     0          0          1      )

 cart.    s( 7) = (  0.0000000  1.0000000  0.0000000 )
                  ( -1.0000000  0.0000000  0.0000000 )
                  (  0.0000000  0.0000000  1.0000000 )


      isym =  8      90 deg rotation - cart. axis [0,0,1]        

 cryst.   s( 8) = (     0          1          0      )
                  (    -1          0          0      )
                  (     0          0          1      )

 cart.    s( 8) = (  0.0000000 -1.0000000  0.0000000 )
                  (  1.0000000  0.0000000  0.0000000 )
                  (  0.0000000  0.0000000  1.0000000 )


      isym =  9     180 deg rotation - cart. axis [1,0,1]        

 cryst.   s( 9) = (     0          0          1      )
                  (     0         -1          0      )
                  (     1          0          0      )

 cart.    s( 9) = (  0.0000000  0.0000000  1.0000000 )
                  (  0.0000000 -1.0000000  0.0000000 )
                  (  1.0000000  0.0000000  0.0000000 )


      isym = 10     180 deg rotation - cart. axis [-1,0,1]       

 cryst.   s(10) = (     0          0         -1      )
                  (     0         -1          0      )
                  (    -1          0          0      )

 cart.    s(10) = (  0.0000000  0.0000000 -1.0000000 )
                  (  0.0000000 -1.0000000  0.0000000 )
                  ( -1.0000000  0.0000000  0.0000000 )


      isym = 11      90 deg rotation - cart. axis [0,1,0]        

 cryst.   s(11) = (     0          0         -1      )
                  (     0          1          0      )
                  (     1          0          0      )

 cart.    s(11) = (  0.0000000  0.0000000  1.0000000 )
                  (  0.0000000  1.0000000  0.0000000 )
                  ( -1.0000000  0.0000000  0.0000000 )


      isym = 12      90 deg rotation - cart. axis [0,-1,0]       

 cryst.   s(12) = (     0          0          1      )
                  (     0          1          0      )
                  (    -1          0          0      )

 cart.    s(12) = (  0.0000000  0.0000000 -1.0000000 )
                  (  0.0000000  1.0000000  0.0000000 )
                  (  1.0000000  0.0000000  0.0000000 )


      isym = 13     180 deg rotation - cart. axis [0,1,1]        

 cryst.   s(13) = (    -1          0          0      )
                  (     0          0          1      )
                  (     0          1          0      )

 cart.    s(13) = ( -1.0000000  0.0000000  0.0000000 )
                  (  0.0000000  0.0000000  1.0000000 )
                  (  0.0000000  1.0000000  0.0000000 )


      isym = 14     180 deg rotation - cart. axis [0,1,-1]       

 cryst.   s(14) = (    -1          0          0      )
                  (     0          0         -1      )
                  (     0         -1          0      )

 cart.    s(14) = ( -1.0000000  0.0000000  0.0000000 )
                  (  0.0000000  0.0000000 -1.0000000 )
                  (  0.0000000 -1.0000000  0.0000000 )


      isym = 15      90 deg rotation - cart. axis [-1,0,0]       

 cryst.   s(15) = (     1          0          0      )
                  (     0          0         -1      )
                  (     0          1          0      )

 cart.    s(15) = (  1.0000000  0.0000000  0.0000000 )
                  (  0.0000000  0.0000000  1.0000000 )
                  (  0.0000000 -1.0000000  0.0000000 )


      isym = 16      90 deg rotation - cart. axis [1,0,0]        

 cryst.   s(16) = (     1          0          0      )
                  (     0          0          1      )
                  (     0         -1          0      )

 cart.    s(16) = (  1.0000000  0.0000000  0.0000000 )
                  (  0.0000000  0.0000000 -1.0000000 )
                  (  0.0000000  1.0000000  0.0000000 )


      isym = 17     120 deg rotation - cart. axis [-1,-1,-1]     

 cryst.   s(17) = (     0          0          1      )
                  (     1          0          0      )
                  (     0          1          0      )

 cart.    s(17) = (  0.0000000  1.0000000  0.0000000 )
                  (  0.0000000  0.0000000  1.0000000 )
                  (  1.0000000  0.0000000  0.0000000 )


      isym = 18     120 deg rotation - cart. axis [-1,1,1]       

 cryst.   s(18) = (     0          0         -1      )
                  (    -1          0          0      )
                  (     0          1          0      )

 cart.    s(18) = (  0.0000000 -1.0000000  0.0000000 )
                  (  0.0000000  0.0000000  1.0000000 )
                  ( -1.0000000  0.0000000  0.0000000 )


      isym = 19     120 deg rotation - cart. axis [1,1,-1]       

 cryst.   s(19) = (     0          0         -1      )
                  (     1          0          0      )
                  (     0         -1          0      )

 cart.    s(19) = (  0.0000000  1.0000000  0.0000000 )
                  (  0.0000000  0.0000000 -1.0000000 )
                  ( -1.0000000  0.0000000  0.0000000 )


      isym = 20     120 deg rotation - cart. axis [1,-1,1]       

 cryst.   s(20) = (     0          0          1      )
                  (    -1          0          0      )
                  (     0         -1          0      )

 cart.    s(20) = (  0.0000000 -1.0000000  0.0000000 )
                  (  0.0000000  0.0000000 -1.0000000 )
                  (  1.0000000  0.0000000  0.0000000 )


      isym = 21     120 deg rotation - cart. axis [1,1,1]        

 cryst.   s(21) = (     0          1          0      )
                  (     0          0          1      )
                  (     1          0          0      )

 cart.    s(21) = (  0.0000000  0.0000000  1.0000000 )
                  (  1.0000000  0.0000000  0.0000000 )
                  (  0.0000000  1.0000000  0.0000000 )


      isym = 22     120 deg rotation - cart. axis [-1,1,-1]      

 cryst.   s(22) = (     0         -1          0      )
                  (     0          0         -1      )
                  (     1          0          0      )

 cart.    s(22) = (  0.0000000  0.0000000  1.0000000 )
                  ( -1.0000000  0.0000000  0.0000000 )
                  (  0.0000000 -1.0000000  0.0000000 )


      isym = 23     120 deg rotation - cart. axis [1,-1,-1]      

 cryst.   s(23) = (     0         -1          0      )
                  (     0          0          1      )
                  (    -1          0          0      )

 cart.    s(23) = (  0.0000000  0.0000000 -1.0000000 )
                  ( -1.0000000  0.0000000  0.0000000 )
                  (  0.0000000  1.0000000  0.0000000 )


      isym = 24     120 deg rotation - cart. axis [-1,-1,1]      

 cryst.   s(24) = (     0          1          0      )
                  (     0          0         -1      )
                  (    -1          0          0      )

 cart.    s(24) = (  0.0000000  0.0000000 -1.0000000 )
                  (  1.0000000  0.0000000  0.0000000 )
                  (  0.0000000 -1.0000000  0.0000000 )


      isym = 25     inversion                                    

 cryst.   s(25) = (    -1          0          0      )
                  (     0         -1          0      )
                  (     0          0         -1      )

 cart.    s(25) = ( -1.0000000  0.0000000  0.0000000 )
                  (  0.0000000 -1.0000000  0.0000000 )
                  (  0.0000000  0.0000000 -1.0000000 )


      isym = 26     inv. 180 deg rotation - cart. axis [0,0,1]   

 cryst.   s(26) = (     1          0          0      )
                  (     0          1          0      )
                  (     0          0         -1      )

 cart.    s(26) = (  1.0000000  0.0000000  0.0000000 )
                  (  0.0000000  1.0000000  0.0000000 )
                  (  0.0000000  0.0000000 -1.0000000 )


      isym = 27     inv. 180 deg rotation - cart. axis [0,1,0]   

 cryst.   s(27) = (     1          0          0      )
                  (     0         -1          0      )
                  (     0          0          1      )

 cart.    s(27) = (  1.0000000  0.0000000  0.0000000 )
                  (  0.0000000 -1.0000000  0.0000000 )
                  (  0.0000000  0.0000000  1.0000000 )


      isym = 28     inv. 180 deg rotation - cart. axis [1,0,0]   

 cryst.   s(28) = (    -1          0          0      )
                  (     0          1          0      )
                  (     0          0          1      )

 cart.    s(28) = ( -1.0000000  0.0000000  0.0000000 )
                  (  0.0000000  1.0000000  0.0000000 )
                  (  0.0000000  0.0000000  1.0000000 )


      isym = 29     inv. 180 deg rotation - cart. axis [1,1,0]   

 cryst.   s(29) = (     0         -1          0      )
                  (    -1          0          0      )
                  (     0          0          1      )

 cart.    s(29) = (  0.0000000 -1.0000000  0.0000000 )
                  ( -1.0000000  0.0000000  0.0000000 )
                  (  0.0000000  0.0000000  1.0000000 )


      isym = 30     inv. 180 deg rotation - cart. axis [1,-1,0]  

 cryst.   s(30) = (     0          1          0      )
                  (     1          0          0      )
                  (     0          0          1      )

 cart.    s(30) = (  0.0000000  1.0000000  0.0000000 )
                  (  1.0000000  0.0000000  0.0000000 )
                  (  0.0000000  0.0000000  1.0000000 )


      isym = 31     inv.  90 deg rotation - cart. axis [0,0,-1]  

 cryst.   s(31) = (     0          1          0      )
                  (    -1          0          0      )
                  (     0          0         -1      )

 cart.    s(31) = (  0.0000000 -1.0000000  0.0000000 )
                  (  1.0000000  0.0000000  0.0000000 )
                  (  0.0000000  0.0000000 -1.0000000 )


      isym = 32     inv.  90 deg rotation - cart. axis [0,0,1]   

 cryst.   s(32) = (     0         -1          0      )
                  (     1          0          0      )
                  (     0          0         -1      )

 cart.    s(32) = (  0.0000000  1.0000000  0.0000000 )
                  ( -1.0000000  0.0000000  0.0000000 )
                  (  0.0000000  0.0000000 -1.0000000 )


      isym = 33     inv. 180 deg rotation - cart. axis [1,0,1]   

 cryst.   s(33) = (     0          0         -1      )
                  (     0          1          0      )
                  (    -1          0          0      )

 cart.    s(33) = (  0.0000000  0.0000000 -1.0000000 )
                  (  0.0000000  1.0000000  0.0000000 )
                  ( -1.0000000  0.0000000  0.0000000 )


      isym = 34     inv. 180 deg rotation - cart. axis [-1,0,1]  

 cryst.   s(34) = (     0          0          1      )
                  (     0          1          0      )
                  (     1          0          0      )

 cart.    s(34) = (  0.0000000  0.0000000  1.0000000 )
                  (  0.0000000  1.0000000  0.0000000 )
                  (  1.0000000  0.0000000  0.0000000 )


      isym = 35     inv.  90 deg rotation - cart. axis [0,1,0]   

 cryst.   s(35) = (     0          0          1      )
                  (     0         -1          0      )
                  (    -1          0          0      )

 cart.    s(35) = (  0.0000000  0.0000000 -1.0000000 )
                  (  0.0000000 -1.0000000  0.0000000 )
                  (  1.0000000  0.0000000  0.0000000 )


      isym = 36     inv.  90 deg rotation - cart. axis [0,-1,0]  

 cryst.   s(36) = (     0          0         -1      )
                  (     0         -1          0      )
                  (     1          0          0      )

 cart.    s(36) = (  0.0000000  0.0000000  1.0000000 )
                  (  0.0000000 -1.0000000  0.0000000 )
                  ( -1.0000000  0.0000000  0.0000000 )


      isym = 37     inv. 180 deg rotation - cart. axis [0,1,1]   

 cryst.   s(37) = (     1          0          0      )
                  (     0          0         -1      )
                  (     0         -1          0      )

 cart.    s(37) = (  1.0000000  0.0000000  0.0000000 )
                  (  0.0000000  0.0000000 -1.0000000 )
                  (  0.0000000 -1.0000000  0.0000000 )


      isym = 38     inv. 180 deg rotation - cart. axis [0,1,-1]  

 cryst.   s(38) = (     1          0          0      )
                  (     0          0          1      )
                  (     0          1          0      )

 cart.    s(38) = (  1.0000000  0.0000000  0.0000000 )
                  (  0.0000000  0.0000000  1.0000000 )
                  (  0.0000000  1.0000000  0.0000000 )


      isym = 39     inv.  90 deg rotation - cart. axis [-1,0,0]  

 cryst.   s(39) = (    -1          0          0      )
                  (     0          0          1      )
                  (     0         -1          0      )

 cart.    s(39) = ( -1.0000000  0.0000000  0.0000000 )
                  (  0.0000000  0.0000000 -1.0000000 )
                  (  0.0000000  1.0000000  0.0000000 )


      isym = 40     inv.  90 deg rotation - cart. axis [1,0,0]   

 cryst.   s(40) = (    -1          0          0      )
                  (     0          0         -1      )
                  (     0          1          0      )

 cart.    s(40) = ( -1.0000000  0.0000000  0.0000000 )
                  (  0.0000000  0.0000000  1.0000000 )
                  (  0.0000000 -1.0000000  0.0000000 )


      isym = 41     inv. 120 deg rotation - cart. axis [-1,-1,-1]

 cryst.   s(41) = (     0          0         -1      )
                  (    -1          0          0      )
                  (     0         -1          0      )

 cart.    s(41) = (  0.0000000 -1.0000000  0.0000000 )
                  (  0.0000000  0.0000000 -1.0000000 )
                  ( -1.0000000  0.0000000  0.0000000 )


      isym = 42     inv. 120 deg rotation - cart. axis [-1,1,1]  

 cryst.   s(42) = (     0          0          1      )
                  (     1          0          0      )
                  (     0         -1          0      )

 cart.    s(42) = (  0.0000000  1.0000000  0.0000000 )
                  (  0.0000000  0.0000000 -1.0000000 )
                  (  1.0000000  0.0000000  0.0000000 )


      isym = 43     inv. 120 deg rotation - cart. axis [1,1,-1]  

 cryst.   s(43) = (     0          0          1      )
                  (    -1          0          0      )
                  (     0          1          0      )

 cart.    s(43) = (  0.0000000 -1.0000000  0.0000000 )
                  (  0.0000000  0.0000000  1.0000000 )
                  (  1.0000000  0.0000000  0.0000000 )


      isym = 44     inv. 120 deg rotation - cart. axis [1,-1,1]  

 cryst.   s(44) = (     0          0         -1      )
                  (     1          0          0      )
                  (     0          1          0      )

 cart.    s(44) = (  0.0000000  1.0000000  0.0000000 )
                  (  0.0000000  0.0000000  1.0000000 )
                  ( -1.0000000  0.0000000  0.0000000 )


      isym = 45     inv. 120 deg rotation - cart. axis [1,1,1]   

 cryst.   s(45) = (     0         -1          0      )
                  (     0          0         -1      )
                  (    -1          0          0      )

 cart.    s(45) = (  0.0000000  0.0000000 -1.0000000 )
                  ( -1.0000000  0.0000000  0.0000000 )
                  (  0.0000000 -1.0000000  0.0000000 )


      isym = 46     inv. 120 deg rotation - cart. axis [-1,1,-1] 

 cryst.   s(46) = (     0          1          0      )
                  (     0          0          1      )
                  (    -1          0          0      )

 cart.    s(46) = (  0.0000000  0.0000000 -1.0000000 )
                  (  1.0000000  0.0000000  0.0000000 )
                  (  0.0000000  1.0000000  0.0000000 )


      isym = 47     inv. 120 deg rotation - cart. axis [1,-1,-1] 

 cryst.   s(47) = (     0          1          0      )
                  (     0          0         -1      )
                  (     1          0          0      )

 cart.    s(47) = (  0.0000000  0.0000000  1.0000000 )
                  (  1.0000000  0.0000000  0.0000000 )
                  (  0.0000000 -1.0000000  0.0000000 )


      isym = 48     inv. 120 deg rotation - cart. axis [-1,-1,1] 

 cryst.   s(48) = (     0         -1          0      )
                  (     0          0          1      )
                  (     1          0          0      )

 cart.    s(48) = (  0.0000000  0.0000000  1.0000000 )
                  ( -1.0000000  0.0000000  0.0000000 )
                  (  0.0000000  1.0000000  0.0000000 )


     point group O_h (m-3m) 
     there are 10 classes
     the character table:

       E     8C3   3C2   6C4   6C2'  i     8S6   3s_h  6S4   6s_d 
A_1g   1.00  1.00  1.00  1.00  1.00  1.00  1.00  1.00  1.00  1.00
A_2g   1.00  1.00  1.00 -1.00 -1.00  1.00  1.00  1.00 -1.00 -1.00
E_g    2.00 -1.00  2.00  0.00  0.00  2.00 -1.00  2.00  0.00  0.00
T_1g   3.00  0.00 -1.00  1.00 -1.00  3.00  0.00 -1.00  1.00 -1.00
T_2g   3.00  0.00 -1.00 -1.00  1.00  3.00  0.00 -1.00 -1.00  1.00
A_1u   1.00  1.00  1.00  1.00  1.00 -1.00 -1.00 -1.00 -1.00 -1.00
A_2u   1.00  1.00  1.00 -1.00 -1.00 -1.00 -1.00 -1.00  1.00  1.00
E_u    2.00 -1.00  2.00  0.00  0.00 -2.00  1.00 -2.00  0.00  0.00
T_1u   3.00  0.00 -1.00  1.00 -1.00 -3.00  0.00  1.00 -1.00  1.00
T_2u   3.00  0.00 -1.00 -1.00  1.00 -3.00  0.00  1.00  1.00 -1.00

     the symmetry operations in each class and the name of the first element:

     E        1
          identity                                               
     8C3     17   19   20   18   24   21   22   23
          120 deg rotation - cart. axis [-1,-1,-1]               
     3C2      2    4    3
          180 deg rotation - cart. axis [0,0,1]                  
     6C4      7    8   15   16   12   11
           90 deg rotation - cart. axis [0,0,-1]                 
     6C2'     5    6   14   13   10    9
          180 deg rotation - cart. axis [1,1,0]                  
     i       25
          inversion                                              
     8S6     41   43   44   42   48   45   46   47
          inv. 120 deg rotation - cart. axis [-1,-1,-1]          
     3s_h    26   28   27
          inv. 180 deg rotation - cart. axis [0,0,1]             
     6S4     31   32   39   40   36   35
          inv.  90 deg rotation - cart. axis [0,0,-1]            
     6s_d    29   30   38   37   34   33
          inv. 180 deg rotation - cart. axis [1,1,0]             

   Cartesian axes

     site n.     atom                  positions (alat units)
         1        Fe     tau(   1) = (   0.0000000   0.0000000   0.0000000  )
         2        Fe     tau(   2) = (   0.5000000   0.5000000   0.5000000  )

   Crystallographic axes

     site n.     atom                  positions (cryst. coord.)
         1        Fe     tau(   1) = (  0.0000000  0.0000000  0.0000000  )
         2        Fe     tau(   2) = (  0.5000000  0.5000000  0.5000000  )

     number of k points=    56  Gaussian smearing, width (Ry)=  0.0010
                       cart. coord. in units 2pi/alat
        k(    1) = (   0.0000000   0.0000000   0.0000000), wk =   0.0010000
        k(    2) = (   0.0000000   0.0000000   0.1000000), wk =   0.0060000
        k(    3) = (   0.0000000   0.0000000   0.2000000), wk =   0.0060000
        k(    4) = (   0.0000000   0.0000000   0.3000000), wk =   0.0060000
        k(    5) = (   0.0000000   0.0000000   0.4000000), wk =   0.0060000
        k(    6) = (   0.0000000   0.0000000  -0.5000000), wk =   0.0030000
        k(    7) = (   0.0000000   0.1000000   0.1000000), wk =   0.0120000
        k(    8) = (   0.0000000   0.1000000   0.2000000), wk =   0.0240000
        k(    9) = (   0.0000000   0.1000000   0.3000000), wk =   0.0240000
        k(   10) = (   0.0000000   0.1000000   0.4000000), wk =   0.0240000
        k(   11) = (   0.0000000   0.1000000  -0.5000000), wk =   0.0120000
        k(   12) = (   0.0000000   0.2000000   0.2000000), wk =   0.0120000
        k(   13) = (   0.0000000   0.2000000   0.3000000), wk =   0.0240000
        k(   14) = (   0.0000000   0.2000000   0.4000000), wk =   0.0240000
        k(   15) = (   0.0000000   0.2000000  -0.5000000), wk =   0.0120000
        k(   16) = (   0.0000000   0.3000000   0.3000000), wk =   0.0120000
        k(   17) = (   0.0000000   0.3000000   0.4000000), wk =   0.0240000
        k(   18) = (   0.0000000   0.3000000  -0.5000000), wk =   0.0120000
        k(   19) = (   0.0000000   0.4000000   0.4000000), wk =   0.0120000
        k(   20) = (   0.0000000   0.4000000  -0.5000000), wk =   0.0120000
        k(   21) = (   0.0000000  -0.5000000  -0.5000000), wk =   0.0030000
        k(   22) = (   0.1000000   0.1000000   0.1000000), wk =   0.0080000
        k(   23) = (   0.1000000   0.1000000   0.2000000), wk =   0.0240000
        k(   24) = (   0.1000000   0.1000000   0.3000000), wk =   0.0240000
        k(   25) = (   0.1000000   0.1000000   0.4000000), wk =   0.0240000
        k(   26) = (   0.1000000   0.1000000  -0.5000000), wk =   0.0120000
        k(   27) = (   0.1000000   0.2000000   0.2000000), wk =   0.0240000
        k(   28) = (   0.1000000   0.2000000   0.3000000), wk =   0.0480000
        k(   29) = (   0.1000000   0.2000000   0.4000000), wk =   0.0480000
        k(   30) = (   0.1000000   0.2000000  -0.5000000), wk =   0.0240000
        k(   31) = (   0.1000000   0.3000000   0.3000000), wk =   0.0240000
        k(   32) = (   0.1000000   0.3000000   0.4000000), wk =   0.0480000
        k(   33) = (   0.1000000   0.3000000  -0.5000000), wk =   0.0240000
        k(   34) = (   0.1000000   0.4000000   0.4000000), wk =   0.0240000
        k(   35) = (   0.1000000   0.4000000  -0.5000000), wk =   0.0240000
        k(   36) = (   0.1000000  -0.5000000  -0.5000000), wk =   0.0060000
        k(   37) = (   0.2000000   0.2000000   0.2000000), wk =   0.0080000
        k(   38) = (   0.2000000   0.2000000   0.3000000), wk =   0.0240000
        k(   39) = (   0.2000000   0.2000000   0.4000000), wk =   0.0240000
        k(   40) = (   0.2000000   0.2000000  -0.5000000), wk =   0.0120000
        k(   41) = (   0.2000000   0.3000000   0.3000000), wk =   0.0240000
        k(   42) = (   0.2000000   0.3000000   0.4000000), wk =   0.0480000
        k(   43) = (   0.2000000   0.3000000  -0.5000000), wk =   0.0240000
        k(   44) = (   0.2000000   0.4000000   0.4000000), wk =   0.0240000
        k(   45) = (   0.2000000   0.4000000  -0.5000000), wk =   0.0240000
        k(   46) = (   0.2000000  -0.5000000  -0.5000000), wk =   0.0060000
        k(   47) = (   0.3000000   0.3000000   0.3000000), wk =   0.0080000
        k(   48) = (   0.3000000   0.3000000   0.4000000), wk =   0.0240000
        k(   49) = (   0.3000000   0.3000000  -0.5000000), wk =   0.0120000
        k(   50) = (   0.3000000   0.4000000   0.4000000), wk =   0.0240000
        k(   51) = (   0.3000000   0.4000000  -0.5000000), wk =   0.0240000
        k(   52) = (   0.3000000  -0.5000000  -0.5000000), wk =   0.0060000
        k(   53) = (   0.4000000   0.4000000   0.4000000), wk =   0.0080000
        k(   54) = (   0.4000000   0.4000000  -0.5000000), wk =   0.0120000
        k(   55) = (   0.4000000  -0.5000000  -0.5000000), wk =   0.0060000
        k(   56) = (  -0.5000000  -0.5000000  -0.5000000), wk =   0.0010000

                       cryst. coord.
        k(    1) = (   0.0000000   0.0000000   0.0000000), wk =   0.0010000
        k(    2) = (   0.0000000   0.0000000   0.1000000), wk =   0.0060000
        k(    3) = (   0.0000000   0.0000000   0.2000000), wk =   0.0060000
        k(    4) = (   0.0000000   0.0000000   0.3000000), wk =   0.0060000
        k(    5) = (   0.0000000   0.0000000   0.4000000), wk =   0.0060000
        k(    6) = (   0.0000000   0.0000000  -0.5000000), wk =   0.0030000
        k(    7) = (   0.0000000   0.1000000   0.1000000), wk =   0.0120000
        k(    8) = (   0.0000000   0.1000000   0.2000000), wk =   0.0240000
        k(    9) = (   0.0000000   0.1000000   0.3000000), wk =   0.0240000
        k(   10) = (   0.0000000   0.1000000   0.4000000), wk =   0.0240000
        k(   11) = (   0.0000000   0.1000000  -0.5000000), wk =   0.0120000
        k(   12) = (   0.0000000   0.2000000   0.2000000), wk =   0.0120000
        k(   13) = (   0.0000000   0.2000000   0.3000000), wk =   0.0240000
        k(   14) = (   0.0000000   0.2000000   0.4000000), wk =   0.0240000
        k(   15) = (   0.0000000   0.2000000  -0.5000000), wk =   0.0120000
        k(   16) = (   0.0000000   0.3000000   0.3000000), wk =   0.0120000
        k(   17) = (   0.0000000   0.3000000   0.4000000), wk =   0.0240000
        k(   18) = (   0.0000000   0.3000000  -0.5000000), wk =   0.0120000
        k(   19) = (   0.0000000   0.4000000   0.4000000), wk =   0.0120000
        k(   20) = (   0.0000000   0.4000000  -0.5000000), wk =   0.0120000
        k(   21) = (   0.0000000  -0.5000000  -0.5000000), wk =   0.0030000
        k(   22) = (   0.1000000   0.1000000   0.1000000), wk =   0.0080000
        k(   23) = (   0.1000000   0.1000000   0.2000000), wk =   0.0240000
        k(   24) = (   0.1000000   0.1000000   0.3000000), wk =   0.0240000
        k(   25) = (   0.1000000   0.1000000   0.4000000), wk =   0.0240000
        k(   26) = (   0.1000000   0.1000000  -0.5000000), wk =   0.0120000
        k(   27) = (   0.1000000   0.2000000   0.2000000), wk =   0.0240000
        k(   28) = (   0.1000000   0.2000000   0.3000000), wk =   0.0480000
        k(   29) = (   0.1000000   0.2000000   0.4000000), wk =   0.0480000
        k(   30) = (   0.1000000   0.2000000  -0.5000000), wk =   0.0240000
        k(   31) = (   0.1000000   0.3000000   0.3000000), wk =   0.0240000
        k(   32) = (   0.1000000   0.3000000   0.4000000), wk =   0.0480000
        k(   33) = (   0.1000000   0.3000000  -0.5000000), wk =   0.0240000
        k(   34) = (   0.1000000   0.4000000   0.4000000), wk =   0.0240000
        k(   35) = (   0.1000000   0.4000000  -0.5000000), wk =   0.0240000
        k(   36) = (   0.1000000  -0.5000000  -0.5000000), wk =   0.0060000
        k(   37) = (   0.2000000   0.2000000   0.2000000), wk =   0.0080000
        k(   38) = (   0.2000000   0.2000000   0.3000000), wk =   0.0240000
        k(   39) = (   0.2000000   0.2000000   0.4000000), wk =   0.0240000
        k(   40) = (   0.2000000   0.2000000  -0.5000000), wk =   0.0120000
        k(   41) = (   0.2000000   0.3000000   0.3000000), wk =   0.0240000
        k(   42) = (   0.2000000   0.3000000   0.4000000), wk =   0.0480000
        k(   43) = (   0.2000000   0.3000000  -0.5000000), wk =   0.0240000
        k(   44) = (   0.2000000   0.4000000   0.4000000), wk =   0.0240000
        k(   45) = (   0.2000000   0.4000000  -0.5000000), wk =   0.0240000
        k(   46) = (   0.2000000  -0.5000000  -0.5000000), wk =   0.0060000
        k(   47) = (   0.3000000   0.3000000   0.3000000), wk =   0.0080000
        k(   48) = (   0.3000000   0.3000000   0.4000000), wk =   0.0240000
        k(   49) = (   0.3000000   0.3000000  -0.5000000), wk =   0.0120000
        k(   50) = (   0.3000000   0.4000000   0.4000000), wk =   0.0240000
        k(   51) = (   0.3000000   0.4000000  -0.5000000), wk =   0.0240000
        k(   52) = (   0.3000000  -0.5000000  -0.5000000), wk =   0.0060000
        k(   53) = (   0.4000000   0.4000000   0.4000000), wk =   0.0080000
        k(   54) = (   0.4000000   0.4000000  -0.5000000), wk =   0.0120000
        k(   55) = (   0.4000000  -0.5000000  -0.5000000), wk =   0.0060000
        k(   56) = (  -0.5000000  -0.5000000  -0.5000000), wk =   0.0010000

     Dense  grid:    47937 G-vectors     FFT dimensions: (  45,  45,  45)

     Smooth grid:    20479 G-vectors     FFT dimensions: (  36,  36,  36)

     Dynamical RAM for                 wfc:       0.08 MB

     Dynamical RAM for     wfc (w. buffer):       8.90 MB

     Dynamical RAM for           str. fact:       0.07 MB

     Dynamical RAM for           local pot:       0.00 MB

     Dynamical RAM for          nlocal pot:       0.14 MB

     Dynamical RAM for                qrad:       2.12 MB

     Dynamical RAM for          rho,v,vnew:       0.90 MB

     Dynamical RAM for               rhoin:       0.30 MB

     Dynamical RAM for            rho*nmix:       2.34 MB

     Dynamical RAM for           G-vectors:       0.29 MB

     Dynamical RAM for          h,s,v(r/c):       0.07 MB

     Dynamical RAM for          <psi|beta>:       0.01 MB

     Dynamical RAM for                 psi:       0.16 MB

     Dynamical RAM for                hpsi:       0.16 MB

     Dynamical RAM for                spsi:       0.16 MB

     Dynamical RAM for      wfcinit/wfcrot:       0.17 MB

     Dynamical RAM for           addusdens:      13.82 MB

     Dynamical RAM for          addusforce:      13.98 MB

     Estimated static dynamical RAM per process >      13.34 MB

     Estimated max dynamical RAM per process >      29.66 MB

     Estimated total dynamical RAM >     296.62 MB
     Generating pointlists ...
     new r_m :   0.3572 (alat units)  1.9105 (a.u.) for type    1

     Initial potential from superposition of free atoms

     starting charge      31.9991, renormalised to      32.0000
     Starting wfcs are   20 randomized atomic wfcs
     Checking if some PAW data can be deallocated... 

     total cpu time spent up to now is        2.0 secs

     Self-consistent Calculation

     iteration #  1     ecut=   100.00 Ry     beta= 0.40
     Davidson diagonalization with overlap

---- Real-time Memory Report at c_bands before calling an iterative solver
            61 MiB given to the printing process from OS
             0 MiB allocation reported by mallinfo(arena+hblkhd)
           920 MiB available memory on the node where the printing process lives
------------------
     ethr =  1.00E-02,  avg # of iterations =  3.3

     Threshold (ethr) on eigenvalues was too large:
     Diagonalizing with lowered threshold

     Davidson diagonalization with overlap

---- Real-time Memory Report at c_bands before calling an iterative solver
            67 MiB given to the printing process from OS
             0 MiB allocation reported by mallinfo(arena+hblkhd)
           794 MiB available memory on the node where the printing process lives
------------------
     ethr =  7.29E-04,  avg # of iterations =  1.5

     total cpu time spent up to now is        8.2 secs

     total energy              =    -658.43711056 Ry
     estimated scf accuracy    <       0.23821423 Ry

     total magnetization       =     5.80 Bohr mag/cell
     absolute magnetization    =     5.87 Bohr mag/cell

     iteration #  2     ecut=   100.00 Ry     beta= 0.40
     Davidson diagonalization with overlap

---- Real-time Memory Report at c_bands before calling an iterative solver
            73 MiB given to the printing process from OS
             0 MiB allocation reported by mallinfo(arena+hblkhd)
           745 MiB available memory on the node where the printing process lives
------------------
     ethr =  7.44E-04,  avg # of iterations =  1.3

     negative rho (up, down):  0.000E+00 1.248E-04

     total cpu time spent up to now is       11.0 secs

     total energy              =    -658.51327159 Ry
     estimated scf accuracy    <       0.09462206 Ry

     total magnetization       =     5.54 Bohr mag/cell
     absolute magnetization    =     5.67 Bohr mag/cell

     iteration #  3     ecut=   100.00 Ry     beta= 0.40
     Davidson diagonalization with overlap

---- Real-time Memory Report at c_bands before calling an iterative solver
            73 MiB given to the printing process from OS
             0 MiB allocation reported by mallinfo(arena+hblkhd)
           751 MiB available memory on the node where the printing process lives
------------------
     ethr =  2.96E-04,  avg # of iterations =  1.2

     negative rho (up, down):  0.000E+00 2.182E-04

     total cpu time spent up to now is       13.9 secs

     total energy              =    -658.53167345 Ry
     estimated scf accuracy    <       0.01853569 Ry

     total magnetization       =     4.99 Bohr mag/cell
     absolute magnetization    =     5.25 Bohr mag/cell

     iteration #  4     ecut=   100.00 Ry     beta= 0.40
     Davidson diagonalization with overlap

---- Real-time Memory Report at c_bands before calling an iterative solver
            73 MiB given to the printing process from OS
             0 MiB allocation reported by mallinfo(arena+hblkhd)
           745 MiB available memory on the node where the printing process lives
------------------
     ethr =  5.79E-05,  avg # of iterations =  2.1

     negative rho (up, down):  0.000E+00 2.068E-04

     total cpu time spent up to now is       16.9 secs

     total energy              =    -658.53855896 Ry
     estimated scf accuracy    <       0.00242785 Ry

     total magnetization       =     4.57 Bohr mag/cell
     absolute magnetization    =     4.86 Bohr mag/cell

     iteration #  5     ecut=   100.00 Ry     beta= 0.40
     Davidson diagonalization with overlap

---- Real-time Memory Report at c_bands before calling an iterative solver
            74 MiB given to the printing process from OS
             0 MiB allocation reported by mallinfo(arena+hblkhd)
           768 MiB available memory on the node where the printing process lives
------------------
     ethr =  7.59E-06,  avg # of iterations =  2.1

     negative rho (up, down):  0.000E+00 1.762E-04

     total cpu time spent up to now is       20.2 secs

     total energy              =    -658.53955560 Ry
     estimated scf accuracy    <       0.00136524 Ry

     total magnetization       =     4.52 Bohr mag/cell
     absolute magnetization    =     4.81 Bohr mag/cell

     iteration #  6     ecut=   100.00 Ry     beta= 0.40
     Davidson diagonalization with overlap

---- Real-time Memory Report at c_bands before calling an iterative solver
            74 MiB given to the printing process from OS
             0 MiB allocation reported by mallinfo(arena+hblkhd)
           704 MiB available memory on the node where the printing process lives
------------------
     ethr =  4.27E-06,  avg # of iterations =  2.5

     negative rho (up, down):  0.000E+00 1.189E-04

     total cpu time spent up to now is       24.0 secs

     total energy              =    -658.53965204 Ry
     estimated scf accuracy    <       0.01389740 Ry

     total magnetization       =     4.45 Bohr mag/cell
     absolute magnetization    =     4.73 Bohr mag/cell

     iteration #  7     ecut=   100.00 Ry     beta= 0.40
     Davidson diagonalization with overlap

---- Real-time Memory Report at c_bands before calling an iterative solver
            74 MiB given to the printing process from OS
             0 MiB allocation reported by mallinfo(arena+hblkhd)
           700 MiB available memory on the node where the printing process lives
------------------
     ethr =  4.27E-06,  avg # of iterations =  2.2

     negative rho (up, down):  0.000E+00 1.210E-04

     total cpu time spent up to now is       28.7 secs

     total energy              =    -658.54053197 Ry
     estimated scf accuracy    <       0.00023069 Ry

     total magnetization       =     4.38 Bohr mag/cell
     absolute magnetization    =     4.65 Bohr mag/cell

     iteration #  8     ecut=   100.00 Ry     beta= 0.40
     Davidson diagonalization with overlap

---- Real-time Memory Report at c_bands before calling an iterative solver
            74 MiB given to the printing process from OS
             0 MiB allocation reported by mallinfo(arena+hblkhd)
           700 MiB available memory on the node where the printing process lives
------------------
     ethr =  7.21E-07,  avg # of iterations =  2.0

     negative rho (up, down):  0.000E+00 1.142E-04

     total cpu time spent up to now is       32.9 secs

     total energy              =    -658.54060193 Ry
     estimated scf accuracy    <       0.00007768 Ry

     total magnetization       =     4.40 Bohr mag/cell
     absolute magnetization    =     4.65 Bohr mag/cell

     iteration #  9     ecut=   100.00 Ry     beta= 0.40
     Davidson diagonalization with overlap

---- Real-time Memory Report at c_bands before calling an iterative solver
            75 MiB given to the printing process from OS
             0 MiB allocation reported by mallinfo(arena+hblkhd)
           691 MiB available memory on the node where the printing process lives
------------------
     ethr =  2.43E-07,  avg # of iterations =  2.1

     negative rho (up, down):  0.000E+00 1.056E-04

     total cpu time spent up to now is       37.3 secs

     total energy              =    -658.54064902 Ry
     estimated scf accuracy    <       0.00011102 Ry

     total magnetization       =     4.34 Bohr mag/cell
     absolute magnetization    =     4.60 Bohr mag/cell

     iteration # 10     ecut=   100.00 Ry     beta= 0.40
     Davidson diagonalization with overlap

---- Real-time Memory Report at c_bands before calling an iterative solver
            75 MiB given to the printing process from OS
             0 MiB allocation reported by mallinfo(arena+hblkhd)
           711 MiB available memory on the node where the printing process lives
------------------
     ethr =  2.43E-07,  avg # of iterations =  2.6

     negative rho (up, down):  0.000E+00 9.947E-05

     total cpu time spent up to now is       42.2 secs

     total energy              =    -658.54075659 Ry
     estimated scf accuracy    <       0.00003660 Ry

     total magnetization       =     4.27 Bohr mag/cell
     absolute magnetization    =     4.52 Bohr mag/cell

     iteration # 11     ecut=   100.00 Ry     beta= 0.40
     Davidson diagonalization with overlap

---- Real-time Memory Report at c_bands before calling an iterative solver
            75 MiB given to the printing process from OS
             0 MiB allocation reported by mallinfo(arena+hblkhd)
           615 MiB available memory on the node where the printing process lives
------------------
     ethr =  1.14E-07,  avg # of iterations =  2.4

     negative rho (up, down):  0.000E+00 1.019E-04

     total cpu time spent up to now is      108.1 secs

     total energy              =    -658.54077771 Ry
     estimated scf accuracy    <       0.00000516 Ry

     total magnetization       =     4.25 Bohr mag/cell
     absolute magnetization    =     4.50 Bohr mag/cell

     iteration # 12     ecut=   100.00 Ry     beta= 0.40
     Davidson diagonalization with overlap

---- Real-time Memory Report at c_bands before calling an iterative solver
            75 MiB given to the printing process from OS
             0 MiB allocation reported by mallinfo(arena+hblkhd)
           680 MiB available memory on the node where the printing process lives
------------------
     ethr =  1.61E-08,  avg # of iterations =  2.1

     negative rho (up, down):  0.000E+00 1.001E-04

     total cpu time spent up to now is      112.1 secs

     total energy              =    -658.54078282 Ry
     estimated scf accuracy    <       0.00000812 Ry

     total magnetization       =     4.25 Bohr mag/cell
     absolute magnetization    =     4.50 Bohr mag/cell

     iteration # 13     ecut=   100.00 Ry     beta= 0.40
     Davidson diagonalization with overlap

---- Real-time Memory Report at c_bands before calling an iterative solver
            75 MiB given to the printing process from OS
             0 MiB allocation reported by mallinfo(arena+hblkhd)
           680 MiB available memory on the node where the printing process lives
------------------
     ethr =  1.61E-08,  avg # of iterations =  2.2

     negative rho (up, down):  0.000E+00 1.003E-04

     total cpu time spent up to now is      115.4 secs

     total energy              =    -658.54078444 Ry
     estimated scf accuracy    <       0.00000006 Ry

     total magnetization       =     4.25 Bohr mag/cell
     absolute magnetization    =     4.50 Bohr mag/cell

     iteration # 14     ecut=   100.00 Ry     beta= 0.40
     Davidson diagonalization with overlap

---- Real-time Memory Report at c_bands before calling an iterative solver
            75 MiB given to the printing process from OS
             0 MiB allocation reported by mallinfo(arena+hblkhd)
           715 MiB available memory on the node where the printing process lives
------------------
     ethr =  1.97E-10,  avg # of iterations =  2.9

     negative rho (up, down):  0.000E+00 1.002E-04

     total cpu time spent up to now is      119.2 secs

     total energy              =    -658.54078445 Ry
     estimated scf accuracy    <          8.1E-09 Ry

     total magnetization       =     4.25 Bohr mag/cell
     absolute magnetization    =     4.50 Bohr mag/cell

     iteration # 15     ecut=   100.00 Ry     beta= 0.40
     Davidson diagonalization with overlap

---- Real-time Memory Report at c_bands before calling an iterative solver
            75 MiB given to the printing process from OS
             0 MiB allocation reported by mallinfo(arena+hblkhd)
           727 MiB available memory on the node where the printing process lives
------------------
     ethr =  2.53E-11,  avg # of iterations =  2.5

     negative rho (up, down):  0.000E+00 1.003E-04

     total cpu time spent up to now is      122.9 secs

     total energy              =    -658.54078446 Ry
     estimated scf accuracy    <       0.00000001 Ry

     total magnetization       =     4.25 Bohr mag/cell
     absolute magnetization    =     4.50 Bohr mag/cell

     iteration # 16     ecut=   100.00 Ry     beta= 0.40
     Davidson diagonalization with overlap

---- Real-time Memory Report at c_bands before calling an iterative solver
            75 MiB given to the printing process from OS
             0 MiB allocation reported by mallinfo(arena+hblkhd)
           709 MiB available memory on the node where the printing process lives
------------------
     ethr =  2.53E-11,  avg # of iterations =  1.0

     negative rho (up, down):  0.000E+00 1.003E-04

     total cpu time spent up to now is      126.8 secs

     total energy              =    -658.54078447 Ry
     estimated scf accuracy    <          4.8E-09 Ry

     total magnetization       =     4.25 Bohr mag/cell
     absolute magnetization    =     4.50 Bohr mag/cell

     iteration # 17     ecut=   100.00 Ry     beta= 0.40
     Davidson diagonalization with overlap

---- Real-time Memory Report at c_bands before calling an iterative solver
            75 MiB given to the printing process from OS
             0 MiB allocation reported by mallinfo(arena+hblkhd)
           708 MiB available memory on the node where the printing process lives
------------------
     ethr =  1.50E-11,  avg # of iterations =  2.1

     negative rho (up, down):  0.000E+00 1.003E-04

     total cpu time spent up to now is      131.4 secs

     total energy              =    -658.54078447 Ry
     estimated scf accuracy    <          4.6E-10 Ry

     total magnetization       =     4.25 Bohr mag/cell
     absolute magnetization    =     4.50 Bohr mag/cell

     iteration # 18     ecut=   100.00 Ry     beta= 0.40
     Davidson diagonalization with overlap

---- Real-time Memory Report at c_bands before calling an iterative solver
            75 MiB given to the printing process from OS
             0 MiB allocation reported by mallinfo(arena+hblkhd)
           693 MiB available memory on the node where the printing process lives
------------------
     ethr =  1.42E-12,  avg # of iterations =  1.4

     negative rho (up, down):  0.000E+00 1.003E-04

     Magnetic moment per site  (integrated on atomic sphere of radius R)
     atom   1 (R=0.357)  charge= 14.3877  magn=  2.1783
     atom   2 (R=0.357)  charge= 14.3879  magn=  2.1784

     total cpu time spent up to now is      135.2 secs

     End of self-consistent calculation

 ------ SPIN UP ------------


          k = 0.0000 0.0000 0.0000 (  2553 PWs)   bands (ev):

   -69.7345 -69.5958 -35.8269 -35.8269 -35.8269 -35.5274 -35.5274 -35.5274
     9.8152  13.4617  13.4617  16.0666  16.0666  16.0666  17.2672  17.2672
    18.5212  18.5212  18.5212  28.2171

     occupation numbers 
     1.0000   1.0000   1.0000   1.0000   1.0000   1.0000   1.0000   1.0000
     1.0000   1.0000   1.0000   1.0000   1.0000   1.0000   1.0000   1.0000
     0.0000   0.0000   0.0000   0.0000

          k = 0.0000 0.0000 0.1000 (  2569 PWs)   bands (ev):

   -69.7306 -69.5987 -35.8259 -35.8192 -35.8192 -35.5411 -35.5343 -35.5343
    10.0234  13.5506  13.5530  16.0649  16.0649  16.1237  17.1729  17.3042
    18.3455  18.3455  18.4582  26.8816

     occupation numbers 
     1.0000   1.0000   1.0000   1.0000   1.0000   1.0000   1.0000   1.0000
     1.0000   1.0000   1.0000   1.0000   1.0000   1.0000   1.0000   1.0000
     0.9967   0.9967   0.0000   0.0000

          k = 0.0000 0.0000 0.2000 (  2593 PWs)   bands (ev):

   -69.7195 -69.6073 -35.8210 -35.7969 -35.7969 -35.5791 -35.5545 -35.5545
    10.6287  13.7873  13.8101  16.0731  16.0731  16.2902  16.8983  17.4104
    17.9076  17.9076  18.2762  24.4197

     occupation numbers 
     1.0000   1.0000   1.0000   1.0000   1.0000   1.0000   1.0000   1.0000
     1.0000   1.0000   1.0000   1.0000   1.0000   1.0000   1.0000   1.0000
     1.0000   1.0000   1.0000   0.0000

          k = 0.0000 0.0000 0.3000 (  2593 PWs)   bands (ev):

   -69.7025 -69.6210 -35.8082 -35.7624 -35.7624 -35.6327 -35.5863 -35.5863
    11.5634  14.0402  14.2193  16.1244  16.1244  16.4690  16.5522  17.3788
    17.3788  17.5853  17.9952  21.9707

     occupation numbers 
     1.0000   1.0000   1.0000   1.0000   1.0000   1.0000   1.0000   1.0000
     1.0000   1.0000   1.0000   1.0000   1.0000   1.0000   1.0000   1.0000
     1.0000   1.0000   1.0000   0.0000

          k = 0.0000 0.0000 0.4000 (  2593 PWs)   bands (ev):

   -69.6819 -69.6391 -35.7829 -35.7195 -35.7195 -35.6908 -35.6269 -35.6269
    12.6719  14.0848  14.7429  15.9281  16.2594  16.2594  16.8866  16.8904
    16.8904  17.6452  17.8917  19.9261

     occupation numbers 
     1.0000   1.0000   1.0000   1.0000   1.0000   1.0000   1.0000   1.0000
     1.0000   1.0000   1.0000   1.0000   1.0000   1.0000   1.0000   1.0000
     1.0000   1.0000   1.0000   0.0000

          k = 0.0000 0.0000-0.5000 (  2594 PWs)   bands (ev):

   -69.6600 -69.6600 -35.7432 -35.7431 -35.6729 -35.6729 -35.6728 -35.6728
    13.6350  13.6350  15.3320  15.3321  16.5106  16.5106  16.5106  16.5106
    17.2629  17.2629  18.5632  18.5633

     occupation numbers 
     1.0000   1.0000   1.0000   1.0000   1.0000   1.0000   1.0000   1.0000
     1.0000   1.0000   1.0000   1.0000   1.0000   1.0000   1.0000   1.0000
     1.0000   1.0000   0.0000   0.0000

          k = 0.0000 0.1000 0.1000 (  2578 PWs)   bands (ev):

   -69.7269 -69.6015 -35.8381 -35.8118 -35.7988 -35.5679 -35.5408 -35.5274
    10.2280  13.6321  13.6481  15.9541  16.0505  16.2888  17.1660  17.2767
    18.0446  18.1708  18.5471  26.9464

     occupation numbers 
     1.0000   1.0000   1.0000   1.0000   1.0000   1.0000   1.0000   1.0000
     1.0000   1.0000   1.0000   1.0000   1.0000   1.0000   1.0000   1.0000
     1.0000   1.0000   0.0000   0.0000

          k = 0.0000 0.1000 0.2000 (  2583 PWs)   bands (ev):

   -69.7162 -69.6095 -35.8443 -35.7905 -35.7673 -35.6150 -35.5599 -35.5361
    10.8206  13.8541  13.9070  15.8756  16.0211  16.5377  16.9734  17.3679
    17.5511  17.7460  18.4809  24.6678

     occupation numbers 
     1.0000   1.0000   1.0000   1.0000   1.0000   1.0000   1.0000   1.0000
     1.0000   1.0000   1.0000   1.0000   1.0000   1.0000   1.0000   1.0000
     1.0000   1.0000   0.0000   0.0000

          k = 0.0000 0.1000 0.3000 (  2575 PWs)   bands (ev):

   -69.7000 -69.6225 -35.8390 -35.7576 -35.7284 -35.6728 -35.5901 -35.5602
    11.7283  14.1046  14.2877  15.8716  15.9729  16.6884  16.8459  17.0205
    17.2648  17.5470  18.2641  22.1975

     occupation numbers 
     1.0000   1.0000   1.0000   1.0000   1.0000   1.0000   1.0000   1.0000
     1.0000   1.0000   1.0000   1.0000   1.0000   1.0000   1.0000   1.0000
     1.0000   1.0000   1.0000   0.0000

          k = 0.0000 0.1000 0.4000 (  2591 PWs)   bands (ev):

   -69.6804 -69.6396 -35.8190 -35.7317 -35.7168 -35.6843 -35.6287 -35.5959
    12.7880  14.1355  14.7678  15.7498  15.9694  16.5493  16.5581  16.8872
    17.2014  17.8706  17.9482  20.0934

     occupation numbers 
     1.0000   1.0000   1.0000   1.0000   1.0000   1.0000   1.0000   1.0000
     1.0000   1.0000   1.0000   1.0000   1.0000   1.0000   1.0000   1.0000
     1.0000   1.0000   1.0000   0.0000

          k = 0.0000 0.1000-0.5000 (  2588 PWs)   bands (ev):

   -69.6595 -69.6595 -35.7825 -35.7825 -35.6723 -35.6722 -35.6387 -35.6387
    13.6953  13.6953  15.2898  15.2899  16.1927  16.1927  16.6641  16.6641
    17.5801  17.5802  18.6221  18.6222

     occupation numbers 
     1.0000   1.0000   1.0000   1.0000   1.0000   1.0000   1.0000   1.0000
     1.0000   1.0000   1.0000   1.0000   1.0000   1.0000   1.0000   1.0000
     1.0000   1.0000   0.0000   0.0000

          k = 0.0000 0.2000 0.2000 (  2582 PWs)   bands (ev):

   -69.7069 -69.6162 -35.8675 -35.7721 -35.7246 -35.6732 -35.5759 -35.5273
    11.3683  13.9914  14.2058  15.6678  15.9362  16.9013  17.0004  17.0749
    17.3101  17.3824  18.6153  24.6609

     occupation numbers 
     1.0000   1.0000   1.0000   1.0000   1.0000   1.0000   1.0000   1.0000
     1.0000   1.0000   1.0000   1.0000   1.0000   1.0000   1.0000   1.0000
     1.0000   1.0000   0.0000   0.0000

          k = 0.0000 0.2000 0.3000 (  2594 PWs)   bands (ev):

   -69.6929 -69.6269 -35.8775 -35.7438 -35.7368 -35.6792 -35.6013 -35.5356
    12.1756  14.1210  14.6166  15.5525  15.8839  16.4646  16.9966  17.0496
    17.2913  17.4448  18.5661  22.6379

     occupation numbers 
     1.0000   1.0000   1.0000   1.0000   1.0000   1.0000   1.0000   1.0000
     1.0000   1.0000   1.0000   1.0000   1.0000   1.0000   1.0000   1.0000
     1.0000   1.0000   0.0000   0.0000

          k = 0.0000 0.2000 0.4000 (  2606 PWs)   bands (ev):

   -69.6760 -69.6413 -35.8699 -35.7961 -35.7088 -35.6342 -35.6339 -35.5586
    13.0468  14.0792  15.0558  15.5615  15.7686  16.0222  16.9156  16.9612
    17.6850  17.8048  18.3635  20.4702

     occupation numbers 
     1.0000   1.0000   1.0000   1.0000   1.0000   1.0000   1.0000   1.0000
     1.0000   1.0000   1.0000   1.0000   1.0000   1.0000   1.0000   1.0000
     1.0000   1.0000   0.7983   0.0000

          k = 0.0000 0.2000-0.5000 (  2582 PWs)   bands (ev):

   -69.6581 -69.6581 -35.8423 -35.8423 -35.6709 -35.6708 -35.5928 -35.5928
    13.7271  13.7271  15.4673  15.4673  15.7160  15.7160  16.9452  16.9452
    18.0547  18.0547  18.7746  18.7746

     occupation numbers 
     1.0000   1.0000   1.0000   1.0000   1.0000   1.0000   1.0000   1.0000
     1.0000   1.0000   1.0000   1.0000   1.0000   1.0000   1.0000   1.0000
     1.0000   1.0000   0.0000   0.0000

          k = 0.0000 0.3000 0.3000 (  2598 PWs)   bands (ev):

   -69.6823 -69.6343 -35.9036 -35.8018 -35.7227 -35.6319 -35.6191 -35.5273
    12.7522  14.0341  15.1264  15.3289  15.9527  16.0635  16.9397  17.1958
    17.3693  17.7331  18.7003  22.3342

     occupation numbers 
     1.0000   1.0000   1.0000   1.0000   1.0000   1.0000   1.0000   1.0000
     1.0000   1.0000   1.0000   1.0000   1.0000   1.0000   1.0000   1.0000
     1.0000   1.0000   0.0000   0.0000

          k = 0.0000 0.3000 0.4000 (  2577 PWs)   bands (ev):

   -69.6696 -69.6443 -35.9106 -35.8573 -35.6968 -35.6424 -35.5902 -35.5350
    13.2501  13.8531  15.2426  15.5578  15.6648  16.3090  17.0121  17.2577
    17.6877  18.1315  18.6533  20.7018

     occupation numbers 
     1.0000   1.0000   1.0000   1.0000   1.0000   1.0000   1.0000   1.0000
     1.0000   1.0000   1.0000   1.0000   1.0000   1.0000   1.0000   1.0000
     1.0000   1.0000   0.0000   0.0000

          k = 0.0000 0.3000-0.5000 (  2586 PWs)   bands (ev):

   -69.6565 -69.6564 -35.8951 -35.8951 -35.6692 -35.6691 -35.5569 -35.5569
    13.5982  13.5983  15.3167  15.3167  16.1087  16.1088  17.1749  17.1749
    18.4510  18.4510  18.9272  18.9272

     occupation numbers 
     1.0000   1.0000   1.0000   1.0000   1.0000   1.0000   1.0000   1.0000
     1.0000   1.0000   1.0000   1.0000   1.0000   1.0000   1.0000   1.0000
     0.0000   0.0000   0.0000   0.0000

          k = 0.0000 0.4000 0.4000 (  2582 PWs)   bands (ev):

   -69.6622 -69.6490 -35.9327 -35.9047 -35.6825 -35.6539 -35.5563 -35.5272
    13.3484  13.6174  15.0658  15.2251  16.3708  17.1556  17.1589  17.4327
    17.6550  18.4851  18.7696  20.2051

     occupation numbers 
     1.0000   1.0000   1.0000   1.0000   1.0000   1.0000   1.0000   1.0000
     1.0000   1.0000   1.0000   1.0000   1.0000   1.0000   1.0000   1.0000
     1.0000   0.0000   0.0000   0.0000

          k = 0.0000 0.4000-0.5000 (  2592 PWs)   bands (ev):

   -69.6551 -69.6551 -35.9311 -35.9311 -35.6677 -35.6677 -35.5347 -35.5347
    13.4480  13.4480  15.0573  15.0573  16.9622  16.9622  17.3115  17.3116
    18.7077  18.7077  18.9272  18.9272

     occupation numbers 
     1.0000   1.0000   1.0000   1.0000   1.0000   1.0000   1.0000   1.0000
     1.0000   1.0000   1.0000   1.0000   1.0000   1.0000   1.0000   1.0000
     0.0000   0.0000   0.0000   0.0000

          k = 0.0000-0.5000-0.5000 (  2544 PWs)   bands (ev):

   -69.6546 -69.6545 -35.9438 -35.9438 -35.6672 -35.6671 -35.5272 -35.5272
    13.3879  13.3879  14.9677  14.9677  17.3447  17.3447  17.4607  17.4608
    18.7962  18.7962  18.8146  18.8146

     occupation numbers 
     1.0000   1.0000   1.0000   1.0000   1.0000   1.0000   1.0000   1.0000
     1.0000   1.0000   1.0000   1.0000   1.0000   1.0000   1.0000   1.0000
     0.0000   0.0000   0.0000   0.0000

          k = 0.1000 0.1000 0.1000 (  2587 PWs)   bands (ev):

   -69.7233 -69.6040 -35.8301 -35.8301 -35.7739 -35.5923 -35.5346 -35.5346
    10.4294  13.7271  13.7271  15.9339  15.9339  16.4583  17.2115  17.2115
    17.6554  18.3718  18.3718  27.2994

     occupation numbers 
     1.0000   1.0000   1.0000   1.0000   1.0000   1.0000   1.0000   1.0000
     1.0000   1.0000   1.0000   1.0000   1.0000   1.0000   1.0000   1.0000
     1.0000   0.4884   0.4884   0.0000

          k = 0.1000 0.1000 0.2000 (  2589 PWs)   bands (ev):

   -69.7131 -69.6116 -35.8449 -35.8070 -35.7385 -35.6405 -35.5555 -35.5372
    11.0113  13.9565  13.9689  15.8159  15.8778  16.7534  17.0306  17.1195
    17.3328  17.9424  18.4122  24.9304

     occupation numbers 
     1.0000   1.0000   1.0000   1.0000   1.0000   1.0000   1.0000   1.0000
     1.0000   1.0000   1.0000   1.0000   1.0000   1.0000   1.0000   1.0000
     1.0000   1.0000   0.0000   0.0000

          k = 0.1000 0.1000 0.3000 (  2583 PWs)   bands (ev):

   -69.6976 -69.6239 -35.8474 -35.7713 -35.6991 -35.6981 -35.5885 -35.5538
    11.8958  14.2163  14.3118  15.7796  15.7999  16.6224  16.7939  17.1036
    17.4394  17.5187  18.2721  22.4455

     occupation numbers 
     1.0000   1.0000   1.0000   1.0000   1.0000   1.0000   1.0000   1.0000
     1.0000   1.0000   1.0000   1.0000   1.0000   1.0000   1.0000   1.0000
     1.0000   1.0000   1.0000   0.0000

          k = 0.1000 0.1000 0.4000 (  2595 PWs)   bands (ev):

   -69.6788 -69.6401 -35.8338 -35.7551 -35.7269 -35.6578 -35.6308 -35.5817
    12.9136  14.2233  14.7501  15.5738  15.9118  16.2875  16.6428  17.0019
    17.4343  17.9024  18.0121  20.3137

     occupation numbers 
     1.0000   1.0000   1.0000   1.0000   1.0000   1.0000   1.0000   1.0000
     1.0000   1.0000   1.0000   1.0000   1.0000   1.0000   1.0000   1.0000
     1.0000   1.0000   1.0000   0.0000

          k = 0.1000 0.1000-0.5000 (  2594 PWs)   bands (ev):

   -69.6590 -69.6589 -35.8024 -35.8023 -35.6784 -35.6784 -35.6176 -35.6176
    13.7774  13.7774  15.2042  15.2042  16.0937  16.0937  16.7153  16.7153
    17.7119  17.7119  18.7742  18.7743

     occupation numbers 
     1.0000   1.0000   1.0000   1.0000   1.0000   1.0000   1.0000   1.0000
     1.0000   1.0000   1.0000   1.0000   1.0000   1.0000   1.0000   1.0000
     1.0000   1.0000   0.0000   0.0000

          k = 0.1000 0.2000 0.2000 (  2600 PWs)   bands (ev):

   -69.7042 -69.6179 -35.8587 -35.7980 -35.6980 -35.6921 -35.5687 -35.5352
    11.5546  14.1052  14.2556  15.6273  15.7670  16.5660  17.1068  17.1468
    17.2896  17.7177  18.4342  25.0103

     occupation numbers 
     1.0000   1.0000   1.0000   1.0000   1.0000   1.0000   1.0000   1.0000
     1.0000   1.0000   1.0000   1.0000   1.0000   1.0000   1.0000   1.0000
     1.0000   1.0000   0.0000   0.0000

          k = 0.1000 0.2000 0.3000 (  2594 PWs)   bands (ev):

   -69.6908 -69.6281 -35.8711 -35.7666 -35.7505 -35.6573 -35.5975 -35.5412
    12.3504  14.2550  14.6246  15.5007  15.7040  16.1158  17.0234  17.3282
    17.4161  17.5919  18.3965  22.9528

     occupation numbers 
     1.0000   1.0000   1.0000   1.0000   1.0000   1.0000   1.0000   1.0000
     1.0000   1.0000   1.0000   1.0000   1.0000   1.0000   1.0000   1.0000
     1.0000   1.0000   0.0047   0.0000

          k = 0.1000 0.2000 0.4000 (  2593 PWs)   bands (ev):

   -69.6746 -69.6416 -35.8681 -35.8046 -35.7253 -35.6360 -35.6189 -35.5584
    13.1979  14.2173  14.9652  15.4113  15.7289  15.8896  16.9470  17.0561
    17.6111  18.1776  18.2045  20.8031

     occupation numbers 
     1.0000   1.0000   1.0000   1.0000   1.0000   1.0000   1.0000   1.0000
     1.0000   1.0000   1.0000   1.0000   1.0000   1.0000   1.0000   1.0000
     1.0000   1.0000   1.0000   0.0000

          k = 0.1000 0.2000-0.5000 (  2572 PWs)   bands (ev):

   -69.6576 -69.6576 -35.8457 -35.8456 -35.6801 -35.6800 -35.5851 -35.5851
    13.8565  13.8565  15.2409  15.2410  15.8050  15.8050  16.9593  16.9593
    17.9011  17.9011  19.1638  19.1639

     occupation numbers 
     1.0000   1.0000   1.0000   1.0000   1.0000   1.0000   1.0000   1.0000
     1.0000   1.0000   1.0000   1.0000   1.0000   1.0000   1.0000   1.0000
     1.0000   1.0000   0.0000   0.0000

          k = 0.1000 0.3000 0.3000 (  2578 PWs)   bands (ev):

   -69.6806 -69.6350 -35.8939 -35.8076 -35.7436 -35.6181 -35.6173 -35.5360
    12.9323  14.1695  15.1256  15.2909  15.7075  15.8165  17.1462  17.1958
    17.3706  18.0848  18.4762  22.7593

     occupation numbers 
     1.0000   1.0000   1.0000   1.0000   1.0000   1.0000   1.0000   1.0000
     1.0000   1.0000   1.0000   1.0000   1.0000   1.0000   1.0000   1.0000
     1.0000   1.0000   0.0000   0.0000

          k = 0.1000 0.3000 0.4000 (  2583 PWs)   bands (ev):

   -69.6684 -69.6445 -35.9022 -35.8570 -35.7119 -35.6448 -35.5847 -35.5421
    13.4170  13.9883  15.1972  15.3693  15.6946  16.0907  17.1114  17.2181
    17.5465  18.3690  18.6642  21.1898

     occupation numbers 
     1.0000   1.0000   1.0000   1.0000   1.0000   1.0000   1.0000   1.0000
     1.0000   1.0000   1.0000   1.0000   1.0000   1.0000   1.0000   1.0000
     1.0000   0.6043   0.0000   0.0000

          k = 0.1000 0.3000-0.5000 (  2588 PWs)   bands (ev):

   -69.6559 -69.6559 -35.8900 -35.8900 -35.6775 -35.6774 -35.5588 -35.5588
    13.7428  13.7428  15.2288  15.2288  16.0484  16.0484  17.1879  17.1880
    18.0139  18.0139  19.6182  19.6182

     occupation numbers 
     1.0000   1.0000   1.0000   1.0000   1.0000   1.0000   1.0000   1.0000
     1.0000   1.0000   1.0000   1.0000   1.0000   1.0000   1.0000   1.0000
     1.0000   1.0000   0.0000   0.0000

          k = 0.1000 0.4000 0.4000 (  2583 PWs)   bands (ev):

   -69.6614 -69.6488 -35.9224 -35.8987 -35.6936 -35.6577 -35.5587 -35.5367
    13.5063  13.7528  15.0402  15.1674  16.2901  16.8635  17.2145  17.3553
    17.4372  18.3388  19.2124  20.9082

     occupation numbers 
     1.0000   1.0000   1.0000   1.0000   1.0000   1.0000   1.0000   1.0000
     1.0000   1.0000   1.0000   1.0000   1.0000   1.0000   1.0000   1.0000
     1.0000   0.9997   0.0000   0.0000

          k = 0.1000 0.4000-0.5000 (  2584 PWs)   bands (ev):

   -69.6546 -69.6546 -35.9217 -35.9217 -35.6746 -35.6745 -35.5425 -35.5425
    13.5918  13.5918  15.0275  15.0275  16.8369  16.8369  17.3232  17.3233
    17.9551  17.9551  19.9820  19.9820

     occupation numbers 
     1.0000   1.0000   1.0000   1.0000   1.0000   1.0000   1.0000   1.0000
     1.0000   1.0000   1.0000   1.0000   1.0000   1.0000   1.0000   1.0000
     1.0000   1.0000   0.0000   0.0000

          k = 0.1000-0.5000-0.5000 (  2572 PWs)   bands (ev):

   -69.6541 -69.6540 -35.9332 -35.9332 -35.6733 -35.6732 -35.5370 -35.5370
    13.5309  13.5309  14.9483  14.9483  17.3626  17.3626  17.4641  17.4642
    17.6684  17.6684  20.1278  20.1278

     occupation numbers 
     1.0000   1.0000   1.0000   1.0000   1.0000   1.0000   1.0000   1.0000
     1.0000   1.0000   1.0000   1.0000   1.0000   1.0000   1.0000   1.0000
     1.0000   1.0000   0.0000   0.0000

          k = 0.2000 0.2000 0.2000 (  2590 PWs)   bands (ev):

   -69.6965 -69.6230 -35.8335 -35.8335 -35.7347 -35.6594 -35.5582 -35.5582
    12.0803  14.3959  14.3959  15.5200  15.5200  15.9994  17.2295  17.2295
    17.6019  18.0164  18.0164  25.9319

     occupation numbers 
     1.0000   1.0000   1.0000   1.0000   1.0000   1.0000   1.0000   1.0000
     1.0000   1.0000   1.0000   1.0000   1.0000   1.0000   1.0000   1.0000
     1.0000   1.0000   1.0000   0.0000

          k = 0.2000 0.2000 0.3000 (  2587 PWs)   bands (ev):

   -69.6848 -69.6314 -35.8591 -35.7945 -35.7838 -35.6242 -35.5945 -35.5545
    12.8281  14.5995  14.6487  15.3762  15.4212  15.6212  17.1431  17.3852
    17.5736  18.1084  18.1394  23.6668

     occupation numbers 
     1.0000   1.0000   1.0000   1.0000   1.0000   1.0000   1.0000   1.0000
     1.0000   1.0000   1.0000   1.0000   1.0000   1.0000   1.0000   1.0000
     1.0000   1.0000   1.0000   0.0000

          k = 0.2000 0.2000 0.4000 (  2591 PWs)   bands (ev):

   -69.6708 -69.6427 -35.8683 -35.8276 -35.7460 -35.6408 -35.5951 -35.5595
    13.5683  14.4975  14.8260  15.2162  15.5520  15.6697  17.0709  17.2438
    17.5575  18.0023  18.8170  21.5171

     occupation numbers 
     1.0000   1.0000   1.0000   1.0000   1.0000   1.0000   1.0000   1.0000
     1.0000   1.0000   1.0000   1.0000   1.0000   1.0000   1.0000   1.0000
     1.0000   1.0000   0.0000   0.0000

          k = 0.2000 0.2000-0.5000 (  2580 PWs)   bands (ev):

   -69.6563 -69.6562 -35.8575 -35.8575 -35.6930 -35.6929 -35.5732 -35.5732
    14.1094  14.1094  15.0363  15.0363  15.7333  15.7333  17.0821  17.0821
    17.7744  17.7744  19.8717  19.8717

     occupation numbers 
     1.0000   1.0000   1.0000   1.0000   1.0000   1.0000   1.0000   1.0000
     1.0000   1.0000   1.0000   1.0000   1.0000   1.0000   1.0000   1.0000
     1.0000   1.0000   0.0000   0.0000

          k = 0.2000 0.3000 0.3000 (  2583 PWs)   bands (ev):

   -69.6758 -69.6370 -35.8661 -35.8231 -35.7840 -35.6114 -35.5967 -35.5616
    13.4332  14.5377  15.1153  15.1961  15.2765  15.3821  17.2596  17.3698
    17.4631  18.0384  18.7710  23.8024

     occupation numbers 
     1.0000   1.0000   1.0000   1.0000   1.0000   1.0000   1.0000   1.0000
     1.0000   1.0000   1.0000   1.0000   1.0000   1.0000   1.0000   1.0000
     1.0000   1.0000   0.0000   0.0000

          k = 0.2000 0.3000 0.4000 (  2579 PWs)   bands (ev):

   -69.6653 -69.6449 -35.8790 -35.8571 -35.7440 -35.6493 -35.5775 -35.5624
    13.8721  14.3365  15.0941  15.0948  15.6119  15.6289  17.2522  17.3081
    17.4913  17.9446  19.5267  22.2074

     occupation numbers 
     1.0000   1.0000   1.0000   1.0000   1.0000   1.0000   1.0000   1.0000
     1.0000   1.0000   1.0000   1.0000   1.0000   1.0000   1.0000   1.0000
     1.0000   1.0000   0.0000   0.0000

          k = 0.2000 0.3000-0.5000 (  2582 PWs)   bands (ev):

   -69.6546 -69.6546 -35.8770 -35.8770 -35.6961 -35.6960 -35.5665 -35.5665
    14.1156  14.1156  15.0604  15.0604  15.8220  15.8220  17.2551  17.2552
    17.7088  17.7088  20.6228  20.6228

     occupation numbers 
     1.0000   1.0000   1.0000   1.0000   1.0000   1.0000   1.0000   1.0000
     1.0000   1.0000   1.0000   1.0000   1.0000   1.0000   1.0000   1.0000
     1.0000   1.0000   0.0000   0.0000

          k = 0.2000 0.4000 0.4000 (  2573 PWs)   bands (ev):

   -69.6591 -69.6484 -35.8925 -35.8824 -35.7214 -35.6660 -35.5682 -35.5644
    13.9433  14.1109  14.9809  15.0521  16.0365  16.1406  17.3392  17.3617
    17.4479  17.8465  20.3186  22.2248

     occupation numbers 
     1.0000   1.0000   1.0000   1.0000   1.0000   1.0000   1.0000   1.0000
     1.0000   1.0000   1.0000   1.0000   1.0000   1.0000   1.0000   1.0000
     1.0000   1.0000   0.0000   0.0000

          k = 0.2000 0.4000-0.5000 (  2568 PWs)   bands (ev):

   -69.6533 -69.6532 -35.8953 -35.8953 -35.6921 -35.6920 -35.5651 -35.5651
    13.9821  13.9821  14.9644  14.9644  16.3671  16.3672  17.3706  17.3706
    17.5995  17.5996  21.2963  21.2963

     occupation numbers 
     1.0000   1.0000   1.0000   1.0000   1.0000   1.0000   1.0000   1.0000
     1.0000   1.0000   1.0000   1.0000   1.0000   1.0000   1.0000   1.0000
     1.0000   1.0000   0.0000   0.0000

          k = 0.2000-0.5000-0.5000 (  2556 PWs)   bands (ev):

   -69.6527 -69.6527 -35.9025 -35.9025 -35.6894 -35.6893 -35.5654 -35.5654
    13.9231  13.9231  14.9062  14.9062  16.7281  16.7281  17.4077  17.4078
    17.4732  17.4733  21.6221  21.6221

     occupation numbers 
     1.0000   1.0000   1.0000   1.0000   1.0000   1.0000   1.0000   1.0000
     1.0000   1.0000   1.0000   1.0000   1.0000   1.0000   1.0000   1.0000
     1.0000   1.0000   0.0000   0.0000

          k = 0.3000 0.3000 0.3000 (  2587 PWs)   bands (ev):

   -69.6689 -69.6407 -35.8430 -35.8232 -35.8232 -35.6019 -35.6019 -35.5826
    14.0876  14.8344  15.0824  15.0824  15.0890  15.0890  17.3602  17.3602
    17.6644  17.6644  19.5536  25.1832

     occupation numbers 
     1.0000   1.0000   1.0000   1.0000   1.0000   1.0000   1.0000   1.0000
     1.0000   1.0000   1.0000   1.0000   1.0000   1.0000   1.0000   1.0000
     1.0000   1.0000   0.0000   0.0000

          k = 0.3000 0.3000 0.4000 (  2572 PWs)   bands (ev):

   -69.6609 -69.6460 -35.8590 -35.8513 -35.7696 -35.6532 -35.5909 -35.5780
    14.4082  14.5791  15.0148  15.0323  15.2868  15.4937  17.3478  17.4452
    17.4656  17.6915  20.4628  23.3229

     occupation numbers 
     1.0000   1.0000   1.0000   1.0000   1.0000   1.0000   1.0000   1.0000
     1.0000   1.0000   1.0000   1.0000   1.0000   1.0000   1.0000   1.0000
     1.0000   1.0000   0.0000   0.0000

          k = 0.3000 0.3000-0.5000 (  2578 PWs)   bands (ev):

   -69.6530 -69.6529 -35.8633 -35.8633 -35.7110 -35.7110 -35.5818 -35.5818
    14.4457  14.4457  14.9983  14.9983  15.6088  15.6088  17.3593  17.3594
    17.5860  17.5861  21.6762  21.6762

     occupation numbers 
     1.0000   1.0000   1.0000   1.0000   1.0000   1.0000   1.0000   1.0000
     1.0000   1.0000   1.0000   1.0000   1.0000   1.0000   1.0000   1.0000
     1.0000   1.0000   0.0000   0.0000

          k = 0.3000 0.4000 0.4000 (  2576 PWs)   bands (ev):

   -69.6560 -69.6482 -35.8605 -35.8463 -35.7560 -35.6708 -35.6079 -35.5871
    14.4973  14.5382  14.9319  15.0492  15.5306  15.6649  17.4198  17.4546
    17.4591  17.5992  21.4873  23.7821

     occupation numbers 
     1.0000   1.0000   1.0000   1.0000   1.0000   1.0000   1.0000   1.0000
     1.0000   1.0000   1.0000   1.0000   1.0000   1.0000   1.0000   1.0000
     1.0000   1.0000   0.0000   0.0000

          k = 0.3000 0.4000-0.5000 (  2568 PWs)   bands (ev):

   -69.6516 -69.6516 -35.8563 -35.8563 -35.7126 -35.7125 -35.6005 -35.6005
    14.4717  14.4717  14.9473  14.9473  15.8009  15.8009  17.4348  17.4348
    17.5183  17.5184  22.6922  22.6922

     occupation numbers 
     1.0000   1.0000   1.0000   1.0000   1.0000   1.0000   1.0000   1.0000
     1.0000   1.0000   1.0000   1.0000   1.0000   1.0000   1.0000   1.0000
     1.0000   1.0000   0.0000   0.0000

          k = 0.3000-0.5000-0.5000 (  2556 PWs)   bands (ev):

   -69.6511 -69.6511 -35.8551 -35.8551 -35.7091 -35.7090 -35.6102 -35.6102
    14.4501  14.4501  14.8842  14.8842  15.9913  15.9913  17.4577  17.4577
    17.4844  17.4845  23.2745  23.2745

     occupation numbers 
     1.0000   1.0000   1.0000   1.0000   1.0000   1.0000   1.0000   1.0000
     1.0000   1.0000   1.0000   1.0000   1.0000   1.0000   1.0000   1.0000
     1.0000   1.0000   0.0000   0.0000

          k = 0.4000 0.4000 0.4000 (  2551 PWs)   bands (ev):

   -69.6528 -69.6487 -35.8380 -35.7887 -35.7887 -35.6633 -35.6633 -35.6137
    14.6421  14.9456  14.9456  15.2455  15.3119  15.3119  17.4676  17.4676
    17.5067  17.5067  22.7183  25.5140

     occupation numbers 
     1.0000   1.0000   1.0000   1.0000   1.0000   1.0000   1.0000   1.0000
     1.0000   1.0000   1.0000   1.0000   1.0000   1.0000   1.0000   1.0000
     1.0000   1.0000   0.0000   0.0000

          k = 0.4000 0.4000-0.5000 (  2540 PWs)   bands (ev):

   -69.6503 -69.6503 -35.8154 -35.8154 -35.7256 -35.7255 -35.6420 -35.6420
    14.7617  14.7617  15.0655  15.0655  15.4394  15.4394  17.4775  17.4776
    17.4983  17.4983  24.0932  24.0932

     occupation numbers 
     1.0000   1.0000   1.0000   1.0000   1.0000   1.0000   1.0000   1.0000
     1.0000   1.0000   1.0000   1.0000   1.0000   1.0000   1.0000   1.0000
     1.0000   1.0000   0.0000   0.0000

          k = 0.4000-0.5000-0.5000 (  2544 PWs)   bands (ev):

   -69.6498 -69.6497 -35.7960 -35.7960 -35.7251 -35.7250 -35.6672 -35.6672
    14.9208  14.9208  14.9363  14.9363  15.4572  15.4572  17.4889  17.4890
    17.4935  17.4936  25.0715  25.0715

     occupation numbers 
     1.0000   1.0000   1.0000   1.0000   1.0000   1.0000   1.0000   1.0000
     1.0000   1.0000   1.0000   1.0000   1.0000   1.0000   1.0000   1.0000
     1.0000   1.0000   0.0000   0.0000

          k =-0.5000-0.5000-0.5000 (  2512 PWs)   bands (ev):

   -69.6493 -69.6492 -35.7312 -35.7312 -35.7312 -35.7311 -35.7311 -35.7311
    15.1140  15.1140  15.1140  15.1140  15.1140  15.1140  17.4970  17.4970
    17.4971  17.4971  26.9993  26.9993

     occupation numbers 
     1.0000   1.0000   1.0000   1.0000   1.0000   1.0000   1.0000   1.0000
     1.0000   1.0000   1.0000   1.0000   1.0000   1.0000   1.0000   1.0000
     1.0000   1.0000   0.0000   0.0000

 ------ SPIN DOWN ----------


          k = 0.0000 0.0000 0.0000 (  2553 PWs)   bands (ev):

   -67.1584 -67.0079 -33.3234 -33.3234 -33.3234 -32.9942 -32.9942 -32.9942
     9.9507  15.2623  15.2623  17.9027  17.9027  17.9027  20.0184  20.0184
    20.6347  20.6347  20.6347  28.4652

     occupation numbers 
     1.0000   1.0000   1.0000   1.0000   1.0000   1.0000   1.0000   1.0000
     1.0000   1.0000   1.0000   1.0000   1.0000   1.0000   0.0000   0.0000
     0.0000   0.0000   0.0000   0.0000

          k = 0.0000 0.0000 0.1000 (  2569 PWs)   bands (ev):

   -67.1541 -67.0111 -33.3225 -33.3149 -33.3149 -33.0095 -33.0017 -33.0017
    10.1604  15.3341  15.3679  17.8935  17.8935  17.9655  19.8948  20.0649
    20.4048  20.4048  20.5638  27.3464

     occupation numbers 
     1.0000   1.0000   1.0000   1.0000   1.0000   1.0000   1.0000   1.0000
     1.0000   1.0000   1.0000   1.0000   1.0000   1.0000   0.0000   0.0000
     0.0000   0.0000   0.0000   0.0000

          k = 0.0000 0.0000 0.2000 (  2593 PWs)   bands (ev):

   -67.1420 -67.0203 -33.3178 -33.2902 -33.2902 -33.0520 -33.0238 -33.0238
    10.7730  15.4870  15.6777  17.8823  17.8823  18.1491  19.5362  19.8589
    19.8589  20.1915  20.3593  25.2043

     occupation numbers 
     1.0000   1.0000   1.0000   1.0000   1.0000   1.0000   1.0000   1.0000
     1.0000   1.0000   1.0000   1.0000   1.0000   1.0000   0.0000   0.0000
     0.0000   0.0000   0.0000   0.0000

          k = 0.0000 0.0000 0.3000 (  2593 PWs)   bands (ev):

   -67.1236 -67.0352 -33.3046 -33.2523 -33.2523 -33.1118 -33.0587 -33.0587
    11.7359  15.5227  16.1703  17.9111  17.9111  18.4383  18.9802  19.2363
    19.2363  20.0440  20.3679  23.1610

     occupation numbers 
     1.0000   1.0000   1.0000   1.0000   1.0000   1.0000   1.0000   1.0000
     1.0000   1.0000   1.0000   1.0000   1.0000   0.0000   0.0000   0.0000
     0.0000   0.0000   0.0000   0.0000

          k = 0.0000 0.0000 0.4000 (  2593 PWs)   bands (ev):

   -67.1012 -67.0547 -33.2776 -33.2051 -33.2051 -33.1764 -33.1033 -33.1033
    12.9429  15.1360  16.8084  18.0306  18.0306  18.2882  18.6891  18.6891
    18.8086  19.6527  20.5831  21.6973

     occupation numbers 
     1.0000   1.0000   1.0000   1.0000   1.0000   1.0000   1.0000   1.0000
     1.0000   1.0000   1.0000   1.0000   1.0000   1.0000   0.0000   0.0000
     0.0000   0.0000   0.0000   0.0000

          k = 0.0000 0.0000-0.5000 (  2594 PWs)   bands (ev):

   -67.0774 -67.0774 -33.2342 -33.2341 -33.1538 -33.1538 -33.1537 -33.1537
    14.1892  14.1892  17.5378  17.5378  18.2830  18.2830  18.2830  18.2830
    19.2266  19.2266  20.9310  20.9310

     occupation numbers 
     1.0000   1.0000   1.0000   1.0000   1.0000   1.0000   1.0000   1.0000
     1.0000   1.0000   1.0000   1.0000   1.0000   1.0000   1.0000   1.0000
     0.0000   0.0000   0.0000   0.0000

          k = 0.0000 0.1000 0.1000 (  2578 PWs)   bands (ev):

   -67.1501 -67.0140 -33.3361 -33.3067 -33.2925 -33.0392 -33.0089 -32.9942
    10.3668  15.4307  15.4447  17.7676  17.8719  18.1445  19.8783  20.0288
    20.0466  20.1791  20.6636  27.4808

[...]

          k = 0.1000 0.2000 0.4000 (  2593 PWs)   bands (ev):

   -67.0932 -67.0574 -33.3710 -33.3014 -33.2118 -33.1134 -33.0949 -33.0285
    13.6244  15.4333  16.7192  17.1507  17.3571  17.6021  19.1456  19.3080
    19.9274  20.3463  20.4921  22.3683

     occupation numbers 
     1.0000   1.0000   1.0000   1.0000   1.0000   1.0000   1.0000   1.0000
     1.0000   1.0000   1.0000   1.0000   1.0000   1.0000   0.0000   0.0000
     0.0000   0.0000   0.0000   0.0000

          k = 0.1000 0.2000-0.5000 (  2572 PWs)   bands (ev):

   -67.0748 -67.0748 -33.3466 -33.3466 -33.1619 -33.1619 -33.0579 -33.0578
    14.6390  14.6390  17.0065  17.0065  17.4427  17.4427  19.1569  19.1569
    20.1636  20.1636  21.1608  21.1608

     occupation numbers 
     1.0000   1.0000   1.0000   1.0000   1.0000   1.0000   1.0000   1.0000
     1.0000   1.0000   1.0000   1.0000   1.0000   1.0000   0.0000   0.0000
     0.0000   0.0000   0.0000   0.0000

          k = 0.1000 0.3000 0.3000 (  2578 PWs)   bands (ev):

   -67.0997 -67.0502 -33.3994 -33.3047 -33.2320 -33.0940 -33.0927 -33.0040
    13.3168  15.6952  16.7623  16.9754  17.3374  17.4001  19.2730  19.7391
    20.0267  20.1429  20.6131  23.9020

     occupation numbers 
     1.0000   1.0000   1.0000   1.0000   1.0000   1.0000   1.0000   1.0000
     1.0000   1.0000   1.0000   1.0000   1.0000   1.0000   0.0000   0.0000
     0.0000   0.0000   0.0000   0.0000

          k = 0.1000 0.3000 0.4000 (  2583 PWs)   bands (ev):

   -67.0865 -67.0605 -33.4089 -33.3594 -33.1969 -33.1229 -33.0574 -33.0107
    14.1055  15.3135  16.8600  17.0158  17.2819  17.4076  19.3872  19.6747
    20.2348  20.5503  20.6066  22.5843

     occupation numbers 
     1.0000   1.0000   1.0000   1.0000   1.0000   1.0000   1.0000   1.0000
     1.0000   1.0000   1.0000   1.0000   1.0000   1.0000   0.0000   0.0000
     0.0000   0.0000   0.0000   0.0000

          k = 0.1000 0.3000-0.5000 (  2588 PWs)   bands (ev):

   -67.0729 -67.0729 -33.3957 -33.3957 -33.1589 -33.1589 -33.0290 -33.0290
    14.7867  14.7868  16.8846  16.8846  17.4629  17.4629  19.5520  19.5520
    20.3770  20.3770  21.3819  21.3819

     occupation numbers 
     1.0000   1.0000   1.0000   1.0000   1.0000   1.0000   1.0000   1.0000
     1.0000   1.0000   1.0000   1.0000   1.0000   1.0000   0.0000   0.0000
     0.0000   0.0000   0.0000   0.0000

          k = 0.1000 0.4000 0.4000 (  2583 PWs)   bands (ev):

   -67.0788 -67.0651 -33.4315 -33.4056 -33.1765 -33.1370 -33.0290 -33.0049
    14.4997  15.0534  16.6763  16.8057  17.7588  17.7983  19.6335  19.8479
    20.2421  20.5672  21.0149  22.2205

     occupation numbers 
     1.0000   1.0000   1.0000   1.0000   1.0000   1.0000   1.0000   1.0000
     1.0000   1.0000   1.0000   1.0000   1.0000   1.0000   0.0000   0.0000
     0.0000   0.0000   0.0000   0.0000

          k = 0.1000 0.4000-0.5000 (  2584 PWs)   bands (ev):

   -67.0714 -67.0714 -33.4310 -33.4310 -33.1555 -33.1555 -33.0112 -33.0112
    14.7874  14.7874  16.6552  16.6552  18.0623  18.0623  19.8101  19.8101
    20.3751  20.3751  21.5296  21.5296

     occupation numbers 
     1.0000   1.0000   1.0000   1.0000   1.0000   1.0000   1.0000   1.0000
     1.0000   1.0000   1.0000   1.0000   1.0000   1.0000   0.0000   0.0000
     0.0000   0.0000   0.0000   0.0000

          k = 0.1000-0.5000-0.5000 (  2572 PWs)   bands (ev):

   -67.0708 -67.0708 -33.4437 -33.4437 -33.1541 -33.1540 -33.0052 -33.0052
    14.7676  14.7676  16.5671  16.5671  18.4492  18.4492  19.8967  19.8968
    20.2837  20.2837  21.5660  21.5660

     occupation numbers 
     1.0000   1.0000   1.0000   1.0000   1.0000   1.0000   1.0000   1.0000
     1.0000   1.0000   1.0000   1.0000   0.0000   0.0000   0.0000   0.0000
     0.0000   0.0000   0.0000   0.0000

          k = 0.2000 0.2000 0.2000 (  2590 PWs)   bands (ev):

   -67.1170 -67.0373 -33.3317 -33.3317 -33.2238 -33.1392 -33.0282 -33.0282
    12.2695  16.1398  16.1398  17.2503  17.2503  17.6297  19.5164  19.9167
    19.9167  20.0770  20.0770  26.8955

     occupation numbers 
     1.0000   1.0000   1.0000   1.0000   1.0000   1.0000   1.0000   1.0000
     1.0000   1.0000   1.0000   1.0000   1.0000   1.0000   0.0000   0.0000
     0.0000   0.0000   0.0000   0.0000

          k = 0.2000 0.2000 0.3000 (  2587 PWs)   bands (ev):

   -67.1043 -67.0463 -33.3606 -33.2886 -33.2782 -33.1005 -33.0681 -33.0241
    13.0913  16.1845  16.3462  17.0838  17.0847  17.2643  19.6600  19.7398
    20.0216  20.1560  20.2423  24.8382

     occupation numbers 
     1.0000   1.0000   1.0000   1.0000   1.0000   1.0000   1.0000   1.0000
     1.0000   1.0000   1.0000   1.0000   1.0000   1.0000   0.0000   0.0000
     0.0000   0.0000   0.0000   0.0000

          k = 0.2000 0.2000 0.4000 (  2591 PWs)   bands (ev):

   -67.0891 -67.0586 -33.3712 -33.3267 -33.2350 -33.1191 -33.0685 -33.0296
    14.0490  15.6947  16.5601  16.9156  17.1029  17.3106  19.4244  19.5424
    20.2125  20.2574  20.7511  22.9945

     occupation numbers 
     1.0000   1.0000   1.0000   1.0000   1.0000   1.0000   1.0000   1.0000
     1.0000   1.0000   1.0000   1.0000   1.0000   1.0000   0.0000   0.0000
     0.0000   0.0000   0.0000   0.0000

          k = 0.2000 0.2000-0.5000 (  2580 PWs)   bands (ev):

   -67.0733 -67.0733 -33.3597 -33.3596 -33.1766 -33.1766 -33.0446 -33.0446
    14.9553  14.9553  16.7477  16.7477  17.2532  17.2532  19.4045  19.4045
    20.2466  20.2466  21.6545  21.6545

     occupation numbers 
     1.0000   1.0000   1.0000   1.0000   1.0000   1.0000   1.0000   1.0000
     1.0000   1.0000   1.0000   1.0000   1.0000   1.0000   0.0000   0.0000
     0.0000   0.0000   0.0000   0.0000

          k = 0.2000 0.3000 0.3000 (  2583 PWs)   bands (ev):

   -67.0945 -67.0524 -33.3686 -33.3217 -33.2772 -33.0867 -33.0703 -33.0322
    13.8151  16.0633  16.7082  16.8447  16.8977  16.9618  19.6718  19.8809
    20.1200  20.2413  20.6412  24.9312

     occupation numbers 
     1.0000   1.0000   1.0000   1.0000   1.0000   1.0000   1.0000   1.0000
     1.0000   1.0000   1.0000   1.0000   1.0000   1.0000   0.0000   0.0000
     0.0000   0.0000   0.0000   0.0000

          k = 0.2000 0.3000 0.4000 (  2579 PWs)   bands (ev):

   -67.0831 -67.0609 -33.3832 -33.3593 -33.2330 -33.1284 -33.0493 -33.0330
    14.5731  15.6708  16.6955  16.7157  16.9961  17.1121  19.6506  19.8126
    20.2375  20.2853  21.3062  23.5324

     occupation numbers 
     1.0000   1.0000   1.0000   1.0000   1.0000   1.0000   1.0000   1.0000
     1.0000   1.0000   1.0000   1.0000   1.0000   1.0000   0.0000   0.0000
     0.0000   0.0000   0.0000   0.0000

          k = 0.2000 0.3000-0.5000 (  2582 PWs)   bands (ev):

   -67.0714 -67.0714 -33.3813 -33.3813 -33.1801 -33.1800 -33.0374 -33.0374
    15.1887  15.1887  16.6657  16.6657  17.1527  17.1527  19.7103  19.7103
    20.2882  20.2882  22.2149  22.2149

     occupation numbers 
     1.0000   1.0000   1.0000   1.0000   1.0000   1.0000   1.0000   1.0000
     1.0000   1.0000   1.0000   1.0000   1.0000   1.0000   0.0000   0.0000
     0.0000   0.0000   0.0000   0.0000

          k = 0.2000 0.4000 0.4000 (  2573 PWs)   bands (ev):

   -67.0763 -67.0647 -33.3984 -33.3874 -33.2080 -33.1468 -33.0393 -33.0354
    14.9659  15.4330  16.5699  16.6357  17.2324  17.3763  19.8214  19.9550
    20.2500  20.3154  21.9196  23.4253

     occupation numbers 
     1.0000   1.0000   1.0000   1.0000   1.0000   1.0000   1.0000   1.0000
     1.0000   1.0000   1.0000   1.0000   1.0000   1.0000   0.0000   0.0000
     0.0000   0.0000   0.0000   0.0000

          k = 0.2000 0.4000-0.5000 (  2568 PWs)   bands (ev):

   -67.0699 -67.0699 -33.4016 -33.4016 -33.1754 -33.1754 -33.0362 -33.0362
    15.2068  15.2068  16.5402  16.5402  17.4963  17.4963  19.9293  19.9293
    20.2970  20.2970  22.6544  22.6545

     occupation numbers 
     1.0000   1.0000   1.0000   1.0000   1.0000   1.0000   1.0000   1.0000
     1.0000   1.0000   1.0000   1.0000   1.0000   1.0000   0.0000   0.0000
     0.0000   0.0000   0.0000   0.0000

          k = 0.2000-0.5000-0.5000 (  2556 PWs)   bands (ev):

   -67.0694 -67.0693 -33.4097 -33.4097 -33.1723 -33.1723 -33.0366 -33.0366
    15.1846  15.1846  16.4738  16.4738  17.7344  17.7344  19.9996  19.9996
    20.2958  20.2958  22.8291  22.8291

     occupation numbers 
     1.0000   1.0000   1.0000   1.0000   1.0000   1.0000   1.0000   1.0000
     1.0000   1.0000   1.0000   1.0000   1.0000   1.0000   0.0000   0.0000
     0.0000   0.0000   0.0000   0.0000

          k = 0.3000 0.3000 0.3000 (  2587 PWs)   bands (ev):

   -67.0869 -67.0563 -33.3436 -33.3210 -33.3210 -33.0766 -33.0766 -33.0547
    14.5174  16.3118  16.6245  16.6245  16.6892  16.6892  19.9907  19.9907
    20.0713  20.0713  21.3412  26.2498

     occupation numbers 
     1.0000   1.0000   1.0000   1.0000   1.0000   1.0000   1.0000   1.0000
     1.0000   1.0000   1.0000   1.0000   1.0000   1.0000   0.0000   0.0000
     0.0000   0.0000   0.0000   0.0000

          k = 0.3000 0.3000 0.4000 (  2572 PWs)   bands (ev):

   -67.0782 -67.0621 -33.3613 -33.3525 -33.2618 -33.1332 -33.0645 -33.0499
    15.1870  15.9536  16.5452  16.5670  16.6775  16.9046  19.9029  19.9994
    20.1849  20.2293  22.1075  24.5358

     occupation numbers 
     1.0000   1.0000   1.0000   1.0000   1.0000   1.0000   1.0000   1.0000
     1.0000   1.0000   1.0000   1.0000   1.0000   1.0000   0.0000   0.0000
     0.0000   0.0000   0.0000   0.0000

          k = 0.3000 0.3000-0.5000 (  2578 PWs)   bands (ev):

   -67.0696 -67.0696 -33.3660 -33.3660 -33.1970 -33.1970 -33.0543 -33.0543
    15.6196  15.6196  16.5168  16.5168  16.8819  16.8819  19.9274  19.9274
    20.2701  20.2701  23.1113  23.1113

     occupation numbers 
     1.0000   1.0000   1.0000   1.0000   1.0000   1.0000   1.0000   1.0000
     1.0000   1.0000   1.0000   1.0000   1.0000   1.0000   0.0000   0.0000
     0.0000   0.0000   0.0000   0.0000

          k = 0.3000 0.4000 0.4000 (  2576 PWs)   bands (ev):

   -67.0729 -67.0644 -33.3629 -33.3472 -33.2469 -33.1526 -33.0834 -33.0602
    15.6163  15.8684  16.4545  16.5211  16.7193  16.9593  20.0395  20.1089
    20.2283  20.2541  22.9470  24.8659

     occupation numbers 
     1.0000   1.0000   1.0000   1.0000   1.0000   1.0000   1.0000   1.0000
     1.0000   1.0000   1.0000   1.0000   1.0000   1.0000   0.0000   0.0000
     0.0000   0.0000   0.0000   0.0000

          k = 0.3000 0.4000-0.5000 (  2568 PWs)   bands (ev):

   -67.0681 -67.0681 -33.3583 -33.3583 -33.1988 -33.1987 -33.0752 -33.0752
    15.7519  15.7519  16.4365  16.4365  16.9699  16.9699  20.0927  20.0927
    20.2866  20.2867  23.9243  23.9243

     occupation numbers 
     1.0000   1.0000   1.0000   1.0000   1.0000   1.0000   1.0000   1.0000
     1.0000   1.0000   1.0000   1.0000   1.0000   1.0000   0.0000   0.0000
     0.0000   0.0000   0.0000   0.0000

          k = 0.3000-0.5000-0.5000 (  2556 PWs)   bands (ev):

   -67.0676 -67.0675 -33.3572 -33.3572 -33.1948 -33.1948 -33.0860 -33.0860
    15.7427  15.7427  16.3785  16.3785  17.1234  17.1234  20.1409  20.1409
    20.3108  20.3108  24.3464  24.3464

     occupation numbers 
     1.0000   1.0000   1.0000   1.0000   1.0000   1.0000   1.0000   1.0000
     1.0000   1.0000   1.0000   1.0000   1.0000   1.0000   0.0000   0.0000
     0.0000   0.0000   0.0000   0.0000

          k = 0.4000 0.4000 0.4000 (  2551 PWs)   bands (ev):

   -67.0694 -67.0650 -33.3380 -33.2834 -33.2834 -33.1447 -33.1447 -33.0896
    16.0545  16.2109  16.3943  16.3943  16.6320  16.6320  20.2178  20.2178
    20.2485  20.2485  24.0087  26.4843

     occupation numbers 
     1.0000   1.0000   1.0000   1.0000   1.0000   1.0000   1.0000   1.0000
     1.0000   1.0000   1.0000   1.0000   1.0000   1.0000   0.0000   0.0000
     0.0000   0.0000   0.0000   0.0000

          k = 0.4000 0.4000-0.5000 (  2540 PWs)   bands (ev):

   -67.0666 -67.0666 -33.3131 -33.3131 -33.2135 -33.2135 -33.1211 -33.1211
    16.1316  16.1316  16.4432  16.4432  16.6447  16.6447  20.2329  20.2330
    20.2978  20.2979  25.1900  25.1900

     occupation numbers 
     1.0000   1.0000   1.0000   1.0000   1.0000   1.0000   1.0000   1.0000
     1.0000   1.0000   1.0000   1.0000   1.0000   1.0000   0.0000   0.0000
     0.0000   0.0000   0.0000   0.0000

          k = 0.4000-0.5000-0.5000 (  2544 PWs)   bands (ev):

   -67.0661 -67.0660 -33.2916 -33.2916 -33.2129 -33.2129 -33.1490 -33.1490
    16.2357  16.2357  16.3462  16.3462  16.6879  16.6879  20.2719  20.2719
    20.3230  20.3230  26.0314  26.0314

     occupation numbers 
     1.0000   1.0000   1.0000   1.0000   1.0000   1.0000   1.0000   1.0000
     1.0000   1.0000   1.0000   1.0000   1.0000   1.0000   0.0000   0.0000
     0.0000   0.0000   0.0000   0.0000

          k =-0.5000-0.5000-0.5000 (  2512 PWs)   bands (ev):

   -67.0655 -67.0655 -33.2199 -33.2199 -33.2199 -33.2198 -33.2198 -33.2198
    16.4355  16.4355  16.4355  16.4355  16.4355  16.4355  20.3276  20.3276
    20.3277  20.3277  27.8484  27.8484

     occupation numbers 
     1.0000   1.0000   1.0000   1.0000   1.0000   1.0000   1.0000   1.0000
     1.0000   1.0000   1.0000   1.0000   1.0000   1.0000   0.0000   0.0000
     0.0000   0.0000   0.0000   0.0000

     the Fermi energy is    18.3716 ev

!    total energy              =    -658.54078447 Ry
     total all-electron energy =     -5091.133851 Ry
     estimated scf accuracy    <          3.1E-11 Ry
     smearing contrib. (-TS)   =      -0.00002365 Ry
     internal energy E=F+TS    =    -658.54076081 Ry

     The total energy is F=E-TS. E is the sum of the following terms:
     one-electron contribution =    -218.77469310 Ry
     hartree contribution      =     129.74457258 Ry
     xc contribution           =     -55.51051615 Ry
     ewald contribution        =    -348.41317887 Ry
     one-center paw contrib.   =    -165.58694527 Ry
      -> PAW hartree energy AE =     183.02002383 Ry
      -> PAW hartree energy PS =    -181.72134696 Ry
      -> PAW xc energy AE      =    -110.15529624 Ry
      -> PAW xc energy PS      =      26.06314635 Ry
      -> total E_H with PAW    =     131.04324945 Ry
      -> total E_XC with PAW   =    -139.60266604 Ry

     total magnetization       =     4.25 Bohr mag/cell
     absolute magnetization    =     4.50 Bohr mag/cell

     convergence has been achieved in  18 iterations

     negative rho (up, down):  0.000E+00 1.003E-04

     Forces acting on atoms (cartesian axes, Ry/au):

     atom    1 type  1   force =     0.00000000    0.00000000    0.00000000
     atom    2 type  1   force =     0.00000000    0.00000000    0.00000000
     The non-local contrib.  to forces
     atom    1 type  1   force =     0.00000000    0.00000000    0.00000000
     atom    2 type  1   force =     0.00000000    0.00000000    0.00000000
     The ionic contribution  to forces
     atom    1 type  1   force =    -0.00000000   -0.00000000   -0.00000000
     atom    2 type  1   force =     0.00000000    0.00000000    0.00000000
     The local contribution  to forces
     atom    1 type  1   force =     0.00000000    0.00000000    0.00000000
     atom    2 type  1   force =     0.00000000    0.00000000    0.00000000
     The core correction contribution to forces
     atom    1 type  1   force =     0.00000000   -0.00000000    0.00000000
     atom    2 type  1   force =    -0.00000000   -0.00000000    0.00000000
     The Hubbard contrib.    to forces
     atom    1 type  1   force =     0.00000000    0.00000000    0.00000000
     atom    2 type  1   force =     0.00000000    0.00000000    0.00000000
     The SCF correction term to forces
     atom    1 type  1   force =    -0.00000000   -0.00000000   -0.00000000
     atom    2 type  1   force =    -0.00000000   -0.00000000    0.00000000

     Total force =     0.000000     Total SCF correction =     0.000000

     BFGS Geometry Optimization
     Energy error            =      0.0E+00 Ry
     Gradient error          =      0.0E+00 Ry/Bohr

     bfgs converged in   1 scf cycles and   0 bfgs steps
     (criteria: energy <  1.0E-04 Ry, force <  1.0E-03 Ry/Bohr)

     End of BFGS Geometry Optimization

     Final energy             =    -658.5407844679 Ry
Begin final coordinates

ATOMIC_POSITIONS (crystal)
Fe               0.0000000000        0.0000000000        0.0000000000
Fe               0.5000000000        0.5000000000        0.5000000000
End final coordinates



     Writing all to output data dir ./out/Fe.save/ :
     XML data file, charge density, pseudopotentials, collected wavefunctions

     init_run     :      1.82s CPU      1.93s WALL (       1 calls)
     electrons    :     69.51s CPU    133.25s WALL (       1 calls)
     forces       :      0.52s CPU      0.53s WALL (       1 calls)

     Called by init_run:
     wfcinit      :      1.15s CPU      1.19s WALL (       1 calls)
     wfcinit:atom :      0.01s CPU      0.01s WALL (     112 calls)
     wfcinit:wfcr :      1.09s CPU      1.13s WALL (     112 calls)
     potinit      :      0.42s CPU      0.46s WALL (       1 calls)
     hinit0       :      0.17s CPU      0.17s WALL (       1 calls)

     Called by electrons:
     c_bands      :     52.57s CPU    115.65s WALL (      19 calls)
     sum_band     :     10.15s CPU     10.38s WALL (      19 calls)
     v_of_rho     :      0.43s CPU      0.44s WALL (      19 calls)
     v_h          :      0.02s CPU      0.02s WALL (      19 calls)
     v_xc         :      0.44s CPU      0.45s WALL (      20 calls)
     newd         :      1.10s CPU      1.14s WALL (      19 calls)
     PAW_pot      :      5.36s CPU      5.73s WALL (      19 calls)
     mix_rho      :      0.12s CPU      0.13s WALL (      19 calls)

     Called by c_bands:
     init_us_2    :      0.68s CPU      0.70s WALL (    4480 calls)
     cegterg      :     50.67s CPU    113.71s WALL (    2128 calls)

     Called by sum_band:
     sum_band:wei :      0.02s CPU      0.02s WALL (      19 calls)
     sum_band:loo :      8.37s CPU      8.54s WALL (      19 calls)
     sum_band:buf :      0.09s CPU      0.09s WALL (    2128 calls)
     sum_band:ini :      0.29s CPU      0.29s WALL (    2128 calls)
     sum_band:cal :      1.33s CPU      1.36s WALL (    2128 calls)
     sum_band:bec :      0.06s CPU      0.06s WALL (    2128 calls)
     addusdens    :      1.50s CPU      1.54s WALL (      19 calls)
                                        0.00s GPU  (      19 calls)
     addusd:skk   :      0.01s CPU      0.01s WALL (      19 calls)
                                        0.00s GPU  (      19 calls)

     Called by *egterg:
     cdiaghg      :      3.91s CPU      4.00s WALL (    6434 calls)
     cegterg:over :      3.93s CPU      4.05s WALL (    4418 calls)
     cegterg:upda :      1.50s CPU      1.53s WALL (    4418 calls)
     cegterg:last :      3.44s CPU      3.48s WALL (    3585 calls)
     h_psi        :     32.71s CPU     95.39s WALL (    6658 calls)
     s_psi        :      2.53s CPU      2.59s WALL (    6658 calls)
     g_psi        :      0.21s CPU      0.21s WALL (    4418 calls)

     Called by h_psi:
     h_psi:calbec :      3.41s CPU      3.52s WALL (    6658 calls)
     vloc_psi     :     26.53s CPU     89.04s WALL (    6658 calls)
     add_vuspsi   :      2.56s CPU      2.63s WALL (    6658 calls)

     General routines
     calbec       :      5.02s CPU      5.17s WALL (    9234 calls)
     fft          :      0.33s CPU      0.34s WALL (     490 calls)
     ffts         :      0.17s CPU      0.17s WALL (      76 calls)
     fftw         :     27.90s CPU     90.46s WALL (  236220 calls)
     interpolate  :      0.19s CPU      0.19s WALL (      38 calls)

     Parallel routines

     PAW routines
     PAW_pot      :      5.36s CPU      5.73s WALL (      19 calls)
     PAW_symme    :      0.04s CPU      0.04s WALL (      38 calls)

     PWSCF        :   1m12.23s CPU   2m16.59s WALL


   This run was terminated on:   9:13:23  16Apr2024            

=------------------------------------------------------------------------------=
   JOB DONE.
=------------------------------------------------------------------------------=
