
     Program PWSCF v.7.2 starts on 18Jul2024 at 18: 3:42 

     This program is part of the open-source Quantum ESPRESSO suite
     for quantum simulation of materials; please cite
         "P. Giannozzi et al., J. Phys.:Condens. Matter 21 395502 (2009);
         "P. Giannozzi et al., J. Phys.:Condens. Matter 29 465901 (2017);
         "P. Giannozzi et al., J. Chem. Phys. 152 154105 (2020);
          URL http://www.quantum-espresso.org", 
     in publications or presentations arising from this work. More details at
     http://www.quantum-espresso.org/quote

     Parallel version (MPI), running on  1456 processors

     MPI processes distributed on    13 nodes
     231670 MiB available memory on the printing compute node when the environment starts
 
     Reading input from 2.Cu_vac_in_ZnS.nscf.qn1.unrlxd.U6.in

     Current dimensions of program PWSCF are:
     Max number of different atomic species (ntypx) = 10
     Max number of k-points (npk) =  40000
     Max angular momentum in pseudopotentials (lmaxx) =  4

     Atomic positions and unit cell read from directory:
     ./out/Cu_vac_qn1_U6_unrlxd.save/
 
     file S.pbe-n-kjpaw_psl.1.0.0.UPF: wavefunction(s)  3S 3P renormalized
     file Zn.pbe-dnl-kjpaw_psl.1.0.0.UPF: wavefunction(s)  4S 3D renormalized
     file Cu.pbe-spn-kjpaw_psl.1.0.0.UPF: wavefunction(s)  4S 3P 3D renormalized
     [opt_tetra]  Optimized tetrahedron method is used.
 
     K-points division:     npool     =      13
     R & G space division:  proc/nbgrp/npool/nimage =     112
     Subspace diagonalization in iterative solution of the eigenvalue problem:
     one sub-group per band group will be used
     scalapack distributed-memory algorithm (size of sub-group:  3*  3 procs)

 
     Parallelization info
     --------------------
     sticks:   dense  smooth     PW     G-vecs:    dense   smooth      PW
     Min         180     180     46                19282    19282    2562
     Max         181     181     47                19291    19291    2573
     Sum       20217   20217   5249              2160009  2160009  287777
 
     Using Slab Decomposition
 


     bravais-lattice index     =            1
     lattice parameter (alat)  =      20.5686  a.u.
     unit-cell volume          =    8701.8437 (a.u.)^3
     number of atoms/cell      =           63
     number of atomic types    =            3
     number of electrons       =       578.00
     number of Kohn-Sham states=          347
     kinetic-energy cutoff     =     150.0000  Ry
     charge density cutoff     =     600.0000  Ry
     Exchange-correlation= SLA  PW   PBX  PBC
                           (   1   4   3   4   0   0   0)
     Hubbard projectors: ortho-atomic
     Hubbard parameters of DFT+U (Dudarev formulation) in eV:
     U(Zn-3d) =  7.0000
     U(Cu-3d) =  6.0000

     Internal variables: lda_plus_u = T, lda_plus_u_kind = 0

     celldm(1)=  20.568554  celldm(2)=   0.000000  celldm(3)=   0.000000
     celldm(4)=   0.000000  celldm(5)=   0.000000  celldm(6)=   0.000000

     crystal axes: (cart. coord. in units of alat)
               a(1) = (   1.000000   0.000000   0.000000 )  
               a(2) = (   0.000000   1.000000   0.000000 )  
               a(3) = (   0.000000   0.000000   1.000000 )  

     reciprocal axes: (cart. coord. in units 2 pi/alat)
               b(1) = (  1.000000  0.000000  0.000000 )  
               b(2) = (  0.000000  1.000000  0.000000 )  
               b(3) = (  0.000000  0.000000  1.000000 )  


     PseudoPot. # 1 for S  read from file:
     /arf/home/amuhaymin/pseudo/S.pbe-n-kjpaw_psl.1.0.0.UPF
     MD5 check sum: fb45dfebcf3e72a4e1bd4a866ec2e262
     Pseudo is Projector augmented-wave + core cor, Zval =  6.0
     Generated using &quot;atomic&quot; code by A. Dal Corso  v.6.3
     Shape of augmentation charge: PSQ
     Using radial grid of 1151 points,  6 beta functions with: 
                l(1) =   0
                l(2) =   0
                l(3) =   1
                l(4) =   1
                l(5) =   2
                l(6) =   2
     Q(r) pseudized with 0 coefficients 


     PseudoPot. # 2 for Zn read from file:
     /arf/home/amuhaymin/pseudo/Zn.pbe-dnl-kjpaw_psl.1.0.0.UPF
     MD5 check sum: c608214d9520ac179f507641260889e3
     Pseudo is Projector augmented-wave + core cor, Zval = 12.0
     Generated using &quot;atomic&quot; code by A. Dal Corso  v.6.2.2
     Shape of augmentation charge: PSQ
     Using radial grid of 1201 points,  6 beta functions with: 
                l(1) =   0
                l(2) =   0
                l(3) =   1
                l(4) =   1
                l(5) =   2
                l(6) =   2
     Q(r) pseudized with 0 coefficients 


     PseudoPot. # 3 for Cu read from file:
     /arf/home/amuhaymin/pseudo/Cu.pbe-spn-kjpaw_psl.1.0.0.UPF
     MD5 check sum: e7cbaad2f97193e5fe23251a619a52b0
     Pseudo is Projector augmented-wave + core cor, Zval = 19.0
     Generated using &quot;atomic&quot; code by A. Dal Corso  v.6.3
     Shape of augmentation charge: PSQ
     Using radial grid of 1199 points,  6 beta functions with: 
                l(1) =   0
                l(2) =   0
                l(3) =   1
                l(4) =   1
                l(5) =   2
                l(6) =   2
     Q(r) pseudized with 0 coefficients 


     atomic species   valence    mass     pseudopotential
        S              6.00    32.06500     S ( 1.00)
        Zn            12.00    65.38000     Zn( 1.00)
        Cu            19.00    63.54600     Cu( 1.00)

     Starting magnetic structure 
     atomic species   magnetization
        S            0.000
        Zn           0.000
        Cu           0.000

      6 Sym. Ops. (no inversion) found


                                    s                        frac. trans.

      isym =  1     identity                                     

 cryst.   s( 1) = (     1          0          0      )
                  (     0          1          0      )
                  (     0          0          1      )

 cart.    s( 1) = (  1.0000000  0.0000000  0.0000000 )
                  (  0.0000000  1.0000000  0.0000000 )
                  (  0.0000000  0.0000000  1.0000000 )


      isym =  2     120 deg rotation - cart. axis [-1,-1,-1]     

 cryst.   s( 2) = (     0          0          1      )
                  (     1          0          0      )
                  (     0          1          0      )

 cart.    s( 2) = (  0.0000000  1.0000000  0.0000000 )
                  (  0.0000000  0.0000000  1.0000000 )
                  (  1.0000000  0.0000000  0.0000000 )


      isym =  3     120 deg rotation - cart. axis [1,1,1]        

 cryst.   s( 3) = (     0          1          0      )
                  (     0          0          1      )
                  (     1          0          0      )

 cart.    s( 3) = (  0.0000000  0.0000000  1.0000000 )
                  (  1.0000000  0.0000000  0.0000000 )
                  (  0.0000000  1.0000000  0.0000000 )


      isym =  4     inv. 180 deg rotation - cart. axis [1,-1,0]  

 cryst.   s( 4) = (     0          1          0      )
                  (     1          0          0      )
                  (     0          0          1      )

 cart.    s( 4) = (  0.0000000  1.0000000  0.0000000 )
                  (  1.0000000  0.0000000  0.0000000 )
                  (  0.0000000  0.0000000  1.0000000 )


      isym =  5     inv. 180 deg rotation - cart. axis [-1,0,1]  

 cryst.   s( 5) = (     0          0          1      )
                  (     0          1          0      )
                  (     1          0          0      )

 cart.    s( 5) = (  0.0000000  0.0000000  1.0000000 )
                  (  0.0000000  1.0000000  0.0000000 )
                  (  1.0000000  0.0000000  0.0000000 )


      isym =  6     inv. 180 deg rotation - cart. axis [0,1,-1]  

 cryst.   s( 6) = (     1          0          0      )
                  (     0          0          1      )
                  (     0          1          0      )

 cart.    s( 6) = (  1.0000000  0.0000000  0.0000000 )
                  (  0.0000000  0.0000000  1.0000000 )
                  (  0.0000000  1.0000000  0.0000000 )


     point group C_3v (3m)  
     there are  3 classes
     the character table:

       E     2C3   3s_v 
A_1    1.00  1.00  1.00
A_2    1.00  1.00 -1.00
E      2.00 -1.00  0.00

     the symmetry operations in each class and the name of the first element:

     E        1
          identity                                               
     2C3      2    3
          120 deg rotation - cart. axis [-1,-1,-1]               
     3s_v     4    5    6
          inv. 180 deg rotation - cart. axis [1,-1,0]            

   Cartesian axes

     site n.     atom                  positions (alat units)
         1           Zn  tau(   1) = (   0.0000000   0.0000000   0.0000000  )
         2           Zn  tau(   2) = (   0.0000000   0.2500000   0.2500000  )
         3           Zn  tau(   3) = (   0.2500000   0.0000000   0.2500000  )
         4           Zn  tau(   4) = (   0.2500000   0.2500000   0.0000000  )
         5           S   tau(   5) = (   0.1250000   0.3750000   0.3750000  )
         6           S   tau(   6) = (   0.1250000   0.1250000   0.1250000  )
         7           S   tau(   7) = (   0.3750000   0.3750000   0.1250000  )
         8           S   tau(   8) = (   0.3750000   0.1250000   0.3750000  )
         9           Zn  tau(   9) = (   0.0000000   0.0000000   0.5000000  )
        10           Zn  tau(  10) = (   0.0000000   0.2500000   0.7500000  )
        11           Zn  tau(  11) = (   0.2500000   0.0000000   0.7500000  )
        12           Zn  tau(  12) = (   0.2500000   0.2500000   0.5000000  )
        13           S   tau(  13) = (   0.1250000   0.3750000   0.8750000  )
        14           S   tau(  14) = (   0.1250000   0.1250000   0.6250000  )
        15           S   tau(  15) = (   0.3750000   0.3750000   0.6250000  )
        16           S   tau(  16) = (   0.3750000   0.1250000   0.8750000  )
        17           Zn  tau(  17) = (   0.0000000   0.5000000   0.0000000  )
        18           Zn  tau(  18) = (   0.0000000   0.7500000   0.2500000  )
        19           Zn  tau(  19) = (   0.2500000   0.5000000   0.2500000  )
        20           Zn  tau(  20) = (   0.2500000   0.7500000   0.0000000  )
        21           S   tau(  21) = (   0.1250000   0.8750000   0.3750000  )
        22           S   tau(  22) = (   0.1250000   0.6250000   0.1250000  )
        23           S   tau(  23) = (   0.3750000   0.8750000   0.1250000  )
        24           S   tau(  24) = (   0.3750000   0.6250000   0.3750000  )
        25           Zn  tau(  25) = (   0.0000000   0.5000000   0.5000000  )
        26           Zn  tau(  26) = (   0.0000000   0.7500000   0.7500000  )
        27           Zn  tau(  27) = (   0.2500000   0.5000000   0.7500000  )
        28           Zn  tau(  28) = (   0.2500000   0.7500000   0.5000000  )
        29           S   tau(  29) = (   0.1250000   0.8750000   0.8750000  )
        30           S   tau(  30) = (   0.1250000   0.6250000   0.6250000  )
        31           S   tau(  31) = (   0.3750000   0.8750000   0.6250000  )
        32           S   tau(  32) = (   0.3750000   0.6250000   0.8750000  )
        33           Zn  tau(  33) = (   0.5000000   0.0000000   0.0000000  )
        34           Zn  tau(  34) = (   0.5000000   0.2500000   0.2500000  )
        35           Zn  tau(  35) = (   0.7500000   0.0000000   0.2500000  )
        36           Zn  tau(  36) = (   0.7500000   0.2500000   0.0000000  )
        37           S   tau(  37) = (   0.6250000   0.3750000   0.3750000  )
        38           S   tau(  38) = (   0.6250000   0.1250000   0.1250000  )
        39           S   tau(  39) = (   0.8750000   0.3750000   0.1250000  )
        40           S   tau(  40) = (   0.8750000   0.1250000   0.3750000  )
        41           Zn  tau(  41) = (   0.5000000   0.0000000   0.5000000  )
        42           Zn  tau(  42) = (   0.5000000   0.2500000   0.7500000  )
        43           Zn  tau(  43) = (   0.7500000   0.0000000   0.7500000  )
        44           Zn  tau(  44) = (   0.7500000   0.2500000   0.5000000  )
        45           S   tau(  45) = (   0.6250000   0.3750000   0.8750000  )
        46           S   tau(  46) = (   0.6250000   0.1250000   0.6250000  )
        47           S   tau(  47) = (   0.8750000   0.3750000   0.6250000  )
        48           S   tau(  48) = (   0.8750000   0.1250000   0.8750000  )
        49           Zn  tau(  49) = (   0.5000000   0.5000000   0.0000000  )
        50           Zn  tau(  50) = (   0.5000000   0.7500000   0.2500000  )
        51           Zn  tau(  51) = (   0.7500000   0.5000000   0.2500000  )
        52           Zn  tau(  52) = (   0.7500000   0.7500000   0.0000000  )
        53           S   tau(  53) = (   0.6250000   0.8750000   0.3750000  )
        54           S   tau(  54) = (   0.6250000   0.6250000   0.1250000  )
        55           S   tau(  55) = (   0.8750000   0.8750000   0.1250000  )
        56           S   tau(  56) = (   0.8750000   0.6250000   0.3750000  )
        57           Cu  tau(  57) = (   0.5000000   0.5000000   0.5000000  )
        58           Zn  tau(  58) = (   0.5000000   0.7500000   0.7500000  )
        59           Zn  tau(  59) = (   0.7500000   0.5000000   0.7500000  )
        60           Zn  tau(  60) = (   0.7500000   0.7500000   0.5000000  )
        61           S   tau(  61) = (   0.6250000   0.8750000   0.8750000  )
        62           S   tau(  62) = (   0.8750000   0.8750000   0.6250000  )
        63           S   tau(  63) = (   0.8750000   0.6250000   0.8750000  )

   Crystallographic axes

     site n.     atom                  positions (cryst. coord.)
         1           Zn  tau(   1) = (  0.0000000  0.0000000  0.0000000  )
         2           Zn  tau(   2) = (  0.0000000  0.2500000  0.2500000  )
         3           Zn  tau(   3) = (  0.2500000  0.0000000  0.2500000  )
         4           Zn  tau(   4) = (  0.2500000  0.2500000  0.0000000  )
         5           S   tau(   5) = (  0.1250000  0.3750000  0.3750000  )
         6           S   tau(   6) = (  0.1250000  0.1250000  0.1250000  )
         7           S   tau(   7) = (  0.3750000  0.3750000  0.1250000  )
         8           S   tau(   8) = (  0.3750000  0.1250000  0.3750000  )
         9           Zn  tau(   9) = (  0.0000000  0.0000000  0.5000000  )
        10           Zn  tau(  10) = (  0.0000000  0.2500000  0.7500000  )
        11           Zn  tau(  11) = (  0.2500000  0.0000000  0.7500000  )
        12           Zn  tau(  12) = (  0.2500000  0.2500000  0.5000000  )
        13           S   tau(  13) = (  0.1250000  0.3750000  0.8750000  )
        14           S   tau(  14) = (  0.1250000  0.1250000  0.6250000  )
        15           S   tau(  15) = (  0.3750000  0.3750000  0.6250000  )
        16           S   tau(  16) = (  0.3750000  0.1250000  0.8750000  )
        17           Zn  tau(  17) = (  0.0000000  0.5000000  0.0000000  )
        18           Zn  tau(  18) = (  0.0000000  0.7500000  0.2500000  )
        19           Zn  tau(  19) = (  0.2500000  0.5000000  0.2500000  )
        20           Zn  tau(  20) = (  0.2500000  0.7500000  0.0000000  )
        21           S   tau(  21) = (  0.1250000  0.8750000  0.3750000  )
        22           S   tau(  22) = (  0.1250000  0.6250000  0.1250000  )
        23           S   tau(  23) = (  0.3750000  0.8750000  0.1250000  )
        24           S   tau(  24) = (  0.3750000  0.6250000  0.3750000  )
        25           Zn  tau(  25) = (  0.0000000  0.5000000  0.5000000  )
        26           Zn  tau(  26) = (  0.0000000  0.7500000  0.7500000  )
        27           Zn  tau(  27) = (  0.2500000  0.5000000  0.7500000  )
        28           Zn  tau(  28) = (  0.2500000  0.7500000  0.5000000  )
        29           S   tau(  29) = (  0.1250000  0.8750000  0.8750000  )
        30           S   tau(  30) = (  0.1250000  0.6250000  0.6250000  )
        31           S   tau(  31) = (  0.3750000  0.8750000  0.6250000  )
        32           S   tau(  32) = (  0.3750000  0.6250000  0.8750000  )
        33           Zn  tau(  33) = (  0.5000000  0.0000000  0.0000000  )
        34           Zn  tau(  34) = (  0.5000000  0.2500000  0.2500000  )
        35           Zn  tau(  35) = (  0.7500000  0.0000000  0.2500000  )
        36           Zn  tau(  36) = (  0.7500000  0.2500000  0.0000000  )
        37           S   tau(  37) = (  0.6250000  0.3750000  0.3750000  )
        38           S   tau(  38) = (  0.6250000  0.1250000  0.1250000  )
        39           S   tau(  39) = (  0.8750000  0.3750000  0.1250000  )
        40           S   tau(  40) = (  0.8750000  0.1250000  0.3750000  )
        41           Zn  tau(  41) = (  0.5000000  0.0000000  0.5000000  )
        42           Zn  tau(  42) = (  0.5000000  0.2500000  0.7500000  )
        43           Zn  tau(  43) = (  0.7500000  0.0000000  0.7500000  )
        44           Zn  tau(  44) = (  0.7500000  0.2500000  0.5000000  )
        45           S   tau(  45) = (  0.6250000  0.3750000  0.8750000  )
        46           S   tau(  46) = (  0.6250000  0.1250000  0.6250000  )
        47           S   tau(  47) = (  0.8750000  0.3750000  0.6250000  )
        48           S   tau(  48) = (  0.8750000  0.1250000  0.8750000  )
        49           Zn  tau(  49) = (  0.5000000  0.5000000  0.0000000  )
        50           Zn  tau(  50) = (  0.5000000  0.7500000  0.2500000  )
        51           Zn  tau(  51) = (  0.7500000  0.5000000  0.2500000  )
        52           Zn  tau(  52) = (  0.7500000  0.7500000  0.0000000  )
        53           S   tau(  53) = (  0.6250000  0.8750000  0.3750000  )
        54           S   tau(  54) = (  0.6250000  0.6250000  0.1250000  )
        55           S   tau(  55) = (  0.8750000  0.8750000  0.1250000  )
        56           S   tau(  56) = (  0.8750000  0.6250000  0.3750000  )
        57           Cu  tau(  57) = (  0.5000000  0.5000000  0.5000000  )
        58           Zn  tau(  58) = (  0.5000000  0.7500000  0.7500000  )
        59           Zn  tau(  59) = (  0.7500000  0.5000000  0.7500000  )
        60           Zn  tau(  60) = (  0.7500000  0.7500000  0.5000000  )
        61           S   tau(  61) = (  0.6250000  0.8750000  0.8750000  )
        62           S   tau(  62) = (  0.8750000  0.8750000  0.6250000  )
        63           S   tau(  63) = (  0.8750000  0.6250000  0.8750000  )

     number of k points=    13 (tetrahedron method)
                       cart. coord. in units 2pi/alat
        k(    1) = (   0.0000000   0.0000000   0.0000000), wk =   0.0156250
        k(    2) = (   0.0000000   0.0000000   0.2500000), wk =   0.0937500
        k(    3) = (   0.0000000   0.0000000  -0.5000000), wk =   0.0468750
        k(    4) = (   0.0000000   0.2500000   0.2500000), wk =   0.0937500
        k(    5) = (   0.0000000   0.2500000  -0.5000000), wk =   0.1875000
        k(    6) = (   0.0000000  -0.5000000  -0.5000000), wk =   0.0468750
        k(    7) = (   0.2500000   0.2500000   0.2500000), wk =   0.0312500
        k(    8) = (   0.2500000   0.2500000  -0.5000000), wk =   0.0937500
        k(    9) = (   0.2500000  -0.5000000  -0.5000000), wk =   0.0937500
        k(   10) = (  -0.5000000  -0.5000000  -0.5000000), wk =   0.0156250
        k(   11) = (  -0.2500000   0.0000000   0.2500000), wk =   0.0937500
        k(   12) = (   0.2500000  -0.2500000   0.2500000), wk =   0.0937500
        k(   13) = (   0.2500000  -0.2500000  -0.5000000), wk =   0.0937500

                       cryst. coord.
        k(    1) = (   0.0000000   0.0000000   0.0000000), wk =   0.0156250
        k(    2) = (   0.0000000   0.0000000   0.2500000), wk =   0.0937500
        k(    3) = (   0.0000000   0.0000000  -0.5000000), wk =   0.0468750
        k(    4) = (   0.0000000   0.2500000   0.2500000), wk =   0.0937500
        k(    5) = (   0.0000000   0.2500000  -0.5000000), wk =   0.1875000
        k(    6) = (   0.0000000  -0.5000000  -0.5000000), wk =   0.0468750
        k(    7) = (   0.2500000   0.2500000   0.2500000), wk =   0.0312500
        k(    8) = (   0.2500000   0.2500000  -0.5000000), wk =   0.0937500
        k(    9) = (   0.2500000  -0.5000000  -0.5000000), wk =   0.0937500
        k(   10) = (  -0.5000000  -0.5000000  -0.5000000), wk =   0.0156250
        k(   11) = (  -0.2500000   0.0000000   0.2500000), wk =   0.0937500
        k(   12) = (   0.2500000  -0.2500000   0.2500000), wk =   0.0937500
        k(   13) = (   0.2500000  -0.2500000  -0.5000000), wk =   0.0937500

     Dense  grid:  2160009 G-vectors     FFT dimensions: ( 162, 162, 162)

     Dynamical RAM for                 wfc:      12.76 MB

     Dynamical RAM for     wfc (w. buffer):      38.28 MB

     Dynamical RAM for             U proj.:       5.88 MB

     Dynamical RAM for  U proj. (w. buff.):      17.65 MB

     Dynamical RAM for           str. fact:       0.88 MB

     Dynamical RAM for           local pot:       0.00 MB

     Dynamical RAM for          nlocal pot:      41.70 MB

     Dynamical RAM for                qrad:       5.90 MB

     Dynamical RAM for          rho,v,vnew:       4.17 MB

     Dynamical RAM for           G-vectors:       1.25 MB

     Dynamical RAM for          h,s,v(r/c):       2.44 MB

     Dynamical RAM for          <psi|beta>:       6.00 MB

     Dynamical RAM for                 psi:      25.52 MB

     Dynamical RAM for                hpsi:      25.52 MB

     Dynamical RAM for                spsi:      25.52 MB

     Dynamical RAM for      wfcinit/wfcrot:      34.28 MB

     Dynamical RAM for           addusdens:       5.48 MB

     Estimated static dynamical RAM per process >     113.41 MB

     Estimated max dynamical RAM per process >     198.42 MB

     Estimated total dynamical RAM >     282.13 GB
     Generating pointlists ...
     new r_m :   0.0893 (alat units)  1.8370 (a.u.) for type    1
     new r_m :   0.0893 (alat units)  1.8370 (a.u.) for type    2
     new r_m :   0.0893 (alat units)  1.8370 (a.u.) for type    3

     The potential is recalculated from file :
     ./out/Cu_vac_qn1_U6_unrlxd.save/charge-density


     HUBBARD ENERGY =    0.2744  (Ry)

     STARTING HUBBARD OCCUPATIONS:

     =================== HUBBARD OCCUPATIONS ===================
     ------------------------ ATOM    1 ------------------------
     Tr[ns(  1)] (up, down, total) =   4.98377  4.98377  9.96755
     Atomic magnetic moment for atom   1 =   0.00000
     SPIN  1
     eigenvalues:
       0.996  0.996  0.996  0.998  0.998
     eigenvectors (columns):
       0.000  0.000 -0.000  0.126  0.992
      -0.064 -0.814 -0.577 -0.000  0.000
      -0.673  0.462 -0.577  0.000  0.000
      -0.000  0.000  0.000 -0.992  0.126
      -0.737 -0.352  0.577  0.000  0.000
     occupation matrix ns (before diag.):
       0.998  0.000  0.000  0.000  0.000
       0.000  0.996  0.000  0.000 -0.000
       0.000  0.000  0.996 -0.000 -0.000
       0.000  0.000 -0.000  0.998 -0.000
       0.000 -0.000 -0.000 -0.000  0.996
     SPIN  2
     eigenvalues:
       0.996  0.996  0.996  0.998  0.998
     eigenvectors (columns):
      -0.000 -0.000 -0.000  0.214  0.977
      -0.041  0.815 -0.577 -0.000  0.000
       0.727 -0.372 -0.577  0.000  0.000
       0.000 -0.000  0.000 -0.977  0.214
       0.686  0.443  0.577  0.000  0.000
     occupation matrix ns (before diag.):
       0.998  0.000  0.000  0.000  0.000
       0.000  0.996  0.000  0.000 -0.000
       0.000  0.000  0.996 -0.000 -0.000
       0.000  0.000 -0.000  0.998 -0.000
       0.000 -0.000 -0.000 -0.000  0.996
     ------------------------ ATOM    2 ------------------------
     Tr[ns(  2)] (up, down, total) =   4.98377  4.98377  9.96754
     Atomic magnetic moment for atom   2 =  -0.00000
     SPIN  1
     eigenvalues:
       0.996  0.996  0.996  0.998  0.998
     eigenvectors (columns):
       0.002  0.009 -0.001 -0.500 -0.866
      -0.554  0.707 -0.440 -0.001  0.007
      -0.622  0.000  0.783 -0.004 -0.000
      -0.003  0.005  0.002  0.866 -0.500
       0.554  0.707  0.440  0.001  0.007
     occupation matrix ns (before diag.):
       0.998 -0.000  0.000  0.000 -0.000
      -0.000  0.996 -0.000 -0.000 -0.000
       0.000 -0.000  0.996 -0.000  0.000
       0.000 -0.000 -0.000  0.998 -0.000
      -0.000 -0.000  0.000 -0.000  0.996
     SPIN  2
     eigenvalues:
       0.996  0.996  0.996  0.998  0.998
     eigenvectors (columns):
       0.002  0.009 -0.001 -0.500 -0.866
      -0.554  0.707 -0.440 -0.001  0.007
      -0.622  0.000  0.783 -0.004 -0.000
      -0.003  0.005  0.002  0.866 -0.500
       0.554  0.707  0.440  0.001  0.007
     occupation matrix ns (before diag.):
       0.998 -0.000  0.000  0.000 -0.000
      -0.000  0.996 -0.000 -0.000 -0.000
       0.000 -0.000  0.996 -0.000  0.000
       0.000 -0.000 -0.000  0.998 -0.000
      -0.000 -0.000  0.000 -0.000  0.996
     ------------------------ ATOM    3 ------------------------
     Tr[ns(  3)] (up, down, total) =   4.98377  4.98377  9.96754
     Atomic magnetic moment for atom   3 =  -0.00000
     SPIN  1
     eigenvalues:
       0.996  0.996  0.996  0.998  0.998
     eigenvectors (columns):
       0.002  0.009 -0.001 -0.500 -0.866
      -0.622  0.000  0.783 -0.004  0.000
      -0.554  0.707 -0.440 -0.001  0.007
       0.003 -0.005 -0.002 -0.866  0.500
       0.554  0.707  0.440  0.001  0.007
     occupation matrix ns (before diag.):
       0.998  0.000 -0.000 -0.000 -0.000
       0.000  0.996 -0.000  0.000  0.000
      -0.000 -0.000  0.996  0.000 -0.000
      -0.000  0.000  0.000  0.998  0.000
      -0.000  0.000 -0.000  0.000  0.996
     SPIN  2
     eigenvalues:
       0.996  0.996  0.996  0.998  0.998
     eigenvectors (columns):
       0.002  0.009 -0.001 -0.500 -0.866
      -0.622 -0.000  0.783 -0.004  0.000
      -0.554  0.707 -0.440 -0.001  0.007
       0.003 -0.005 -0.002 -0.866  0.500
       0.554  0.707  0.440  0.001  0.007
     occupation matrix ns (before diag.):
       0.998  0.000 -0.000 -0.000 -0.000
       0.000  0.996 -0.000  0.000  0.000
      -0.000 -0.000  0.996  0.000 -0.000
      -0.000  0.000  0.000  0.998  0.000
      -0.000  0.000 -0.000  0.000  0.996
     ------------------------ ATOM    4 ------------------------
     Tr[ns(  4)] (up, down, total) =   4.98377  4.98377  9.96754
     Atomic magnetic moment for atom   4 =  -0.00000
     SPIN  1
     eigenvalues:
       0.996  0.996  0.996  0.998  0.998
     eigenvectors (columns):
      -0.004  0.000  0.002  1.000 -0.000
      -0.554  0.707 -0.440 -0.001  0.007
      -0.554 -0.707 -0.440 -0.001 -0.007
       0.000  0.011 -0.000 -0.000 -1.000
       0.622 -0.000 -0.783  0.004  0.000
     occupation matrix ns (before diag.):
       0.998 -0.000 -0.000  0.000  0.000
      -0.000  0.996  0.000 -0.000  0.000
      -0.000  0.000  0.996  0.000  0.000
       0.000 -0.000  0.000  0.998 -0.000
       0.000  0.000  0.000 -0.000  0.996
     SPIN  2
     eigenvalues:
       0.996  0.996  0.996  0.998  0.998
     eigenvectors (columns):
      -0.004  0.000  0.002  1.000 -0.000
      -0.554  0.707 -0.440 -0.001  0.007
      -0.554 -0.707 -0.440 -0.001 -0.007
       0.000  0.011 -0.000 -0.000 -1.000
       0.622 -0.000 -0.783  0.004  0.000
     occupation matrix ns (before diag.):
       0.998 -0.000 -0.000  0.000  0.000
      -0.000  0.996  0.000 -0.000  0.000
      -0.000  0.000  0.996  0.000  0.000
       0.000 -0.000  0.000  0.998 -0.000
       0.000  0.000  0.000 -0.000  0.996
     ------------------------ ATOM    9 ------------------------
     Tr[ns(  9)] (up, down, total) =   4.98367  4.98367  9.96734
     Atomic magnetic moment for atom   9 =  -0.00000
     SPIN  1
     eigenvalues:
       0.996  0.996  0.996  0.998  0.998
     eigenvectors (columns):
      -0.011  0.001  0.000 -0.000  1.000
      -0.676 -0.207  0.707  0.001 -0.007
      -0.676 -0.207 -0.707 -0.001 -0.007
       0.000  0.000 -0.001  1.000  0.000
      -0.292  0.956 -0.000 -0.000 -0.005
     occupation matrix ns (before diag.):
       0.998 -0.000 -0.000  0.000 -0.000
      -0.000  0.996 -0.000  0.000 -0.000
      -0.000 -0.000  0.996 -0.000 -0.000
       0.000  0.000 -0.000  0.998 -0.000
      -0.000 -0.000 -0.000 -0.000  0.996
     SPIN  2
     eigenvalues:
       0.996  0.996  0.996  0.998  0.998
     eigenvectors (columns):
      -0.011  0.001  0.000 -0.000  1.000
      -0.676 -0.207  0.707  0.001 -0.007
      -0.676 -0.207 -0.707 -0.001 -0.007
       0.000  0.000 -0.001  1.000  0.000
      -0.292  0.956 -0.000 -0.000 -0.005
     occupation matrix ns (before diag.):
       0.998 -0.000 -0.000  0.000 -0.000
      -0.000  0.996 -0.000  0.000 -0.000
      -0.000 -0.000  0.996 -0.000 -0.000
       0.000  0.000 -0.000  0.998 -0.000
      -0.000 -0.000 -0.000 -0.000  0.996
     ------------------------ ATOM   10 ------------------------
     Tr[ns( 10)] (up, down, total) =   4.98370  4.98370  9.96739
     Atomic magnetic moment for atom  10 =  -0.00000
     SPIN  1
     eigenvalues:
       0.996  0.996  0.996  0.998  0.998
     eigenvectors (columns):
      -0.011 -0.012  0.001  0.889  0.457
       0.718 -0.427  0.549  0.004 -0.003
      -0.674 -0.229  0.703 -0.011 -0.001
       0.006 -0.004 -0.002 -0.457  0.889
       0.175  0.875  0.452  0.009  0.008
     occupation matrix ns (before diag.):
       0.998  0.000 -0.000  0.000  0.000
       0.000  0.996  0.000 -0.000 -0.000
      -0.000  0.000  0.996  0.000  0.000
       0.000 -0.000  0.000  0.998  0.000
       0.000 -0.000  0.000  0.000  0.996
     SPIN  2
     eigenvalues:
       0.996  0.996  0.996  0.998  0.998
     eigenvectors (columns):
      -0.011 -0.012  0.001  0.889  0.457
       0.718 -0.427  0.549  0.004 -0.003
      -0.674 -0.229  0.703 -0.011 -0.001
       0.006 -0.004 -0.002 -0.457  0.889
       0.175  0.875  0.452  0.009  0.008
     occupation matrix ns (before diag.):
       0.998  0.000 -0.000  0.000  0.000
       0.000  0.996  0.000 -0.000 -0.000
      -0.000  0.000  0.996  0.000  0.000
       0.000 -0.000  0.000  0.998  0.000
       0.000 -0.000  0.000  0.000  0.996
     ------------------------ ATOM   11 ------------------------
     Tr[ns( 11)] (up, down, total) =   4.98370  4.98370  9.96739
     Atomic magnetic moment for atom  11 =  -0.00000
     SPIN  1
     eigenvalues:
       0.996  0.996  0.996  0.998  0.998
     eigenvectors (columns):
      -0.011 -0.012  0.001  0.889  0.457
      -0.674 -0.229  0.703 -0.011 -0.001
       0.718 -0.427  0.549  0.004 -0.003
      -0.006  0.004  0.002  0.457 -0.889
       0.175  0.875  0.452  0.009  0.008
     occupation matrix ns (before diag.):
       0.998 -0.000  0.000 -0.000  0.000
      -0.000  0.996  0.000 -0.000  0.000
       0.000  0.000  0.996  0.000 -0.000
      -0.000 -0.000  0.000  0.998 -0.000
       0.000  0.000 -0.000 -0.000  0.996
     SPIN  2
     eigenvalues:
       0.996  0.996  0.996  0.998  0.998
     eigenvectors (columns):
      -0.011 -0.012  0.001  0.889  0.457
      -0.674 -0.229  0.703 -0.011 -0.001
       0.718 -0.427  0.549  0.004 -0.003
      -0.006  0.004  0.002  0.457 -0.889
       0.175  0.875  0.452  0.009  0.008
     occupation matrix ns (before diag.):
       0.998 -0.000  0.000 -0.000  0.000
      -0.000  0.996  0.000 -0.000  0.000
       0.000  0.000  0.996  0.000 -0.000
      -0.000 -0.000  0.000  0.998 -0.000
       0.000  0.000 -0.000 -0.000  0.996
     ------------------------ ATOM   12 ------------------------
     Tr[ns( 12)] (up, down, total) =   4.98375  4.98375  9.96749
     Atomic magnetic moment for atom  12 =   0.00000
     SPIN  1
     eigenvalues:
       0.996  0.996  0.996  0.998  0.998
     eigenvectors (columns):
      -0.003 -0.000  0.070 -0.000 -0.998
      -0.481  0.707  0.517 -0.025  0.038
      -0.481 -0.707  0.517  0.025  0.038
       0.000  0.035  0.000  0.999 -0.000
       0.733 -0.000  0.678 -0.000  0.045
     occupation matrix ns (before diag.):
       0.998 -0.000 -0.000  0.000 -0.000
      -0.000  0.996 -0.000 -0.000  0.000
      -0.000 -0.000  0.996  0.000  0.000
       0.000 -0.000  0.000  0.998 -0.000
      -0.000  0.000  0.000 -0.000  0.996
     SPIN  2
     eigenvalues:
       0.996  0.996  0.996  0.998  0.998
     eigenvectors (columns):
      -0.003 -0.000  0.070 -0.000 -0.998
      -0.481  0.707  0.517 -0.025  0.038
      -0.481 -0.707  0.517  0.025  0.038
       0.000  0.035  0.000  0.999 -0.000
       0.733 -0.000  0.678 -0.000  0.045
     occupation matrix ns (before diag.):
       0.998 -0.000 -0.000  0.000 -0.000
      -0.000  0.996 -0.000 -0.000  0.000
      -0.000 -0.000  0.996  0.000  0.000
       0.000 -0.000  0.000  0.998 -0.000
      -0.000  0.000  0.000 -0.000  0.996
     ------------------------ ATOM   17 ------------------------
     Tr[ns( 17)] (up, down, total) =   4.98367  4.98367  9.96734
     Atomic magnetic moment for atom  17 =  -0.00000
     SPIN  1
     eigenvalues:
       0.996  0.996  0.996  0.998  0.998
     eigenvectors (columns):
       0.005  0.001  0.001 -0.866  0.500
       0.292  0.956 -0.000  0.000 -0.005
      -0.676  0.207 -0.707 -0.001  0.007
       0.009  0.001 -0.000  0.500  0.866
       0.676 -0.207 -0.707 -0.001 -0.007
     occupation matrix ns (before diag.):
       0.998 -0.000  0.000  0.000 -0.000
      -0.000  0.996  0.000 -0.000 -0.000
       0.000  0.000  0.996  0.000  0.000
       0.000 -0.000  0.000  0.998 -0.000
      -0.000 -0.000  0.000 -0.000  0.996
     SPIN  2
     eigenvalues:
       0.996  0.996  0.996  0.998  0.998
     eigenvectors (columns):
       0.005  0.001  0.001 -0.866  0.500
       0.292  0.956 -0.000  0.000 -0.005
      -0.676  0.207 -0.707 -0.001  0.007
       0.009  0.001 -0.000  0.500  0.866
       0.676 -0.207 -0.707 -0.001 -0.007
     occupation matrix ns (before diag.):
       0.998 -0.000  0.000  0.000 -0.000
      -0.000  0.996  0.000 -0.000 -0.000
       0.000  0.000  0.996  0.000  0.000
       0.000 -0.000  0.000  0.998 -0.000
      -0.000 -0.000  0.000 -0.000  0.996
     ------------------------ ATOM   18 ------------------------
     Tr[ns( 18)] (up, down, total) =   4.98370  4.98370  9.96739
     Atomic magnetic moment for atom  18 =  -0.00000
     SPIN  1
     eigenvalues:
       0.996  0.996  0.996  0.998  0.998
     eigenvectors (columns):
       0.001  0.009 -0.001  0.049 -0.999
      -0.175 -0.875  0.452  0.009 -0.008
      -0.674 -0.229 -0.703  0.011 -0.001
       0.012  0.008  0.002  0.999  0.049
      -0.718  0.427  0.549  0.004  0.003
     occupation matrix ns (before diag.):
       0.998  0.000  0.000 -0.000 -0.000
       0.000  0.996 -0.000  0.000 -0.000
       0.000 -0.000  0.996  0.000 -0.000
      -0.000  0.000  0.000  0.998  0.000
      -0.000 -0.000 -0.000  0.000  0.996
     SPIN  2
     eigenvalues:
       0.996  0.996  0.996  0.998  0.998
     eigenvectors (columns):
       0.001  0.009 -0.001  0.049 -0.999
      -0.175 -0.875  0.452  0.009 -0.008
      -0.674 -0.229 -0.703  0.011 -0.001
       0.012  0.008  0.002  0.999  0.049
      -0.718  0.427  0.549  0.004  0.003
     occupation matrix ns (before diag.):
       0.998  0.000  0.000 -0.000 -0.000
       0.000  0.996 -0.000  0.000 -0.000
       0.000 -0.000  0.996  0.000 -0.000
      -0.000  0.000  0.000  0.998  0.000
      -0.000 -0.000 -0.000  0.000  0.996
     ------------------------ ATOM   19 ------------------------
     Tr[ns( 19)] (up, down, total) =   4.98375  4.98375  9.96749
     Atomic magnetic moment for atom  19 =   0.00000
     SPIN  1
     eigenvalues:
       0.996  0.996  0.996  0.998  0.998
     eigenvectors (columns):
       0.002 -0.030 -0.035 -0.865 -0.499
      -0.733  0.000 -0.678  0.000  0.045
      -0.481 -0.707  0.517  0.025 -0.038
       0.003  0.017 -0.061  0.500 -0.864
       0.481 -0.707 -0.517  0.025  0.038
     occupation matrix ns (before diag.):
       0.998 -0.000 -0.000  0.000 -0.000
      -0.000  0.996 -0.000 -0.000  0.000
      -0.000 -0.000  0.996  0.000  0.000
       0.000 -0.000  0.000  0.998 -0.000
      -0.000  0.000  0.000 -0.000  0.996
     SPIN  2
     eigenvalues:
       0.996  0.996  0.996  0.998  0.998
     eigenvectors (columns):
       0.002 -0.030 -0.035 -0.865 -0.499
      -0.733  0.000 -0.678  0.000  0.045
      -0.481 -0.707  0.517  0.025 -0.038
       0.003  0.017 -0.061  0.500 -0.864
       0.481 -0.707 -0.517  0.025  0.038
     occupation matrix ns (before diag.):
       0.998 -0.000 -0.000  0.000 -0.000
      -0.000  0.996 -0.000 -0.000  0.000
      -0.000 -0.000  0.996  0.000  0.000
       0.000 -0.000  0.000  0.998 -0.000
      -0.000  0.000  0.000 -0.000  0.996
     ------------------------ ATOM   20 ------------------------
     Tr[ns( 20)] (up, down, total) =   4.98370  4.98370  9.96739
     Atomic magnetic moment for atom  20 =  -0.00000
     SPIN  1
     eigenvalues:
       0.996  0.996  0.996  0.998  0.998
     eigenvectors (columns):
      -0.010 -0.003 -0.002  0.840 -0.542
       0.175  0.875 -0.452  0.009  0.008
      -0.718  0.427  0.549 -0.004  0.003
      -0.007 -0.012  0.000  0.542  0.840
      -0.674 -0.229 -0.703 -0.011 -0.001
     occupation matrix ns (before diag.):
       0.998  0.000 -0.000 -0.000 -0.000
       0.000  0.996  0.000  0.000  0.000
      -0.000  0.000  0.996  0.000 -0.000
      -0.000  0.000  0.000  0.998 -0.000
      -0.000  0.000 -0.000 -0.000  0.996
     SPIN  2
     eigenvalues:
       0.996  0.996  0.996  0.998  0.998
     eigenvectors (columns):
      -0.010 -0.003 -0.002  0.840 -0.542
       0.175  0.875 -0.452  0.009  0.008
      -0.718  0.427  0.549 -0.004  0.003
      -0.007 -0.012  0.000  0.542  0.840
      -0.674 -0.229 -0.703 -0.011 -0.001
     occupation matrix ns (before diag.):
       0.998  0.000 -0.000 -0.000 -0.000
       0.000  0.996  0.000  0.000  0.000
      -0.000  0.000  0.996  0.000 -0.000
      -0.000  0.000  0.000  0.998 -0.000
      -0.000  0.000 -0.000 -0.000  0.996
     ------------------------ ATOM   25 ------------------------
     Tr[ns( 25)] (up, down, total) =   4.98386  4.98386  9.96771
     Atomic magnetic moment for atom  25 =   0.00000
     SPIN  1
     eigenvalues:
       0.996  0.996  0.996  0.998  0.998
     eigenvectors (columns):
       0.006 -0.001 -0.002  0.866 -0.500
       0.707  0.631 -0.319 -0.005  0.001
      -0.000  0.451  0.892 -0.000 -0.005
       0.003  0.001  0.004  0.500  0.866
       0.707 -0.631  0.319 -0.005 -0.001
     occupation matrix ns (before diag.):
       0.998 -0.000  0.000 -0.000 -0.000
      -0.000  0.996 -0.000 -0.000 -0.000
       0.000 -0.000  0.996 -0.000  0.000
      -0.000 -0.000 -0.000  0.998 -0.000
      -0.000 -0.000  0.000 -0.000  0.996
     SPIN  2
     eigenvalues:
       0.996  0.996  0.996  0.998  0.998
     eigenvectors (columns):
       0.006 -0.001 -0.002  0.866 -0.500
       0.707  0.631 -0.319 -0.005  0.001
      -0.000  0.451  0.892 -0.000 -0.005
       0.003  0.001  0.004  0.500  0.866
       0.707 -0.631  0.319 -0.005 -0.001
     occupation matrix ns (before diag.):
       0.998 -0.000  0.000 -0.000 -0.000
      -0.000  0.996 -0.000 -0.000 -0.000
       0.000 -0.000  0.996 -0.000  0.000
      -0.000 -0.000 -0.000  0.998 -0.000
      -0.000 -0.000  0.000 -0.000  0.996
     ------------------------ ATOM   26 ------------------------
     Tr[ns( 26)] (up, down, total) =   4.98379  4.98379  9.96759
     Atomic magnetic moment for atom  26 =  -0.00000
     SPIN  1
     eigenvalues:
       0.996  0.996  0.996  0.998  0.998
     eigenvectors (columns):
      -0.015 -0.003 -0.005  0.866 -0.500
       0.707 -0.534  0.463  0.012 -0.001
       0.000  0.655  0.755 -0.000 -0.012
      -0.008  0.006  0.009  0.500  0.866
       0.707  0.534 -0.463  0.012  0.001
     occupation matrix ns (before diag.):
       0.998  0.000  0.000 -0.000  0.000
       0.000  0.996  0.000  0.000 -0.000
       0.000  0.000  0.996 -0.000 -0.000
      -0.000  0.000 -0.000  0.998  0.000
       0.000 -0.000 -0.000  0.000  0.996
     SPIN  2
     eigenvalues:
       0.996  0.996  0.996  0.998  0.998
     eigenvectors (columns):
      -0.015 -0.003 -0.005  0.866 -0.500
       0.707 -0.534  0.463  0.012 -0.001
       0.000  0.655  0.755 -0.000 -0.012
      -0.008  0.006  0.009  0.500  0.866
       0.707  0.534 -0.463  0.012  0.001
     occupation matrix ns (before diag.):
       0.998  0.000  0.000 -0.000  0.000
       0.000  0.996  0.000  0.000 -0.000
       0.000  0.000  0.996 -0.000 -0.000
      -0.000  0.000 -0.000  0.998  0.000
       0.000 -0.000 -0.000  0.000  0.996
     ------------------------ ATOM   27 ------------------------
     Tr[ns( 27)] (up, down, total) =   4.98381  4.98381  9.96762
     Atomic magnetic moment for atom  27 =   0.00000
     SPIN  1
     eigenvalues:
       0.996  0.996  0.996  0.998  0.998
     eigenvectors (columns):
       0.006 -0.037  0.042 -0.877 -0.477
       0.778  0.046 -0.625  0.001 -0.050
      -0.424 -0.698 -0.575  0.028 -0.053
       0.006  0.017  0.079  0.478 -0.875
      -0.464  0.714 -0.521 -0.029 -0.052
     occupation matrix ns (before diag.):
       0.998  0.000 -0.000  0.000  0.000
       0.000  0.996  0.000  0.000  0.000
      -0.000  0.000  0.996  0.000  0.000
       0.000  0.000  0.000  0.998  0.000
       0.000  0.000  0.000  0.000  0.996
     SPIN  2
     eigenvalues:
       0.996  0.996  0.996  0.998  0.998
     eigenvectors (columns):
       0.006 -0.037  0.042 -0.877 -0.477
       0.778  0.046 -0.625  0.001 -0.050
      -0.424 -0.698 -0.575  0.028 -0.053
       0.006  0.017  0.079  0.478 -0.875
      -0.464  0.714 -0.521 -0.029 -0.052
     occupation matrix ns (before diag.):
       0.998  0.000 -0.000  0.000  0.000
       0.000  0.996  0.000  0.000  0.000
      -0.000  0.000  0.996  0.000  0.000
       0.000  0.000  0.000  0.998  0.000
       0.000  0.000  0.000  0.000  0.996
     ------------------------ ATOM   28 ------------------------
     Tr[ns( 28)] (up, down, total) =   4.98381  4.98381  9.96762
     Atomic magnetic moment for atom  28 =   0.00000
     SPIN  1
     eigenvalues:
       0.996  0.996  0.996  0.998  0.998
     eigenvectors (columns):
      -0.008  0.004  0.089 -0.025  0.996
       0.464 -0.714 -0.521 -0.029  0.052
      -0.424 -0.698  0.575 -0.028 -0.053
      -0.002  0.040 -0.003 -0.999 -0.025
      -0.778 -0.046 -0.625  0.001  0.050
     occupation matrix ns (before diag.):
       0.998  0.000 -0.000 -0.000  0.000
       0.000  0.996 -0.000  0.000  0.000
      -0.000 -0.000  0.996  0.000 -0.000
      -0.000  0.000  0.000  0.998 -0.000
       0.000  0.000 -0.000 -0.000  0.996
     SPIN  2
     eigenvalues:
       0.996  0.996  0.996  0.998  0.998
     eigenvectors (columns):
      -0.008  0.004  0.089 -0.025  0.996
       0.464 -0.714 -0.521 -0.029  0.052
      -0.424 -0.698  0.575 -0.028 -0.053
      -0.002  0.040 -0.003 -0.999 -0.025
      -0.778 -0.046 -0.625  0.001  0.050
     occupation matrix ns (before diag.):
       0.998  0.000 -0.000 -0.000  0.000
       0.000  0.996 -0.000  0.000  0.000
      -0.000 -0.000  0.996  0.000 -0.000
      -0.000  0.000  0.000  0.998 -0.000
       0.000  0.000 -0.000 -0.000  0.996
     ------------------------ ATOM   33 ------------------------
     Tr[ns( 33)] (up, down, total) =   4.98367  4.98367  9.96734
     Atomic magnetic moment for atom  33 =  -0.00000
     SPIN  1
     eigenvalues:
       0.996  0.996  0.996  0.998  0.998
     eigenvectors (columns):
       0.005  0.001  0.001 -0.866  0.500
      -0.676  0.207 -0.707 -0.001  0.007
       0.292  0.956 -0.000  0.000 -0.005
      -0.009 -0.001  0.000 -0.500 -0.866
       0.676 -0.207 -0.707 -0.001 -0.007
     occupation matrix ns (before diag.):
       0.998  0.000 -0.000 -0.000 -0.000
       0.000  0.996  0.000 -0.000  0.000
      -0.000  0.000  0.996  0.000 -0.000
      -0.000 -0.000  0.000  0.998  0.000
      -0.000  0.000 -0.000  0.000  0.996
     SPIN  2
     eigenvalues:
       0.996  0.996  0.996  0.998  0.998
     eigenvectors (columns):
       0.005  0.001  0.001 -0.866  0.500
      -0.676  0.207 -0.707 -0.001  0.007
       0.292  0.956 -0.000  0.000 -0.005
      -0.009 -0.001  0.000 -0.500 -0.866
       0.676 -0.207 -0.707 -0.001 -0.007
     occupation matrix ns (before diag.):
       0.998  0.000 -0.000 -0.000 -0.000
       0.000  0.996  0.000 -0.000  0.000
      -0.000  0.000  0.996  0.000 -0.000
      -0.000 -0.000  0.000  0.998  0.000
      -0.000  0.000 -0.000  0.000  0.996
     ------------------------ ATOM   34 ------------------------
     Tr[ns( 34)] (up, down, total) =   4.98375  4.98375  9.96749
     Atomic magnetic moment for atom  34 =   0.00000
     SPIN  1
     eigenvalues:
       0.996  0.996  0.996  0.998  0.998
     eigenvectors (columns):
       0.002 -0.030 -0.035 -0.865 -0.499
      -0.481 -0.707  0.517  0.025 -0.038
      -0.733 -0.000 -0.678 -0.000  0.045
      -0.003 -0.017  0.061 -0.500  0.864
       0.481 -0.707 -0.517  0.025  0.038
     occupation matrix ns (before diag.):
       0.998 -0.000 -0.000 -0.000 -0.000
      -0.000  0.996 -0.000 -0.000  0.000
      -0.000 -0.000  0.996  0.000  0.000
      -0.000 -0.000  0.000  0.998  0.000
      -0.000  0.000  0.000  0.000  0.996
     SPIN  2
     eigenvalues:
       0.996  0.996  0.996  0.998  0.998
     eigenvectors (columns):
       0.002 -0.030 -0.035 -0.865 -0.499
      -0.481 -0.707  0.517  0.025 -0.038
      -0.733 -0.000 -0.678 -0.000  0.045
      -0.003 -0.017  0.061 -0.500  0.864
       0.481 -0.707 -0.517  0.025  0.038
     occupation matrix ns (before diag.):
       0.998 -0.000 -0.000 -0.000 -0.000
      -0.000  0.996 -0.000 -0.000  0.000
      -0.000 -0.000  0.996  0.000  0.000
      -0.000 -0.000  0.000  0.998  0.000
      -0.000  0.000  0.000  0.000  0.996
     ------------------------ ATOM   35 ------------------------
     Tr[ns( 35)] (up, down, total) =   4.98370  4.98370  9.96739
     Atomic magnetic moment for atom  35 =  -0.00000
     SPIN  1
     eigenvalues:
       0.996  0.996  0.996  0.998  0.998
     eigenvectors (columns):
       0.001 -0.009  0.001  0.049 -0.999
      -0.674  0.229  0.703  0.011 -0.001
      -0.175  0.875 -0.452  0.009 -0.008
      -0.012  0.008  0.002 -0.999 -0.049
      -0.718 -0.427 -0.549  0.004  0.003
     occupation matrix ns (before diag.):
       0.998  0.000  0.000  0.000 -0.000
       0.000  0.996 -0.000 -0.000 -0.000
       0.000 -0.000  0.996 -0.000 -0.000
       0.000 -0.000 -0.000  0.998 -0.000
      -0.000 -0.000 -0.000 -0.000  0.996
     SPIN  2
     eigenvalues:
       0.996  0.996  0.996  0.998  0.998
     eigenvectors (columns):
       0.001 -0.009  0.001  0.049 -0.999
      -0.674  0.229  0.703  0.011 -0.001
      -0.175  0.875 -0.452  0.009 -0.008
      -0.012  0.008  0.002 -0.999 -0.049
      -0.718 -0.427 -0.549  0.004  0.003
     occupation matrix ns (before diag.):
       0.998  0.000  0.000  0.000 -0.000
       0.000  0.996 -0.000 -0.000 -0.000
       0.000 -0.000  0.996 -0.000 -0.000
       0.000 -0.000 -0.000  0.998 -0.000
      -0.000 -0.000 -0.000 -0.000  0.996
     ------------------------ ATOM   36 ------------------------
     Tr[ns( 36)] (up, down, total) =   4.98370  4.98370  9.96739
     Atomic magnetic moment for atom  36 =  -0.00000
     SPIN  1
     eigenvalues:
       0.996  0.996  0.996  0.998  0.998
     eigenvectors (columns):
      -0.010  0.003  0.002  0.840 -0.542
      -0.718 -0.427 -0.549 -0.004  0.003
       0.175 -0.875  0.452  0.009  0.008
       0.007 -0.012  0.000 -0.542 -0.840
      -0.674  0.229  0.703 -0.011 -0.001
     occupation matrix ns (before diag.):
       0.998 -0.000  0.000  0.000 -0.000
      -0.000  0.996  0.000 -0.000 -0.000
       0.000  0.000  0.996 -0.000  0.000
       0.000 -0.000 -0.000  0.998  0.000
      -0.000 -0.000  0.000  0.000  0.996
     SPIN  2
     eigenvalues:
       0.996  0.996  0.996  0.998  0.998
     eigenvectors (columns):
      -0.010  0.003  0.002  0.840 -0.542
      -0.718 -0.427 -0.549 -0.004  0.003
       0.175 -0.875  0.452  0.009  0.008
       0.007 -0.012  0.000 -0.542 -0.840
      -0.674  0.229  0.703 -0.011 -0.001
     occupation matrix ns (before diag.):
       0.998 -0.000  0.000  0.000 -0.000
      -0.000  0.996  0.000 -0.000 -0.000
       0.000  0.000  0.996 -0.000  0.000
       0.000 -0.000 -0.000  0.998  0.000
      -0.000 -0.000  0.000  0.000  0.996
     ------------------------ ATOM   41 ------------------------
     Tr[ns( 41)] (up, down, total) =   4.98386  4.98386  9.96771
     Atomic magnetic moment for atom  41 =   0.00000
     SPIN  1
     eigenvalues:
       0.996  0.996  0.996  0.998  0.998
     eigenvectors (columns):
       0.006 -0.001 -0.002  0.866 -0.500
      -0.000  0.451  0.892 -0.000 -0.005
       0.707  0.631 -0.319 -0.005  0.001
      -0.003 -0.001 -0.004 -0.500 -0.866
       0.707 -0.631  0.319 -0.005 -0.001
     occupation matrix ns (before diag.):
       0.998  0.000 -0.000  0.000 -0.000
       0.000  0.996 -0.000  0.000  0.000
      -0.000 -0.000  0.996  0.000 -0.000
       0.000  0.000  0.000  0.998  0.000
      -0.000  0.000 -0.000  0.000  0.996
     SPIN  2
     eigenvalues:
       0.996  0.996  0.996  0.998  0.998
     eigenvectors (columns):
       0.006 -0.001 -0.002  0.866 -0.500
      -0.000  0.451  0.892 -0.000 -0.005
       0.707  0.631 -0.319 -0.005  0.001
      -0.003 -0.001 -0.004 -0.500 -0.866
       0.707 -0.631  0.319 -0.005 -0.001
     occupation matrix ns (before diag.):
       0.998  0.000 -0.000  0.000 -0.000
       0.000  0.996 -0.000  0.000  0.000
      -0.000 -0.000  0.996  0.000 -0.000
       0.000  0.000  0.000  0.998  0.000
      -0.000  0.000 -0.000  0.000  0.996
     ------------------------ ATOM   42 ------------------------
     Tr[ns( 42)] (up, down, total) =   4.98381  4.98381  9.96762
     Atomic magnetic moment for atom  42 =   0.00000
     SPIN  1
     eigenvalues:
       0.996  0.996  0.996  0.998  0.998
     eigenvectors (columns):
       0.006 -0.037  0.042 -0.877 -0.477
      -0.424 -0.698 -0.575  0.028 -0.053
       0.778  0.046 -0.625  0.001 -0.050
      -0.006 -0.017 -0.079 -0.478  0.875
      -0.464  0.714 -0.521 -0.029 -0.052
     occupation matrix ns (before diag.):
       0.998 -0.000  0.000 -0.000  0.000
      -0.000  0.996  0.000 -0.000  0.000
       0.000  0.000  0.996 -0.000  0.000
      -0.000 -0.000 -0.000  0.998 -0.000
       0.000  0.000  0.000 -0.000  0.996
     SPIN  2
     eigenvalues:
       0.996  0.996  0.996  0.998  0.998
     eigenvectors (columns):
       0.006 -0.037  0.042 -0.877 -0.477
      -0.424 -0.698 -0.575  0.028 -0.053
       0.778  0.046 -0.625  0.001 -0.050
      -0.006 -0.017 -0.079 -0.478  0.875
      -0.464  0.714 -0.521 -0.029 -0.052
     occupation matrix ns (before diag.):
       0.998 -0.000  0.000 -0.000  0.000
      -0.000  0.996  0.000 -0.000  0.000
       0.000  0.000  0.996 -0.000  0.000
      -0.000 -0.000 -0.000  0.998 -0.000
       0.000  0.000  0.000 -0.000  0.996
     ------------------------ ATOM   43 ------------------------
     Tr[ns( 43)] (up, down, total) =   4.98379  4.98379  9.96759
     Atomic magnetic moment for atom  43 =  -0.00000
     SPIN  1
     eigenvalues:
       0.996  0.996  0.996  0.998  0.998
     eigenvectors (columns):
      -0.015 -0.003 -0.005  0.866 -0.500
      -0.000  0.655  0.755 -0.000 -0.012
       0.707 -0.534  0.463  0.012 -0.001
       0.008 -0.006 -0.009 -0.500 -0.866
       0.707  0.534 -0.463  0.012  0.001
     occupation matrix ns (before diag.):
       0.998  0.000  0.000  0.000  0.000
       0.000  0.996  0.000  0.000 -0.000
       0.000  0.000  0.996 -0.000 -0.000
       0.000  0.000 -0.000  0.998 -0.000
       0.000 -0.000 -0.000 -0.000  0.996
     SPIN  2
     eigenvalues:
       0.996  0.996  0.996  0.998  0.998
     eigenvectors (columns):
      -0.015 -0.003 -0.005  0.866 -0.500
      -0.000  0.655  0.755 -0.000 -0.012
       0.707 -0.534  0.463  0.012 -0.001
       0.008 -0.006 -0.009 -0.500 -0.866
       0.707  0.534 -0.463  0.012  0.001
     occupation matrix ns (before diag.):
       0.998  0.000  0.000  0.000  0.000
       0.000  0.996  0.000  0.000 -0.000
       0.000  0.000  0.996 -0.000 -0.000
       0.000  0.000 -0.000  0.998 -0.000
       0.000 -0.000 -0.000 -0.000  0.996
     ------------------------ ATOM   44 ------------------------
     Tr[ns( 44)] (up, down, total) =   4.98381  4.98381  9.96762
     Atomic magnetic moment for atom  44 =   0.00000
     SPIN  1
     eigenvalues:
       0.996  0.996  0.996  0.998  0.998
     eigenvectors (columns):
      -0.008 -0.004 -0.089 -0.025  0.996
      -0.424  0.698 -0.575 -0.028 -0.053
       0.464  0.714  0.521 -0.029  0.052
       0.002  0.040 -0.003  0.999  0.025
      -0.778  0.046  0.625  0.001  0.050
     occupation matrix ns (before diag.):
       0.998 -0.000  0.000  0.000  0.000
      -0.000  0.996 -0.000 -0.000 -0.000
       0.000 -0.000  0.996 -0.000  0.000
       0.000 -0.000 -0.000  0.998  0.000
       0.000 -0.000  0.000  0.000  0.996
     SPIN  2
     eigenvalues:
       0.996  0.996  0.996  0.998  0.998
     eigenvectors (columns):
      -0.008 -0.004 -0.089 -0.025  0.996
      -0.424  0.698 -0.575 -0.028 -0.053
       0.464  0.714  0.521 -0.029  0.052
       0.002  0.040 -0.003  0.999  0.025
      -0.778  0.046  0.625  0.001  0.050
     occupation matrix ns (before diag.):
       0.998 -0.000  0.000  0.000  0.000
      -0.000  0.996 -0.000 -0.000 -0.000
       0.000 -0.000  0.996 -0.000  0.000
       0.000 -0.000 -0.000  0.998  0.000
       0.000 -0.000  0.000  0.000  0.996
     ------------------------ ATOM   49 ------------------------
     Tr[ns( 49)] (up, down, total) =   4.98386  4.98386  9.96771
     Atomic magnetic moment for atom  49 =   0.00000
     SPIN  1
     eigenvalues:
       0.996  0.996  0.996  0.998  0.998
     eigenvectors (columns):
      -0.000  0.001 -0.005 -0.000  1.000
      -0.707  0.631  0.319 -0.005  0.001
       0.707  0.631  0.319  0.005  0.001
      -0.007 -0.000  0.000  1.000  0.000
      -0.000 -0.451  0.892 -0.000  0.005
     occupation matrix ns (before diag.):
       0.998  0.000  0.000  0.000  0.000
       0.000  0.996  0.000 -0.000  0.000
       0.000  0.000  0.996  0.000  0.000
       0.000 -0.000  0.000  0.998 -0.000
       0.000  0.000  0.000 -0.000  0.996
     SPIN  2
     eigenvalues:
       0.996  0.996  0.996  0.998  0.998
     eigenvectors (columns):
      -0.000  0.001 -0.005 -0.000  1.000
      -0.707  0.631  0.319 -0.005  0.001
       0.707  0.631  0.319  0.005  0.001
      -0.007 -0.000  0.000  1.000  0.000
      -0.000 -0.451  0.892 -0.000  0.005
     occupation matrix ns (before diag.):
       0.998  0.000  0.000  0.000  0.000
       0.000  0.996  0.000 -0.000  0.000
       0.000  0.000  0.996  0.000  0.000
       0.000 -0.000  0.000  0.998 -0.000
       0.000  0.000  0.000 -0.000  0.996
     ------------------------ ATOM   50 ------------------------
     Tr[ns( 50)] (up, down, total) =   4.98381  4.98381  9.96762
     Atomic magnetic moment for atom  50 =   0.00000
     SPIN  1
     eigenvalues:
       0.996  0.996  0.996  0.998  0.998
     eigenvectors (columns):
      -0.002 -0.033  0.047 -0.853 -0.519
      -0.464  0.714  0.521 -0.029  0.052
      -0.778 -0.046 -0.625 -0.001 -0.050
       0.008 -0.023 -0.075 -0.521  0.850
      -0.424 -0.698  0.575  0.028  0.053
     occupation matrix ns (before diag.):
       0.998 -0.000  0.000 -0.000 -0.000
      -0.000  0.996 -0.000  0.000  0.000
       0.000 -0.000  0.996 -0.000 -0.000
      -0.000  0.000 -0.000  0.998  0.000
      -0.000  0.000 -0.000  0.000  0.996
     SPIN  2
     eigenvalues:
       0.996  0.996  0.996  0.998  0.998
     eigenvectors (columns):
      -0.002 -0.033  0.047 -0.853 -0.519
      -0.464  0.714  0.521 -0.029  0.052
      -0.778 -0.046 -0.625 -0.001 -0.050
       0.008 -0.023 -0.075 -0.521  0.850
      -0.424 -0.698  0.575  0.028  0.053
     occupation matrix ns (before diag.):
       0.998 -0.000  0.000 -0.000 -0.000
      -0.000  0.996 -0.000  0.000  0.000
       0.000 -0.000  0.996 -0.000 -0.000
      -0.000  0.000 -0.000  0.998  0.000
      -0.000  0.000 -0.000  0.000  0.996
     ------------------------ ATOM   51 ------------------------
     Tr[ns( 51)] (up, down, total) =   4.98381  4.98381  9.96762
     Atomic magnetic moment for atom  51 =   0.00000
     SPIN  1
     eigenvalues:
       0.996  0.996  0.996  0.998  0.998
     eigenvectors (columns):
      -0.002 -0.033  0.047 -0.853 -0.519
      -0.778 -0.046 -0.625 -0.001 -0.050
      -0.464  0.714  0.521 -0.029  0.052
      -0.008  0.023  0.075  0.521 -0.850
      -0.424 -0.698  0.575  0.028  0.053
     occupation matrix ns (before diag.):
       0.998  0.000 -0.000  0.000 -0.000
       0.000  0.996 -0.000  0.000 -0.000
      -0.000 -0.000  0.996 -0.000  0.000
       0.000  0.000 -0.000  0.998 -0.000
      -0.000 -0.000  0.000 -0.000  0.996
     SPIN  2
     eigenvalues:
       0.996  0.996  0.996  0.998  0.998
     eigenvectors (columns):
      -0.002 -0.033  0.047 -0.853 -0.519
      -0.778 -0.046 -0.625 -0.001 -0.050
      -0.464  0.714  0.521 -0.029  0.052
      -0.008  0.023  0.075  0.521 -0.850
      -0.424 -0.698  0.575  0.028  0.053
     occupation matrix ns (before diag.):
       0.998  0.000 -0.000  0.000 -0.000
       0.000  0.996 -0.000  0.000 -0.000
      -0.000 -0.000  0.996 -0.000  0.000
       0.000  0.000 -0.000  0.998 -0.000
      -0.000 -0.000  0.000 -0.000  0.996
     ------------------------ ATOM   52 ------------------------
     Tr[ns( 52)] (up, down, total) =   4.98379  4.98379  9.96759
     Atomic magnetic moment for atom  52 =  -0.00000
     SPIN  1
     eigenvalues:
       0.996  0.996  0.996  0.998  0.998
     eigenvectors (columns):
       0.000  0.007 -0.010  0.000 -1.000
       0.707 -0.534 -0.463 -0.012  0.001
      -0.707 -0.534 -0.463  0.012  0.001
      -0.017  0.000  0.000 -1.000 -0.000
      -0.000 -0.655  0.755  0.000 -0.012
     occupation matrix ns (before diag.):
       0.998 -0.000 -0.000  0.000  0.000
      -0.000  0.996  0.000  0.000 -0.000
      -0.000  0.000  0.996 -0.000 -0.000
       0.000  0.000 -0.000  0.998 -0.000
       0.000 -0.000 -0.000 -0.000  0.996
     SPIN  2
     eigenvalues:
       0.996  0.996  0.996  0.998  0.998
     eigenvectors (columns):
       0.000  0.007 -0.010  0.000 -1.000
       0.707 -0.534 -0.463 -0.012  0.001
      -0.707 -0.534 -0.463  0.012  0.001
      -0.017  0.000  0.000 -1.000 -0.000
      -0.000 -0.655  0.755  0.000 -0.012
     occupation matrix ns (before diag.):
       0.998 -0.000 -0.000  0.000  0.000
      -0.000  0.996  0.000  0.000 -0.000
      -0.000  0.000  0.996 -0.000 -0.000
       0.000  0.000 -0.000  0.998 -0.000
       0.000 -0.000 -0.000 -0.000  0.996
     ------------------------ ATOM   57 ------------------------
     Tr[ns( 57)] (up, down, total) =   4.95378  4.95378  9.90756
     Atomic magnetic moment for atom  57 =   0.00000
     SPIN  1
     eigenvalues:
       0.987  0.987  0.992  0.994  0.994
     eigenvectors (columns):
       0.082  0.038 -0.000 -0.289 -0.953
       0.077  0.809 -0.577 -0.051  0.054
       0.662 -0.472 -0.577  0.072  0.017
      -0.038  0.082  0.000  0.953 -0.289
       0.740  0.338  0.577  0.021  0.071
     occupation matrix ns (before diag.):
       0.994 -0.000 -0.000  0.000 -0.000
      -0.000  0.989  0.002 -0.000 -0.002
      -0.000  0.002  0.989  0.000 -0.002
       0.000 -0.000  0.000  0.994 -0.000
      -0.000 -0.002 -0.002 -0.000  0.989
     SPIN  2
     eigenvalues:
       0.987  0.987  0.992  0.994  0.994
     eigenvectors (columns):
       0.084  0.034 -0.000 -0.317 -0.944
       0.111  0.806 -0.577 -0.049  0.055
       0.642 -0.499 -0.577  0.072  0.015
      -0.034  0.084  0.000  0.944 -0.317
       0.753  0.307  0.577  0.023  0.070
     occupation matrix ns (before diag.):
       0.994 -0.000 -0.000  0.000 -0.000
      -0.000  0.989  0.002 -0.000 -0.002
      -0.000  0.002  0.989  0.000 -0.002
       0.000 -0.000  0.000  0.994 -0.000
      -0.000 -0.002 -0.002 -0.000  0.989
     ------------------------ ATOM   58 ------------------------
     Tr[ns( 58)] (up, down, total) =   4.98628  4.98628  9.97256
     Atomic magnetic moment for atom  58 =   0.00000
     SPIN  1
     eigenvalues:
       0.996  0.996  0.998  0.998  0.998
     eigenvectors (columns):
       0.092 -0.069  0.005 -0.861 -0.495
      -0.703 -0.398 -0.582 -0.075  0.050
       0.000 -0.814  0.568 -0.000  0.119
       0.053  0.120 -0.008 -0.497  0.858
      -0.703  0.398  0.582 -0.075 -0.050
     occupation matrix ns (before diag.):
       0.998  0.000 -0.000 -0.000  0.000
       0.000  0.997 -0.001  0.000 -0.001
      -0.000 -0.001  0.997  0.000  0.001
      -0.000  0.000  0.000  0.998 -0.000
       0.000 -0.001  0.001 -0.000  0.997
     SPIN  2
     eigenvalues:
       0.996  0.996  0.998  0.998  0.998
     eigenvectors (columns):
       0.092 -0.069  0.005 -0.861 -0.495
      -0.703 -0.398 -0.582 -0.075  0.050
       0.000 -0.814  0.568 -0.000  0.119
       0.053  0.120 -0.008 -0.497  0.858
      -0.703  0.398  0.582 -0.075 -0.050
     occupation matrix ns (before diag.):
       0.998  0.000 -0.000 -0.000  0.000
       0.000  0.997 -0.001  0.000 -0.001
      -0.000 -0.001  0.997  0.000  0.001
      -0.000  0.000  0.000  0.998 -0.000
       0.000 -0.001  0.001 -0.000  0.997
     ------------------------ ATOM   59 ------------------------
     Tr[ns( 59)] (up, down, total) =   4.98628  4.98628  9.97256
     Atomic magnetic moment for atom  59 =   0.00000
     SPIN  1
     eigenvalues:
       0.996  0.996  0.998  0.998  0.998
     eigenvectors (columns):
       0.092  0.069 -0.005  0.861  0.495
       0.000  0.814 -0.568  0.000 -0.119
      -0.703  0.398  0.582  0.075 -0.050
      -0.053  0.120 -0.008 -0.497  0.858
      -0.703 -0.398 -0.582  0.075  0.050
     occupation matrix ns (before diag.):
       0.998 -0.000  0.000  0.000  0.000
      -0.000  0.997 -0.001 -0.000  0.001
       0.000 -0.001  0.997 -0.000 -0.001
       0.000 -0.000 -0.000  0.998  0.000
       0.000  0.001 -0.001  0.000  0.997
     SPIN  2
     eigenvalues:
       0.996  0.996  0.998  0.998  0.998
     eigenvectors (columns):
       0.092  0.069 -0.005  0.861  0.495
       0.000  0.814 -0.568  0.000 -0.119
      -0.703  0.398  0.582  0.075 -0.050
      -0.053  0.120 -0.008 -0.497  0.858
      -0.703 -0.398 -0.582  0.075  0.050
     occupation matrix ns (before diag.):
       0.998 -0.000  0.000  0.000  0.000
      -0.000  0.997 -0.001 -0.000  0.001
       0.000 -0.001  0.997 -0.000 -0.001
       0.000 -0.000 -0.000  0.998  0.000
       0.000  0.001 -0.001  0.000  0.997
     ------------------------ ATOM   60 ------------------------
     Tr[ns( 60)] (up, down, total) =   4.98628  4.98628  9.97256
     Atomic magnetic moment for atom  60 =   0.00000
     SPIN  1
     eigenvalues:
       0.996  0.996  0.998  0.998  0.998
     eigenvectors (columns):
       0.000  0.138  0.010 -0.000 -0.990
       0.703 -0.398  0.582  0.075 -0.050
      -0.703 -0.398  0.582 -0.075 -0.050
      -0.106  0.000 -0.000  0.994 -0.000
       0.000  0.814  0.568  0.000  0.119
     occupation matrix ns (before diag.):
       0.998  0.000  0.000  0.000 -0.000
       0.000  0.997  0.001  0.000  0.001
       0.000  0.001  0.997 -0.000  0.001
       0.000  0.000 -0.000  0.998 -0.000
      -0.000  0.001  0.001 -0.000  0.997
     SPIN  2
     eigenvalues:
       0.996  0.996  0.998  0.998  0.998
     eigenvectors (columns):
       0.000  0.138  0.010 -0.000 -0.990
       0.703 -0.398  0.582  0.075 -0.050
      -0.703 -0.398  0.582 -0.075 -0.050
      -0.106  0.000 -0.000  0.994 -0.000
       0.000  0.814  0.568  0.000  0.119
     occupation matrix ns (before diag.):
       0.998  0.000  0.000  0.000 -0.000
       0.000  0.997  0.001  0.000  0.001
       0.000  0.001  0.997 -0.000  0.001
       0.000  0.000 -0.000  0.998 -0.000
      -0.000  0.001  0.001 -0.000  0.997

     Number of occupied Hubbard levels =  318.9158

     Atomic wfc used for Hubbard projectors are orthogonalized

     Starting wfcs are  413 randomized atomic wfcs
     Checking if some PAW data can be deallocated... 
       PAW data deallocated on  740 nodes for type:  1
       PAW data deallocated on  739 nodes for type:  2
       PAW data deallocated on 1433 nodes for type:  3

     Band Structure Calculation
     Davidson diagonalization with overlap

     Computing kpt #:     1  of     2 on this pool
     total cpu time spent up to now is      101.0 secs

     Computing kpt #:     2  of     2 on this pool
     total cpu time spent up to now is      180.7 secs

     ethr =  1.73E-12,  avg # of iterations = 93.7

     total cpu time spent up to now is      181.0 secs

     End of band structure calculation

 ------ SPIN UP ------------


          k = 0.0000 0.0000 0.0000 (269825 PWs)   bands (ev):

  -103.5415 -60.9813 -60.9586 -60.9586  -7.6357  -7.2178  -7.2178  -7.2115
    -7.2115  -7.2055  -7.1718  -7.0191  -7.0191  -7.0187  -7.0056  -6.9830
    -6.9805  -6.9805  -6.9788  -6.9788  -6.9773  -6.9773  -6.9773  -6.8766
    -6.8766  -6.8583  -6.7976  -6.7953  -6.7953  -6.7597  -6.7571  -6.7571
    -6.4650  -6.3323  -6.3323  -3.8763  -3.8750  -3.8750  -3.8361  -3.8353
    -3.8353  -3.8336  -3.8336  -3.8177  -3.8177  -3.8118  -3.8097  -3.8097
    -3.8077  -3.7964  -3.7963  -3.7963  -3.7929  -3.7929  -3.7894  -3.7875
    -3.7875  -3.7802  -3.7784  -3.7784  -3.7760  -3.7715  -3.7691  -3.7691
    -3.7641  -3.7636  -3.7634  -3.7634  -3.7489  -3.7489  -3.7488  -3.7372
    -3.7351  -3.7351  -3.7282  -3.7282  -3.7252  -3.7252  -3.7228  -3.7188
    -3.7188  -3.7141  -3.7103  -3.7103  -3.7026  -3.7005  -3.7005  -3.6959
    -3.6906  -3.6875  -3.6875  -3.6821  -3.6821  -3.6808  -3.6774  -3.6719
    -3.6719  -3.6557  -3.6547  -3.6500  -3.6495  -3.6495  -3.6462  -3.6462
    -3.6391  -3.6391  -3.6370  -3.6330  -3.6330  -3.6298  -3.6298  -3.6294
    -3.6223  -3.6207  -3.6207  -3.6203  -3.6136  -3.6136  -3.6132  -3.6132
    -3.6124  -3.6124  -3.6107  -3.6057  -3.5902  -3.5855  -3.5855  -3.5816
    -3.5816  -3.5699  -3.5679  -3.5679  -3.5678  -3.5510  -3.5510  -3.5456
    -3.5351  -3.5351  -3.5338  -3.5326  -3.5232  -3.5232  -3.5079  -3.5079
    -3.5048  -3.4929  -3.4869  -3.4869  -3.4857  -3.4857  -3.4826  -3.4826
    -3.4818  -3.4673  -3.4648  -3.4648  -3.4607  -3.4450  -3.4450  -3.4219
    -3.4146  -3.4146  -3.4069  -3.3996  -3.3976  -3.3976  -3.2869  -3.2868
    -3.2439  -3.2413  -3.2413  -3.2258  -3.2201  -3.2201  -3.2132  -3.2026
    -3.1976  -3.1976  -3.1425  -3.1425  -3.0949  -3.0405  -3.0184  -3.0184
    -2.9682  -2.9050  -2.9050  -2.8758  -2.8758  -2.8701   0.2158   0.2352
     0.2611   0.2611   0.5888   0.6008   0.6008   0.8110   0.8110   0.8208
     0.8872   0.8872   0.9010   1.0813   1.1788   1.1788   1.2138   1.2138
     1.2563   1.2653   1.2653   1.2675   1.4774   1.4774   1.8729   2.2564
     2.2564   2.3325   2.4338   2.4338   2.4853   2.4995   2.4995   2.5187
     2.5316   2.5316   2.6479   2.6655   2.6655   2.6688   2.6688   2.6733
     2.6752   2.6798   2.6798   2.7208   2.7208   2.7364   2.7768   2.8116
     2.8116   2.9461   2.9764   2.9764   3.0150   3.0749   3.0749   3.1626
     3.2328   3.2382   3.2382   3.3930   3.3930   3.5365   3.5365   3.7514
     3.9969   4.0024   4.0024   4.0260   4.0380   4.0380   4.1024   4.1024
     4.1109   4.2035   4.2311   4.2311   4.2995   4.3027   4.3027   4.3028
     4.3046   4.3046   4.3132   4.3135   4.3135   4.3164   4.3299   4.3299
     4.5074   4.5975   4.5976   4.9109   4.9109   5.1186   5.4016   5.4016
     6.5446   7.7800   8.6060   8.6060   8.6922   8.7509   8.8110   8.8110
     8.9324   8.9324   9.0953   9.4761   9.4791   9.4791   9.5391   9.8317
     9.8317   9.9149   9.9384   9.9384   9.9610   9.9821   9.9821   9.9855
     9.9959   9.9959  10.1544  10.1544  10.1559  10.1775  10.1775  10.2085
    10.2085  10.2339  10.3333  10.6352  10.6352  10.7016  11.0162  11.1119
    11.1119  11.1472  11.1472  11.2835  11.3182  11.3182  11.3316  11.6498
    11.6498  11.6841  11.8161  11.8447  11.8447  11.8449  11.9901  11.9901
    12.0003  12.0049  12.0049

     occupation numbers 
     1.0000   1.0000   1.0000   1.0000   1.0000   1.0000   1.0000   1.0000
     1.0000   1.0000   1.0000   1.0000   1.0000   1.0000   1.0000   1.0000
     1.0000   1.0000   1.0000   1.0000   1.0000   1.0000   1.0000   1.0000
     1.0000   1.0000   1.0000   1.0000   1.0000   1.0000   1.0000   1.0000
     1.0000   1.0000   1.0000   1.0000   1.0000   1.0000   1.0000   1.0000
     1.0000   1.0000   1.0000   1.0000   1.0000   1.0000   1.0000   1.0000
     1.0000   1.0000   1.0000   1.0000   1.0000   1.0000   1.0000   1.0000
     1.0000   1.0000   1.0000   1.0000   1.0000   1.0000   1.0000   1.0000
     1.0000   1.0000   1.0000   1.0000   1.0000   1.0000   1.0000   1.0000
     1.0000   1.0000   1.0000   1.0000   1.0000   1.0000   1.0000   1.0000
     1.0000   1.0000   1.0000   1.0000   1.0000   1.0000   1.0000   1.0000
     1.0000   1.0000   1.0000   1.0000   1.0000   1.0000   1.0000   1.0000
     1.0000   1.0000   1.0000   1.0000   1.0000   1.0000   1.0000   1.0000
     1.0000   1.0000   1.0000   1.0000   1.0000   1.0000   1.0000   1.0000
     1.0000   1.0000   1.0000   1.0000   1.0000   1.0000   1.0000   1.0000
     1.0000   1.0000   1.0000   1.0000   1.0000   1.0000   1.0000   1.0000
     1.0000   1.0000   1.0000   1.0000   1.0000   1.0000   1.0000   1.0000
     1.0000   1.0000   1.0000   1.0000   1.0000   1.0000   1.0000   1.0000
     1.0000   1.0000   1.0000   1.0000   1.0000   1.0000   1.0000   1.0000
     1.0000   1.0000   1.0000   1.0000   1.0000   1.0000   1.0000   1.0000
     1.0000   1.0000   1.0000   1.0000   1.0000   1.0000   1.0000   1.0000
     1.0000   1.0000   1.0000   1.0000   1.0000   1.0000   1.0000   1.0000
     1.0000   1.0000   1.0000   1.0000   1.0000   1.0000   1.0000   1.0000
     1.0000   1.0000   1.0000   1.0000   1.0000   1.0000   1.0000   1.0000
     1.0000   1.0000   1.0000   1.0000   1.0000   1.0000   1.0000   1.0000
     1.0000   1.0000   1.0000   1.0000   1.0000   1.0000   1.0000   1.0000
     1.0000   1.0000   1.0000   1.0000   1.0000   1.0000   1.0000   1.0000
     1.0000   1.0000   1.0000   1.0000   1.0000   1.0000   1.0000   1.0000
     1.0000   1.0000   1.0000   1.0000   1.0000   1.0000   1.0000   1.0000
     1.0000   1.0000   1.0000   1.0000   1.0000   1.0000   1.0000   1.0000
     1.0000   1.0000   1.0000   1.0000   1.0000   1.0000   1.0000   1.0000
     1.0000   1.0000   1.0000   1.0000   1.0000   1.0000   1.0000   1.0000
     1.0000   1.0000   1.0000   1.0000   1.0000   1.0000   1.0000   1.0000
     1.0000   1.0000   1.0000   1.0000   1.0000   1.0000   1.0000   1.0000
     1.0000   1.0000   1.0000   1.0000   1.0000   1.0000   1.0000   1.0000
     1.0000   1.0000   1.0000   1.0000   1.0000   1.0000   1.0000   1.0000
     1.0000   0.0000   0.0000   0.0000   0.0000   0.0000   0.0000   0.0000
     0.0000   0.0000   0.0000   0.0000   0.0000   0.0000   0.0000   0.0000
     0.0000   0.0000   0.0000   0.0000   0.0000   0.0000   0.0000   0.0000
     0.0000   0.0000   0.0000   0.0000   0.0000   0.0000   0.0000   0.0000
     0.0000   0.0000   0.0000   0.0000   0.0000   0.0000   0.0000   0.0000
     0.0000   0.0000   0.0000   0.0000   0.0000   0.0000   0.0000   0.0000
     0.0000   0.0000   0.0000   0.0000   0.0000   0.0000   0.0000   0.0000
     0.0000   0.0000   0.0000

          k = 0.0000 0.0000 0.2500 (269876 PWs)   bands (ev):

  -103.5415 -60.9813 -60.9586 -60.9586  -7.6061  -7.3661  -7.1997  -7.1969
    -7.1948  -7.1779  -7.0693  -7.0630  -7.0578  -7.0522  -7.0403  -7.0051
    -6.9997  -6.9996  -6.9941  -6.9478  -6.9347  -6.9277  -6.8931  -6.8739
    -6.8635  -6.8545  -6.8233  -6.7959  -6.7955  -6.7742  -6.7667  -6.7661
    -6.4622  -6.3351  -6.3326  -3.8743  -3.8734  -3.8719  -3.8349  -3.8341
    -3.8335  -3.8327  -3.8305  -3.8192  -3.8190  -3.8138  -3.8126  -3.8112
    -3.8091  -3.8028  -3.8026  -3.8010  -3.7989  -3.7944  -3.7930  -3.7877
    -3.7864  -3.7814  -3.7805  -3.7769  -3.7758  -3.7706  -3.7700  -3.7668
    -3.7648  -3.7647  -3.7599  -3.7542  -3.7496  -3.7488  -3.7475  -3.7380
    -3.7352  -3.7328  -3.7317  -3.7297  -3.7273  -3.7254  -3.7247  -3.7168
    -3.7120  -3.7112  -3.7074  -3.7069  -3.7032  -3.7005  -3.6989  -3.6938
    -3.6932  -3.6896  -3.6893  -3.6844  -3.6838  -3.6825  -3.6779  -3.6740
    -3.6725  -3.6616  -3.6551  -3.6546  -3.6510  -3.6471  -3.6438  -3.6436
    -3.6426  -3.6390  -3.6340  -3.6315  -3.6302  -3.6282  -3.6248  -3.6227
    -3.6212  -3.6194  -3.6187  -3.6172  -3.6143  -3.6143  -3.6114  -3.6103
    -3.6076  -3.6072  -3.6042  -3.5995  -3.5910  -3.5897  -3.5849  -3.5825
    -3.5812  -3.5755  -3.5728  -3.5672  -3.5671  -3.5572  -3.5484  -3.5408
    -3.5348  -3.5327  -3.5253  -3.5204  -3.5193  -3.5167  -3.5078  -3.5020
    -3.4985  -3.4918  -3.4899  -3.4869  -3.4857  -3.4827  -3.4807  -3.4784
    -3.4714  -3.4701  -3.4635  -3.4615  -3.4614  -3.4465  -3.4458  -3.4210
    -3.4190  -3.4162  -3.4032  -3.3990  -3.3986  -3.3829  -3.3632  -3.3558
    -3.3337  -3.3019  -3.2408  -3.2214  -3.2195  -3.2051  -3.1641  -3.1609
    -3.1427  -3.1229  -3.1146  -3.0942  -3.0894  -3.0746  -3.0119  -2.9996
    -2.9813  -2.9261  -2.9257  -2.9003  -2.8980  -2.8920   0.3189   0.3345
     0.3562   0.3595   0.6102   0.6254   0.7215   0.7854   0.7917   0.8057
     0.8169   0.8489   0.8621   0.9738   0.9976   1.0010   1.0079   1.0302
     1.1590   1.1860   1.3619   1.5680   1.5745   1.6383   1.7248   2.0121
     2.1750   2.1918   2.3054   2.3277   2.3359   2.3659   2.3778   2.4221
     2.4343   2.4974   2.5195   2.5713   2.6050   2.6784   2.7553   2.7711
     2.7903   2.8520   2.8524   2.9611   2.9916   3.0142   3.0188   3.0297
     3.0439   3.0687   3.0775   3.1230   3.1478   3.1724   3.1779   3.2171
     3.2427   3.2856   3.3609   3.4288   3.4806   3.5589   3.5673   3.6967
     3.7925   3.8224   3.9150   3.9354   3.9442   4.0082   4.0314   4.0458
     4.0829   4.0964   4.1218   4.1493   4.1923   4.2000   4.2209   4.2614
     4.2980   4.3016   4.3099   4.3206   4.3241   4.3875   4.4161   4.4223
     4.4870   4.5315   4.6000   4.6978   4.8572   4.9743   5.2778   5.3623
     6.7613   7.9993   8.5903   8.6717   8.8737   8.9004   8.9311   8.9868
     9.0130   9.0954   9.2464   9.4137   9.4641   9.6191   9.6457   9.6681
     9.7232   9.8822   9.8835   9.9234   9.9254   9.9488  10.0387  10.0515
    10.0663  10.1206  10.1271  10.1796  10.1821  10.1962  10.2419  10.2599
    10.3082  10.3568  10.4839  10.5473  10.5487  10.6525  10.6769  10.7880
    10.8746  10.9178  10.9647  11.1221  11.2027  11.2497  11.4165  11.5460
    11.5795  11.6054  11.6474  11.6920  11.7069  11.7359  11.7756  11.8404
    11.8532  11.8754  11.8827

     occupation numbers 
     1.0000   1.0000   1.0000   1.0000   1.0000   1.0000   1.0000   1.0000
     1.0000   1.0000   1.0000   1.0000   1.0000   1.0000   1.0000   1.0000
     1.0000   1.0000   1.0000   1.0000   1.0000   1.0000   1.0000   1.0000
     1.0000   1.0000   1.0000   1.0000   1.0000   1.0000   1.0000   1.0000
     1.0000   1.0000   1.0000   1.0000   1.0000   1.0000   1.0000   1.0000
     1.0000   1.0000   1.0000   1.0000   1.0000   1.0000   1.0000   1.0000
     1.0000   1.0000   1.0000   1.0000   1.0000   1.0000   1.0000   1.0000
     1.0000   1.0000   1.0000   1.0000   1.0000   1.0000   1.0000   1.0000
     1.0000   1.0000   1.0000   1.0000   1.0000   1.0000   1.0000   1.0000
     1.0000   1.0000   1.0000   1.0000   1.0000   1.0000   1.0000   1.0000
     1.0000   1.0000   1.0000   1.0000   1.0000   1.0000   1.0000   1.0000
     1.0000   1.0000   1.0000   1.0000   1.0000   1.0000   1.0000   1.0000
     1.0000   1.0000   1.0000   1.0000   1.0000   1.0000   1.0000   1.0000
     1.0000   1.0000   1.0000   1.0000   1.0000   1.0000   1.0000   1.0000
     1.0000   1.0000   1.0000   1.0000   1.0000   1.0000   1.0000   1.0000
     1.0000   1.0000   1.0000   1.0000   1.0000   1.0000   1.0000   1.0000
     1.0000   1.0000   1.0000   1.0000   1.0000   1.0000   1.0000   1.0000
     1.0000   1.0000   1.0000   1.0000   1.0000   1.0000   1.0000   1.0000
     1.0000   1.0000   1.0000   1.0000   1.0000   1.0000   1.0000   1.0000
     1.0000   1.0000   1.0000   1.0000   1.0000   1.0000   1.0000   1.0000
     1.0000   1.0000   1.0000   1.0000   1.0000   1.0000   1.0000   1.0000
     1.0000   1.0000   1.0000   1.0000   1.0000   1.0000   1.0000   1.0000
     1.0000   1.0000   1.0000   1.0000   1.0000   1.0000   1.0000   1.0000
     1.0000   1.0000   1.0000   1.0000   1.0000   1.0000   1.0000   1.0000
     1.0000   1.0000   1.0000   1.0000   1.0000   1.0000   1.0000   1.0000
     1.0000   1.0000   1.0000   1.0000   1.0000   1.0000   1.0000   1.0000
     1.0000   1.0000   1.0000   1.0000   1.0000   1.0000   1.0000   1.0000
     1.0000   1.0000   1.0000   1.0000   1.0000   1.0000   1.0000   1.0000
     1.0000   1.0000   1.0000   1.0000   1.0000   1.0000   1.0000   1.0000
     1.0000   1.0000   1.0000   1.0000   1.0000   1.0000   1.0000   1.0000
     1.0000   1.0000   1.0000   1.0000   1.0000   1.0000   1.0000   1.0000
     1.0000   1.0000   1.0000   1.0000   1.0000   1.0000   1.0000   1.0000
     1.0000   1.0000   1.0000   1.0000   1.0000   1.0000   1.0000   1.0000
     1.0000   1.0000   1.0000   1.0000   1.0000   1.0000   1.0000   1.0000
     1.0000   1.0000   1.0000   1.0000   1.0000   1.0000   1.0000   1.0000
     1.0000   1.0000   1.0000   1.0000   1.0000   1.0000   1.0000   1.0000
     1.0000   0.0000   0.0000   0.0000   0.0000   0.0000   0.0000   0.0000
     0.0000   0.0000   0.0000   0.0000   0.0000   0.0000   0.0000   0.0000
     0.0000   0.0000   0.0000   0.0000   0.0000   0.0000   0.0000   0.0000
     0.0000   0.0000   0.0000   0.0000   0.0000   0.0000   0.0000   0.0000
     0.0000   0.0000   0.0000   0.0000   0.0000   0.0000   0.0000   0.0000
     0.0000   0.0000   0.0000   0.0000   0.0000   0.0000   0.0000   0.0000
     0.0000   0.0000   0.0000   0.0000   0.0000   0.0000   0.0000   0.0000
     0.0000   0.0000   0.0000

          k = 0.0000 0.0000-0.5000 (270152 PWs)   bands (ev):

  -103.5415 -60.9813 -60.9586 -60.9586  -7.5477  -7.4699  -7.1756  -7.1739
    -7.1685  -7.1549  -7.1384  -7.1058  -7.0943  -7.0613  -7.0112  -7.0050
    -7.0004  -6.9969  -6.9428  -6.9256  -6.9217  -6.9096  -6.8857  -6.8711
    -6.8451  -6.8435  -6.8282  -6.8143  -6.7969  -6.7895  -6.7822  -6.7781
    -6.4593  -6.3380  -6.3329  -3.8724  -3.8716  -3.8677  -3.8340  -3.8298
    -3.8295  -3.8264  -3.8252  -3.8245  -3.8238  -3.8206  -3.8162  -3.8144
    -3.8118  -3.8093  -3.8082  -3.8052  -3.8044  -3.7974  -3.7971  -3.7874
    -3.7861  -3.7844  -3.7830  -3.7804  -3.7746  -3.7700  -3.7636  -3.7625
    -3.7579  -3.7578  -3.7535  -3.7528  -3.7515  -3.7473  -3.7450  -3.7443
    -3.7393  -3.7355  -3.7344  -3.7304  -3.7281  -3.7257  -3.7198  -3.7167
    -3.7130  -3.7112  -3.7051  -3.7045  -3.7024  -3.7021  -3.6997  -3.6927
    -3.6917  -3.6879  -3.6872  -3.6841  -3.6828  -3.6803  -3.6790  -3.6760
    -3.6748  -3.6690  -3.6599  -3.6588  -3.6471  -3.6452  -3.6447  -3.6411
    -3.6399  -3.6373  -3.6291  -3.6290  -3.6263  -3.6257  -3.6238  -3.6224
    -3.6209  -3.6181  -3.6177  -3.6163  -3.6160  -3.6131  -3.6052  -3.6052
    -3.6028  -3.6005  -3.5998  -3.5953  -3.5938  -3.5920  -3.5877  -3.5851
    -3.5843  -3.5808  -3.5736  -3.5680  -3.5642  -3.5546  -3.5453  -3.5396
    -3.5324  -3.5299  -3.5172  -3.5154  -3.5135  -3.5081  -3.5029  -3.4999
    -3.4927  -3.4892  -3.4889  -3.4872  -3.4848  -3.4835  -3.4793  -3.4771
    -3.4713  -3.4688  -3.4659  -3.4619  -3.4618  -3.4594  -3.4470  -3.4335
    -3.4216  -3.4173  -3.4120  -3.4042  -3.4034  -3.3934  -3.3876  -3.3814
    -3.3430  -3.2772  -3.2305  -3.2241  -3.2069  -3.2067  -3.1944  -3.1789
    -3.1782  -3.1378  -3.0830  -3.0211  -3.0111  -2.9994  -2.9986  -2.9887
    -2.9778  -2.9627  -2.9577  -2.9472  -2.9391  -2.9381   0.5355   0.5580
     0.5682   0.5762   0.6304   0.6353   0.6501   0.6641   0.6768   0.6987
     0.7328   0.7770   0.8404   0.8461   0.8645   0.8774   0.9053   1.0287
     1.0918   1.1105   1.2280   1.5580   1.8068   1.8493   1.9174   1.9683
     1.9797   2.0269   2.0430   2.2655   2.2702   2.2782   2.2803   2.2974
     2.3696   2.4149   2.5145   2.5695   2.7024   2.7104   2.7559   2.7766
     2.8556   2.8747   2.9072   2.9341   2.9770   3.0185   3.1173   3.2258
[...]
    10.0123  10.0401  10.0751  10.0936  10.1633  10.1789  10.2665  10.2897
    10.4191  10.5122  10.5461  10.5568  10.6035  10.7021  10.7183  10.7326
    10.7841  10.8649  10.8938  10.9715  11.1180  11.2070  11.2736  11.3332
    11.3978  11.4797  11.5489  11.5992  11.6492  11.6608  11.6743  11.7327
    11.7621  11.7838  11.8141

     occupation numbers 
     1.0000   1.0000   1.0000   1.0000   1.0000   1.0000   1.0000   1.0000
     1.0000   1.0000   1.0000   1.0000   1.0000   1.0000   1.0000   1.0000
     1.0000   1.0000   1.0000   1.0000   1.0000   1.0000   1.0000   1.0000
     1.0000   1.0000   1.0000   1.0000   1.0000   1.0000   1.0000   1.0000
     1.0000   1.0000   1.0000   1.0000   1.0000   1.0000   1.0000   1.0000
     1.0000   1.0000   1.0000   1.0000   1.0000   1.0000   1.0000   1.0000
     1.0000   1.0000   1.0000   1.0000   1.0000   1.0000   1.0000   1.0000
     1.0000   1.0000   1.0000   1.0000   1.0000   1.0000   1.0000   1.0000
     1.0000   1.0000   1.0000   1.0000   1.0000   1.0000   1.0000   1.0000
     1.0000   1.0000   1.0000   1.0000   1.0000   1.0000   1.0000   1.0000
     1.0000   1.0000   1.0000   1.0000   1.0000   1.0000   1.0000   1.0000
     1.0000   1.0000   1.0000   1.0000   1.0000   1.0000   1.0000   1.0000
     1.0000   1.0000   1.0000   1.0000   1.0000   1.0000   1.0000   1.0000
     1.0000   1.0000   1.0000   1.0000   1.0000   1.0000   1.0000   1.0000
     1.0000   1.0000   1.0000   1.0000   1.0000   1.0000   1.0000   1.0000
     1.0000   1.0000   1.0000   1.0000   1.0000   1.0000   1.0000   1.0000
     1.0000   1.0000   1.0000   1.0000   1.0000   1.0000   1.0000   1.0000
     1.0000   1.0000   1.0000   1.0000   1.0000   1.0000   1.0000   1.0000
     1.0000   1.0000   1.0000   1.0000   1.0000   1.0000   1.0000   1.0000
     1.0000   1.0000   1.0000   1.0000   1.0000   1.0000   1.0000   1.0000
     1.0000   1.0000   1.0000   1.0000   1.0000   1.0000   1.0000   1.0000
     1.0000   1.0000   1.0000   1.0000   1.0000   1.0000   1.0000   1.0000
     1.0000   1.0000   1.0000   1.0000   1.0000   1.0000   1.0000   1.0000
     1.0000   1.0000   1.0000   1.0000   1.0000   1.0000   1.0000   1.0000
     1.0000   1.0000   1.0000   1.0000   1.0000   1.0000   1.0000   1.0000
     1.0000   1.0000   1.0000   1.0000   1.0000   1.0000   1.0000   1.0000
     1.0000   1.0000   1.0000   1.0000   1.0000   1.0000   1.0000   1.0000
     1.0000   1.0000   1.0000   1.0000   1.0000   1.0000   1.0000   1.0000
     1.0000   1.0000   1.0000   1.0000   1.0000   1.0000   1.0000   1.0000
     1.0000   1.0000   1.0000   1.0000   1.0000   1.0000   1.0000   1.0000
     1.0000   1.0000   1.0000   1.0000   1.0000   1.0000   1.0000   1.0000
     1.0000   1.0000   1.0000   1.0000   1.0000   1.0000   1.0000   1.0000
     1.0000   1.0000   1.0000   1.0000   1.0000   1.0000   1.0000   1.0000
     1.0000   1.0000   1.0000   1.0000   1.0000   1.0000   1.0000   1.0000
     1.0000   1.0000   1.0000   1.0000   1.0000   1.0000   1.0000   1.0000
     1.0000   1.0000   1.0000   1.0000   1.0000   1.0000   1.0000   1.0000
     1.0000   0.0000   0.0000   0.0000   0.0000   0.0000   0.0000   0.0000
     0.0000   0.0000   0.0000   0.0000   0.0000   0.0000   0.0000   0.0000
     0.0000   0.0000   0.0000   0.0000   0.0000   0.0000   0.0000   0.0000
     0.0000   0.0000   0.0000   0.0000   0.0000   0.0000   0.0000   0.0000
     0.0000   0.0000   0.0000   0.0000   0.0000   0.0000   0.0000   0.0000
     0.0000   0.0000   0.0000   0.0000   0.0000   0.0000   0.0000   0.0000
     0.0000   0.0000   0.0000   0.0000   0.0000   0.0000   0.0000   0.0000
     0.0000   0.0000   0.0000

          k = 0.2500-0.2500 0.2500 (269935 PWs)   bands (ev):

  -103.5415 -60.9813 -60.9586 -60.9586  -7.5496  -7.3356  -7.3314  -7.3117
    -7.1697  -7.1635  -7.1379  -7.0403  -7.0319  -7.0307  -7.0081  -6.9782
    -6.9781  -6.9626  -6.9486  -6.9478  -6.9459  -6.8865  -6.8787  -6.8676
    -6.8511  -6.8500  -6.8202  -6.8198  -6.8191  -6.7920  -6.7899  -6.7897
    -6.4573  -6.3370  -6.3368  -3.8719  -3.8708  -3.8687  -3.8349  -3.8347
    -3.8319  -3.8316  -3.8253  -3.8235  -3.8211  -3.8183  -3.8148  -3.8140
    -3.8136  -3.8120  -3.8071  -3.8066  -3.7956  -3.7940  -3.7876  -3.7812
    -3.7805  -3.7768  -3.7755  -3.7744  -3.7703  -3.7701  -3.7668  -3.7654
    -3.7631  -3.7610  -3.7608  -3.7566  -3.7516  -3.7439  -3.7435  -3.7393
    -3.7380  -3.7369  -3.7329  -3.7324  -3.7274  -3.7261  -3.7205  -3.7132
    -3.7095  -3.7090  -3.7071  -3.7049  -3.7027  -3.7015  -3.6962  -3.6957
    -3.6931  -3.6907  -3.6870  -3.6869  -3.6834  -3.6829  -3.6781  -3.6746
    -3.6721  -3.6667  -3.6663  -3.6591  -3.6506  -3.6483  -3.6454  -3.6426
    -3.6409  -3.6388  -3.6381  -3.6321  -3.6304  -3.6274  -3.6271  -3.6254
    -3.6237  -3.6214  -3.6190  -3.6141  -3.6130  -3.6112  -3.6096  -3.6084
    -3.6057  -3.6055  -3.5973  -3.5940  -3.5922  -3.5914  -3.5894  -3.5866
    -3.5840  -3.5785  -3.5738  -3.5719  -3.5690  -3.5673  -3.5569  -3.5422
    -3.5397  -3.5366  -3.5188  -3.5174  -3.5152  -3.5128  -3.5077  -3.5063
    -3.5012  -3.4986  -3.4896  -3.4836  -3.4819  -3.4792  -3.4775  -3.4757
    -3.4742  -3.4702  -3.4663  -3.4624  -3.4569  -3.4542  -3.4306  -3.4219
    -3.4188  -3.4143  -3.4007  -3.3985  -3.3939  -3.3933  -3.3679  -3.3609
    -3.3235  -3.2912  -3.2334  -3.2103  -3.1996  -3.1901  -3.1819  -3.1726
    -3.1279  -3.0990  -3.0868  -3.0562  -3.0490  -3.0386  -3.0151  -3.0141
    -2.9976  -2.9683  -2.9492  -2.9415  -2.9388  -2.9311   0.4026   0.4211
     0.4378   0.6675   0.6833   0.6860   0.7184   0.7261   0.7270   0.7800
     0.7951   0.7961   0.8296   0.8644   0.8795   0.9525   0.9992   1.0486
     1.0514   1.1205   1.2434   1.3849   1.5644   1.5993   1.6862   1.8101
     1.8263   2.1319   2.3510   2.3904   2.4038   2.4422   2.4453   2.4713
     2.5392   2.5435   2.5586   2.5737   2.5956   2.7219   2.7874   2.8059
     2.8873   2.9501   2.9517   3.0052   3.0108   3.0255   3.0656   3.1145
     3.1323   3.1629   3.1946   3.2249   3.2659   3.2674   3.3232   3.3278
     3.3809   3.4200   3.4230   3.5103   3.5145   3.6494   3.6823   3.7139
     3.7491   3.7587   3.7671   3.7816   3.8471   3.8561   3.8889   3.9231
     3.9418   3.9486   3.9807   3.9861   4.0191   4.0460   4.0526   4.1161
     4.1971   4.2819   4.2991   4.3687   4.3902   4.4547   4.4681   4.4872
     4.5104   4.5689   4.6814   4.6969   4.9033   4.9881   5.1817   5.3444
     6.9004   8.1365   8.6609   8.6628   8.8317   9.1267   9.1988   9.2040
     9.2281   9.3376   9.3404   9.3927   9.4523   9.5201   9.5580   9.5634
     9.6529   9.7597   9.7780   9.8607   9.9023   9.9725   9.9769  10.0362
    10.0838  10.0857  10.1540  10.1625  10.1793  10.1965  10.2104  10.2241
    10.2352  10.2748  10.2754  10.3026  10.3818  10.5260  10.7392  10.8124
    10.9540  11.0153  11.0493  11.0990  11.2619  11.2723  11.2879  11.3093
    11.3294  11.3697  11.3951  11.5037  11.5088  11.5713  11.6890  11.7056
    11.7237  11.7750  11.8113

     occupation numbers 
     1.0000   1.0000   1.0000   1.0000   1.0000   1.0000   1.0000   1.0000
     1.0000   1.0000   1.0000   1.0000   1.0000   1.0000   1.0000   1.0000
     1.0000   1.0000   1.0000   1.0000   1.0000   1.0000   1.0000   1.0000
     1.0000   1.0000   1.0000   1.0000   1.0000   1.0000   1.0000   1.0000
     1.0000   1.0000   1.0000   1.0000   1.0000   1.0000   1.0000   1.0000
     1.0000   1.0000   1.0000   1.0000   1.0000   1.0000   1.0000   1.0000
     1.0000   1.0000   1.0000   1.0000   1.0000   1.0000   1.0000   1.0000
     1.0000   1.0000   1.0000   1.0000   1.0000   1.0000   1.0000   1.0000
     1.0000   1.0000   1.0000   1.0000   1.0000   1.0000   1.0000   1.0000
     1.0000   1.0000   1.0000   1.0000   1.0000   1.0000   1.0000   1.0000
     1.0000   1.0000   1.0000   1.0000   1.0000   1.0000   1.0000   1.0000
     1.0000   1.0000   1.0000   1.0000   1.0000   1.0000   1.0000   1.0000
     1.0000   1.0000   1.0000   1.0000   1.0000   1.0000   1.0000   1.0000
     1.0000   1.0000   1.0000   1.0000   1.0000   1.0000   1.0000   1.0000
     1.0000   1.0000   1.0000   1.0000   1.0000   1.0000   1.0000   1.0000
     1.0000   1.0000   1.0000   1.0000   1.0000   1.0000   1.0000   1.0000
     1.0000   1.0000   1.0000   1.0000   1.0000   1.0000   1.0000   1.0000
     1.0000   1.0000   1.0000   1.0000   1.0000   1.0000   1.0000   1.0000
     1.0000   1.0000   1.0000   1.0000   1.0000   1.0000   1.0000   1.0000
     1.0000   1.0000   1.0000   1.0000   1.0000   1.0000   1.0000   1.0000
     1.0000   1.0000   1.0000   1.0000   1.0000   1.0000   1.0000   1.0000
     1.0000   1.0000   1.0000   1.0000   1.0000   1.0000   1.0000   1.0000
     1.0000   1.0000   1.0000   1.0000   1.0000   1.0000   1.0000   1.0000
     1.0000   1.0000   1.0000   1.0000   1.0000   1.0000   1.0000   1.0000
     1.0000   1.0000   1.0000   1.0000   1.0000   1.0000   1.0000   1.0000
     1.0000   1.0000   1.0000   1.0000   1.0000   1.0000   1.0000   1.0000
     1.0000   1.0000   1.0000   1.0000   1.0000   1.0000   1.0000   1.0000
     1.0000   1.0000   1.0000   1.0000   1.0000   1.0000   1.0000   1.0000
     1.0000   1.0000   1.0000   1.0000   1.0000   1.0000   1.0000   1.0000
     1.0000   1.0000   1.0000   1.0000   1.0000   1.0000   1.0000   1.0000
     1.0000   1.0000   1.0000   1.0000   1.0000   1.0000   1.0000   1.0000
     1.0000   1.0000   1.0000   1.0000   1.0000   1.0000   1.0000   1.0000
     1.0000   1.0000   1.0000   1.0000   1.0000   1.0000   1.0000   1.0000
     1.0000   1.0000   1.0000   1.0000   1.0000   1.0000   1.0000   1.0000
     1.0000   1.0000   1.0000   1.0000   1.0000   1.0000   1.0000   1.0000
     1.0000   1.0000   1.0000   1.0000   1.0000   1.0000   1.0000   1.0000
     1.0000   0.0000   0.0000   0.0000   0.0000   0.0000   0.0000   0.0000
     0.0000   0.0000   0.0000   0.0000   0.0000   0.0000   0.0000   0.0000
     0.0000   0.0000   0.0000   0.0000   0.0000   0.0000   0.0000   0.0000
     0.0000   0.0000   0.0000   0.0000   0.0000   0.0000   0.0000   0.0000
     0.0000   0.0000   0.0000   0.0000   0.0000   0.0000   0.0000   0.0000
     0.0000   0.0000   0.0000   0.0000   0.0000   0.0000   0.0000   0.0000
     0.0000   0.0000   0.0000   0.0000   0.0000   0.0000   0.0000   0.0000
     0.0000   0.0000   0.0000

          k = 0.2500-0.2500-0.5000 (269988 PWs)   bands (ev):

  -103.5415 -60.9813 -60.9586 -60.9586  -7.4936  -7.4257  -7.2932  -7.2927
    -7.2341  -7.2041  -7.1459  -7.0430  -7.0207  -7.0187  -6.9813  -6.9767
    -6.9674  -6.9604  -6.9221  -6.9020  -6.9005  -6.8941  -6.8831  -6.8689
    -6.8614  -6.8477  -6.8355  -6.8302  -6.8167  -6.8075  -6.8045  -6.8031
    -6.4548  -6.3399  -6.3371  -3.8709  -3.8700  -3.8670  -3.8356  -3.8349
    -3.8320  -3.8306  -3.8295  -3.8266  -3.8219  -3.8179  -3.8154  -3.8140
    -3.8111  -3.8106  -3.8078  -3.8006  -3.7999  -3.7924  -3.7866  -3.7851
    -3.7800  -3.7786  -3.7762  -3.7720  -3.7701  -3.7673  -3.7662  -3.7635
    -3.7598  -3.7571  -3.7558  -3.7510  -3.7484  -3.7473  -3.7444  -3.7402
    -3.7400  -3.7389  -3.7368  -3.7355  -3.7286  -3.7213  -3.7185  -3.7133
    -3.7094  -3.7091  -3.7068  -3.7048  -3.7025  -3.7004  -3.6975  -3.6962
    -3.6952  -3.6902  -3.6878  -3.6852  -3.6839  -3.6824  -3.6784  -3.6737
    -3.6714  -3.6651  -3.6624  -3.6543  -3.6537  -3.6484  -3.6443  -3.6432
    -3.6400  -3.6390  -3.6385  -3.6366  -3.6319  -3.6303  -3.6285  -3.6262
    -3.6220  -3.6188  -3.6167  -3.6150  -3.6140  -3.6116  -3.6084  -3.6077
    -3.6060  -3.6037  -3.6012  -3.5991  -3.5939  -3.5900  -3.5897  -3.5882
    -3.5829  -3.5798  -3.5741  -3.5736  -3.5686  -3.5675  -3.5608  -3.5534
    -3.5416  -3.5384  -3.5336  -3.5174  -3.5156  -3.5132  -3.5119  -3.5077
    -3.5015  -3.4970  -3.4926  -3.4897  -3.4844  -3.4808  -3.4780  -3.4753
    -3.4738  -3.4702  -3.4669  -3.4622  -3.4580  -3.4508  -3.4403  -3.4247
    -3.4187  -3.4144  -3.4121  -3.3967  -3.3957  -3.3940  -3.3327  -3.3145
    -3.3061  -3.2883  -3.2420  -3.2231  -3.2008  -3.1823  -3.1629  -3.1363
    -3.1038  -3.0966  -3.0690  -3.0616  -3.0521  -3.0387  -3.0213  -3.0093
    -2.9993  -2.9873  -2.9793  -2.9700  -2.9587  -2.9467   0.4643   0.5297
     0.5999   0.6228   0.6703   0.6800   0.6994   0.7254   0.7270   0.7418
     0.7598   0.7770   0.8035   0.8316   0.8742   0.8991   0.9500   1.0520
     1.1500   1.2087   1.2436   1.2814   1.3177   1.4187   1.5834   1.8707
     2.1377   2.2198   2.2749   2.3482   2.3619   2.3836   2.4426   2.4750
     2.5249   2.5735   2.5902   2.6116   2.6437   2.7084   2.7218   2.8073
     2.8511   2.8676   2.9470   3.0271   3.1089   3.1327   3.2060   3.2228
     3.2848   3.2988   3.3062   3.3185   3.3272   3.3472   3.3940   3.4261
     3.4304   3.4440   3.4600   3.4850   3.4942   3.5176   3.5565   3.5699
     3.5989   3.6108   3.6499   3.6750   3.7441   3.7521   3.8266   3.8453
     3.8890   3.9364   3.9612   3.9752   4.0337   4.0523   4.1351   4.1677
     4.1944   4.2124   4.2351   4.2730   4.3771   4.4604   4.5392   4.6176
     4.6272   4.6805   4.7304   4.7992   4.8265   4.8441   5.2382   5.3090
     6.9263   8.3472   8.4449   8.8859   8.9436   9.0415   9.0916   9.2375
     9.2976   9.3273   9.3945   9.4861   9.5089   9.5385   9.5611   9.5790
     9.6382   9.6959   9.7127   9.7488   9.7870   9.8240   9.8434   9.8975
     9.9397   9.9634  10.0272  10.0486  10.0650  10.1372  10.1785  10.2774
    10.2942  10.3918  10.4255  10.5803  10.6619  10.7066  10.7286  10.7897
    10.8188  10.9131  11.0135  11.1034  11.1700  11.2193  11.3201  11.3839
    11.4185  11.4404  11.4529  11.4958  11.5287  11.5535  11.5810  11.5984
    11.6177  11.6215  11.6557

     occupation numbers 
     1.0000   1.0000   1.0000   1.0000   1.0000   1.0000   1.0000   1.0000
     1.0000   1.0000   1.0000   1.0000   1.0000   1.0000   1.0000   1.0000
     1.0000   1.0000   1.0000   1.0000   1.0000   1.0000   1.0000   1.0000
     1.0000   1.0000   1.0000   1.0000   1.0000   1.0000   1.0000   1.0000
     1.0000   1.0000   1.0000   1.0000   1.0000   1.0000   1.0000   1.0000
     1.0000   1.0000   1.0000   1.0000   1.0000   1.0000   1.0000   1.0000
     1.0000   1.0000   1.0000   1.0000   1.0000   1.0000   1.0000   1.0000
     1.0000   1.0000   1.0000   1.0000   1.0000   1.0000   1.0000   1.0000
     1.0000   1.0000   1.0000   1.0000   1.0000   1.0000   1.0000   1.0000
     1.0000   1.0000   1.0000   1.0000   1.0000   1.0000   1.0000   1.0000
     1.0000   1.0000   1.0000   1.0000   1.0000   1.0000   1.0000   1.0000
     1.0000   1.0000   1.0000   1.0000   1.0000   1.0000   1.0000   1.0000
     1.0000   1.0000   1.0000   1.0000   1.0000   1.0000   1.0000   1.0000
     1.0000   1.0000   1.0000   1.0000   1.0000   1.0000   1.0000   1.0000
     1.0000   1.0000   1.0000   1.0000   1.0000   1.0000   1.0000   1.0000
     1.0000   1.0000   1.0000   1.0000   1.0000   1.0000   1.0000   1.0000
     1.0000   1.0000   1.0000   1.0000   1.0000   1.0000   1.0000   1.0000
     1.0000   1.0000   1.0000   1.0000   1.0000   1.0000   1.0000   1.0000
     1.0000   1.0000   1.0000   1.0000   1.0000   1.0000   1.0000   1.0000
     1.0000   1.0000   1.0000   1.0000   1.0000   1.0000   1.0000   1.0000
     1.0000   1.0000   1.0000   1.0000   1.0000   1.0000   1.0000   1.0000
     1.0000   1.0000   1.0000   1.0000   1.0000   1.0000   1.0000   1.0000
     1.0000   1.0000   1.0000   1.0000   1.0000   1.0000   1.0000   1.0000
     1.0000   1.0000   1.0000   1.0000   1.0000   1.0000   1.0000   1.0000
     1.0000   1.0000   1.0000   1.0000   1.0000   1.0000   1.0000   1.0000
     1.0000   1.0000   1.0000   1.0000   1.0000   1.0000   1.0000   1.0000
     1.0000   1.0000   1.0000   1.0000   1.0000   1.0000   1.0000   1.0000
     1.0000   1.0000   1.0000   1.0000   1.0000   1.0000   1.0000   1.0000
     1.0000   1.0000   1.0000   1.0000   1.0000   1.0000   1.0000   1.0000
     1.0000   1.0000   1.0000   1.0000   1.0000   1.0000   1.0000   1.0000
     1.0000   1.0000   1.0000   1.0000   1.0000   1.0000   1.0000   1.0000
     1.0000   1.0000   1.0000   1.0000   1.0000   1.0000   1.0000   1.0000
     1.0000   1.0000   1.0000   1.0000   1.0000   1.0000   1.0000   1.0000
     1.0000   1.0000   1.0000   1.0000   1.0000   1.0000   1.0000   1.0000
     1.0000   1.0000   1.0000   1.0000   1.0000   1.0000   1.0000   1.0000
     1.0000   1.0000   1.0000   1.0000   1.0000   1.0000   1.0000   1.0000
     1.0000   0.0000   0.0000   0.0000   0.0000   0.0000   0.0000   0.0000
     0.0000   0.0000   0.0000   0.0000   0.0000   0.0000   0.0000   0.0000
     0.0000   0.0000   0.0000   0.0000   0.0000   0.0000   0.0000   0.0000
     0.0000   0.0000   0.0000   0.0000   0.0000   0.0000   0.0000   0.0000
     0.0000   0.0000   0.0000   0.0000   0.0000   0.0000   0.0000   0.0000
     0.0000   0.0000   0.0000   0.0000   0.0000   0.0000   0.0000   0.0000
     0.0000   0.0000   0.0000   0.0000   0.0000   0.0000   0.0000   0.0000
     0.0000   0.0000   0.0000

     the Fermi energy is     7.4913 ev
     (compare with:     7.6180 eV, computed in scf)

     Writing all to output data dir ./out/Cu_vac_qn1_U6_unrlxd.save/
 
     init_run     :      6.77s CPU      8.00s WALL (       1 calls)
     electrons    :    168.28s CPU    169.87s WALL (       1 calls)

     Called by init_run:
     wfcinit      :      2.03s CPU      2.50s WALL (       1 calls)
     wfcinit:atom :      0.03s CPU      0.03s WALL (       2 calls)
     wfcinit:wfcr :      3.11s CPU      3.23s WALL (       2 calls)
     potinit      :      1.56s CPU      2.05s WALL (       1 calls)
     hinit0       :      0.44s CPU      0.52s WALL (       1 calls)

     Called by electrons:
     c_bands      :    168.06s CPU    169.63s WALL (       1 calls)
     v_of_rho     :      0.31s CPU      0.37s WALL (       1 calls)
     v_h          :      0.01s CPU      0.01s WALL (       1 calls)
     v_xc         :      0.30s CPU      0.36s WALL (       1 calls)
     newd         :      0.06s CPU      0.08s WALL (       1 calls)
     PAW_pot      :      0.59s CPU      0.60s WALL (       1 calls)

     Called by c_bands:
     init_us_2    :      0.11s CPU      0.13s WALL (       4 calls)
     init_us_2:cp :      0.11s CPU      0.13s WALL (       4 calls)
     cegterg      :    141.65s CPU    143.00s WALL (      12 calls)

     Called by sum_band:

     Called by *egterg:
     cdiaghg      :     13.99s CPU     14.08s WALL (     221 calls)
     cegterg:over :     10.89s CPU     10.99s WALL (     219 calls)
     cegterg:upda :     10.68s CPU     10.75s WALL (     219 calls)
     cegterg:last :     19.72s CPU     19.85s WALL (      67 calls)
     cdiaghg:chol :      0.92s CPU      0.92s WALL (     221 calls)
     cdiaghg:inve :      1.34s CPU      1.35s WALL (     221 calls)
     cdiaghg:para :      2.12s CPU      2.14s WALL (     442 calls)
     h_psi        :     74.43s CPU     75.23s WALL (     233 calls)
     s_psi        :     12.74s CPU     12.83s WALL (     235 calls)
     g_psi        :      0.39s CPU      0.39s WALL (     219 calls)

     Called by h_psi:
     h_psi:calbec :     12.46s CPU     12.57s WALL (     233 calls)
     vloc_psi     :     30.15s CPU     30.47s WALL (     233 calls)
     add_vuspsi   :     12.98s CPU     13.08s WALL (     233 calls)
     vhpsi        :     18.25s CPU     18.39s WALL (     233 calls)

     General routines
     calbec       :     15.30s CPU     15.43s WALL (     468 calls)
     fft          :      0.52s CPU      0.65s WALL (      21 calls)
     fftw         :     27.97s CPU     28.28s WALL (   50790 calls)
     davcio       :      0.00s CPU      0.01s WALL (       2 calls)
 
     Parallel routines

     Hubbard U routines
     vhpsi        :     18.25s CPU     18.39s WALL (     233 calls)

     PAW routines
     PAW_pot      :      0.59s CPU      0.60s WALL (       1 calls)
 
     PWSCF        :   3m12.10s CPU   3m33.71s WALL

 
   This run was terminated on:  18: 7:15  18Jul2024            

=------------------------------------------------------------------------------=
   JOB DONE.
=------------------------------------------------------------------------------=
