
     Program PWSCF v.7.2 starts on 13Mar2024 at 16:28:30 

     This program is part of the open-source Quantum ESPRESSO suite
     for quantum simulation of materials; please cite
         "P. Giannozzi et al., J. Phys.:Condens. Matter 21 395502 (2009);
         "P. Giannozzi et al., J. Phys.:Condens. Matter 29 465901 (2017);
         "P. Giannozzi et al., J. Chem. Phys. 152 154105 (2020);
          URL http://www.quantum-espresso.org", 
     in publications or presentations arising from this work. More details at
     http://www.quantum-espresso.org/quote

     Parallel version (MPI), running on    20 processors

     MPI processes distributed on     1 nodes
     298478 MiB available memory on the printing compute node when the environment starts
 
     Waiting for input...
     Reading input from standard input

     Current dimensions of program PWSCF are:
     Max number of different atomic species (ntypx) = 10
     Max number of k-points (npk) = 120000
     Max angular momentum in pseudopotentials (lmaxx) =  4
     file Co.pbe-spn-kjpaw_psl.0.3.1.UPF: wavefunction(s)  3P 3D renormalized
     Message from routine set_cutoff:
     ecutrho < 4*ecutwfc, are you sure?
     Message from routine setup:
     using ibrav=0 with symmetry is DISCOURAGED, use correct ibrav instead
 
     R & G space division:  proc/nbgrp/npool/nimage =      20
     Subspace diagonalization in iterative solution of the eigenvalue problem:
     a serial algorithm will be used

 
     Parallelization info
     --------------------
     sticks:   dense  smooth     PW     G-vecs:    dense   smooth      PW
     Min          22      22      9                  626      626     179
     Max          24      24     10                  629      629     186
     Sum         451     451    199                12551    12551    3693
 
     Using Slab Decomposition
 


     bravais-lattice index     =            0
     lattice parameter (alat)  =       4.6714  a.u.
     unit-cell volume          =     143.6064 (a.u.)^3
     number of atoms/cell      =            2
     number of atomic types    =            1
     number of electrons       =        34.00
     number of Kohn-Sham states=           21
     kinetic-energy cutoff     =     110.0000  Ry
     charge density cutoff     =     300.0000  Ry
     scf convergence threshold =      8.0E-08
     mixing beta               =       0.4000
     number of iterations used =            8  plain     mixing
     Exchange-correlation= SLA  PW   PBX  PBC
                           (   1   4   3   4   0   0   0)

     celldm(1)=   4.671403  celldm(2)=   0.000000  celldm(3)=   0.000000
     celldm(4)=   0.000000  celldm(5)=   0.000000  celldm(6)=   0.000000

     crystal axes: (cart. coord. in units of alat)
               a(1) = (   1.000000   0.000000   0.000000 )  
               a(2) = (  -0.500000   0.866025   0.000000 )  
               a(3) = (   0.000000   0.000000   1.626676 )  

     reciprocal axes: (cart. coord. in units 2 pi/alat)
               b(1) = (  1.000000  0.577350  0.000000 )  
               b(2) = (  0.000000  1.154701  0.000000 )  
               b(3) = (  0.000000  0.000000  0.614750 )  


     PseudoPot. # 1 for Co read from file:
     /truba/home/amuhaymin/ZnS/pseudo/QE/Co.pbe-spn-kjpaw_psl.0.3.1.UPF
     MD5 check sum: b0a1ad65bf214e88c1f3d33b20c7d919
     Pseudo is Projector augmented-wave + core cor, Zval = 17.0
     Generated using &quot;atomic&quot; code by A. Dal Corso  v.6.2.2
     Shape of augmentation charge: PSQ
     Using radial grid of 1193 points,  6 beta functions with: 
                l(1) =   0
                l(2) =   0
                l(3) =   1
                l(4) =   1
                l(5) =   2
                l(6) =   2
     Q(r) pseudized with 0 coefficients 


     atomic species   valence    mass     pseudopotential
        Co            17.00    58.93300     Co( 1.00)

     Starting magnetic structure 
     atomic species   magnetization
        Co           0.294

     24 Sym. Ops., with inversion, found (12 have fractional translation)


                                    s                        frac. trans.

      isym =  1     identity                                     

 cryst.   s( 1) = (     1          0          0      )
                  (     0          1          0      )
                  (     0          0          1      )

 cart.    s( 1) = (  1.0000000  0.0000000  0.0000000 )
                  (  0.0000000  1.0000000  0.0000000 )
                  (  0.0000000  0.0000000  1.0000000 )


      isym =  2     180 deg rotation - cart. axis [0,0,1]        

 cryst.   s( 2) = (    -1          0          0      )    f =(  0.0000000 )
                  (     0         -1          0      )       (  0.0000000 )
                  (     0          0          1      )       ( -0.5000000 )

 cart.    s( 2) = ( -1.0000000  0.0000000  0.0000000 )    f =(  0.0000000 )
                  (  0.0000000 -1.0000000  0.0000000 )       (  0.0000000 )
                  (  0.0000000  0.0000000  1.0000000 )       ( -0.8133382 )


      isym =  3     180 deg rotation - cart. axis [0,1,0]        

 cryst.   s( 3) = (    -1          0          0      )    f =(  0.0000000 )
                  (     1          1          0      )       (  0.0000000 )
                  (     0          0         -1      )       (  0.5000000 )

 cart.    s( 3) = ( -1.0000000  0.0000000  0.0000000 )    f =(  0.0000000 )
                  (  0.0000000  1.0000000  0.0000000 )       (  0.0000000 )
                  (  0.0000000  0.0000000 -1.0000000 )       (  0.8133382 )


      isym =  4     180 deg rotation - cart. axis [1,0,0]        

 cryst.   s( 4) = (     1          0          0      )
                  (    -1         -1          0      )
                  (     0          0         -1      )

 cart.    s( 4) = (  1.0000000  0.0000000  0.0000000 )
                  (  0.0000000 -1.0000000  0.0000000 )
                  (  0.0000000  0.0000000 -1.0000000 )


      isym =  5      60 deg rotation - cryst. axis [0,0,1]       

 cryst.   s( 5) = (     1          1          0      )    f =(  0.0000000 )
                  (    -1          0          0      )       ( -0.0000000 )
                  (     0          0          1      )       ( -0.5000000 )

 cart.    s( 5) = (  0.5000000 -0.8660254  0.0000000 )    f =(  0.0000000 )
                  (  0.8660254  0.5000000  0.0000000 )       ( -0.0000000 )
                  (  0.0000000  0.0000000  1.0000000 )       ( -0.8133382 )


      isym =  6      60 deg rotation - cryst. axis [0,0,-1]      

 cryst.   s( 6) = (     0         -1          0      )    f =(  0.0000000 )
                  (     1          1          0      )       ( -0.0000000 )
                  (     0          0          1      )       ( -0.5000000 )

 cart.    s( 6) = (  0.5000000  0.8660254  0.0000000 )    f =(  0.0000000 )
                  ( -0.8660254  0.5000000  0.0000000 )       ( -0.0000000 )
                  (  0.0000000  0.0000000  1.0000000 )       ( -0.8133382 )


      isym =  7     120 deg rotation - cryst. axis [0,0,1]       

 cryst.   s( 7) = (     0          1          0      )
                  (    -1         -1          0      )
                  (     0          0          1      )

 cart.    s( 7) = ( -0.5000000 -0.8660254  0.0000000 )
                  (  0.8660254 -0.5000000  0.0000000 )
                  (  0.0000000  0.0000000  1.0000000 )


      isym =  8     120 deg rotation - cryst. axis [0,0,-1]      

 cryst.   s( 8) = (    -1         -1          0      )
                  (     1          0          0      )
                  (     0          0          1      )

 cart.    s( 8) = ( -0.5000000  0.8660254  0.0000000 )
                  ( -0.8660254 -0.5000000  0.0000000 )
                  (  0.0000000  0.0000000  1.0000000 )


      isym =  9     180 deg rotation - cryst. axis [1,-1,0]      

 cryst.   s( 9) = (     0         -1          0      )    f =(  0.0000000 )
                  (    -1          0          0      )       (  0.0000000 )
                  (     0          0         -1      )       (  0.5000000 )

 cart.    s( 9) = (  0.5000000 -0.8660254  0.0000000 )    f =(  0.0000000 )
                  ( -0.8660254 -0.5000000  0.0000000 )       (  0.0000000 )
                  (  0.0000000  0.0000000 -1.0000000 )       (  0.8133382 )


      isym = 10     180 deg rotation - cryst. axis [2,1,0]       

 cryst.   s(10) = (     1          1          0      )    f =(  0.0000000 )
                  (     0         -1          0      )       ( -0.0000000 )
                  (     0          0         -1      )       (  0.5000000 )

 cart.    s(10) = (  0.5000000  0.8660254  0.0000000 )    f =(  0.0000000 )
                  (  0.8660254 -0.5000000  0.0000000 )       ( -0.0000000 )
                  (  0.0000000  0.0000000 -1.0000000 )       (  0.8133382 )


      isym = 11     180 deg rotation - cryst. axis [0,1,0]       

 cryst.   s(11) = (    -1         -1          0      )
                  (     0          1          0      )
                  (     0          0         -1      )

 cart.    s(11) = ( -0.5000000 -0.8660254  0.0000000 )
                  ( -0.8660254  0.5000000  0.0000000 )
                  (  0.0000000  0.0000000 -1.0000000 )


      isym = 12     180 deg rotation - cryst. axis [1,1,0]       

 cryst.   s(12) = (     0          1          0      )
                  (     1          0          0      )
                  (     0          0         -1      )

 cart.    s(12) = ( -0.5000000  0.8660254  0.0000000 )
                  (  0.8660254  0.5000000  0.0000000 )
                  (  0.0000000  0.0000000 -1.0000000 )


      isym = 13     inversion                                    

 cryst.   s(13) = (    -1          0          0      )
                  (     0         -1          0      )
                  (     0          0         -1      )

 cart.    s(13) = ( -1.0000000  0.0000000  0.0000000 )
                  (  0.0000000 -1.0000000  0.0000000 )
                  (  0.0000000  0.0000000 -1.0000000 )


      isym = 14     inv. 180 deg rotation - cart. axis [0,0,1]   

 cryst.   s(14) = (     1          0          0      )    f =(  0.0000000 )
                  (     0          1          0      )       (  0.0000000 )
                  (     0          0         -1      )       (  0.5000000 )

 cart.    s(14) = (  1.0000000  0.0000000  0.0000000 )    f =(  0.0000000 )
                  (  0.0000000  1.0000000  0.0000000 )       (  0.0000000 )
                  (  0.0000000  0.0000000 -1.0000000 )       (  0.8133382 )


      isym = 15     inv. 180 deg rotation - cart. axis [0,1,0]   

 cryst.   s(15) = (     1          0          0      )    f =(  0.0000000 )
                  (    -1         -1          0      )       (  0.0000000 )
                  (     0          0          1      )       ( -0.5000000 )

 cart.    s(15) = (  1.0000000  0.0000000  0.0000000 )    f =(  0.0000000 )
                  (  0.0000000 -1.0000000  0.0000000 )       (  0.0000000 )
                  (  0.0000000  0.0000000  1.0000000 )       ( -0.8133382 )


      isym = 16     inv. 180 deg rotation - cart. axis [1,0,0]   

 cryst.   s(16) = (    -1          0          0      )
                  (     1          1          0      )
                  (     0          0          1      )

 cart.    s(16) = ( -1.0000000  0.0000000  0.0000000 )
                  (  0.0000000  1.0000000  0.0000000 )
                  (  0.0000000  0.0000000  1.0000000 )


      isym = 17     inv.  60 deg rotation - cryst. axis [0,0,1]  

 cryst.   s(17) = (    -1         -1          0      )    f =(  0.0000000 )
                  (     1          0          0      )       (  0.0000000 )
                  (     0          0         -1      )       (  0.5000000 )

 cart.    s(17) = ( -0.5000000  0.8660254  0.0000000 )    f =(  0.0000000 )
                  ( -0.8660254 -0.5000000  0.0000000 )       (  0.0000000 )
                  (  0.0000000  0.0000000 -1.0000000 )       (  0.8133382 )


      isym = 18     inv.  60 deg rotation - cryst. axis [0,0,-1] 

 cryst.   s(18) = (     0          1          0      )    f =(  0.0000000 )
                  (    -1         -1          0      )       ( -0.0000000 )
                  (     0          0         -1      )       (  0.5000000 )

 cart.    s(18) = ( -0.5000000 -0.8660254  0.0000000 )    f =(  0.0000000 )
                  (  0.8660254 -0.5000000  0.0000000 )       ( -0.0000000 )
                  (  0.0000000  0.0000000 -1.0000000 )       (  0.8133382 )


      isym = 19     inv. 120 deg rotation - cryst. axis [0,0,1]  

 cryst.   s(19) = (     0         -1          0      )
                  (     1          1          0      )
                  (     0          0         -1      )

 cart.    s(19) = (  0.5000000  0.8660254  0.0000000 )
                  ( -0.8660254  0.5000000  0.0000000 )
                  (  0.0000000  0.0000000 -1.0000000 )


      isym = 20     inv. 120 deg rotation - cryst. axis [0,0,-1] 

 cryst.   s(20) = (     1          1          0      )
                  (    -1          0          0      )
                  (     0          0         -1      )

 cart.    s(20) = (  0.5000000 -0.8660254  0.0000000 )
                  (  0.8660254  0.5000000  0.0000000 )
                  (  0.0000000  0.0000000 -1.0000000 )


      isym = 21     inv. 180 deg rotation - cryst. axis [1,-1,0] 

 cryst.   s(21) = (     0          1          0      )    f =(  0.0000000 )
                  (     1          0          0      )       ( -0.0000000 )
                  (     0          0          1      )       ( -0.5000000 )

 cart.    s(21) = ( -0.5000000  0.8660254  0.0000000 )    f =(  0.0000000 )
                  (  0.8660254  0.5000000  0.0000000 )       ( -0.0000000 )
                  (  0.0000000  0.0000000  1.0000000 )       ( -0.8133382 )


      isym = 22     inv. 180 deg rotation - cryst. axis [2,1,0]  

 cryst.   s(22) = (    -1         -1          0      )    f =(  0.0000000 )
                  (     0          1          0      )       ( -0.0000000 )
                  (     0          0          1      )       ( -0.5000000 )

 cart.    s(22) = ( -0.5000000 -0.8660254  0.0000000 )    f =(  0.0000000 )
                  ( -0.8660254  0.5000000  0.0000000 )       ( -0.0000000 )
                  (  0.0000000  0.0000000  1.0000000 )       ( -0.8133382 )


      isym = 23     inv. 180 deg rotation - cryst. axis [0,1,0]  

 cryst.   s(23) = (     1          1          0      )
                  (     0         -1          0      )
                  (     0          0          1      )

 cart.    s(23) = (  0.5000000  0.8660254  0.0000000 )
                  (  0.8660254 -0.5000000  0.0000000 )
                  (  0.0000000  0.0000000  1.0000000 )


      isym = 24     inv. 180 deg rotation - cryst. axis [1,1,0]  

 cryst.   s(24) = (     0         -1          0      )
                  (    -1          0          0      )
                  (     0          0          1      )

 cart.    s(24) = (  0.5000000 -0.8660254  0.0000000 )
                  ( -0.8660254 -0.5000000  0.0000000 )
                  (  0.0000000  0.0000000  1.0000000 )


   Cartesian axes

     site n.     atom                  positions (alat units)
         1           Co  tau(   1) = (  -0.0000000   0.5773503   0.4066691  )
         2           Co  tau(   2) = (   0.5000000   0.2886751   1.2200074  )

   Crystallographic axes

     site n.     atom                  positions (cryst. coord.)
         1           Co  tau(   1) = (  0.3333333  0.6666667  0.2500000  )
         2           Co  tau(   2) = (  0.6666667  0.3333333  0.7500000  )

     number of k points=   135  Gaussian smearing, width (Ry)=  0.0735
                       cart. coord. in units 2pi/alat
        k(    1) = (   0.0000000   0.0000000   0.0000000), wk =   0.0005556
        k(    2) = (   0.0000000   0.0000000   0.0768438), wk =   0.0011111
        k(    3) = (   0.0000000   0.0000000   0.1536876), wk =   0.0011111
        k(    4) = (   0.0000000   0.0000000   0.2305314), wk =   0.0011111
        k(    5) = (   0.0000000   0.0000000  -0.3073752), wk =   0.0005556
        k(    6) = (   0.0000000   0.0769800   0.0000000), wk =   0.0033333
        k(    7) = (   0.0000000   0.0769800   0.0768438), wk =   0.0066667
        k(    8) = (   0.0000000   0.0769800   0.1536876), wk =   0.0066667
        k(    9) = (   0.0000000   0.0769800   0.2305314), wk =   0.0066667
        k(   10) = (   0.0000000   0.0769800  -0.3073752), wk =   0.0033333
        k(   11) = (   0.0000000   0.1539601   0.0000000), wk =   0.0033333
        k(   12) = (   0.0000000   0.1539601   0.0768438), wk =   0.0066667
        k(   13) = (   0.0000000   0.1539601   0.1536876), wk =   0.0066667
        k(   14) = (   0.0000000   0.1539601   0.2305314), wk =   0.0066667
        k(   15) = (   0.0000000   0.1539601  -0.3073752), wk =   0.0033333
        k(   16) = (   0.0000000   0.2309401   0.0000000), wk =   0.0033333
        k(   17) = (   0.0000000   0.2309401   0.0768438), wk =   0.0066667
        k(   18) = (   0.0000000   0.2309401   0.1536876), wk =   0.0066667
        k(   19) = (   0.0000000   0.2309401   0.2305314), wk =   0.0066667
        k(   20) = (   0.0000000   0.2309401  -0.3073752), wk =   0.0033333
        k(   21) = (   0.0000000   0.3079201   0.0000000), wk =   0.0033333
        k(   22) = (   0.0000000   0.3079201   0.0768438), wk =   0.0066667
        k(   23) = (   0.0000000   0.3079201   0.1536876), wk =   0.0066667
        k(   24) = (   0.0000000   0.3079201   0.2305314), wk =   0.0066667
        k(   25) = (   0.0000000   0.3079201  -0.3073752), wk =   0.0033333
        k(   26) = (   0.0000000   0.3849002   0.0000000), wk =   0.0033333
        k(   27) = (   0.0000000   0.3849002   0.0768438), wk =   0.0066667
        k(   28) = (   0.0000000   0.3849002   0.1536876), wk =   0.0066667
        k(   29) = (   0.0000000   0.3849002   0.2305314), wk =   0.0066667
        k(   30) = (   0.0000000   0.3849002  -0.3073752), wk =   0.0033333
        k(   31) = (   0.0000000   0.4618802   0.0000000), wk =   0.0033333
        k(   32) = (   0.0000000   0.4618802   0.0768438), wk =   0.0066667
        k(   33) = (   0.0000000   0.4618802   0.1536876), wk =   0.0066667
        k(   34) = (   0.0000000   0.4618802   0.2305314), wk =   0.0066667
        k(   35) = (   0.0000000   0.4618802  -0.3073752), wk =   0.0033333
        k(   36) = (   0.0000000   0.5388603   0.0000000), wk =   0.0033333
        k(   37) = (   0.0000000   0.5388603   0.0768438), wk =   0.0066667
        k(   38) = (   0.0000000   0.5388603   0.1536876), wk =   0.0066667
        k(   39) = (   0.0000000   0.5388603   0.2305314), wk =   0.0066667
        k(   40) = (   0.0000000   0.5388603  -0.3073752), wk =   0.0033333
        k(   41) = (   0.0666667   0.1154701   0.0000000), wk =   0.0033333
        k(   42) = (   0.0666667   0.1154701   0.0768438), wk =   0.0066667
        k(   43) = (   0.0666667   0.1154701   0.1536876), wk =   0.0066667
        k(   44) = (   0.0666667   0.1154701   0.2305314), wk =   0.0066667
        k(   45) = (   0.0666667   0.1154701  -0.3073752), wk =   0.0033333
        k(   46) = (   0.0666667   0.1924501   0.0000000), wk =   0.0066667
        k(   47) = (   0.0666667   0.1924501   0.0768438), wk =   0.0133333
        k(   48) = (   0.0666667   0.1924501   0.1536876), wk =   0.0133333
        k(   49) = (   0.0666667   0.1924501   0.2305314), wk =   0.0133333
        k(   50) = (   0.0666667   0.1924501  -0.3073752), wk =   0.0066667
        k(   51) = (   0.0666667   0.2694301   0.0000000), wk =   0.0066667
        k(   52) = (   0.0666667   0.2694301   0.0768438), wk =   0.0133333
        k(   53) = (   0.0666667   0.2694301   0.1536876), wk =   0.0133333
        k(   54) = (   0.0666667   0.2694301   0.2305314), wk =   0.0133333
        k(   55) = (   0.0666667   0.2694301  -0.3073752), wk =   0.0066667
        k(   56) = (   0.0666667   0.3464102   0.0000000), wk =   0.0066667
        k(   57) = (   0.0666667   0.3464102   0.0768438), wk =   0.0133333
        k(   58) = (   0.0666667   0.3464102   0.1536876), wk =   0.0133333
        k(   59) = (   0.0666667   0.3464102   0.2305314), wk =   0.0133333
        k(   60) = (   0.0666667   0.3464102  -0.3073752), wk =   0.0066667
        k(   61) = (   0.0666667   0.4233902   0.0000000), wk =   0.0066667
        k(   62) = (   0.0666667   0.4233902   0.0768438), wk =   0.0133333
        k(   63) = (   0.0666667   0.4233902   0.1536876), wk =   0.0133333
        k(   64) = (   0.0666667   0.4233902   0.2305314), wk =   0.0133333
        k(   65) = (   0.0666667   0.4233902  -0.3073752), wk =   0.0066667
        k(   66) = (   0.0666667   0.5003702   0.0000000), wk =   0.0066667
        k(   67) = (   0.0666667   0.5003702   0.0768438), wk =   0.0133333
        k(   68) = (   0.0666667   0.5003702   0.1536876), wk =   0.0133333
        k(   69) = (   0.0666667   0.5003702   0.2305314), wk =   0.0133333
        k(   70) = (   0.0666667   0.5003702  -0.3073752), wk =   0.0066667
        k(   71) = (   0.0666667   0.5773503   0.0000000), wk =   0.0033333
        k(   72) = (   0.0666667   0.5773503   0.0768438), wk =   0.0066667
        k(   73) = (   0.0666667   0.5773503   0.1536876), wk =   0.0066667
        k(   74) = (   0.0666667   0.5773503   0.2305314), wk =   0.0066667
        k(   75) = (   0.0666667   0.5773503  -0.3073752), wk =   0.0033333
        k(   76) = (   0.1333333   0.2309401   0.0000000), wk =   0.0033333
        k(   77) = (   0.1333333   0.2309401   0.0768438), wk =   0.0066667
        k(   78) = (   0.1333333   0.2309401   0.1536876), wk =   0.0066667
        k(   79) = (   0.1333333   0.2309401   0.2305314), wk =   0.0066667
        k(   80) = (   0.1333333   0.2309401  -0.3073752), wk =   0.0033333
        k(   81) = (   0.1333333   0.3079201   0.0000000), wk =   0.0066667
        k(   82) = (   0.1333333   0.3079201   0.0768438), wk =   0.0133333
        k(   83) = (   0.1333333   0.3079201   0.1536876), wk =   0.0133333
        k(   84) = (   0.1333333   0.3079201   0.2305314), wk =   0.0133333
        k(   85) = (   0.1333333   0.3079201  -0.3073752), wk =   0.0066667
        k(   86) = (   0.1333333   0.3849002   0.0000000), wk =   0.0066667
        k(   87) = (   0.1333333   0.3849002   0.0768438), wk =   0.0133333
        k(   88) = (   0.1333333   0.3849002   0.1536876), wk =   0.0133333
        k(   89) = (   0.1333333   0.3849002   0.2305314), wk =   0.0133333
        k(   90) = (   0.1333333   0.3849002  -0.3073752), wk =   0.0066667
        k(   91) = (   0.1333333   0.4618802   0.0000000), wk =   0.0066667
        k(   92) = (   0.1333333   0.4618802   0.0768438), wk =   0.0133333
        k(   93) = (   0.1333333   0.4618802   0.1536876), wk =   0.0133333
        k(   94) = (   0.1333333   0.4618802   0.2305314), wk =   0.0133333
        k(   95) = (   0.1333333   0.4618802  -0.3073752), wk =   0.0066667
        k(   96) = (   0.1333333   0.5388603   0.0000000), wk =   0.0066667
        k(   97) = (   0.1333333   0.5388603   0.0768438), wk =   0.0133333
        k(   98) = (   0.1333333   0.5388603   0.1536876), wk =   0.0133333
        k(   99) = (   0.1333333   0.5388603   0.2305314), wk =   0.0133333
        k(  100) = (   0.1333333   0.5388603  -0.3073752), wk =   0.0066667
        k(  101) = (   0.2000000   0.3464102   0.0000000), wk =   0.0033333
        k(  102) = (   0.2000000   0.3464102   0.0768438), wk =   0.0066667
        k(  103) = (   0.2000000   0.3464102   0.1536876), wk =   0.0066667
        k(  104) = (   0.2000000   0.3464102   0.2305314), wk =   0.0066667
        k(  105) = (   0.2000000   0.3464102  -0.3073752), wk =   0.0033333
        k(  106) = (   0.2000000   0.4233902   0.0000000), wk =   0.0066667
        k(  107) = (   0.2000000   0.4233902   0.0768438), wk =   0.0133333
        k(  108) = (   0.2000000   0.4233902   0.1536876), wk =   0.0133333
        k(  109) = (   0.2000000   0.4233902   0.2305314), wk =   0.0133333
        k(  110) = (   0.2000000   0.4233902  -0.3073752), wk =   0.0066667
        k(  111) = (   0.2000000   0.5003702   0.0000000), wk =   0.0066667
        k(  112) = (   0.2000000   0.5003702   0.0768438), wk =   0.0133333
        k(  113) = (   0.2000000   0.5003702   0.1536876), wk =   0.0133333
        k(  114) = (   0.2000000   0.5003702   0.2305314), wk =   0.0133333
        k(  115) = (   0.2000000   0.5003702  -0.3073752), wk =   0.0066667
        k(  116) = (   0.2000000   0.5773503   0.0000000), wk =   0.0033333
        k(  117) = (   0.2000000   0.5773503   0.0768438), wk =   0.0066667
        k(  118) = (   0.2000000   0.5773503   0.1536876), wk =   0.0066667
        k(  119) = (   0.2000000   0.5773503   0.2305314), wk =   0.0066667
        k(  120) = (   0.2000000   0.5773503  -0.3073752), wk =   0.0033333
        k(  121) = (   0.2666667   0.4618802   0.0000000), wk =   0.0033333
        k(  122) = (   0.2666667   0.4618802   0.0768438), wk =   0.0066667
        k(  123) = (   0.2666667   0.4618802   0.1536876), wk =   0.0066667
        k(  124) = (   0.2666667   0.4618802   0.2305314), wk =   0.0066667
        k(  125) = (   0.2666667   0.4618802  -0.3073752), wk =   0.0033333
        k(  126) = (   0.2666667   0.5388603   0.0000000), wk =   0.0066667
        k(  127) = (   0.2666667   0.5388603   0.0768438), wk =   0.0133333
        k(  128) = (   0.2666667   0.5388603   0.1536876), wk =   0.0133333
        k(  129) = (   0.2666667   0.5388603   0.2305314), wk =   0.0133333
        k(  130) = (   0.2666667   0.5388603  -0.3073752), wk =   0.0066667
        k(  131) = (   0.3333333   0.5773503   0.0000000), wk =   0.0011111
        k(  132) = (   0.3333333   0.5773503   0.0768438), wk =   0.0022222
        k(  133) = (   0.3333333   0.5773503   0.1536876), wk =   0.0022222
        k(  134) = (   0.3333333   0.5773503   0.2305314), wk =   0.0022222
        k(  135) = (   0.3333333   0.5773503  -0.3073752), wk =   0.0011111

                       cryst. coord.
        k(    1) = (   0.0000000   0.0000000   0.0000000), wk =   0.0005556
        k(    2) = (   0.0000000   0.0000000   0.1250000), wk =   0.0011111
        k(    3) = (   0.0000000   0.0000000   0.2500000), wk =   0.0011111
        k(    4) = (   0.0000000   0.0000000   0.3750000), wk =   0.0011111
        k(    5) = (   0.0000000   0.0000000  -0.5000000), wk =   0.0005556
        k(    6) = (   0.0000000   0.0666667   0.0000000), wk =   0.0033333
        k(    7) = (   0.0000000   0.0666667   0.1250000), wk =   0.0066667
        k(    8) = (   0.0000000   0.0666667   0.2500000), wk =   0.0066667
        k(    9) = (   0.0000000   0.0666667   0.3750000), wk =   0.0066667
        k(   10) = (   0.0000000   0.0666667  -0.5000000), wk =   0.0033333
        k(   11) = (   0.0000000   0.1333333   0.0000000), wk =   0.0033333
        k(   12) = (   0.0000000   0.1333333   0.1250000), wk =   0.0066667
        k(   13) = (   0.0000000   0.1333333   0.2500000), wk =   0.0066667
        k(   14) = (   0.0000000   0.1333333   0.3750000), wk =   0.0066667
        k(   15) = (   0.0000000   0.1333333  -0.5000000), wk =   0.0033333
        k(   16) = (   0.0000000   0.2000000   0.0000000), wk =   0.0033333
        k(   17) = (   0.0000000   0.2000000   0.1250000), wk =   0.0066667
        k(   18) = (   0.0000000   0.2000000   0.2500000), wk =   0.0066667
        k(   19) = (   0.0000000   0.2000000   0.3750000), wk =   0.0066667
        k(   20) = (   0.0000000   0.2000000  -0.5000000), wk =   0.0033333
        k(   21) = (   0.0000000   0.2666667   0.0000000), wk =   0.0033333
        k(   22) = (   0.0000000   0.2666667   0.1250000), wk =   0.0066667
        k(   23) = (   0.0000000   0.2666667   0.2500000), wk =   0.0066667
        k(   24) = (   0.0000000   0.2666667   0.3750000), wk =   0.0066667
        k(   25) = (   0.0000000   0.2666667  -0.5000000), wk =   0.0033333
        k(   26) = (   0.0000000   0.3333333   0.0000000), wk =   0.0033333
        k(   27) = (   0.0000000   0.3333333   0.1250000), wk =   0.0066667
        k(   28) = (   0.0000000   0.3333333   0.2500000), wk =   0.0066667
        k(   29) = (   0.0000000   0.3333333   0.3750000), wk =   0.0066667
        k(   30) = (   0.0000000   0.3333333  -0.5000000), wk =   0.0033333
        k(   31) = (   0.0000000   0.4000000   0.0000000), wk =   0.0033333
        k(   32) = (   0.0000000   0.4000000   0.1250000), wk =   0.0066667
        k(   33) = (   0.0000000   0.4000000   0.2500000), wk =   0.0066667
        k(   34) = (   0.0000000   0.4000000   0.3750000), wk =   0.0066667
        k(   35) = (   0.0000000   0.4000000  -0.5000000), wk =   0.0033333
        k(   36) = (   0.0000000   0.4666667   0.0000000), wk =   0.0033333
        k(   37) = (   0.0000000   0.4666667   0.1250000), wk =   0.0066667
        k(   38) = (   0.0000000   0.4666667   0.2500000), wk =   0.0066667
        k(   39) = (   0.0000000   0.4666667   0.3750000), wk =   0.0066667
        k(   40) = (   0.0000000   0.4666667  -0.5000000), wk =   0.0033333
        k(   41) = (   0.0666667   0.0666667   0.0000000), wk =   0.0033333
        k(   42) = (   0.0666667   0.0666667   0.1250000), wk =   0.0066667
        k(   43) = (   0.0666667   0.0666667   0.2500000), wk =   0.0066667
        k(   44) = (   0.0666667   0.0666667   0.3750000), wk =   0.0066667
        k(   45) = (   0.0666667   0.0666667  -0.5000000), wk =   0.0033333
        k(   46) = (   0.0666667   0.1333333   0.0000000), wk =   0.0066667
        k(   47) = (   0.0666667   0.1333333   0.1250000), wk =   0.0133333
        k(   48) = (   0.0666667   0.1333333   0.2500000), wk =   0.0133333
        k(   49) = (   0.0666667   0.1333333   0.3750000), wk =   0.0133333
        k(   50) = (   0.0666667   0.1333333  -0.5000000), wk =   0.0066667
        k(   51) = (   0.0666667   0.2000000   0.0000000), wk =   0.0066667
        k(   52) = (   0.0666667   0.2000000   0.1250000), wk =   0.0133333
        k(   53) = (   0.0666667   0.2000000   0.2500000), wk =   0.0133333
        k(   54) = (   0.0666667   0.2000000   0.3750000), wk =   0.0133333
        k(   55) = (   0.0666667   0.2000000  -0.5000000), wk =   0.0066667
        k(   56) = (   0.0666667   0.2666667   0.0000000), wk =   0.0066667
        k(   57) = (   0.0666667   0.2666667   0.1250000), wk =   0.0133333
        k(   58) = (   0.0666667   0.2666667   0.2500000), wk =   0.0133333
        k(   59) = (   0.0666667   0.2666667   0.3750000), wk =   0.0133333
        k(   60) = (   0.0666667   0.2666667  -0.5000000), wk =   0.0066667
        k(   61) = (   0.0666667   0.3333333   0.0000000), wk =   0.0066667
        k(   62) = (   0.0666667   0.3333333   0.1250000), wk =   0.0133333
        k(   63) = (   0.0666667   0.3333333   0.2500000), wk =   0.0133333
        k(   64) = (   0.0666667   0.3333333   0.3750000), wk =   0.0133333
        k(   65) = (   0.0666667   0.3333333  -0.5000000), wk =   0.0066667
        k(   66) = (   0.0666667   0.4000000   0.0000000), wk =   0.0066667
        k(   67) = (   0.0666667   0.4000000   0.1250000), wk =   0.0133333
        k(   68) = (   0.0666667   0.4000000   0.2500000), wk =   0.0133333
        k(   69) = (   0.0666667   0.4000000   0.3750000), wk =   0.0133333
        k(   70) = (   0.0666667   0.4000000  -0.5000000), wk =   0.0066667
        k(   71) = (   0.0666667   0.4666667   0.0000000), wk =   0.0033333
        k(   72) = (   0.0666667   0.4666667   0.1250000), wk =   0.0066667
        k(   73) = (   0.0666667   0.4666667   0.2500000), wk =   0.0066667
        k(   74) = (   0.0666667   0.4666667   0.3750000), wk =   0.0066667
        k(   75) = (   0.0666667   0.4666667  -0.5000000), wk =   0.0033333
        k(   76) = (   0.1333333   0.1333333   0.0000000), wk =   0.0033333
        k(   77) = (   0.1333333   0.1333333   0.1250000), wk =   0.0066667
        k(   78) = (   0.1333333   0.1333333   0.2500000), wk =   0.0066667
        k(   79) = (   0.1333333   0.1333333   0.3750000), wk =   0.0066667
        k(   80) = (   0.1333333   0.1333333  -0.5000000), wk =   0.0033333
        k(   81) = (   0.1333333   0.2000000   0.0000000), wk =   0.0066667
        k(   82) = (   0.1333333   0.2000000   0.1250000), wk =   0.0133333
        k(   83) = (   0.1333333   0.2000000   0.2500000), wk =   0.0133333
        k(   84) = (   0.1333333   0.2000000   0.3750000), wk =   0.0133333
        k(   85) = (   0.1333333   0.2000000  -0.5000000), wk =   0.0066667
        k(   86) = (   0.1333333   0.2666667   0.0000000), wk =   0.0066667
        k(   87) = (   0.1333333   0.2666667   0.1250000), wk =   0.0133333
        k(   88) = (   0.1333333   0.2666667   0.2500000), wk =   0.0133333
        k(   89) = (   0.1333333   0.2666667   0.3750000), wk =   0.0133333
        k(   90) = (   0.1333333   0.2666667  -0.5000000), wk =   0.0066667
        k(   91) = (   0.1333333   0.3333333   0.0000000), wk =   0.0066667
        k(   92) = (   0.1333333   0.3333333   0.1250000), wk =   0.0133333
        k(   93) = (   0.1333333   0.3333333   0.2500000), wk =   0.0133333
        k(   94) = (   0.1333333   0.3333333   0.3750000), wk =   0.0133333
        k(   95) = (   0.1333333   0.3333333  -0.5000000), wk =   0.0066667
        k(   96) = (   0.1333333   0.4000000   0.0000000), wk =   0.0066667
        k(   97) = (   0.1333333   0.4000000   0.1250000), wk =   0.0133333
        k(   98) = (   0.1333333   0.4000000   0.2500000), wk =   0.0133333
        k(   99) = (   0.1333333   0.4000000   0.3750000), wk =   0.0133333
        k(  100) = (   0.1333333   0.4000000  -0.5000000), wk =   0.0066667
        k(  101) = (   0.2000000   0.2000000   0.0000000), wk =   0.0033333
        k(  102) = (   0.2000000   0.2000000   0.1250000), wk =   0.0066667
        k(  103) = (   0.2000000   0.2000000   0.2500000), wk =   0.0066667
        k(  104) = (   0.2000000   0.2000000   0.3750000), wk =   0.0066667
        k(  105) = (   0.2000000   0.2000000  -0.5000000), wk =   0.0033333
        k(  106) = (   0.2000000   0.2666667   0.0000000), wk =   0.0066667
        k(  107) = (   0.2000000   0.2666667   0.1250000), wk =   0.0133333
        k(  108) = (   0.2000000   0.2666667   0.2500000), wk =   0.0133333
        k(  109) = (   0.2000000   0.2666667   0.3750000), wk =   0.0133333
        k(  110) = (   0.2000000   0.2666667  -0.5000000), wk =   0.0066667
        k(  111) = (   0.2000000   0.3333333   0.0000000), wk =   0.0066667
        k(  112) = (   0.2000000   0.3333333   0.1250000), wk =   0.0133333
        k(  113) = (   0.2000000   0.3333333   0.2500000), wk =   0.0133333
        k(  114) = (   0.2000000   0.3333333   0.3750000), wk =   0.0133333
        k(  115) = (   0.2000000   0.3333333  -0.5000000), wk =   0.0066667
        k(  116) = (   0.2000000   0.4000000   0.0000000), wk =   0.0033333
        k(  117) = (   0.2000000   0.4000000   0.1250000), wk =   0.0066667
        k(  118) = (   0.2000000   0.4000000   0.2500000), wk =   0.0066667
        k(  119) = (   0.2000000   0.4000000   0.3750000), wk =   0.0066667
        k(  120) = (   0.2000000   0.4000000  -0.5000000), wk =   0.0033333
        k(  121) = (   0.2666667   0.2666667   0.0000000), wk =   0.0033333
        k(  122) = (   0.2666667   0.2666667   0.1250000), wk =   0.0066667
        k(  123) = (   0.2666667   0.2666667   0.2500000), wk =   0.0066667
        k(  124) = (   0.2666667   0.2666667   0.3750000), wk =   0.0066667
        k(  125) = (   0.2666667   0.2666667  -0.5000000), wk =   0.0033333
        k(  126) = (   0.2666667   0.3333333   0.0000000), wk =   0.0066667
        k(  127) = (   0.2666667   0.3333333   0.1250000), wk =   0.0133333
        k(  128) = (   0.2666667   0.3333333   0.2500000), wk =   0.0133333
        k(  129) = (   0.2666667   0.3333333   0.3750000), wk =   0.0133333
        k(  130) = (   0.2666667   0.3333333  -0.5000000), wk =   0.0066667
        k(  131) = (   0.3333333   0.3333333   0.0000000), wk =   0.0011111
        k(  132) = (   0.3333333   0.3333333   0.1250000), wk =   0.0022222
        k(  133) = (   0.3333333   0.3333333   0.2500000), wk =   0.0022222
        k(  134) = (   0.3333333   0.3333333   0.3750000), wk =   0.0022222
        k(  135) = (   0.3333333   0.3333333  -0.5000000), wk =   0.0011111

     Dense  grid:    12551 G-vectors     FFT dimensions: (  25,  25,  48)

     Dynamical RAM for                 wfc:       0.04 MB

     Dynamical RAM for     wfc (w. buffer):      12.07 MB

     Dynamical RAM for           str. fact:       0.01 MB

     Dynamical RAM for           local pot:       0.00 MB

     Dynamical RAM for          nlocal pot:       0.08 MB

     Dynamical RAM for                qrad:       1.39 MB

     Dynamical RAM for          rho,v,vnew:       0.14 MB

     Dynamical RAM for               rhoin:       0.05 MB

     Dynamical RAM for            rho*nmix:       0.31 MB

     Dynamical RAM for           G-vectors:       0.04 MB

     Dynamical RAM for          h,s,v(r/c):       0.08 MB

     Dynamical RAM for          <psi|beta>:       0.01 MB

     Dynamical RAM for                 psi:       0.09 MB

     Dynamical RAM for                hpsi:       0.09 MB

     Dynamical RAM for                spsi:       0.09 MB

     Dynamical RAM for      wfcinit/wfcrot:       0.10 MB

     Dynamical RAM for           addusdens:       1.81 MB

     Estimated static dynamical RAM per process >      13.88 MB

     Estimated max dynamical RAM per process >      16.00 MB

     Estimated total dynamical RAM >     320.03 MB

     Check: negative core charge=   -0.000045
     Generating pointlists ...
     new r_m :   0.4114 (alat units)  1.9220 (a.u.) for type    1
     Cannot read rho : file not found

     Initial potential from superposition of free atoms

     starting charge      33.9994, renormalised to      34.0000
     Message from routine qexsd_readschema :
     xml data file ./out/Co.save/data-file-schema.xml not found
     Cannot read wfcs: file not found
     Starting wfcs are   20 randomized atomic wfcs +    1 random wfcs
     Checking if some PAW data can be deallocated... 

     total cpu time spent up to now is        1.1 secs

     Self-consistent Calculation

     iteration #  1     ecut=   110.00 Ry     beta= 0.40
     Davidson diagonalization with overlap

---- Real-time Memory Report at c_bands before calling an iterative solver
            55 MiB given to the printing process from OS
             0 MiB allocation reported by mallinfo(arena+hblkhd)
        297658 MiB available memory on the node where the printing process lives
------------------
     c_bands:  1 eigenvalues not converged
     c_bands:  1 eigenvalues not converged
     c_bands:  1 eigenvalues not converged
     c_bands:  1 eigenvalues not converged
     c_bands:  1 eigenvalues not converged
     c_bands:  1 eigenvalues not converged
     c_bands:  1 eigenvalues not converged
     c_bands:  1 eigenvalues not converged
     c_bands:  1 eigenvalues not converged
     c_bands:  1 eigenvalues not converged
     c_bands:  1 eigenvalues not converged
     c_bands:  1 eigenvalues not converged
     c_bands:  1 eigenvalues not converged
     c_bands:  1 eigenvalues not converged
     c_bands:  1 eigenvalues not converged
     c_bands:  1 eigenvalues not converged
     c_bands:  1 eigenvalues not converged
     c_bands:  1 eigenvalues not converged
     c_bands:  2 eigenvalues not converged
     c_bands:  1 eigenvalues not converged
     c_bands:  2 eigenvalues not converged
     c_bands:  1 eigenvalues not converged
     c_bands:  2 eigenvalues not converged
     c_bands:  1 eigenvalues not converged
     c_bands:  1 eigenvalues not converged
     c_bands:  2 eigenvalues not converged
     c_bands:  2 eigenvalues not converged
     c_bands:  1 eigenvalues not converged
     c_bands:  2 eigenvalues not converged
     c_bands:  2 eigenvalues not converged
     c_bands:  2 eigenvalues not converged
     c_bands:  3 eigenvalues not converged
     c_bands:  1 eigenvalues not converged
     c_bands:  1 eigenvalues not converged
     c_bands:  2 eigenvalues not converged
     c_bands:  2 eigenvalues not converged
     c_bands:  1 eigenvalues not converged
     c_bands:  1 eigenvalues not converged
     c_bands:  2 eigenvalues not converged
     c_bands:  1 eigenvalues not converged
     c_bands:  1 eigenvalues not converged
     c_bands:  1 eigenvalues not converged
     c_bands:  1 eigenvalues not converged
     c_bands:  1 eigenvalues not converged
     c_bands:  1 eigenvalues not converged
     c_bands:  1 eigenvalues not converged
     c_bands:  1 eigenvalues not converged
     c_bands:  1 eigenvalues not converged
     c_bands:  3 eigenvalues not converged
     c_bands:  1 eigenvalues not converged
     c_bands:  2 eigenvalues not converged
     c_bands:  1 eigenvalues not converged
     c_bands:  1 eigenvalues not converged
     c_bands:  1 eigenvalues not converged
     c_bands:  1 eigenvalues not converged
     c_bands:  2 eigenvalues not converged
     c_bands:  2 eigenvalues not converged
     c_bands:  3 eigenvalues not converged
     c_bands:  2 eigenvalues not converged
     c_bands:  3 eigenvalues not converged
     c_bands:  1 eigenvalues not converged
     c_bands:  1 eigenvalues not converged
     c_bands:  3 eigenvalues not converged
     c_bands:  2 eigenvalues not converged
     c_bands:  3 eigenvalues not converged
     c_bands:  2 eigenvalues not converged
     c_bands:  2 eigenvalues not converged
     c_bands:  2 eigenvalues not converged
     c_bands:  2 eigenvalues not converged
     c_bands:  2 eigenvalues not converged
     c_bands:  1 eigenvalues not converged
     c_bands:  3 eigenvalues not converged
     c_bands:  3 eigenvalues not converged
     c_bands:  1 eigenvalues not converged
     c_bands:  2 eigenvalues not converged
     c_bands:  2 eigenvalues not converged
     c_bands:  2 eigenvalues not converged
     c_bands:  2 eigenvalues not converged
     c_bands:  3 eigenvalues not converged
     c_bands:  3 eigenvalues not converged
     c_bands:  2 eigenvalues not converged
     c_bands:  1 eigenvalues not converged
     c_bands:  1 eigenvalues not converged
     c_bands:  3 eigenvalues not converged
     c_bands:  2 eigenvalues not converged
     c_bands:  1 eigenvalues not converged
     c_bands:  1 eigenvalues not converged
     c_bands:  1 eigenvalues not converged
     c_bands:  1 eigenvalues not converged
     c_bands:  1 eigenvalues not converged
     c_bands:  1 eigenvalues not converged
     c_bands:  1 eigenvalues not converged
     c_bands:  2 eigenvalues not converged
     c_bands:  1 eigenvalues not converged
     c_bands:  1 eigenvalues not converged
     c_bands:  1 eigenvalues not converged
     c_bands:  1 eigenvalues not converged
     c_bands:  1 eigenvalues not converged
     c_bands:  1 eigenvalues not converged
     c_bands:  1 eigenvalues not converged
     c_bands:  1 eigenvalues not converged
     c_bands:  2 eigenvalues not converged
     c_bands:  2 eigenvalues not converged
     c_bands:  3 eigenvalues not converged
     c_bands:  1 eigenvalues not converged
     c_bands:  1 eigenvalues not converged
     c_bands:  1 eigenvalues not converged
     c_bands:  1 eigenvalues not converged
     c_bands:  1 eigenvalues not converged
     c_bands:  1 eigenvalues not converged
     c_bands:  1 eigenvalues not converged
     c_bands:  1 eigenvalues not converged
     c_bands:  1 eigenvalues not converged
     c_bands:  1 eigenvalues not converged
     c_bands:  1 eigenvalues not converged
     c_bands:  1 eigenvalues not converged
     c_bands:  1 eigenvalues not converged
     c_bands:  1 eigenvalues not converged
     c_bands:  1 eigenvalues not converged
     c_bands:  2 eigenvalues not converged
     c_bands:  2 eigenvalues not converged
     c_bands:  1 eigenvalues not converged
     c_bands:  1 eigenvalues not converged
     c_bands:  1 eigenvalues not converged
     c_bands:  1 eigenvalues not converged
     c_bands:  1 eigenvalues not converged
     c_bands:  1 eigenvalues not converged
     c_bands:  2 eigenvalues not converged
     c_bands:  1 eigenvalues not converged
     c_bands:  1 eigenvalues not converged
     c_bands:  1 eigenvalues not converged
     c_bands:  2 eigenvalues not converged
     c_bands:  1 eigenvalues not converged
     c_bands:  2 eigenvalues not converged
     c_bands:  1 eigenvalues not converged
     c_bands:  1 eigenvalues not converged
     c_bands:  1 eigenvalues not converged
     c_bands:  2 eigenvalues not converged
     c_bands:  2 eigenvalues not converged
     c_bands:  4 eigenvalues not converged
     c_bands:  1 eigenvalues not converged
     c_bands:  2 eigenvalues not converged
     c_bands:  1 eigenvalues not converged
     c_bands:  1 eigenvalues not converged
     c_bands:  1 eigenvalues not converged
     c_bands:  1 eigenvalues not converged
     c_bands:  2 eigenvalues not converged
     c_bands:  2 eigenvalues not converged
     c_bands:  1 eigenvalues not converged
     c_bands:  1 eigenvalues not converged
     c_bands:  1 eigenvalues not converged
     c_bands:  1 eigenvalues not converged
     c_bands:  2 eigenvalues not converged
     c_bands:  2 eigenvalues not converged
     c_bands:  2 eigenvalues not converged
     c_bands:  2 eigenvalues not converged
     c_bands:  1 eigenvalues not converged
     c_bands:  1 eigenvalues not converged
     c_bands:  3 eigenvalues not converged
     c_bands:  1 eigenvalues not converged
     c_bands:  1 eigenvalues not converged
     c_bands:  2 eigenvalues not converged
     c_bands:  1 eigenvalues not converged
     c_bands:  2 eigenvalues not converged
     c_bands:  1 eigenvalues not converged
     c_bands:  1 eigenvalues not converged
     c_bands:  1 eigenvalues not converged
     c_bands:  3 eigenvalues not converged
     c_bands:  3 eigenvalues not converged
     c_bands:  2 eigenvalues not converged
     c_bands:  1 eigenvalues not converged
     c_bands:  3 eigenvalues not converged
     c_bands:  2 eigenvalues not converged
     c_bands:  3 eigenvalues not converged
     ethr =  1.00E-05,  avg # of iterations = 18.9

     total cpu time spent up to now is       11.9 secs

     total energy              =    -753.33002536 Ry
     estimated scf accuracy    <       0.46171977 Ry

     total magnetization       =     4.52 Bohr mag/cell
     absolute magnetization    =     4.63 Bohr mag/cell

     iteration #  2     ecut=   110.00 Ry     beta= 0.40
     Davidson diagonalization with overlap

---- Real-time Memory Report at c_bands before calling an iterative solver
            76 MiB given to the printing process from OS
             0 MiB allocation reported by mallinfo(arena+hblkhd)
        297575 MiB available memory on the node where the printing process lives
------------------
     ethr =  1.36E-03,  avg # of iterations =  1.0

     total cpu time spent up to now is       13.9 secs

     total energy              =    -753.44721629 Ry
     estimated scf accuracy    <       0.20122349 Ry

     total magnetization       =     4.04 Bohr mag/cell
     absolute magnetization    =     4.25 Bohr mag/cell

     iteration #  3     ecut=   110.00 Ry     beta= 0.40
     Davidson diagonalization with overlap

---- Real-time Memory Report at c_bands before calling an iterative solver
            77 MiB given to the printing process from OS
             0 MiB allocation reported by mallinfo(arena+hblkhd)
        297567 MiB available memory on the node where the printing process lives
------------------
     ethr =  5.92E-04,  avg # of iterations =  1.0

     total cpu time spent up to now is       16.0 secs

     total energy              =    -753.48107459 Ry
     estimated scf accuracy    <       0.04710930 Ry

     total magnetization       =     3.64 Bohr mag/cell
     absolute magnetization    =     3.96 Bohr mag/cell

     iteration #  4     ecut=   110.00 Ry     beta= 0.40
     Davidson diagonalization with overlap

---- Real-time Memory Report at c_bands before calling an iterative solver
            78 MiB given to the printing process from OS
             0 MiB allocation reported by mallinfo(arena+hblkhd)
        297557 MiB available memory on the node where the printing process lives
------------------
     ethr =  1.39E-04,  avg # of iterations =  1.8

     total cpu time spent up to now is       18.3 secs

     total energy              =    -753.49465430 Ry
     estimated scf accuracy    <       0.00529399 Ry

     total magnetization       =     2.95 Bohr mag/cell
     absolute magnetization    =     3.35 Bohr mag/cell

     iteration #  5     ecut=   110.00 Ry     beta= 0.40
     Davidson diagonalization with overlap

---- Real-time Memory Report at c_bands before calling an iterative solver
            79 MiB given to the printing process from OS
             0 MiB allocation reported by mallinfo(arena+hblkhd)
        297546 MiB available memory on the node where the printing process lives
------------------
     c_bands:  1 eigenvalues not converged
     ethr =  1.56E-05,  avg # of iterations =  4.6

     total cpu time spent up to now is       21.7 secs

     total energy              =    -753.49785697 Ry
     estimated scf accuracy    <       0.00448737 Ry

     total magnetization       =     2.77 Bohr mag/cell
     absolute magnetization    =     3.11 Bohr mag/cell

     iteration #  6     ecut=   110.00 Ry     beta= 0.40
     Davidson diagonalization with overlap

---- Real-time Memory Report at c_bands before calling an iterative solver
            80 MiB given to the printing process from OS
             0 MiB allocation reported by mallinfo(arena+hblkhd)
        297535 MiB available memory on the node where the printing process lives
------------------
     ethr =  1.32E-05,  avg # of iterations =  5.1

     total cpu time spent up to now is       25.8 secs

     total energy              =    -753.49992185 Ry
     estimated scf accuracy    <       0.03101311 Ry

     total magnetization       =     2.31 Bohr mag/cell
     absolute magnetization    =     2.58 Bohr mag/cell

     iteration #  7     ecut=   110.00 Ry     beta= 0.40
     Davidson diagonalization with overlap

---- Real-time Memory Report at c_bands before calling an iterative solver
            81 MiB given to the printing process from OS
             0 MiB allocation reported by mallinfo(arena+hblkhd)
        297531 MiB available memory on the node where the printing process lives
------------------
     ethr =  1.32E-05,  avg # of iterations =  3.6

     total cpu time spent up to now is       29.0 secs

     total energy              =    -753.50103200 Ry
     estimated scf accuracy    <       0.00307549 Ry

     total magnetization       =     2.24 Bohr mag/cell
     absolute magnetization    =     2.42 Bohr mag/cell

     iteration #  8     ecut=   110.00 Ry     beta= 0.40
     Davidson diagonalization with overlap

---- Real-time Memory Report at c_bands before calling an iterative solver
            81 MiB given to the printing process from OS
             0 MiB allocation reported by mallinfo(arena+hblkhd)
        297524 MiB available memory on the node where the printing process lives
------------------
     ethr =  9.05E-06,  avg # of iterations =  2.2

     total cpu time spent up to now is       31.3 secs

     total energy              =    -753.50457412 Ry
     estimated scf accuracy    <       0.00359896 Ry

     total magnetization       =     1.74 Bohr mag/cell
     absolute magnetization    =     1.89 Bohr mag/cell

     iteration #  9     ecut=   110.00 Ry     beta= 0.40
     Davidson diagonalization with overlap

---- Real-time Memory Report at c_bands before calling an iterative solver
            83 MiB given to the printing process from OS
             0 MiB allocation reported by mallinfo(arena+hblkhd)
        297516 MiB available memory on the node where the printing process lives
------------------
     ethr =  9.05E-06,  avg # of iterations =  1.4

     total cpu time spent up to now is       33.5 secs

     total energy              =    -753.50007011 Ry
     estimated scf accuracy    <       0.00386389 Ry

     total magnetization       =     1.66 Bohr mag/cell
     absolute magnetization    =     1.81 Bohr mag/cell

     iteration # 10     ecut=   110.00 Ry     beta= 0.40
     Davidson diagonalization with overlap

---- Real-time Memory Report at c_bands before calling an iterative solver
            83 MiB given to the printing process from OS
             0 MiB allocation reported by mallinfo(arena+hblkhd)
        297513 MiB available memory on the node where the printing process lives
------------------
     ethr =  9.05E-06,  avg # of iterations =  3.5

     total cpu time spent up to now is       36.7 secs

     total energy              =    -753.50340561 Ry
     estimated scf accuracy    <       0.00069539 Ry

     total magnetization       =     1.18 Bohr mag/cell
     absolute magnetization    =     1.28 Bohr mag/cell

     iteration # 11     ecut=   110.00 Ry     beta= 0.40
     Davidson diagonalization with overlap

---- Real-time Memory Report at c_bands before calling an iterative solver
            83 MiB given to the printing process from OS
             0 MiB allocation reported by mallinfo(arena+hblkhd)
        297511 MiB available memory on the node where the printing process lives
------------------
     c_bands:  1 eigenvalues not converged
     ethr =  2.05E-06,  avg # of iterations =  2.8

     total cpu time spent up to now is       39.5 secs

     total energy              =    -753.50436149 Ry
     estimated scf accuracy    <       0.00000969 Ry

     total magnetization       =     1.44 Bohr mag/cell
     absolute magnetization    =     1.55 Bohr mag/cell

     iteration # 12     ecut=   110.00 Ry     beta= 0.40
     Davidson diagonalization with overlap

---- Real-time Memory Report at c_bands before calling an iterative solver
            83 MiB given to the printing process from OS
             0 MiB allocation reported by mallinfo(arena+hblkhd)
        297508 MiB available memory on the node where the printing process lives
------------------
     ethr =  2.85E-08,  avg # of iterations = 11.0

     total cpu time spent up to now is       45.9 secs

     total energy              =    -753.50439528 Ry
     estimated scf accuracy    <       0.00001582 Ry

     total magnetization       =     1.42 Bohr mag/cell
     absolute magnetization    =     1.53 Bohr mag/cell

     iteration # 13     ecut=   110.00 Ry     beta= 0.40
     Davidson diagonalization with overlap

---- Real-time Memory Report at c_bands before calling an iterative solver
            84 MiB given to the printing process from OS
             0 MiB allocation reported by mallinfo(arena+hblkhd)
        297504 MiB available memory on the node where the printing process lives
------------------
     ethr =  2.85E-08,  avg # of iterations =  4.5

     total cpu time spent up to now is       49.6 secs

     total energy              =    -753.50435613 Ry
     estimated scf accuracy    <       0.00001474 Ry

     total magnetization       =     1.42 Bohr mag/cell
     absolute magnetization    =     1.52 Bohr mag/cell

     iteration # 14     ecut=   110.00 Ry     beta= 0.40
     Davidson diagonalization with overlap

---- Real-time Memory Report at c_bands before calling an iterative solver
            85 MiB given to the printing process from OS
             0 MiB allocation reported by mallinfo(arena+hblkhd)
        297499 MiB available memory on the node where the printing process lives
------------------
     ethr =  2.85E-08,  avg # of iterations =  4.6

     total cpu time spent up to now is       53.1 secs

     total energy              =    -753.50433228 Ry
     estimated scf accuracy    <       0.00003001 Ry

     total magnetization       =     1.35 Bohr mag/cell
     absolute magnetization    =     1.45 Bohr mag/cell

     iteration # 15     ecut=   110.00 Ry     beta= 0.40
     Davidson diagonalization with overlap

---- Real-time Memory Report at c_bands before calling an iterative solver
            86 MiB given to the printing process from OS
             0 MiB allocation reported by mallinfo(arena+hblkhd)
        297480 MiB available memory on the node where the printing process lives
------------------
     ethr =  2.85E-08,  avg # of iterations =  4.4

     total cpu time spent up to now is       56.7 secs

     total energy              =    -753.50439875 Ry
     estimated scf accuracy    <       0.00000746 Ry

     total magnetization       =     1.41 Bohr mag/cell
     absolute magnetization    =     1.53 Bohr mag/cell

     iteration # 16     ecut=   110.00 Ry     beta= 0.40
     Davidson diagonalization with overlap

---- Real-time Memory Report at c_bands before calling an iterative solver
            86 MiB given to the printing process from OS
             0 MiB allocation reported by mallinfo(arena+hblkhd)
        297489 MiB available memory on the node where the printing process lives
------------------
     ethr =  2.19E-08,  avg # of iterations =  2.7

     total cpu time spent up to now is       59.5 secs

     total energy              =    -753.50440688 Ry
     estimated scf accuracy    <       0.00000392 Ry

     total magnetization       =     1.39 Bohr mag/cell
     absolute magnetization    =     1.50 Bohr mag/cell

     iteration # 17     ecut=   110.00 Ry     beta= 0.40
     Davidson diagonalization with overlap

---- Real-time Memory Report at c_bands before calling an iterative solver
            86 MiB given to the printing process from OS
             0 MiB allocation reported by mallinfo(arena+hblkhd)
        297487 MiB available memory on the node where the printing process lives
------------------
     ethr =  1.15E-08,  avg # of iterations =  1.5

     total cpu time spent up to now is       61.6 secs

     total energy              =    -753.50440508 Ry
     estimated scf accuracy    <       0.00000075 Ry

     total magnetization       =     1.39 Bohr mag/cell
     absolute magnetization    =     1.51 Bohr mag/cell

     iteration # 18     ecut=   110.00 Ry     beta= 0.40
     Davidson diagonalization with overlap

---- Real-time Memory Report at c_bands before calling an iterative solver
            87 MiB given to the printing process from OS
             0 MiB allocation reported by mallinfo(arena+hblkhd)
        297495 MiB available memory on the node where the printing process lives
------------------
     ethr =  2.21E-09,  avg # of iterations =  4.1

     total cpu time spent up to now is       65.1 secs

     total energy              =    -753.50440864 Ry
     estimated scf accuracy    <       0.00000105 Ry

     total magnetization       =     1.38 Bohr mag/cell
     absolute magnetization    =     1.49 Bohr mag/cell

     iteration # 19     ecut=   110.00 Ry     beta= 0.40
     Davidson diagonalization with overlap

---- Real-time Memory Report at c_bands before calling an iterative solver
            87 MiB given to the printing process from OS
             0 MiB allocation reported by mallinfo(arena+hblkhd)
        297493 MiB available memory on the node where the printing process lives
------------------
     ethr =  2.21E-09,  avg # of iterations =  2.2

     total cpu time spent up to now is       67.4 secs

     total energy              =    -753.50440912 Ry
     estimated scf accuracy    <       0.00000069 Ry

     total magnetization       =     1.37 Bohr mag/cell
     absolute magnetization    =     1.48 Bohr mag/cell

     iteration # 20     ecut=   110.00 Ry     beta= 0.40
     Davidson diagonalization with overlap

---- Real-time Memory Report at c_bands before calling an iterative solver
            87 MiB given to the printing process from OS
             0 MiB allocation reported by mallinfo(arena+hblkhd)
        297492 MiB available memory on the node where the printing process lives
------------------
     ethr =  2.04E-09,  avg # of iterations =  3.6

     total cpu time spent up to now is       70.5 secs

     total energy              =    -753.50438745 Ry
     estimated scf accuracy    <       0.00000120 Ry

     total magnetization       =     1.36 Bohr mag/cell
     absolute magnetization    =     1.47 Bohr mag/cell

     iteration # 21     ecut=   110.00 Ry     beta= 0.40
     Davidson diagonalization with overlap

---- Real-time Memory Report at c_bands before calling an iterative solver
            87 MiB given to the printing process from OS
             0 MiB allocation reported by mallinfo(arena+hblkhd)
        297491 MiB available memory on the node where the printing process lives
------------------
     ethr =  2.04E-09,  avg # of iterations =  7.9

     total cpu time spent up to now is       76.0 secs

     total energy              =    -753.50440847 Ry
     estimated scf accuracy    <       0.00000114 Ry

     total magnetization       =     1.32 Bohr mag/cell
     absolute magnetization    =     1.42 Bohr mag/cell

     iteration # 22     ecut=   110.00 Ry     beta= 0.40
     Davidson diagonalization with overlap

---- Real-time Memory Report at c_bands before calling an iterative solver
            88 MiB given to the printing process from OS
             0 MiB allocation reported by mallinfo(arena+hblkhd)
        297490 MiB available memory on the node where the printing process lives
------------------
     ethr =  2.04E-09,  avg # of iterations =  3.4

     total cpu time spent up to now is       79.2 secs

     total energy              =    -753.50441044 Ry
     estimated scf accuracy    <       0.00000009 Ry

     total magnetization       =     1.33 Bohr mag/cell
     absolute magnetization    =     1.44 Bohr mag/cell

     iteration # 23     ecut=   110.00 Ry     beta= 0.40
     Davidson diagonalization with overlap

---- Real-time Memory Report at c_bands before calling an iterative solver
            88 MiB given to the printing process from OS
             0 MiB allocation reported by mallinfo(arena+hblkhd)
        297487 MiB available memory on the node where the printing process lives
------------------
     ethr =  2.51E-10,  avg # of iterations =  3.2
 
     Magnetic moment per site  (integrated on atomic sphere of radius R)
     atom   1 (R=0.411)  charge= 15.5904  magn=  0.6906
     atom   2 (R=0.411)  charge= 15.5904  magn=  0.6906

     total cpu time spent up to now is       82.2 secs

     End of self-consistent calculation

 ------ SPIN UP ------------


          k = 0.0000 0.0000 0.0000 (  2803 PWs)   bands (ev):

   -76.4090 -76.3477 -39.8315 -39.5251 -39.5251 -39.4771 -39.4750 -39.4750
    10.0052  14.1256  16.9093  16.9618  16.9618  17.2946  17.2946  17.6956
    17.6956  18.7864  18.8479  18.8479  25.8006

     occupation numbers 
     1.0000   1.0000   1.0000   1.0000   1.0000   1.0000   1.0000   1.0000
     1.0000   1.0000   0.9991   0.9989   0.9989   0.9951   0.9951   0.9782
     0.9782   0.6827   0.6511   0.6511   0.0000

          k = 0.0000 0.0000 0.0768 (  2797 PWs)   bands (ev):

   -76.4067 -76.3500 -39.8183 -39.5232 -39.5232 -39.4908 -39.4769 -39.4769
    10.1631  14.0690  16.8646  16.9209  16.9209  17.2501  17.2501  17.7953
    17.7953  18.2611  18.8392  18.8392  26.6628

     occupation numbers 
     1.0000   1.0000   1.0000   1.0000   1.0000   1.0000   1.0000   1.0000
     1.0000   1.0000   0.9993   0.9991   0.9991   0.9960   0.9960   0.9697
     0.9697   0.8884   0.6557   0.6557   0.0000

          k = 0.0000 0.0000 0.1537 (  2797 PWs)   bands (ev):

   -76.4000 -76.3567 -39.7803 -39.5297 -39.5178 -39.5178 -39.4823 -39.4823
    10.6263  13.8139  16.7449  16.8600  16.8600  17.1381  17.1381  17.3032
    18.0229  18.0229  18.7975  18.7975  28.7062

     occupation numbers 
     1.0000   1.0000   1.0000   1.0000   1.0000   1.0000   1.0000   1.0000
     1.0000   1.0000   0.9996   0.9993   0.9993   0.9975   0.9975   0.9950
     0.9400   0.9400   0.6772   0.6772   0.0000

          k = 0.0000 0.0000 0.2305 (  2810 PWs)   bands (ev):

   -76.3901 -76.3666 -39.7233 -39.5877 -39.5097 -39.5097 -39.4905 -39.4905
    11.3581  13.1888  16.5973  16.6749  16.8465  16.8465  17.0059  17.0059
    18.2839  18.2839  18.6951  18.6951  31.3080

     occupation numbers 
     1.0000   1.0000   1.0000   1.0000   1.0000   1.0000   1.0000   1.0000
     1.0000   1.0000   0.9998   0.9997   0.9994   0.9994   0.9986   0.9986
     0.8822   0.8822   0.7272   0.7272   0.0000

          k = 0.0000 0.0000-0.3074 (  2834 PWs)   bands (ev):

   -76.3784 -76.3784 -39.6557 -39.6557 -39.5001 -39.5001 -39.5001 -39.5001
    12.2743  12.2743  16.5147  16.5147  16.8986  16.8986  16.8986  16.8986
    18.5197  18.5197  18.5197  18.5197  34.1903

     occupation numbers 
     1.0000   1.0000   1.0000   1.0000   1.0000   1.0000   1.0000   1.0000
     1.0000   1.0000   0.9999   0.9999   0.9992   0.9992   0.9992   0.9992
     0.8030   0.8030   0.8030   0.8030   0.0000

          k = 0.0000 0.0770 0.0000 (  2797 PWs)   bands (ev):

   -76.4067 -76.3466 -39.8265 -39.5364 -39.5288 -39.4866 -39.4791 -39.4768
    10.1636  14.2270  16.7499  17.0397  17.0960  17.2546  17.3639  17.5777
    17.6454  17.9307  18.8693  19.9233  25.8203

     occupation numbers 
     1.0000   1.0000   1.0000   1.0000   1.0000   1.0000   1.0000   1.0000
     1.0000   1.0000   0.9996   0.9984   0.9979   0.9959   0.9936   0.9855
     0.9816   0.9541   0.6399   0.1287   0.0000

          k = 0.0000 0.0770 0.0768 (  2797 PWs)   bands (ev):

   -76.4044 -76.3489 -39.8137 -39.5343 -39.5268 -39.4987 -39.4823 -39.4788
    10.3199  14.1760  16.7418  16.9919  16.9981  17.1536  17.3163  17.6359
    17.7569  17.8302  18.8574  19.5719  26.7131

     occupation numbers 
     1.0000   1.0000   1.0000   1.0000   1.0000   1.0000   1.0000   1.0000
     1.0000   1.0000   0.9996   0.9987   0.9987   0.9973   0.9947   0.9822
     0.9733   0.9662   0.6461   0.2625   0.0000

          k = 0.0000 0.0770 0.1537 (  2797 PWs)   bands (ev):

   -76.3979 -76.3554 -39.7772 -39.5359 -39.5281 -39.5212 -39.4887 -39.4844
    10.7787  13.9334  16.7226  16.8119  16.8368  16.9244  17.2027  17.3233
    17.9974  18.0165  18.8080  19.1114  28.7901

     occupation numbers 
     1.0000   1.0000   1.0000   1.0000   1.0000   1.0000   1.0000   1.0000
     1.0000   1.0000   0.9997   0.9995   0.9994   0.9991   0.9967   0.9945
     0.9442   0.9411   0.6718   0.5063   0.0000

          k = 0.0000 0.0770 0.2305 (  2807 PWs)   bands (ev):

   -76.3882 -76.3652 -39.7222 -39.5916 -39.5192 -39.5128 -39.4979 -39.4929
    11.5035  13.3176  16.4771  16.5719  16.7998  16.9093  17.0657  17.0699
    18.2671  18.2997  18.6960  18.8254  31.4080

     occupation numbers 
     1.0000   1.0000   1.0000   1.0000   1.0000   1.0000   1.0000   1.0000
     1.0000   1.0000   0.9999   0.9998   0.9995   0.9991   0.9982   0.9982
     0.8868   0.8777   0.7268   0.6629   0.0000

          k = 0.0000 0.0770-0.3074 (  2812 PWs)   bands (ev):

   -76.3767 -76.3767 -39.6571 -39.6571 -39.5086 -39.5086 -39.5028 -39.5028
    12.4110  12.4110  16.4275  16.4275  16.8979  16.8979  16.9619  16.9619
    18.5113  18.5113  18.5736  18.5736  34.2987

     occupation numbers 
     1.0000   1.0000   1.0000   1.0000   1.0000   1.0000   1.0000   1.0000
     1.0000   1.0000   0.9999   0.9999   0.9992   0.9992   0.9989   0.9989
     0.8063   0.8063   0.7812   0.7812   0.0000

          k = 0.0000 0.1540 0.0000 (  2801 PWs)   bands (ev):

   -76.4001 -76.3435 -39.8120 -39.5683 -39.5390 -39.5195 -39.4851 -39.4823
    10.6284  14.5014  16.5187  16.9293  17.1076  17.2652  17.3249  17.5140
    17.5632  17.6444  18.9196  21.1682  25.8881

     occupation numbers 
     1.0000   1.0000   1.0000   1.0000   1.0000   1.0000   1.0000   1.0000
     1.0000   1.0000   0.9999   0.9990   0.9978   0.9957   0.9945   0.9885
     0.9863   0.9817   0.6130   0.0019   0.0000

          k = 0.0000 0.1540 0.0768 (  2795 PWs)   bands (ev):

   -76.3980 -76.3457 -39.8007 -39.5656 -39.5368 -39.5288 -39.4900 -39.4844
    10.7797  14.4676  16.5320  16.7005  17.0354  17.1793  17.3201  17.4946
    17.6882  17.7696  18.9003  20.6207  26.8782

     occupation numbers 
     1.0000   1.0000   1.0000   1.0000   1.0000   1.0000   1.0000   1.0000
     1.0000   1.0000   0.9999   0.9997   0.9984   0.9970   0.9946   0.9893
     0.9787   0.9721   0.6234   0.0171   0.0000

          k = 0.0000 0.1540 0.1537 (  2797 PWs)   bands (ev):

   -76.3919 -76.3518 -39.7686 -39.5616 -39.5545 -39.5307 -39.5013 -39.4906
    11.2233  14.2639  16.3280  16.5814  16.7811  17.0937  17.2471  17.3860
    17.9518  18.0346  18.8320  19.7697  29.0488

     occupation numbers 
     1.0000   1.0000   1.0000   1.0000   1.0000   1.0000   1.0000   1.0000
     1.0000   1.0000   1.0000   0.9998   0.9995   0.9979   0.9960   0.9930
     0.9511   0.9380   0.6594   0.1800   0.0000

          k = 0.0000 0.1540 0.2305 (  2798 PWs)   bands (ev):

   -76.3827 -76.3610 -39.7203 -39.6065 -39.5447 -39.5215 -39.5151 -39.4998
    11.9230  13.6763  16.1470  16.4947  16.6871  17.0590  17.0800  17.2522
    18.2344  18.3617  18.6975  19.1584  31.7063

     occupation numbers 
     1.0000   1.0000   1.0000   1.0000   1.0000   1.0000   1.0000   1.0000
     1.0000   1.0000   1.0000   0.9999   0.9997   0.9982   0.9981   0.9959
     0.8954   0.8590   0.7261   0.4798   0.0000

          k = 0.0000 0.1540-0.3074 (  2810 PWs)   bands (ev):

   -76.3719 -76.3719 -39.6633 -39.6633 -39.5302 -39.5302 -39.5107 -39.5107
    12.7987  12.7987  16.2501  16.2501  16.8514  16.8514  17.1391  17.1391
    18.4932  18.4932  18.7261  18.7261  34.6115

     occupation numbers 
     1.0000   1.0000   1.0000   1.0000   1.0000   1.0000   1.0000   1.0000
     1.0000   1.0000   1.0000   1.0000   0.9993   0.9993   0.9975   0.9975
     0.8133   0.8133   0.7125   0.7125   0.0000

          k = 0.0000 0.2309 0.0000 (  2783 PWs)   bands (ev):

   -76.3902 -76.3393 -39.7894 -39.6157 -39.5672 -39.5536 -39.4951 -39.4907
    11.3654  14.8400  16.2533  16.2864  16.9724  17.3399  17.4823  17.6077
    17.6122  17.8671  18.9751  22.5379  26.0245

     occupation numbers 
     1.0000   1.0000   1.0000   1.0000   1.0000   1.0000   1.0000   1.0000
     1.0000   1.0000   1.0000   1.0000   0.9988   0.9941   0.9898   0.9839
     0.9837   0.9621   0.5826   0.0000   0.0000

          k = 0.0000 0.2309 0.0768 (  2784 PWs)   bands (ev):

   -76.3883 -76.3412 -39.7812 -39.6113 -39.5757 -39.5512 -39.4994 -39.4931
    11.5058  14.8351  16.1108  16.3150  16.9090  17.2962  17.3397  17.6945
    17.8097  17.8510  18.9471  21.7341  27.1943

     occupation numbers 
     1.0000   1.0000   1.0000   1.0000   1.0000   1.0000   1.0000   1.0000
     1.0000   1.0000   1.0000   1.0000   0.9991   0.9951   0.9942   0.9783
     0.9683   0.9639   0.5980   0.0001   0.0000

          k = 0.0000 0.2309 0.1537 (  2788 PWs)   bands (ev):

   -76.3828 -76.3467 -39.7577 -39.6061 -39.5924 -39.5444 -39.5119 -39.4999
    11.9158  14.6948  15.8644  16.3887  16.7089  17.2022  17.2625  17.6634
    17.9911  18.1055  18.8584  20.5302  29.4918

     occupation numbers 
     1.0000   1.0000   1.0000   1.0000   1.0000   1.0000   1.0000   1.0000
     1.0000   1.0000   1.0000   0.9999   0.9997   0.9967   0.9957   0.9805
     0.9452   0.9248   0.6457   0.0233   0.0000

          k = 0.0000 0.2309 0.2305 (  2793 PWs)   bands (ev):

   -76.3745 -76.3550 -39.7226 -39.6387 -39.5765 -39.5342 -39.5309 -39.5101
    12.5579  14.1555  15.8624  16.3566  16.6023  17.0160  17.2933  17.5240
    18.2408  18.4745  18.7039  19.5987  32.1762

     occupation numbers 
     1.0000   1.0000   1.0000   1.0000   1.0000   1.0000   1.0000   1.0000
     1.0000   1.0000   1.0000   1.0000   0.9998   0.9986   0.9952   0.9881
     0.8938   0.8203   0.7231   0.2504   0.0000

          k = 0.0000 0.2309-0.3074 (  2798 PWs)   bands (ev):

   -76.3648 -76.3648 -39.6807 -39.6807 -39.5537 -39.5537 -39.5222 -39.5222
    13.3545  13.3545  16.0829  16.0829  16.7888  16.7888  17.3876  17.3876
    18.4906  18.4906  18.9491  18.9491  34.9679

     occupation numbers 
     1.0000   1.0000   1.0000   1.0000   1.0000   1.0000   1.0000   1.0000
     1.0000   1.0000   1.0000   1.0000   0.9995   0.9995   0.9929   0.9929
     0.8142   0.8142   0.5969   0.5969   0.0000

          k = 0.0000 0.3079 0.0000 (  2796 PWs)   bands (ev):

   -76.3784 -76.3348 -39.7608 -39.6704 -39.6213 -39.5701 -39.5092 -39.5006
    12.3009  15.0290  15.7088  16.1754  16.9200  17.1591  17.3130  18.0160
    18.0345  18.2342  19.0211  24.0195  26.2243

     occupation numbers 
     1.0000   1.0000   1.0000   1.0000   1.0000   1.0000   1.0000   1.0000
     1.0000   1.0000   1.0000   1.0000   0.9991   0.9973   0.9948   0.9412
     0.9381   0.8955   0.5570   0.0000   0.0000

          k = 0.0000 0.3079 0.0768 (  2789 PWs)   bands (ev):

   -76.3768 -76.3365 -39.7595 -39.6615 -39.6288 -39.5674 -39.5120 -39.5032
    12.4183  15.0487  15.6302  16.2053  16.8190  17.1907  17.3452  18.0612
    18.0689  18.1972  18.9865  22.8554  27.6764

     occupation numbers 
     1.0000   1.0000   1.0000   1.0000   1.0000   1.0000   1.0000   1.0000
     1.0000   1.0000   1.0000   1.0000   0.9994   0.9969   0.9940   0.9333
     0.9319   0.9047   0.5763   0.0000   0.0000

          k = 0.0000 0.3079 0.1537 (  2788 PWs)   bands (ev):

   -76.3721 -76.3412 -39.7529 -39.6576 -39.6298 -39.5599 -39.5218 -39.5108
    12.7571  14.9558  15.5394  16.2682  16.6674  17.2843  17.3050  18.0135
    18.2189  18.2617  18.8871  21.3257  30.0445

     occupation numbers 
     1.0000   1.0000   1.0000   1.0000   1.0000   1.0000   1.0000   1.0000
     1.0000   1.0000   1.0000   1.0000   0.9997   0.9953   0.9949   0.9416
     0.8994   0.8883   0.6304   0.0009   0.0000

          k = 0.0000 0.3079 0.2305 (  2788 PWs)   bands (ev):

   -76.3650 -76.3483 -39.7375 -39.6845 -39.5998 -39.5487 -39.5405 -39.5221
    13.2749  14.5107  15.6951  16.2005  16.6858  17.1364  17.4339  17.8322
    18.3701  18.6306  18.7359  20.0972  32.1988

     occupation numbers 
     1.0000   1.0000   1.0000   1.0000   1.0000   1.0000   1.0000   1.0000
     1.0000   1.0000   1.0000   1.0000   0.9997   0.9975   0.9915   0.9660
     0.8564   0.7567   0.7077   0.0840   0.0000

          k = 0.0000 0.3079-0.3074 (  2784 PWs)   bands (ev):

   -76.3566 -76.3566 -39.7136 -39.7136 -39.5676 -39.5676 -39.5354 -39.5354
    13.8960  13.8960  15.9596  15.9596  16.8968  16.8968  17.6252  17.6252
    18.5543  18.5543  19.2178  19.2178  33.2013

     occupation numbers 
     1.0000   1.0000   1.0000   1.0000   1.0000   1.0000   1.0000   1.0000
     1.0000   1.0000   1.0000   1.0000   0.9992   0.9992   0.9829   0.9829
     0.7892   0.7892   0.4464   0.4464   0.0000

          k = 0.0000 0.3849 0.0000 (  2806 PWs)   bands (ev):

   -76.3664 -76.3312 -39.7295 -39.7232 -39.6722 -39.5855 -39.5267 -39.5103
    13.2828  14.9588  15.3035  16.2309  16.9995  17.0402  17.1562  18.4613
    18.5961  18.6116  19.0531  25.5932  26.1853

     occupation numbers 
     1.0000   1.0000   1.0000   1.0000   1.0000   1.0000   1.0000   1.0000
     1.0000   1.0000   1.0000   1.0000   0.9987   0.9984   0.9973   0.8251
     0.7717   0.7650   0.5391   0.0000   0.0000

          k = 0.0000 0.3849 0.0768 (  2798 PWs)   bands (ev):

   -76.3651 -76.3326 -39.7527 -39.6957 -39.6757 -39.5827 -39.5274 -39.5132
    13.3513  14.9704  15.3153  16.1656  16.9622  17.0542  17.3534  18.4773
    18.5527  18.5662  19.0193  23.8791  27.8871

     occupation numbers 
     1.0000   1.0000   1.0000   1.0000   1.0000   1.0000   1.0000   1.0000
     1.0000   1.0000   1.0000   1.0000   0.9989   0.9983   0.9938   0.8192
     0.7898   0.7843   0.5580   0.0000   0.0000

          k = 0.0000 0.3849 0.1537 (  2788 PWs)   bands (ev):

   -76.3613 -76.3364 -39.7666 -39.7066 -39.6457 -39.5745 -39.5326 -39.5214
    13.5473  14.8820  15.3938  16.1052  16.9359  17.2129  17.6215  18.3597
    18.5418  18.5485  18.9368  22.1244  29.0500

     occupation numbers 
     1.0000   1.0000   1.0000   1.0000   1.0000   1.0000   1.0000   1.0000
     1.0000   1.0000   1.0000   1.0000   0.9990   0.9965   0.9831   0.8597
     0.7943   0.7915   0.6036   0.0000   0.0000

          k = 0.0000 0.3849 0.2305 (  2799 PWs)   bands (ev):

   -76.3556 -76.3421 -39.7667 -39.7318 -39.6062 -39.5624 -39.5468 -39.5336
    13.8453  14.5862  15.5973  16.0355  17.0800  17.4590  17.6459  18.0824
    18.6243  18.8287  18.8340  20.6636  29.8043

     occupation numbers 
     1.0000   1.0000   1.0000   1.0000   1.0000   1.0000   1.0000   1.0000
     1.0000   1.0000   1.0000   1.0000   0.9981   0.9907   0.9816   0.9293
     0.7595   0.6611   0.6584   0.0146   0.0000

          k = 0.0000 0.3849-0.3074 (  2796 PWs)   bands (ev):

   -76.3488 -76.3488 -39.7539 -39.7539 -39.5718 -39.5718 -39.5480 -39.5480
    14.2089  14.2089  15.8441  15.8441  17.3861  17.3861  17.7633  17.7633
    18.7260  18.7260  19.5533  19.5533  30.6541

     occupation numbers 
     1.0000   1.0000   1.0000   1.0000   1.0000   1.0000   1.0000   1.0000
     1.0000   1.0000   1.0000   1.0000   0.9930   0.9930   0.9727   0.9727
     0.7125   0.7125   0.2712   0.2712   0.0000

          k = 0.0000 0.4619 0.0000 (  2798 PWs)   bands (ev):

   -76.3562 -76.3293 -39.7645 -39.7114 -39.6999 -39.5974 -39.5454 -39.5181
    14.0529  14.7936  15.0358  16.4353  16.8817  17.0358  17.2242  18.8021
    18.9392  19.0721  19.4192  24.8743  27.2073

     occupation numbers 
     1.0000   1.0000   1.0000   1.0000   1.0000   1.0000   1.0000   1.0000
     1.0000   1.0000   1.0000   0.9999   0.9992   0.9984   0.9964   0.6748
     0.6023   0.5284   0.3374   0.0000   0.0000

          k = 0.0000 0.4619 0.0768 (  2805 PWs)   bands (ev):

   -76.3552 -76.3303 -39.7768 -39.7223 -39.6781 -39.5944 -39.5440 -39.5211
    14.0283  14.7801  15.1905  16.1328  16.9470  17.2053  17.4697  18.8031
    18.8512  19.0638  19.3309  24.1396  27.0886

     occupation numbers 
     1.0000   1.0000   1.0000   1.0000   1.0000   1.0000   1.0000   1.0000
     1.0000   1.0000   1.0000   1.0000   0.9990   0.9967   0.9903   0.6743
     0.6494   0.5331   0.3841   0.0000   0.0000

          k = 0.0000 0.4619 0.1537 (  2790 PWs)   bands (ev):

   -76.3522 -76.3332 -39.7923 -39.7446 -39.6401 -39.5858 -39.5440 -39.5298
    14.0215  14.7392  15.4069  15.9037  17.1372  17.2411  18.1708  18.5738
    18.8470  19.0362  19.0752  22.7034  27.2724

     occupation numbers 
     1.0000   1.0000   1.0000   1.0000   1.0000   1.0000   1.0000   1.0000
     1.0000   1.0000   1.0000   1.0000   0.9975   0.9961   0.9108   0.7811
     0.6516   0.5486   0.5267   0.0000   0.0000

          k = 0.0000 0.4619 0.2305 (  2801 PWs)   bands (ev):

   -76.3479 -76.3376 -39.7970 -39.7694 -39.6023 -39.5730 -39.5521 -39.5427
    14.1076  14.5513  15.5463  15.8796  17.4342  17.5184  18.2075  18.5634
    18.8901  18.9931  19.0861  21.2753  27.7419

     occupation numbers 
     1.0000   1.0000   1.0000   1.0000   1.0000   1.0000   1.0000   1.0000
     1.0000   1.0000   1.0000   1.0000   0.9915   0.9884   0.9022   0.7855
     0.6288   0.5726   0.5206   0.0012   0.0000

          k = 0.0000 0.4619-0.3074 (  2802 PWs)   bands (ev):

   -76.3427 -76.3427 -39.7887 -39.7887 -39.5717 -39.5717 -39.5578 -39.5578
    14.2986  14.2986  15.7384  15.7384  17.8067  17.8067  18.0441  18.0441
    18.9417  18.9417  20.0539  20.0539  28.4381

     occupation numbers 
     1.0000   1.0000   1.0000   1.0000   1.0000   1.0000   1.0000   1.0000
     1.0000   1.0000   1.0000   1.0000   0.9686   0.9686   0.9364   0.9364
     0.6009   0.6009   0.0939   0.0939   0.0000

          k = 0.0000 0.5389 0.0000 (  2794 PWs)   bands (ev):

   -76.3499 -76.3289 -39.7872 -39.7328 -39.6797 -39.6039 -39.5596 -39.5224
    14.4477  14.6438  14.9030  16.6889  16.8194  16.9706  17.3303  18.9864
    19.0807  19.1379  20.4659  23.1318  28.6106

     occupation numbers 
[...]

     occupation numbers 
     1.0000   1.0000   1.0000   1.0000   1.0000   1.0000   1.0000   1.0000
     1.0000   1.0000   0.9999   0.9999   0.9970   0.9953   0.9353   0.7322
     0.3190   0.1784   0.0538   0.0002   0.0000

          k = 0.2000 0.3464-0.3074 (  2802 PWs)   bands (ev):

   -75.5053 -75.5053 -38.9321 -38.9321 -38.7811 -38.7811 -38.7260 -38.7260
    14.8210  14.8210  16.5772  16.5772  17.1011  17.1011  18.3442  18.3442
    19.7799  19.7799  20.6346  20.6346  32.4721

     occupation numbers 
     1.0000   1.0000   1.0000   1.0000   1.0000   1.0000   1.0000   1.0000
     1.0000   1.0000   0.9998   0.9998   0.9979   0.9979   0.8645   0.8645
     0.1763   0.1763   0.0162   0.0162   0.0000

          k = 0.2000 0.4234 0.0000 (  2810 PWs)   bands (ev):

   -75.5120 -75.4868 -38.9192 -38.8934 -38.8736 -38.8035 -38.7481 -38.7280
    14.5999  15.6868  15.8349  16.1660  17.2442  17.7595  17.8805  18.9347
    19.7160  19.7197  20.7413  26.9518  27.8421

     occupation numbers 
     1.0000   1.0000   1.0000   1.0000   1.0000   1.0000   1.0000   1.0000
     1.0000   1.0000   1.0000   1.0000   0.9961   0.9730   0.9605   0.6048
     0.2007   0.1992   0.0110   0.0000   0.0000

          k = 0.2000 0.4234 0.0768 (  2804 PWs)   bands (ev):

   -75.5110 -75.4877 -38.9293 -38.9094 -38.8463 -38.8078 -38.7512 -38.7216
    14.6422  15.6430  15.8942  16.2365  17.2766  17.6679  17.8989  18.9550
    19.5759  19.7695  20.7955  25.6108  28.3356

     occupation numbers 
     1.0000   1.0000   1.0000   1.0000   1.0000   1.0000   1.0000   1.0000
     1.0000   1.0000   1.0000   1.0000   0.9955   0.9802   0.9582   0.5937
     0.2607   0.1801   0.0090   0.0000   0.0000

          k = 0.2000 0.4234 0.1537 (  2802 PWs)   bands (ev):

   -75.5083 -75.4905 -38.9478 -38.9233 -38.8222 -38.8035 -38.7555 -38.7133
    14.7622  15.5334  16.0461  16.4316  17.2772  17.4773  17.9629  18.9966
    19.3192  19.8796  20.9106  23.9684  28.8150

     occupation numbers 
     1.0000   1.0000   1.0000   1.0000   1.0000   1.0000   1.0000   1.0000
     1.0000   1.0000   1.0000   0.9999   0.9955   0.9900   0.9495   0.5707
     0.3905   0.1422   0.0057   0.0000   0.0000

          k = 0.2000 0.4234 0.2305 (  2795 PWs)   bands (ev):

   -75.5042 -75.4945 -38.9567 -38.9398 -38.8146 -38.7946 -38.7459 -38.7137
    14.9413  15.3630  16.2857  16.6473  17.1166  17.3289  18.1012  18.7110
    19.5082  19.9410  21.1092  22.5825  29.4862

     occupation numbers 
     1.0000   1.0000   1.0000   1.0000   1.0000   1.0000   1.0000   1.0000
     1.0000   1.0000   1.0000   0.9998   0.9977   0.9944   0.9257   0.7197
     0.2928   0.1235   0.0025   0.0000   0.0000

          k = 0.2000 0.4234-0.3074 (  2798 PWs)   bands (ev):

   -75.4994 -75.4994 -38.9531 -38.9531 -38.8036 -38.8036 -38.7260 -38.7260
    15.1533  15.1533  16.5640  16.5640  17.1546  17.1546  18.3525  18.3525
    19.8296  19.8296  21.6020  21.6020  30.3268

     occupation numbers 
     1.0000   1.0000   1.0000   1.0000   1.0000   1.0000   1.0000   1.0000
     1.0000   1.0000   0.9999   0.9999   0.9973   0.9973   0.8619   0.8619
     0.1587   0.1587   0.0002   0.0002   0.0000

          k = 0.2000 0.5004 0.0000 (  2805 PWs)   bands (ev):

   -75.5038 -75.4869 -38.9435 -38.8970 -38.8460 -38.8284 -38.7617 -38.7483
    15.2327  15.5902  15.6691  16.3094  17.2357  17.5561  18.0542  19.2637
    19.7052  19.7849  21.6933  25.2344  28.8045

     occupation numbers 
     1.0000   1.0000   1.0000   1.0000   1.0000   1.0000   1.0000   1.0000
     1.0000   1.0000   1.0000   1.0000   0.9962   0.9866   0.9346   0.4209
     0.2050   0.1745   0.0001   0.0000   0.0000

          k = 0.2000 0.5004 0.0768 (  2808 PWs)   bands (ev):

   -75.5032 -75.4875 -38.9495 -38.9096 -38.8455 -38.8148 -38.7681 -38.7375
    15.1744  15.6764  15.7402  16.2915  17.2557  17.5373  18.0815  19.2694
    19.5622  19.8248  21.7511  25.0775  28.0797

     occupation numbers 
     1.0000   1.0000   1.0000   1.0000   1.0000   1.0000   1.0000   1.0000
     1.0000   1.0000   1.0000   1.0000   0.9959   0.9875   0.9295   0.4177
     0.2670   0.1603   0.0001   0.0000   0.0000

          k = 0.2000 0.5004 0.1537 (  2798 PWs)   bands (ev):

   -75.5013 -75.4894 -38.9620 -38.9312 -38.8450 -38.7950 -38.7682 -38.7234
    15.1324  15.6642  15.9435  16.4281  17.1543  17.5467  18.1750  19.1525
    19.3873  19.8981  21.9093  24.4640  27.5470

     occupation numbers 
     1.0000   1.0000   1.0000   1.0000   1.0000   1.0000   1.0000   1.0000
     1.0000   1.0000   1.0000   0.9999   0.9973   0.9871   0.9099   0.4831
     0.3541   0.1364   0.0000   0.0000   0.0000

          k = 0.2000 0.5004 0.2305 (  2794 PWs)   bands (ev):

   -75.4986 -75.4921 -38.9698 -38.9523 -38.8358 -38.8041 -38.7445 -38.7177
    15.1791  15.4971  16.2147  16.7319  16.9563  17.4847  18.3125  18.7753
    19.5439  19.9047  22.2017  23.5427  27.7238

     occupation numbers 
     1.0000   1.0000   1.0000   1.0000   1.0000   1.0000   1.0000   1.0000
     1.0000   1.0000   1.0000   0.9996   0.9989   0.9897   0.8740   0.6883
     0.2756   0.1343   0.0000   0.0000   0.0000

          k = 0.2000 0.5004-0.3074 (  2794 PWs)   bands (ev):

   -75.4953 -75.4953 -38.9666 -38.9666 -38.8206 -38.8206 -38.7249 -38.7249
    15.3111  15.3111  16.5315  16.5315  17.2301  17.2301  18.4887  18.4887
    19.7702  19.7702  22.7320  22.7320  28.3221

     occupation numbers 
     1.0000   1.0000   1.0000   1.0000   1.0000   1.0000   1.0000   1.0000
     1.0000   1.0000   0.9999   0.9999   0.9963   0.9963   0.8150   0.8150
     0.1799   0.1799   0.0000   0.0000   0.0000

          k = 0.2000 0.5774 0.0000 (  2804 PWs)   bands (ev):

   -75.5003 -75.4875 -38.9520 -38.8962 -38.8396 -38.8328 -38.7664 -38.7591
    15.4335  15.5588  15.5996  16.4084  17.2752  17.4411  18.1223  19.4846
    19.7000  19.7159  22.5515  23.9698  28.7655

     occupation numbers 
     1.0000   1.0000   1.0000   1.0000   1.0000   1.0000   1.0000   1.0000
     1.0000   1.0000   1.0000   0.9999   0.9955   0.9913   0.9214   0.3043
     0.2071   0.2007   0.0000   0.0000   0.0000

          k = 0.2000 0.5774 0.0768 (  2803 PWs)   bands (ev):

   -75.4998 -75.4880 -38.9572 -38.9073 -38.8541 -38.8052 -38.7771 -38.7450
    15.2721  15.6443  15.8377  16.2917  17.2322  17.5194  18.1566  19.4903
    19.5461  19.7538  22.6229  23.9438  28.7093

     occupation numbers 
     1.0000   1.0000   1.0000   1.0000   1.0000   1.0000   1.0000   1.0000
     1.0000   1.0000   1.0000   1.0000   0.9962   0.9883   0.9140   0.3015
     0.2746   0.1860   0.0000   0.0000   0.0000

          k = 0.2000 0.5774 0.1537 (  2802 PWs)   bands (ev):

   -75.4984 -75.4894 -38.9682 -38.9316 -38.8549 -38.7912 -38.7713 -38.7283
    15.1838  15.7059  16.1227  16.2654  17.0863  17.6240  18.2678  19.1903
    19.5179  19.8139  22.8074  23.8545  28.1780

     occupation numbers 
     1.0000   1.0000   1.0000   1.0000   1.0000   1.0000   1.0000   1.0000
     1.0000   1.0000   1.0000   1.0000   0.9980   0.9830   0.8866   0.4618
     0.2881   0.1641   0.0000   0.0000   0.0000

          k = 0.2000 0.5774 0.2305 (  2802 PWs)   bands (ev):

   -75.4964 -75.4915 -38.9751 -38.9557 -38.8439 -38.8083 -38.7424 -38.7199
    15.2151  15.5614  16.2377  16.7265  16.8660  17.5647  18.4287  18.8258
    19.5933  19.8142  23.0737  23.6729  27.5616

     occupation numbers 
     1.0000   1.0000   1.0000   1.0000   1.0000   1.0000   1.0000   1.0000
     1.0000   1.0000   1.0000   0.9996   0.9993   0.9862   0.8368   0.6626
     0.2528   0.1640   0.0000   0.0000   0.0000

          k = 0.2000 0.5774-0.3074 (  2788 PWs)   bands (ev):

   -75.4939 -75.4939 -38.9713 -38.9713 -38.8269 -38.8269 -38.7244 -38.7244
    15.3532  15.3532  16.5208  16.5208  17.2446  17.2446  18.5943  18.5943
    19.7172  19.7172  23.3904  23.3904  27.3628

     occupation numbers 
     1.0000   1.0000   1.0000   1.0000   1.0000   1.0000   1.0000   1.0000
     1.0000   1.0000   0.9999   0.9999   0.9960   0.9960   0.7725   0.7725
     0.2002   0.2002   0.0000   0.0000   0.0000

          k = 0.2667 0.4619 0.0000 (  2828 PWs)   bands (ev):

   -75.5034 -75.4869 -38.9281 -38.8977 -38.8447 -38.8299 -38.7782 -38.7493
    15.3104  15.6376  15.9600  15.9851  17.1742  17.5630  18.0738  19.1060
    19.6737  19.7852  21.7244  26.6690  27.1478

     occupation numbers 
     1.0000   1.0000   1.0000   1.0000   1.0000   1.0000   1.0000   1.0000
     1.0000   1.0000   1.0000   1.0000   0.9971   0.9863   0.9310   0.5093
     0.2179   0.1744   0.0001   0.0000   0.0000

          k = 0.2667 0.4619 0.0768 (  2811 PWs)   bands (ev):

   -75.5028 -75.4875 -38.9293 -38.9161 -38.8387 -38.8252 -38.7788 -38.7397
    15.3312  15.6053  15.9831  16.0977  17.2193  17.4642  18.0718  19.1302
    19.5278  19.8262  21.8021  26.1906  27.3110

     occupation numbers 
     1.0000   1.0000   1.0000   1.0000   1.0000   1.0000   1.0000   1.0000
     1.0000   1.0000   1.0000   1.0000   0.9964   0.9905   0.9314   0.4957
     0.2833   0.1598   0.0001   0.0000   0.0000

          k = 0.2667 0.4619 0.1537 (  2805 PWs)   bands (ev):

   -75.5010 -75.4893 -38.9405 -38.9356 -38.8489 -38.8097 -38.7682 -38.7245
    15.3785  15.5617  16.0813  16.3595  17.2159  17.2802  18.0827  19.0863
    19.3288  19.9002  22.0038  25.0318  27.7737

     occupation numbers 
     1.0000   1.0000   1.0000   1.0000   1.0000   1.0000   1.0000   1.0000
     1.0000   1.0000   1.0000   1.0000   0.9965   0.9954   0.9293   0.5205
     0.3852   0.1357   0.0000   0.0000   0.0000

          k = 0.2667 0.4619 0.2305 (  2791 PWs)   bands (ev):

   -75.4983 -75.4920 -38.9548 -38.9475 -38.8461 -38.8186 -38.7428 -38.7175
    15.4311  15.5247  16.2836  16.6854  16.9016  17.2247  18.1592  18.7006
    19.5333  19.9102  22.3402  23.8402  28.4643

     occupation numbers 
     1.0000   1.0000   1.0000   1.0000   1.0000   1.0000   1.0000   1.0000
     1.0000   1.0000   1.0000   0.9997   0.9992   0.9964   0.9135   0.7247
     0.2807   0.1327   0.0000   0.0000   0.0000

          k = 0.2667 0.4619-0.3074 (  2796 PWs)   bands (ev):

   -75.4952 -75.4952 -38.9564 -38.9564 -38.8335 -38.8335 -38.7237 -38.7237
    15.4816  15.4816  16.5688  16.5688  17.0103  17.0103  18.3608  18.3608
    19.7816  19.7816  22.9218  22.9218  29.2139

     occupation numbers 
     1.0000   1.0000   1.0000   1.0000   1.0000   1.0000   1.0000   1.0000
     1.0000   1.0000   0.9998   0.9998   0.9986   0.9986   0.8593   0.8593
     0.1757   0.1757   0.0000   0.0000   0.0000

          k = 0.2667 0.5389 0.0000 (  2821 PWs)   bands (ev):

   -75.4972 -75.4885 -38.9336 -38.8851 -38.8564 -38.8199 -38.7970 -38.7700
    15.6223  15.6508  15.8572  16.1331  17.1987  17.3835  18.2079  19.3334
    19.6481  19.6685  22.9665  24.9745  26.7024

     occupation numbers 
     1.0000   1.0000   1.0000   1.0000   1.0000   1.0000   1.0000   1.0000
     1.0000   1.0000   1.0000   1.0000   0.9967   0.9930   0.9021   0.3828
     0.2287   0.2200   0.0000   0.0000   0.0000

          k = 0.2667 0.5389 0.0768 (  2818 PWs)   bands (ev):

   -75.4969 -75.4889 -38.9348 -38.8998 -38.8687 -38.8085 -38.7935 -38.7567
    15.5478  15.7850  15.9183  16.1266  17.1939  17.3318  18.2072  19.3550
    19.4960  19.7012  23.0816  24.9988  26.7666

     occupation numbers 
     1.0000   1.0000   1.0000   1.0000   1.0000   1.0000   1.0000   1.0000
     1.0000   1.0000   1.0000   1.0000   0.9968   0.9943   0.9023   0.3712
     0.2987   0.2066   0.0000   0.0000   0.0000

          k = 0.2667 0.5389 0.1537 (  2805 PWs)   bands (ev):

   -75.4959 -75.4898 -38.9427 -38.9231 -38.8786 -38.8184 -38.7633 -38.7355
    15.5381  15.8976  16.0298  16.2358  17.1009  17.2512  18.2187  19.1187
    19.4440  19.7595  23.3680  24.9861  26.9187

     occupation numbers 
     1.0000   1.0000   1.0000   1.0000   1.0000   1.0000   1.0000   1.0000
     1.0000   1.0000   1.0000   1.0000   0.9979   0.9959   0.8994   0.5022
     0.3247   0.1839   0.0000   0.0000   0.0000

          k = 0.2667 0.5389 0.2305 (  2793 PWs)   bands (ev):

   -75.4945 -75.4912 -38.9531 -38.9431 -38.8709 -38.8351 -38.7368 -38.7222
    15.5967  15.8227  16.2418  16.4812  16.9255  17.1512  18.2758  18.7204
    19.5703  19.7726  23.7593  24.7255  27.1679

     occupation numbers 
     1.0000   1.0000   1.0000   1.0000   1.0000   1.0000   1.0000   1.0000
     1.0000   1.0000   1.0000   0.9999   0.9991   0.9973   0.8845   0.7152
     0.2633   0.1790   0.0000   0.0000   0.0000

          k = 0.2667 0.5389-0.3074 (  2794 PWs)   bands (ev):

   -75.4929 -75.4929 -38.9542 -38.9542 -38.8541 -38.8541 -38.7223 -38.7223
    15.7022  15.7022  16.4753  16.4753  16.9692  16.9692  18.4274  18.4274
    19.7015  19.7015  24.2405  24.2405  27.6605

     occupation numbers 
     1.0000   1.0000   1.0000   1.0000   1.0000   1.0000   1.0000   1.0000
     1.0000   1.0000   0.9999   0.9999   0.9988   0.9988   0.8372   0.8372
     0.2065   0.2065   0.0000   0.0000   0.0000

          k = 0.3333 0.5774 0.0000 (  2826 PWs)   bands (ev):

   -75.4920 -75.4920 -38.9253 -38.8725 -38.8725 -38.8166 -38.7942 -38.7942
    15.6414  15.8597  15.8597  16.0815  17.2502  17.2502  18.2803  19.4777
    19.4777  19.6270  24.1741  25.0289  25.0289

     occupation numbers 
     1.0000   1.0000   1.0000   1.0000   1.0000   1.0000   1.0000   1.0000
     1.0000   1.0000   1.0000   1.0000   0.9959   0.9959   0.8832   0.3077
     0.3077   0.2378   0.0000   0.0000   0.0000

          k = 0.3333 0.5774 0.0768 (  2817 PWs)   bands (ev):

   -75.4920 -75.4920 -38.9212 -38.8892 -38.8892 -38.8207 -38.7773 -38.7773
    15.6892  15.8929  15.8929  16.0977  17.2099  17.2099  18.2662  19.4698
    19.5076  19.5076  24.4135  25.0582  25.0582

     occupation numbers 
     1.0000   1.0000   1.0000   1.0000   1.0000   1.0000   1.0000   1.0000
     1.0000   1.0000   1.0000   1.0000   0.9966   0.9966   0.8871   0.3117
     0.2930   0.2930   0.0000   0.0000   0.0000

          k = 0.3333 0.5774 0.1537 (  2814 PWs)   bands (ev):

   -75.4920 -75.4920 -38.9168 -38.9168 -38.9095 -38.8326 -38.7495 -38.7495
    15.8178  15.9792  15.9792  16.1338  17.1098  17.1098  18.2421  19.0991
    19.5764  19.5764  25.0448  25.1391  25.1391

     occupation numbers 
     1.0000   1.0000   1.0000   1.0000   1.0000   1.0000   1.0000   1.0000
     1.0000   1.0000   1.0000   1.0000   0.9978   0.9978   0.8935   0.5132
     0.2605   0.2605   0.0000   0.0000   0.0000

          k = 0.3333 0.5774 0.2305 (  2793 PWs)   bands (ev):

   -75.4920 -75.4920 -38.9372 -38.9372 -38.8919 -38.8503 -38.7288 -38.7288
    15.9804  16.0782  16.0782  16.1533  17.0016  17.0016  18.2618  18.6969
    19.6408  19.6408  25.2387  25.2387  25.9275

     occupation numbers 
     1.0000   1.0000   1.0000   1.0000   1.0000   1.0000   1.0000   1.0000
     1.0000   1.0000   1.0000   1.0000   0.9986   0.9986   0.8882   0.7264
     0.2318   0.2318   0.0000   0.0000   0.0000

          k = 0.3333 0.5774-0.3074 (  2772 PWs)   bands (ev):

   -75.4920 -75.4920 -38.9446 -38.9446 -38.8711 -38.8711 -38.7213 -38.7213
    16.1078  16.1078  16.1250  16.1250  16.9522  16.9522  18.4003  18.4003
    19.6664  19.6664  25.2874  25.2874  26.9792

     occupation numbers 
     1.0000   1.0000   1.0000   1.0000   1.0000   1.0000   1.0000   1.0000
     1.0000   1.0000   1.0000   1.0000   0.9989   0.9989   0.8465   0.8465
     0.2209   0.2209   0.0000   0.0000   0.0000

     the Fermi energy is    19.1225 ev

!    total energy              =    -753.50441047 Ry
     total all-electron energy =     -5573.861102 Ry
     estimated scf accuracy    <          4.1E-09 Ry
     smearing contrib. (-TS)   =      -0.12935099 Ry
     internal energy E=F+TS    =    -753.37505948 Ry

     The total energy is F=E-TS. E is the sum of the following terms:
     one-electron contribution =    -278.79548780 Ry
     hartree contribution      =     163.54304264 Ry
     xc contribution           =     -61.30412253 Ry
     ewald contribution        =    -401.63724122 Ry
     one-center paw contrib.   =    -175.18125057 Ry
      -> PAW hartree energy AE =     222.28271384 Ry
      -> PAW hartree energy PS =    -221.22490715 Ry
      -> PAW xc energy AE      =    -117.62998450 Ry
      -> PAW xc energy PS      =      28.98155253 Ry
      -> total E_H with PAW    =     164.60084933 Ry
      -> total E_XC with PAW   =    -149.95255450 Ry

     total magnetization       =     1.33 Bohr mag/cell
     absolute magnetization    =     1.44 Bohr mag/cell

     convergence has been achieved in  23 iterations

     Writing all to output data dir ./out/Co.save/
 
     init_run     :      0.74s CPU      0.85s WALL (       1 calls)
     electrons    :     77.43s CPU     81.13s WALL (       1 calls)

     Called by init_run:
     wfcinit      :      0.60s CPU      0.65s WALL (       1 calls)
     wfcinit:atom :      0.01s CPU      0.01s WALL (     270 calls)
     wfcinit:wfcr :      0.58s CPU      0.62s WALL (     270 calls)
     potinit      :      0.10s CPU      0.14s WALL (       1 calls)
     hinit0       :      0.02s CPU      0.03s WALL (       1 calls)

     Called by electrons:
     c_bands      :     67.36s CPU     70.12s WALL (      23 calls)
     sum_band     :      7.86s CPU      8.23s WALL (      23 calls)
     v_of_rho     :      0.05s CPU      0.06s WALL (      24 calls)
     v_h          :      0.00s CPU      0.00s WALL (      24 calls)
     v_xc         :      0.05s CPU      0.05s WALL (      24 calls)
     newd         :      0.05s CPU      0.05s WALL (      24 calls)
     PAW_pot      :      2.16s CPU      2.73s WALL (      24 calls)
     mix_rho      :      0.01s CPU      0.02s WALL (      23 calls)

     Called by c_bands:
     init_us_2    :      0.52s CPU      0.52s WALL (   12690 calls)
     init_us_2:cp :      0.52s CPU      0.50s WALL (   12690 calls)
     cegterg      :     64.50s CPU     66.72s WALL (    6210 calls)

     Called by sum_band:
     sum_band:wei :      0.57s CPU      0.58s WALL (      23 calls)
     sum_band:loo :      7.16s CPU      7.52s WALL (      23 calls)
     sum_band:buf :      0.03s CPU      0.05s WALL (    6210 calls)
     sum_band:ini :      0.29s CPU      0.26s WALL (    6210 calls)
     sum_band:cal :      0.56s CPU      0.56s WALL (    6210 calls)
     sum_band:bec :      0.01s CPU      0.04s WALL (    6210 calls)
     addusdens    :      0.09s CPU      0.10s WALL (      23 calls)
                                        0.00s GPU  (      23 calls)
     addusd:skk   :      0.00s CPU      0.00s WALL (      23 calls)
                                        0.00s GPU  (      23 calls)

     Called by *egterg:
     cdiaghg      :     17.24s CPU     17.58s WALL (   32973 calls)
     cegterg:over :      2.19s CPU      2.11s WALL (   26763 calls)
     cegterg:upda :      0.33s CPU      0.55s WALL (   26763 calls)
     cegterg:last :      0.93s CPU      0.99s WALL (   18699 calls)
     h_psi        :     41.59s CPU     43.18s WALL (   33243 calls)
     s_psi        :      0.86s CPU      0.78s WALL (   33243 calls)
     g_psi        :      0.15s CPU      0.17s WALL (   26763 calls)

     Called by h_psi:
     h_psi:calbec :      2.18s CPU      2.06s WALL (   33243 calls)
     vloc_psi     :     38.50s CPU     39.93s WALL (   33243 calls)
     add_vuspsi   :      0.77s CPU      0.94s WALL (   33243 calls)

     General routines
     calbec       :      2.72s CPU      2.56s WALL (   39453 calls)
     fft          :      0.03s CPU      0.03s WALL (     502 calls)
     ffts         :      0.00s CPU      0.00s WALL (      46 calls)
     fftw         :     42.93s CPU     43.84s WALL ( 1004936 calls)
 
     Parallel routines

     PAW routines
     PAW_pot      :      2.16s CPU      2.73s WALL (      24 calls)
     PAW_symme    :      0.03s CPU      0.03s WALL (      47 calls)
 
     PWSCF        :   1m18.64s CPU   1m23.39s WALL

 
   This run was terminated on:  16:29:53  13Mar2024            

=------------------------------------------------------------------------------=
   JOB DONE.
=------------------------------------------------------------------------------=
