
     Program PWSCF v.7.2 starts on 13Mar2024 at 16:30:40 

     This program is part of the open-source Quantum ESPRESSO suite
     for quantum simulation of materials; please cite
         "P. Giannozzi et al., J. Phys.:Condens. Matter 21 395502 (2009);
         "P. Giannozzi et al., J. Phys.:Condens. Matter 29 465901 (2017);
         "P. Giannozzi et al., J. Chem. Phys. 152 154105 (2020);
          URL http://www.quantum-espresso.org", 
     in publications or presentations arising from this work. More details at
     http://www.quantum-espresso.org/quote

     Parallel version (MPI), running on    20 processors

     MPI processes distributed on     1 nodes
     298087 MiB available memory on the printing compute node when the environment starts
 
     Waiting for input...
     Reading input from standard input

     Current dimensions of program PWSCF are:
     Max number of different atomic species (ntypx) = 10
     Max number of k-points (npk) = 120000
     Max angular momentum in pseudopotentials (lmaxx) =  4
     file Co.pbe-spn-kjpaw_psl.0.3.1.UPF: wavefunction(s)  3P 3D renormalized
     Message from routine setup:
     using ibrav=0 with symmetry is DISCOURAGED, use correct ibrav instead
 
     R & G space division:  proc/nbgrp/npool/nimage =      20
     Subspace diagonalization in iterative solution of the eigenvalue problem:
     a serial algorithm will be used

 
     Parallelization info
     --------------------
     sticks:   dense  smooth     PW     G-vecs:    dense   smooth      PW
     Min          41      33      9                 1563     1119     179
     Max          42      34     10                 1568     1125     186
     Sum         835     661    199                31287    22443    3693
 
     Using Slab Decomposition
 


     bravais-lattice index     =            0
     lattice parameter (alat)  =       4.6714  a.u.
     unit-cell volume          =     143.6064 (a.u.)^3
     number of atoms/cell      =            2
     number of atomic types    =            1
     number of electrons       =        34.00
     number of Kohn-Sham states=           21
     kinetic-energy cutoff     =     110.0000  Ry
     charge density cutoff     =     550.0000  Ry
     scf convergence threshold =      8.0E-08
     mixing beta               =       0.4000
     number of iterations used =            8  plain     mixing
     Exchange-correlation= SLA  PW   PBX  PBC
                           (   1   4   3   4   0   0   0)

     celldm(1)=   4.671403  celldm(2)=   0.000000  celldm(3)=   0.000000
     celldm(4)=   0.000000  celldm(5)=   0.000000  celldm(6)=   0.000000

     crystal axes: (cart. coord. in units of alat)
               a(1) = (   1.000000   0.000000   0.000000 )  
               a(2) = (  -0.500000   0.866025   0.000000 )  
               a(3) = (   0.000000   0.000000   1.626676 )  

     reciprocal axes: (cart. coord. in units 2 pi/alat)
               b(1) = (  1.000000  0.577350  0.000000 )  
               b(2) = (  0.000000  1.154701  0.000000 )  
               b(3) = (  0.000000  0.000000  0.614750 )  


     PseudoPot. # 1 for Co read from file:
     /truba/home/amuhaymin/ZnS/pseudo/QE/Co.pbe-spn-kjpaw_psl.0.3.1.UPF
     MD5 check sum: b0a1ad65bf214e88c1f3d33b20c7d919
     Pseudo is Projector augmented-wave + core cor, Zval = 17.0
     Generated using &quot;atomic&quot; code by A. Dal Corso  v.6.2.2
     Shape of augmentation charge: PSQ
     Using radial grid of 1193 points,  6 beta functions with: 
                l(1) =   0
                l(2) =   0
                l(3) =   1
                l(4) =   1
                l(5) =   2
                l(6) =   2
     Q(r) pseudized with 0 coefficients 


     atomic species   valence    mass     pseudopotential
        Co            17.00    58.93300     Co( 1.00)

     Starting magnetic structure 
     atomic species   magnetization
        Co           0.294

     24 Sym. Ops., with inversion, found (12 have fractional translation)


                                    s                        frac. trans.

      isym =  1     identity                                     

 cryst.   s( 1) = (     1          0          0      )
                  (     0          1          0      )
                  (     0          0          1      )

 cart.    s( 1) = (  1.0000000  0.0000000  0.0000000 )
                  (  0.0000000  1.0000000  0.0000000 )
                  (  0.0000000  0.0000000  1.0000000 )


      isym =  2     180 deg rotation - cart. axis [0,0,1]        

 cryst.   s( 2) = (    -1          0          0      )    f =(  0.0000000 )
                  (     0         -1          0      )       (  0.0000000 )
                  (     0          0          1      )       ( -0.5000000 )

 cart.    s( 2) = ( -1.0000000  0.0000000  0.0000000 )    f =(  0.0000000 )
                  (  0.0000000 -1.0000000  0.0000000 )       (  0.0000000 )
                  (  0.0000000  0.0000000  1.0000000 )       ( -0.8133382 )


      isym =  3     180 deg rotation - cart. axis [0,1,0]        

 cryst.   s( 3) = (    -1          0          0      )    f =(  0.0000000 )
                  (     1          1          0      )       (  0.0000000 )
                  (     0          0         -1      )       (  0.5000000 )

 cart.    s( 3) = ( -1.0000000  0.0000000  0.0000000 )    f =(  0.0000000 )
                  (  0.0000000  1.0000000  0.0000000 )       (  0.0000000 )
                  (  0.0000000  0.0000000 -1.0000000 )       (  0.8133382 )


      isym =  4     180 deg rotation - cart. axis [1,0,0]        

 cryst.   s( 4) = (     1          0          0      )
                  (    -1         -1          0      )
                  (     0          0         -1      )

 cart.    s( 4) = (  1.0000000  0.0000000  0.0000000 )
                  (  0.0000000 -1.0000000  0.0000000 )
                  (  0.0000000  0.0000000 -1.0000000 )


      isym =  5      60 deg rotation - cryst. axis [0,0,1]       

 cryst.   s( 5) = (     1          1          0      )    f =(  0.0000000 )
                  (    -1          0          0      )       ( -0.0000000 )
                  (     0          0          1      )       ( -0.5000000 )

 cart.    s( 5) = (  0.5000000 -0.8660254  0.0000000 )    f =(  0.0000000 )
                  (  0.8660254  0.5000000  0.0000000 )       ( -0.0000000 )
                  (  0.0000000  0.0000000  1.0000000 )       ( -0.8133382 )


      isym =  6      60 deg rotation - cryst. axis [0,0,-1]      

 cryst.   s( 6) = (     0         -1          0      )    f =(  0.0000000 )
                  (     1          1          0      )       ( -0.0000000 )
                  (     0          0          1      )       ( -0.5000000 )

 cart.    s( 6) = (  0.5000000  0.8660254  0.0000000 )    f =(  0.0000000 )
                  ( -0.8660254  0.5000000  0.0000000 )       ( -0.0000000 )
                  (  0.0000000  0.0000000  1.0000000 )       ( -0.8133382 )


      isym =  7     120 deg rotation - cryst. axis [0,0,1]       

 cryst.   s( 7) = (     0          1          0      )
                  (    -1         -1          0      )
                  (     0          0          1      )

 cart.    s( 7) = ( -0.5000000 -0.8660254  0.0000000 )
                  (  0.8660254 -0.5000000  0.0000000 )
                  (  0.0000000  0.0000000  1.0000000 )


      isym =  8     120 deg rotation - cryst. axis [0,0,-1]      

 cryst.   s( 8) = (    -1         -1          0      )
                  (     1          0          0      )
                  (     0          0          1      )

 cart.    s( 8) = ( -0.5000000  0.8660254  0.0000000 )
                  ( -0.8660254 -0.5000000  0.0000000 )
                  (  0.0000000  0.0000000  1.0000000 )


      isym =  9     180 deg rotation - cryst. axis [1,-1,0]      

 cryst.   s( 9) = (     0         -1          0      )    f =(  0.0000000 )
                  (    -1          0          0      )       (  0.0000000 )
                  (     0          0         -1      )       (  0.5000000 )

 cart.    s( 9) = (  0.5000000 -0.8660254  0.0000000 )    f =(  0.0000000 )
                  ( -0.8660254 -0.5000000  0.0000000 )       (  0.0000000 )
                  (  0.0000000  0.0000000 -1.0000000 )       (  0.8133382 )


      isym = 10     180 deg rotation - cryst. axis [2,1,0]       

 cryst.   s(10) = (     1          1          0      )    f =(  0.0000000 )
                  (     0         -1          0      )       ( -0.0000000 )
                  (     0          0         -1      )       (  0.5000000 )

 cart.    s(10) = (  0.5000000  0.8660254  0.0000000 )    f =(  0.0000000 )
                  (  0.8660254 -0.5000000  0.0000000 )       ( -0.0000000 )
                  (  0.0000000  0.0000000 -1.0000000 )       (  0.8133382 )


      isym = 11     180 deg rotation - cryst. axis [0,1,0]       

 cryst.   s(11) = (    -1         -1          0      )
                  (     0          1          0      )
                  (     0          0         -1      )

 cart.    s(11) = ( -0.5000000 -0.8660254  0.0000000 )
                  ( -0.8660254  0.5000000  0.0000000 )
                  (  0.0000000  0.0000000 -1.0000000 )


      isym = 12     180 deg rotation - cryst. axis [1,1,0]       

 cryst.   s(12) = (     0          1          0      )
                  (     1          0          0      )
                  (     0          0         -1      )

 cart.    s(12) = ( -0.5000000  0.8660254  0.0000000 )
                  (  0.8660254  0.5000000  0.0000000 )
                  (  0.0000000  0.0000000 -1.0000000 )


      isym = 13     inversion                                    

 cryst.   s(13) = (    -1          0          0      )
                  (     0         -1          0      )
                  (     0          0         -1      )

 cart.    s(13) = ( -1.0000000  0.0000000  0.0000000 )
                  (  0.0000000 -1.0000000  0.0000000 )
                  (  0.0000000  0.0000000 -1.0000000 )


      isym = 14     inv. 180 deg rotation - cart. axis [0,0,1]   

 cryst.   s(14) = (     1          0          0      )    f =(  0.0000000 )
                  (     0          1          0      )       (  0.0000000 )
                  (     0          0         -1      )       (  0.5000000 )

 cart.    s(14) = (  1.0000000  0.0000000  0.0000000 )    f =(  0.0000000 )
                  (  0.0000000  1.0000000  0.0000000 )       (  0.0000000 )
                  (  0.0000000  0.0000000 -1.0000000 )       (  0.8133382 )


      isym = 15     inv. 180 deg rotation - cart. axis [0,1,0]   

 cryst.   s(15) = (     1          0          0      )    f =(  0.0000000 )
                  (    -1         -1          0      )       (  0.0000000 )
                  (     0          0          1      )       ( -0.5000000 )

 cart.    s(15) = (  1.0000000  0.0000000  0.0000000 )    f =(  0.0000000 )
                  (  0.0000000 -1.0000000  0.0000000 )       (  0.0000000 )
                  (  0.0000000  0.0000000  1.0000000 )       ( -0.8133382 )


      isym = 16     inv. 180 deg rotation - cart. axis [1,0,0]   

 cryst.   s(16) = (    -1          0          0      )
                  (     1          1          0      )
                  (     0          0          1      )

 cart.    s(16) = ( -1.0000000  0.0000000  0.0000000 )
                  (  0.0000000  1.0000000  0.0000000 )
                  (  0.0000000  0.0000000  1.0000000 )


      isym = 17     inv.  60 deg rotation - cryst. axis [0,0,1]  

 cryst.   s(17) = (    -1         -1          0      )    f =(  0.0000000 )
                  (     1          0          0      )       (  0.0000000 )
                  (     0          0         -1      )       (  0.5000000 )

 cart.    s(17) = ( -0.5000000  0.8660254  0.0000000 )    f =(  0.0000000 )
                  ( -0.8660254 -0.5000000  0.0000000 )       (  0.0000000 )
                  (  0.0000000  0.0000000 -1.0000000 )       (  0.8133382 )


      isym = 18     inv.  60 deg rotation - cryst. axis [0,0,-1] 

 cryst.   s(18) = (     0          1          0      )    f =(  0.0000000 )
                  (    -1         -1          0      )       ( -0.0000000 )
                  (     0          0         -1      )       (  0.5000000 )

 cart.    s(18) = ( -0.5000000 -0.8660254  0.0000000 )    f =(  0.0000000 )
                  (  0.8660254 -0.5000000  0.0000000 )       ( -0.0000000 )
                  (  0.0000000  0.0000000 -1.0000000 )       (  0.8133382 )


      isym = 19     inv. 120 deg rotation - cryst. axis [0,0,1]  

 cryst.   s(19) = (     0         -1          0      )
                  (     1          1          0      )
                  (     0          0         -1      )

 cart.    s(19) = (  0.5000000  0.8660254  0.0000000 )
                  ( -0.8660254  0.5000000  0.0000000 )
                  (  0.0000000  0.0000000 -1.0000000 )


      isym = 20     inv. 120 deg rotation - cryst. axis [0,0,-1] 

 cryst.   s(20) = (     1          1          0      )
                  (    -1          0          0      )
                  (     0          0         -1      )

 cart.    s(20) = (  0.5000000 -0.8660254  0.0000000 )
                  (  0.8660254  0.5000000  0.0000000 )
                  (  0.0000000  0.0000000 -1.0000000 )


      isym = 21     inv. 180 deg rotation - cryst. axis [1,-1,0] 

 cryst.   s(21) = (     0          1          0      )    f =(  0.0000000 )
                  (     1          0          0      )       ( -0.0000000 )
                  (     0          0          1      )       ( -0.5000000 )

 cart.    s(21) = ( -0.5000000  0.8660254  0.0000000 )    f =(  0.0000000 )
                  (  0.8660254  0.5000000  0.0000000 )       ( -0.0000000 )
                  (  0.0000000  0.0000000  1.0000000 )       ( -0.8133382 )


      isym = 22     inv. 180 deg rotation - cryst. axis [2,1,0]  

 cryst.   s(22) = (    -1         -1          0      )    f =(  0.0000000 )
                  (     0          1          0      )       ( -0.0000000 )
                  (     0          0          1      )       ( -0.5000000 )

 cart.    s(22) = ( -0.5000000 -0.8660254  0.0000000 )    f =(  0.0000000 )
                  ( -0.8660254  0.5000000  0.0000000 )       ( -0.0000000 )
                  (  0.0000000  0.0000000  1.0000000 )       ( -0.8133382 )


      isym = 23     inv. 180 deg rotation - cryst. axis [0,1,0]  

 cryst.   s(23) = (     1          1          0      )
                  (     0         -1          0      )
                  (     0          0          1      )

 cart.    s(23) = (  0.5000000  0.8660254  0.0000000 )
                  (  0.8660254 -0.5000000  0.0000000 )
                  (  0.0000000  0.0000000  1.0000000 )


      isym = 24     inv. 180 deg rotation - cryst. axis [1,1,0]  

 cryst.   s(24) = (     0         -1          0      )
                  (    -1          0          0      )
                  (     0          0          1      )

 cart.    s(24) = (  0.5000000 -0.8660254  0.0000000 )
                  ( -0.8660254 -0.5000000  0.0000000 )
                  (  0.0000000  0.0000000  1.0000000 )


   Cartesian axes

     site n.     atom                  positions (alat units)
         1           Co  tau(   1) = (  -0.0000000   0.5773503   0.4066691  )
         2           Co  tau(   2) = (   0.5000000   0.2886751   1.2200074  )

   Crystallographic axes

     site n.     atom                  positions (cryst. coord.)
         1           Co  tau(   1) = (  0.3333333  0.6666667  0.2500000  )
         2           Co  tau(   2) = (  0.6666667  0.3333333  0.7500000  )

     number of k points=   135  Gaussian smearing, width (Ry)=  0.0735
                       cart. coord. in units 2pi/alat
        k(    1) = (   0.0000000   0.0000000   0.0000000), wk =   0.0005556
        k(    2) = (   0.0000000   0.0000000   0.0768438), wk =   0.0011111
        k(    3) = (   0.0000000   0.0000000   0.1536876), wk =   0.0011111
        k(    4) = (   0.0000000   0.0000000   0.2305314), wk =   0.0011111
        k(    5) = (   0.0000000   0.0000000  -0.3073752), wk =   0.0005556
        k(    6) = (   0.0000000   0.0769800   0.0000000), wk =   0.0033333
        k(    7) = (   0.0000000   0.0769800   0.0768438), wk =   0.0066667
        k(    8) = (   0.0000000   0.0769800   0.1536876), wk =   0.0066667
        k(    9) = (   0.0000000   0.0769800   0.2305314), wk =   0.0066667
        k(   10) = (   0.0000000   0.0769800  -0.3073752), wk =   0.0033333
        k(   11) = (   0.0000000   0.1539601   0.0000000), wk =   0.0033333
        k(   12) = (   0.0000000   0.1539601   0.0768438), wk =   0.0066667
        k(   13) = (   0.0000000   0.1539601   0.1536876), wk =   0.0066667
        k(   14) = (   0.0000000   0.1539601   0.2305314), wk =   0.0066667
        k(   15) = (   0.0000000   0.1539601  -0.3073752), wk =   0.0033333
        k(   16) = (   0.0000000   0.2309401   0.0000000), wk =   0.0033333
        k(   17) = (   0.0000000   0.2309401   0.0768438), wk =   0.0066667
        k(   18) = (   0.0000000   0.2309401   0.1536876), wk =   0.0066667
        k(   19) = (   0.0000000   0.2309401   0.2305314), wk =   0.0066667
        k(   20) = (   0.0000000   0.2309401  -0.3073752), wk =   0.0033333
        k(   21) = (   0.0000000   0.3079201   0.0000000), wk =   0.0033333
        k(   22) = (   0.0000000   0.3079201   0.0768438), wk =   0.0066667
        k(   23) = (   0.0000000   0.3079201   0.1536876), wk =   0.0066667
        k(   24) = (   0.0000000   0.3079201   0.2305314), wk =   0.0066667
        k(   25) = (   0.0000000   0.3079201  -0.3073752), wk =   0.0033333
        k(   26) = (   0.0000000   0.3849002   0.0000000), wk =   0.0033333
        k(   27) = (   0.0000000   0.3849002   0.0768438), wk =   0.0066667
        k(   28) = (   0.0000000   0.3849002   0.1536876), wk =   0.0066667
        k(   29) = (   0.0000000   0.3849002   0.2305314), wk =   0.0066667
        k(   30) = (   0.0000000   0.3849002  -0.3073752), wk =   0.0033333
        k(   31) = (   0.0000000   0.4618802   0.0000000), wk =   0.0033333
        k(   32) = (   0.0000000   0.4618802   0.0768438), wk =   0.0066667
        k(   33) = (   0.0000000   0.4618802   0.1536876), wk =   0.0066667
        k(   34) = (   0.0000000   0.4618802   0.2305314), wk =   0.0066667
        k(   35) = (   0.0000000   0.4618802  -0.3073752), wk =   0.0033333
        k(   36) = (   0.0000000   0.5388603   0.0000000), wk =   0.0033333
        k(   37) = (   0.0000000   0.5388603   0.0768438), wk =   0.0066667
        k(   38) = (   0.0000000   0.5388603   0.1536876), wk =   0.0066667
        k(   39) = (   0.0000000   0.5388603   0.2305314), wk =   0.0066667
        k(   40) = (   0.0000000   0.5388603  -0.3073752), wk =   0.0033333
        k(   41) = (   0.0666667   0.1154701   0.0000000), wk =   0.0033333
        k(   42) = (   0.0666667   0.1154701   0.0768438), wk =   0.0066667
        k(   43) = (   0.0666667   0.1154701   0.1536876), wk =   0.0066667
        k(   44) = (   0.0666667   0.1154701   0.2305314), wk =   0.0066667
        k(   45) = (   0.0666667   0.1154701  -0.3073752), wk =   0.0033333
        k(   46) = (   0.0666667   0.1924501   0.0000000), wk =   0.0066667
        k(   47) = (   0.0666667   0.1924501   0.0768438), wk =   0.0133333
        k(   48) = (   0.0666667   0.1924501   0.1536876), wk =   0.0133333
        k(   49) = (   0.0666667   0.1924501   0.2305314), wk =   0.0133333
        k(   50) = (   0.0666667   0.1924501  -0.3073752), wk =   0.0066667
        k(   51) = (   0.0666667   0.2694301   0.0000000), wk =   0.0066667
        k(   52) = (   0.0666667   0.2694301   0.0768438), wk =   0.0133333
        k(   53) = (   0.0666667   0.2694301   0.1536876), wk =   0.0133333
        k(   54) = (   0.0666667   0.2694301   0.2305314), wk =   0.0133333
        k(   55) = (   0.0666667   0.2694301  -0.3073752), wk =   0.0066667
        k(   56) = (   0.0666667   0.3464102   0.0000000), wk =   0.0066667
        k(   57) = (   0.0666667   0.3464102   0.0768438), wk =   0.0133333
        k(   58) = (   0.0666667   0.3464102   0.1536876), wk =   0.0133333
        k(   59) = (   0.0666667   0.3464102   0.2305314), wk =   0.0133333
        k(   60) = (   0.0666667   0.3464102  -0.3073752), wk =   0.0066667
        k(   61) = (   0.0666667   0.4233902   0.0000000), wk =   0.0066667
        k(   62) = (   0.0666667   0.4233902   0.0768438), wk =   0.0133333
        k(   63) = (   0.0666667   0.4233902   0.1536876), wk =   0.0133333
        k(   64) = (   0.0666667   0.4233902   0.2305314), wk =   0.0133333
        k(   65) = (   0.0666667   0.4233902  -0.3073752), wk =   0.0066667
        k(   66) = (   0.0666667   0.5003702   0.0000000), wk =   0.0066667
        k(   67) = (   0.0666667   0.5003702   0.0768438), wk =   0.0133333
        k(   68) = (   0.0666667   0.5003702   0.1536876), wk =   0.0133333
        k(   69) = (   0.0666667   0.5003702   0.2305314), wk =   0.0133333
        k(   70) = (   0.0666667   0.5003702  -0.3073752), wk =   0.0066667
        k(   71) = (   0.0666667   0.5773503   0.0000000), wk =   0.0033333
        k(   72) = (   0.0666667   0.5773503   0.0768438), wk =   0.0066667
        k(   73) = (   0.0666667   0.5773503   0.1536876), wk =   0.0066667
        k(   74) = (   0.0666667   0.5773503   0.2305314), wk =   0.0066667
        k(   75) = (   0.0666667   0.5773503  -0.3073752), wk =   0.0033333
        k(   76) = (   0.1333333   0.2309401   0.0000000), wk =   0.0033333
        k(   77) = (   0.1333333   0.2309401   0.0768438), wk =   0.0066667
        k(   78) = (   0.1333333   0.2309401   0.1536876), wk =   0.0066667
        k(   79) = (   0.1333333   0.2309401   0.2305314), wk =   0.0066667
        k(   80) = (   0.1333333   0.2309401  -0.3073752), wk =   0.0033333
        k(   81) = (   0.1333333   0.3079201   0.0000000), wk =   0.0066667
        k(   82) = (   0.1333333   0.3079201   0.0768438), wk =   0.0133333
        k(   83) = (   0.1333333   0.3079201   0.1536876), wk =   0.0133333
        k(   84) = (   0.1333333   0.3079201   0.2305314), wk =   0.0133333
        k(   85) = (   0.1333333   0.3079201  -0.3073752), wk =   0.0066667
        k(   86) = (   0.1333333   0.3849002   0.0000000), wk =   0.0066667
        k(   87) = (   0.1333333   0.3849002   0.0768438), wk =   0.0133333
        k(   88) = (   0.1333333   0.3849002   0.1536876), wk =   0.0133333
        k(   89) = (   0.1333333   0.3849002   0.2305314), wk =   0.0133333
        k(   90) = (   0.1333333   0.3849002  -0.3073752), wk =   0.0066667
        k(   91) = (   0.1333333   0.4618802   0.0000000), wk =   0.0066667
        k(   92) = (   0.1333333   0.4618802   0.0768438), wk =   0.0133333
        k(   93) = (   0.1333333   0.4618802   0.1536876), wk =   0.0133333
        k(   94) = (   0.1333333   0.4618802   0.2305314), wk =   0.0133333
        k(   95) = (   0.1333333   0.4618802  -0.3073752), wk =   0.0066667
        k(   96) = (   0.1333333   0.5388603   0.0000000), wk =   0.0066667
        k(   97) = (   0.1333333   0.5388603   0.0768438), wk =   0.0133333
        k(   98) = (   0.1333333   0.5388603   0.1536876), wk =   0.0133333
        k(   99) = (   0.1333333   0.5388603   0.2305314), wk =   0.0133333
        k(  100) = (   0.1333333   0.5388603  -0.3073752), wk =   0.0066667
        k(  101) = (   0.2000000   0.3464102   0.0000000), wk =   0.0033333
        k(  102) = (   0.2000000   0.3464102   0.0768438), wk =   0.0066667
        k(  103) = (   0.2000000   0.3464102   0.1536876), wk =   0.0066667
        k(  104) = (   0.2000000   0.3464102   0.2305314), wk =   0.0066667
        k(  105) = (   0.2000000   0.3464102  -0.3073752), wk =   0.0033333
        k(  106) = (   0.2000000   0.4233902   0.0000000), wk =   0.0066667
        k(  107) = (   0.2000000   0.4233902   0.0768438), wk =   0.0133333
        k(  108) = (   0.2000000   0.4233902   0.1536876), wk =   0.0133333
        k(  109) = (   0.2000000   0.4233902   0.2305314), wk =   0.0133333
        k(  110) = (   0.2000000   0.4233902  -0.3073752), wk =   0.0066667
        k(  111) = (   0.2000000   0.5003702   0.0000000), wk =   0.0066667
        k(  112) = (   0.2000000   0.5003702   0.0768438), wk =   0.0133333
        k(  113) = (   0.2000000   0.5003702   0.1536876), wk =   0.0133333
        k(  114) = (   0.2000000   0.5003702   0.2305314), wk =   0.0133333
        k(  115) = (   0.2000000   0.5003702  -0.3073752), wk =   0.0066667
        k(  116) = (   0.2000000   0.5773503   0.0000000), wk =   0.0033333
        k(  117) = (   0.2000000   0.5773503   0.0768438), wk =   0.0066667
        k(  118) = (   0.2000000   0.5773503   0.1536876), wk =   0.0066667
        k(  119) = (   0.2000000   0.5773503   0.2305314), wk =   0.0066667
        k(  120) = (   0.2000000   0.5773503  -0.3073752), wk =   0.0033333
        k(  121) = (   0.2666667   0.4618802   0.0000000), wk =   0.0033333
        k(  122) = (   0.2666667   0.4618802   0.0768438), wk =   0.0066667
        k(  123) = (   0.2666667   0.4618802   0.1536876), wk =   0.0066667
        k(  124) = (   0.2666667   0.4618802   0.2305314), wk =   0.0066667
        k(  125) = (   0.2666667   0.4618802  -0.3073752), wk =   0.0033333
        k(  126) = (   0.2666667   0.5388603   0.0000000), wk =   0.0066667
        k(  127) = (   0.2666667   0.5388603   0.0768438), wk =   0.0133333
        k(  128) = (   0.2666667   0.5388603   0.1536876), wk =   0.0133333
        k(  129) = (   0.2666667   0.5388603   0.2305314), wk =   0.0133333
        k(  130) = (   0.2666667   0.5388603  -0.3073752), wk =   0.0066667
        k(  131) = (   0.3333333   0.5773503   0.0000000), wk =   0.0011111
        k(  132) = (   0.3333333   0.5773503   0.0768438), wk =   0.0022222
        k(  133) = (   0.3333333   0.5773503   0.1536876), wk =   0.0022222
        k(  134) = (   0.3333333   0.5773503   0.2305314), wk =   0.0022222
        k(  135) = (   0.3333333   0.5773503  -0.3073752), wk =   0.0011111

                       cryst. coord.
        k(    1) = (   0.0000000   0.0000000   0.0000000), wk =   0.0005556
        k(    2) = (   0.0000000   0.0000000   0.1250000), wk =   0.0011111
        k(    3) = (   0.0000000   0.0000000   0.2500000), wk =   0.0011111
        k(    4) = (   0.0000000   0.0000000   0.3750000), wk =   0.0011111
        k(    5) = (   0.0000000   0.0000000  -0.5000000), wk =   0.0005556
        k(    6) = (   0.0000000   0.0666667   0.0000000), wk =   0.0033333
        k(    7) = (   0.0000000   0.0666667   0.1250000), wk =   0.0066667
        k(    8) = (   0.0000000   0.0666667   0.2500000), wk =   0.0066667
        k(    9) = (   0.0000000   0.0666667   0.3750000), wk =   0.0066667
        k(   10) = (   0.0000000   0.0666667  -0.5000000), wk =   0.0033333
        k(   11) = (   0.0000000   0.1333333   0.0000000), wk =   0.0033333
        k(   12) = (   0.0000000   0.1333333   0.1250000), wk =   0.0066667
        k(   13) = (   0.0000000   0.1333333   0.2500000), wk =   0.0066667
        k(   14) = (   0.0000000   0.1333333   0.3750000), wk =   0.0066667
        k(   15) = (   0.0000000   0.1333333  -0.5000000), wk =   0.0033333
        k(   16) = (   0.0000000   0.2000000   0.0000000), wk =   0.0033333
        k(   17) = (   0.0000000   0.2000000   0.1250000), wk =   0.0066667
        k(   18) = (   0.0000000   0.2000000   0.2500000), wk =   0.0066667
        k(   19) = (   0.0000000   0.2000000   0.3750000), wk =   0.0066667
        k(   20) = (   0.0000000   0.2000000  -0.5000000), wk =   0.0033333
        k(   21) = (   0.0000000   0.2666667   0.0000000), wk =   0.0033333
        k(   22) = (   0.0000000   0.2666667   0.1250000), wk =   0.0066667
        k(   23) = (   0.0000000   0.2666667   0.2500000), wk =   0.0066667
        k(   24) = (   0.0000000   0.2666667   0.3750000), wk =   0.0066667
        k(   25) = (   0.0000000   0.2666667  -0.5000000), wk =   0.0033333
        k(   26) = (   0.0000000   0.3333333   0.0000000), wk =   0.0033333
        k(   27) = (   0.0000000   0.3333333   0.1250000), wk =   0.0066667
        k(   28) = (   0.0000000   0.3333333   0.2500000), wk =   0.0066667
        k(   29) = (   0.0000000   0.3333333   0.3750000), wk =   0.0066667
        k(   30) = (   0.0000000   0.3333333  -0.5000000), wk =   0.0033333
        k(   31) = (   0.0000000   0.4000000   0.0000000), wk =   0.0033333
        k(   32) = (   0.0000000   0.4000000   0.1250000), wk =   0.0066667
        k(   33) = (   0.0000000   0.4000000   0.2500000), wk =   0.0066667
        k(   34) = (   0.0000000   0.4000000   0.3750000), wk =   0.0066667
        k(   35) = (   0.0000000   0.4000000  -0.5000000), wk =   0.0033333
        k(   36) = (   0.0000000   0.4666667   0.0000000), wk =   0.0033333
        k(   37) = (   0.0000000   0.4666667   0.1250000), wk =   0.0066667
        k(   38) = (   0.0000000   0.4666667   0.2500000), wk =   0.0066667
        k(   39) = (   0.0000000   0.4666667   0.3750000), wk =   0.0066667
        k(   40) = (   0.0000000   0.4666667  -0.5000000), wk =   0.0033333
        k(   41) = (   0.0666667   0.0666667   0.0000000), wk =   0.0033333
        k(   42) = (   0.0666667   0.0666667   0.1250000), wk =   0.0066667
        k(   43) = (   0.0666667   0.0666667   0.2500000), wk =   0.0066667
        k(   44) = (   0.0666667   0.0666667   0.3750000), wk =   0.0066667
        k(   45) = (   0.0666667   0.0666667  -0.5000000), wk =   0.0033333
        k(   46) = (   0.0666667   0.1333333   0.0000000), wk =   0.0066667
        k(   47) = (   0.0666667   0.1333333   0.1250000), wk =   0.0133333
        k(   48) = (   0.0666667   0.1333333   0.2500000), wk =   0.0133333
        k(   49) = (   0.0666667   0.1333333   0.3750000), wk =   0.0133333
        k(   50) = (   0.0666667   0.1333333  -0.5000000), wk =   0.0066667
        k(   51) = (   0.0666667   0.2000000   0.0000000), wk =   0.0066667
        k(   52) = (   0.0666667   0.2000000   0.1250000), wk =   0.0133333
        k(   53) = (   0.0666667   0.2000000   0.2500000), wk =   0.0133333
        k(   54) = (   0.0666667   0.2000000   0.3750000), wk =   0.0133333
        k(   55) = (   0.0666667   0.2000000  -0.5000000), wk =   0.0066667
        k(   56) = (   0.0666667   0.2666667   0.0000000), wk =   0.0066667
        k(   57) = (   0.0666667   0.2666667   0.1250000), wk =   0.0133333
        k(   58) = (   0.0666667   0.2666667   0.2500000), wk =   0.0133333
        k(   59) = (   0.0666667   0.2666667   0.3750000), wk =   0.0133333
        k(   60) = (   0.0666667   0.2666667  -0.5000000), wk =   0.0066667
        k(   61) = (   0.0666667   0.3333333   0.0000000), wk =   0.0066667
        k(   62) = (   0.0666667   0.3333333   0.1250000), wk =   0.0133333
        k(   63) = (   0.0666667   0.3333333   0.2500000), wk =   0.0133333
        k(   64) = (   0.0666667   0.3333333   0.3750000), wk =   0.0133333
        k(   65) = (   0.0666667   0.3333333  -0.5000000), wk =   0.0066667
        k(   66) = (   0.0666667   0.4000000   0.0000000), wk =   0.0066667
        k(   67) = (   0.0666667   0.4000000   0.1250000), wk =   0.0133333
        k(   68) = (   0.0666667   0.4000000   0.2500000), wk =   0.0133333
        k(   69) = (   0.0666667   0.4000000   0.3750000), wk =   0.0133333
        k(   70) = (   0.0666667   0.4000000  -0.5000000), wk =   0.0066667
        k(   71) = (   0.0666667   0.4666667   0.0000000), wk =   0.0033333
        k(   72) = (   0.0666667   0.4666667   0.1250000), wk =   0.0066667
        k(   73) = (   0.0666667   0.4666667   0.2500000), wk =   0.0066667
        k(   74) = (   0.0666667   0.4666667   0.3750000), wk =   0.0066667
        k(   75) = (   0.0666667   0.4666667  -0.5000000), wk =   0.0033333
        k(   76) = (   0.1333333   0.1333333   0.0000000), wk =   0.0033333
        k(   77) = (   0.1333333   0.1333333   0.1250000), wk =   0.0066667
        k(   78) = (   0.1333333   0.1333333   0.2500000), wk =   0.0066667
        k(   79) = (   0.1333333   0.1333333   0.3750000), wk =   0.0066667
        k(   80) = (   0.1333333   0.1333333  -0.5000000), wk =   0.0033333
        k(   81) = (   0.1333333   0.2000000   0.0000000), wk =   0.0066667
        k(   82) = (   0.1333333   0.2000000   0.1250000), wk =   0.0133333
        k(   83) = (   0.1333333   0.2000000   0.2500000), wk =   0.0133333
        k(   84) = (   0.1333333   0.2000000   0.3750000), wk =   0.0133333
        k(   85) = (   0.1333333   0.2000000  -0.5000000), wk =   0.0066667
        k(   86) = (   0.1333333   0.2666667   0.0000000), wk =   0.0066667
        k(   87) = (   0.1333333   0.2666667   0.1250000), wk =   0.0133333
        k(   88) = (   0.1333333   0.2666667   0.2500000), wk =   0.0133333
        k(   89) = (   0.1333333   0.2666667   0.3750000), wk =   0.0133333
        k(   90) = (   0.1333333   0.2666667  -0.5000000), wk =   0.0066667
        k(   91) = (   0.1333333   0.3333333   0.0000000), wk =   0.0066667
        k(   92) = (   0.1333333   0.3333333   0.1250000), wk =   0.0133333
        k(   93) = (   0.1333333   0.3333333   0.2500000), wk =   0.0133333
        k(   94) = (   0.1333333   0.3333333   0.3750000), wk =   0.0133333
        k(   95) = (   0.1333333   0.3333333  -0.5000000), wk =   0.0066667
        k(   96) = (   0.1333333   0.4000000   0.0000000), wk =   0.0066667
        k(   97) = (   0.1333333   0.4000000   0.1250000), wk =   0.0133333
        k(   98) = (   0.1333333   0.4000000   0.2500000), wk =   0.0133333
        k(   99) = (   0.1333333   0.4000000   0.3750000), wk =   0.0133333
        k(  100) = (   0.1333333   0.4000000  -0.5000000), wk =   0.0066667
        k(  101) = (   0.2000000   0.2000000   0.0000000), wk =   0.0033333
        k(  102) = (   0.2000000   0.2000000   0.1250000), wk =   0.0066667
        k(  103) = (   0.2000000   0.2000000   0.2500000), wk =   0.0066667
        k(  104) = (   0.2000000   0.2000000   0.3750000), wk =   0.0066667
        k(  105) = (   0.2000000   0.2000000  -0.5000000), wk =   0.0033333
        k(  106) = (   0.2000000   0.2666667   0.0000000), wk =   0.0066667
        k(  107) = (   0.2000000   0.2666667   0.1250000), wk =   0.0133333
        k(  108) = (   0.2000000   0.2666667   0.2500000), wk =   0.0133333
        k(  109) = (   0.2000000   0.2666667   0.3750000), wk =   0.0133333
        k(  110) = (   0.2000000   0.2666667  -0.5000000), wk =   0.0066667
        k(  111) = (   0.2000000   0.3333333   0.0000000), wk =   0.0066667
        k(  112) = (   0.2000000   0.3333333   0.1250000), wk =   0.0133333
        k(  113) = (   0.2000000   0.3333333   0.2500000), wk =   0.0133333
        k(  114) = (   0.2000000   0.3333333   0.3750000), wk =   0.0133333
        k(  115) = (   0.2000000   0.3333333  -0.5000000), wk =   0.0066667
        k(  116) = (   0.2000000   0.4000000   0.0000000), wk =   0.0033333
        k(  117) = (   0.2000000   0.4000000   0.1250000), wk =   0.0066667
        k(  118) = (   0.2000000   0.4000000   0.2500000), wk =   0.0066667
        k(  119) = (   0.2000000   0.4000000   0.3750000), wk =   0.0066667
        k(  120) = (   0.2000000   0.4000000  -0.5000000), wk =   0.0033333
        k(  121) = (   0.2666667   0.2666667   0.0000000), wk =   0.0033333
        k(  122) = (   0.2666667   0.2666667   0.1250000), wk =   0.0066667
        k(  123) = (   0.2666667   0.2666667   0.2500000), wk =   0.0066667
        k(  124) = (   0.2666667   0.2666667   0.3750000), wk =   0.0066667
        k(  125) = (   0.2666667   0.2666667  -0.5000000), wk =   0.0033333
        k(  126) = (   0.2666667   0.3333333   0.0000000), wk =   0.0066667
        k(  127) = (   0.2666667   0.3333333   0.1250000), wk =   0.0133333
        k(  128) = (   0.2666667   0.3333333   0.2500000), wk =   0.0133333
        k(  129) = (   0.2666667   0.3333333   0.3750000), wk =   0.0133333
        k(  130) = (   0.2666667   0.3333333  -0.5000000), wk =   0.0066667
        k(  131) = (   0.3333333   0.3333333   0.0000000), wk =   0.0011111
        k(  132) = (   0.3333333   0.3333333   0.1250000), wk =   0.0022222
        k(  133) = (   0.3333333   0.3333333   0.2500000), wk =   0.0022222
        k(  134) = (   0.3333333   0.3333333   0.3750000), wk =   0.0022222
        k(  135) = (   0.3333333   0.3333333  -0.5000000), wk =   0.0011111

     Dense  grid:    31287 G-vectors     FFT dimensions: (  36,  36,  60)

     Smooth grid:    22443 G-vectors     FFT dimensions: (  32,  32,  54)

     Dynamical RAM for                 wfc:       0.04 MB

     Dynamical RAM for     wfc (w. buffer):      12.07 MB

     Dynamical RAM for           str. fact:       0.02 MB

     Dynamical RAM for           local pot:       0.00 MB

     Dynamical RAM for          nlocal pot:       0.08 MB

     Dynamical RAM for                qrad:       1.88 MB

     Dynamical RAM for          rho,v,vnew:       0.32 MB

     Dynamical RAM for               rhoin:       0.11 MB

     Dynamical RAM for            rho*nmix:       0.76 MB

     Dynamical RAM for           G-vectors:       0.10 MB

     Dynamical RAM for          h,s,v(r/c):       0.08 MB

     Dynamical RAM for          <psi|beta>:       0.01 MB

     Dynamical RAM for                 psi:       0.09 MB

     Dynamical RAM for                hpsi:       0.09 MB

     Dynamical RAM for                spsi:       0.09 MB

     Dynamical RAM for      wfcinit/wfcrot:       0.10 MB

     Dynamical RAM for           addusdens:       4.51 MB

     Estimated static dynamical RAM per process >      14.80 MB

     Estimated max dynamical RAM per process >      20.08 MB

     Estimated total dynamical RAM >     401.57 MB

     Check: negative core charge=   -0.000036
     Generating pointlists ...
     new r_m :   0.4114 (alat units)  1.9220 (a.u.) for type    1

     The initial density is read from file :
     ./out/Co.save/charge-density

     Starting wfcs from file
     Checking if some PAW data can be deallocated... 

     total cpu time spent up to now is        0.9 secs

     Self-consistent Calculation

     iteration #  1     ecut=   110.00 Ry     beta= 0.40
     Davidson diagonalization with overlap

---- Real-time Memory Report at c_bands before calling an iterative solver
            57 MiB given to the printing process from OS
             0 MiB allocation reported by mallinfo(arena+hblkhd)
        297402 MiB available memory on the node where the printing process lives
------------------
     ethr =  1.00E-05,  avg # of iterations =  1.0

     Threshold (ethr) on eigenvalues was too large:
     Diagonalizing with lowered threshold

     Davidson diagonalization with overlap

---- Real-time Memory Report at c_bands before calling an iterative solver
            71 MiB given to the printing process from OS
             0 MiB allocation reported by mallinfo(arena+hblkhd)
        297218 MiB available memory on the node where the printing process lives
------------------
     ethr =  9.13E-10,  avg # of iterations =  2.3

     total cpu time spent up to now is        5.2 secs

     total energy              =    -753.50452081 Ry
     estimated scf accuracy    <       0.00000041 Ry

     total magnetization       =     1.33 Bohr mag/cell
     absolute magnetization    =     1.44 Bohr mag/cell

     iteration #  2     ecut=   110.00 Ry     beta= 0.40
     Davidson diagonalization with overlap

---- Real-time Memory Report at c_bands before calling an iterative solver
            83 MiB given to the printing process from OS
             0 MiB allocation reported by mallinfo(arena+hblkhd)
        297205 MiB available memory on the node where the printing process lives
------------------
     ethr =  1.21E-09,  avg # of iterations =  3.1
 
     Magnetic moment per site  (integrated on atomic sphere of radius R)
     atom   1 (R=0.411)  charge= 15.5899  magn=  0.6903
     atom   2 (R=0.411)  charge= 15.5899  magn=  0.6903

     total cpu time spent up to now is        8.0 secs

     End of self-consistent calculation

 ------ SPIN UP ------------


          k = 0.0000 0.0000 0.0000 (  2803 PWs)   bands (ev):

   -76.4075 -76.3462 -39.8305 -39.5242 -39.5242 -39.4760 -39.4740 -39.4740
    10.0054  14.1264  16.9106  16.9629  16.9629  17.2958  17.2958  17.6969
    17.6969  18.7869  18.8494  18.8494  25.8014

     occupation numbers 
     1.0000   1.0000   1.0000   1.0000   1.0000   1.0000   1.0000   1.0000
     1.0000   1.0000   0.9991   0.9989   0.9989   0.9951   0.9951   0.9782
     0.9782   0.6831   0.6510   0.6510   0.0000

          k = 0.0000 0.0000 0.0768 (  2797 PWs)   bands (ev):

   -76.4052 -76.3485 -39.8172 -39.5223 -39.5223 -39.4897 -39.4759 -39.4759
    10.1633  14.0698  16.8658  16.9220  16.9220  17.2512  17.2512  17.7966
    17.7966  18.2616  18.8406  18.8406  26.6636

     occupation numbers 
     1.0000   1.0000   1.0000   1.0000   1.0000   1.0000   1.0000   1.0000
     1.0000   1.0000   0.9993   0.9991   0.9991   0.9960   0.9960   0.9697
     0.9697   0.8886   0.6555   0.6555   0.0000

          k = 0.0000 0.0000 0.1537 (  2797 PWs)   bands (ev):

   -76.3986 -76.3552 -39.7792 -39.5286 -39.5169 -39.5169 -39.4813 -39.4813
    10.6265  13.8145  16.7462  16.8611  16.8611  17.1392  17.1392  17.3039
    18.0242  18.0242  18.7989  18.7989  28.7070

     occupation numbers 
     1.0000   1.0000   1.0000   1.0000   1.0000   1.0000   1.0000   1.0000
     1.0000   1.0000   0.9996   0.9993   0.9993   0.9975   0.9975   0.9950
     0.9400   0.9400   0.6770   0.6770   0.0000

          k = 0.0000 0.0000 0.2305 (  2810 PWs)   bands (ev):

   -76.3887 -76.3652 -39.7222 -39.5866 -39.5087 -39.5087 -39.4895 -39.4895
    11.3583  13.1892  16.5984  16.6758  16.8477  16.8477  17.0070  17.0070
    18.2852  18.2852  18.6965  18.6965  31.3088

     occupation numbers 
     1.0000   1.0000   1.0000   1.0000   1.0000   1.0000   1.0000   1.0000
     1.0000   1.0000   0.9998   0.9997   0.9994   0.9994   0.9986   0.9986
     0.8821   0.8821   0.7271   0.7271   0.0000

          k = 0.0000 0.0000-0.3074 (  2834 PWs)   bands (ev):

   -76.3769 -76.3769 -39.6546 -39.6546 -39.4991 -39.4991 -39.4991 -39.4991
    12.2746  12.2746  16.5158  16.5158  16.8998  16.8998  16.8998  16.8998
    18.5211  18.5211  18.5211  18.5211  34.1911

     occupation numbers 
     1.0000   1.0000   1.0000   1.0000   1.0000   1.0000   1.0000   1.0000
     1.0000   1.0000   0.9999   0.9999   0.9992   0.9992   0.9992   0.9992
     0.8029   0.8029   0.8029   0.8029   0.0000

          k = 0.0000 0.0770 0.0000 (  2797 PWs)   bands (ev):

   -76.4052 -76.3451 -39.8255 -39.5355 -39.5278 -39.4857 -39.4780 -39.4759
    10.1637  14.2279  16.7510  17.0408  17.0972  17.2557  17.3651  17.5790
    17.6467  17.9317  18.8707  19.9243  25.8211

     occupation numbers 
     1.0000   1.0000   1.0000   1.0000   1.0000   1.0000   1.0000   1.0000
     1.0000   1.0000   0.9996   0.9984   0.9979   0.9959   0.9936   0.9855
     0.9816   0.9541   0.6397   0.1288   0.0000

          k = 0.0000 0.0770 0.0768 (  2797 PWs)   bands (ev):

   -76.4030 -76.3474 -39.8126 -39.5333 -39.5259 -39.4977 -39.4813 -39.4778
    10.3201  14.1768  16.7429  16.9930  16.9993  17.1547  17.3174  17.6370
    17.7582  17.8313  18.8589  19.5731  26.7139

     occupation numbers 
     1.0000   1.0000   1.0000   1.0000   1.0000   1.0000   1.0000   1.0000
     1.0000   1.0000   0.9996   0.9987   0.9987   0.9973   0.9947   0.9822
     0.9733   0.9662   0.6460   0.2625   0.0000

          k = 0.0000 0.0770 0.1537 (  2797 PWs)   bands (ev):

   -76.3965 -76.3539 -39.7761 -39.5348 -39.5272 -39.5202 -39.4878 -39.4835
    10.7789  13.9341  16.7238  16.8130  16.8378  16.9256  17.2038  17.3242
    17.9988  18.0179  18.8094  19.1128  28.7908

     occupation numbers 
     1.0000   1.0000   1.0000   1.0000   1.0000   1.0000   1.0000   1.0000
     1.0000   1.0000   0.9997   0.9995   0.9994   0.9991   0.9967   0.9945
     0.9442   0.9411   0.6716   0.5061   0.0000

          k = 0.0000 0.0770 0.2305 (  2807 PWs)   bands (ev):

   -76.3867 -76.3637 -39.7211 -39.5905 -39.5183 -39.5118 -39.4969 -39.4919
    11.5037  13.3181  16.4781  16.5731  16.8010  16.9105  17.0668  17.0711
    18.2685  18.3011  18.6974  18.8268  31.4088

     occupation numbers 
     1.0000   1.0000   1.0000   1.0000   1.0000   1.0000   1.0000   1.0000
     1.0000   1.0000   0.9999   0.9998   0.9995   0.9991   0.9982   0.9982
     0.8867   0.8777   0.7267   0.6627   0.0000

          k = 0.0000 0.0770-0.3074 (  2812 PWs)   bands (ev):

   -76.3752 -76.3752 -39.6560 -39.6560 -39.5076 -39.5076 -39.5019 -39.5019
    12.4113  12.4113  16.4286  16.4286  16.8990  16.8990  16.9631  16.9631
    18.5126  18.5126  18.5749  18.5749  34.2994

     occupation numbers 
     1.0000   1.0000   1.0000   1.0000   1.0000   1.0000   1.0000   1.0000
     1.0000   1.0000   0.9999   0.9999   0.9992   0.9992   0.9989   0.9989
     0.8062   0.8062   0.7811   0.7811   0.0000

          k = 0.0000 0.1540 0.0000 (  2801 PWs)   bands (ev):

   -76.3987 -76.3421 -39.8109 -39.5674 -39.5380 -39.5185 -39.4840 -39.4813
    10.6285  14.5022  16.5197  16.9303  17.1087  17.2663  17.3261  17.5153
    17.5644  17.6457  18.9210  21.1692  25.8888

     occupation numbers 
     1.0000   1.0000   1.0000   1.0000   1.0000   1.0000   1.0000   1.0000
     1.0000   1.0000   0.9999   0.9990   0.9978   0.9957   0.9945   0.9885
     0.9863   0.9817   0.6128   0.0019   0.0000

          k = 0.0000 0.1540 0.0768 (  2795 PWs)   bands (ev):

   -76.3965 -76.3442 -39.7996 -39.5646 -39.5359 -39.5279 -39.4890 -39.4835
    10.7799  14.4684  16.5331  16.7015  17.0366  17.1805  17.3212  17.4958
    17.6895  17.7709  18.9017  20.6218  26.8790

     occupation numbers 
     1.0000   1.0000   1.0000   1.0000   1.0000   1.0000   1.0000   1.0000
     1.0000   1.0000   0.9999   0.9997   0.9984   0.9970   0.9946   0.9893
     0.9787   0.9721   0.6232   0.0171   0.0000

          k = 0.0000 0.1540 0.1537 (  2797 PWs)   bands (ev):

   -76.3904 -76.3504 -39.7675 -39.5606 -39.5535 -39.5297 -39.5003 -39.4896
    11.2234  14.2646  16.3289  16.5825  16.7823  17.0948  17.2481  17.3871
    17.9531  18.0359  18.8334  19.7709  29.0495

     occupation numbers 
     1.0000   1.0000   1.0000   1.0000   1.0000   1.0000   1.0000   1.0000
     1.0000   1.0000   1.0000   0.9998   0.9995   0.9979   0.9960   0.9930
     0.9511   0.9380   0.6593   0.1800   0.0000

          k = 0.0000 0.1540 0.2305 (  2798 PWs)   bands (ev):

   -76.3812 -76.3596 -39.7192 -39.6054 -39.5437 -39.5206 -39.5142 -39.4989
    11.9233  13.6767  16.1480  16.4958  16.6882  17.0601  17.0812  17.2534
    18.2358  18.3631  18.6989  19.1597  31.7071

     occupation numbers 
     1.0000   1.0000   1.0000   1.0000   1.0000   1.0000   1.0000   1.0000
     1.0000   1.0000   1.0000   0.9999   0.9997   0.9982   0.9981   0.9959
     0.8954   0.8590   0.7260   0.4797   0.0000

          k = 0.0000 0.1540-0.3074 (  2810 PWs)   bands (ev):

   -76.3704 -76.3704 -39.6622 -39.6622 -39.5292 -39.5292 -39.5097 -39.5097
    12.7990  12.7990  16.2512  16.2512  16.8525  16.8525  17.1403  17.1403
    18.4945  18.4945  18.7274  18.7274  34.6122

     occupation numbers 
     1.0000   1.0000   1.0000   1.0000   1.0000   1.0000   1.0000   1.0000
     1.0000   1.0000   1.0000   1.0000   0.9993   0.9993   0.9975   0.9975
     0.8132   0.8132   0.7124   0.7124   0.0000

          k = 0.0000 0.2309 0.0000 (  2783 PWs)   bands (ev):

   -76.3888 -76.3378 -39.7883 -39.6147 -39.5663 -39.5527 -39.4940 -39.4897
    11.3656  14.8409  16.2542  16.2875  16.9736  17.3412  17.4835  17.6090
    17.6134  17.8683  18.9766  22.5389  26.0252

     occupation numbers 
     1.0000   1.0000   1.0000   1.0000   1.0000   1.0000   1.0000   1.0000
     1.0000   1.0000   1.0000   1.0000   0.9988   0.9941   0.9898   0.9839
     0.9837   0.9621   0.5824   0.0000   0.0000

          k = 0.0000 0.2309 0.0768 (  2784 PWs)   bands (ev):

   -76.3869 -76.3398 -39.7801 -39.6104 -39.5747 -39.5503 -39.4983 -39.4921
    11.5060  14.8359  16.1118  16.3161  16.9102  17.2975  17.3408  17.6957
    17.8110  17.8522  18.9485  21.7351  27.1950

     occupation numbers 
     1.0000   1.0000   1.0000   1.0000   1.0000   1.0000   1.0000   1.0000
     1.0000   1.0000   1.0000   1.0000   0.9991   0.9951   0.9942   0.9783
     0.9683   0.9639   0.5978   0.0001   0.0000

          k = 0.0000 0.2309 0.1537 (  2788 PWs)   bands (ev):

   -76.3813 -76.3453 -39.7567 -39.6051 -39.5914 -39.5435 -39.5108 -39.4989
    11.9160  14.6955  15.8654  16.3897  16.7101  17.2033  17.2637  17.6646
    17.9923  18.1068  18.8598  20.5313  29.4925

     occupation numbers 
     1.0000   1.0000   1.0000   1.0000   1.0000   1.0000   1.0000   1.0000
     1.0000   1.0000   1.0000   0.9999   0.9997   0.9967   0.9957   0.9805
     0.9452   0.9248   0.6455   0.0233   0.0000

          k = 0.0000 0.2309 0.2305 (  2793 PWs)   bands (ev):

   -76.3731 -76.3536 -39.7215 -39.6377 -39.5755 -39.5333 -39.5299 -39.5092
    12.5582  14.1559  15.8634  16.3576  16.6034  17.0171  17.2945  17.5252
    18.2421  18.4758  18.7053  19.5999  32.1770

     occupation numbers 
     1.0000   1.0000   1.0000   1.0000   1.0000   1.0000   1.0000   1.0000
     1.0000   1.0000   1.0000   1.0000   0.9998   0.9986   0.9952   0.9881
     0.8938   0.8202   0.7230   0.2503   0.0000

          k = 0.0000 0.2309-0.3074 (  2798 PWs)   bands (ev):

   -76.3633 -76.3633 -39.6797 -39.6797 -39.5527 -39.5527 -39.5212 -39.5212
    13.3548  13.3548  16.0840  16.0840  16.7899  16.7899  17.3887  17.3887
    18.4920  18.4920  18.9504  18.9504  34.9686

     occupation numbers 
     1.0000   1.0000   1.0000   1.0000   1.0000   1.0000   1.0000   1.0000
     1.0000   1.0000   1.0000   1.0000   0.9995   0.9995   0.9929   0.9929
     0.8142   0.8142   0.5968   0.5968   0.0000

          k = 0.0000 0.3079 0.0000 (  2796 PWs)   bands (ev):

   -76.3770 -76.3333 -39.7597 -39.6695 -39.6203 -39.5691 -39.5081 -39.4996
    12.3010  15.0299  15.7098  16.1763  16.9212  17.1604  17.3142  18.0173
    18.0357  18.2354  19.0226  24.0205  26.2250

     occupation numbers 
     1.0000   1.0000   1.0000   1.0000   1.0000   1.0000   1.0000   1.0000
     1.0000   1.0000   1.0000   1.0000   0.9991   0.9973   0.9948   0.9412
     0.9381   0.8955   0.5568   0.0000   0.0000

          k = 0.0000 0.3079 0.0768 (  2789 PWs)   bands (ev):

   -76.3753 -76.3350 -39.7584 -39.6606 -39.6278 -39.5665 -39.5109 -39.5023
    12.4185  15.0496  15.6312  16.2063  16.8202  17.1920  17.3464  18.0624
    18.0702  18.1984  18.9880  22.8563  27.6771

     occupation numbers 
     1.0000   1.0000   1.0000   1.0000   1.0000   1.0000   1.0000   1.0000
     1.0000   1.0000   1.0000   1.0000   0.9994   0.9969   0.9940   0.9333
     0.9319   0.9047   0.5761   0.0000   0.0000

          k = 0.0000 0.3079 0.1537 (  2788 PWs)   bands (ev):

   -76.3706 -76.3397 -39.7518 -39.6567 -39.6288 -39.5590 -39.5207 -39.5098
    12.7574  14.9566  15.5404  16.2692  16.6686  17.2855  17.3061  18.0147
    18.2201  18.2631  18.8885  21.3267  30.0453

     occupation numbers 
     1.0000   1.0000   1.0000   1.0000   1.0000   1.0000   1.0000   1.0000
     1.0000   1.0000   1.0000   1.0000   0.9997   0.9953   0.9949   0.9416
     0.8993   0.8882   0.6303   0.0009   0.0000

          k = 0.0000 0.3079 0.2305 (  2788 PWs)   bands (ev):

   -76.3635 -76.3468 -39.7365 -39.6835 -39.5988 -39.5477 -39.5394 -39.5211
    13.2752  14.5113  15.6961  16.2015  16.6869  17.1375  17.4352  17.8334
    18.3714  18.6319  18.7373  20.0984  32.1994

     occupation numbers 
     1.0000   1.0000   1.0000   1.0000   1.0000   1.0000   1.0000   1.0000
     1.0000   1.0000   1.0000   1.0000   0.9997   0.9975   0.9915   0.9660
     0.8563   0.7566   0.7076   0.0840   0.0000

          k = 0.0000 0.3079-0.3074 (  2784 PWs)   bands (ev):

   -76.3552 -76.3552 -39.7126 -39.7126 -39.5666 -39.5666 -39.5344 -39.5344
    13.8964  13.8964  15.9606  15.9606  16.8978  16.8978  17.6264  17.6264
    18.5557  18.5557  19.2191  19.2191  33.2018

     occupation numbers 
     1.0000   1.0000   1.0000   1.0000   1.0000   1.0000   1.0000   1.0000
     1.0000   1.0000   1.0000   1.0000   0.9992   0.9992   0.9829   0.9829
     0.7891   0.7891   0.4463   0.4463   0.0000

          k = 0.0000 0.3849 0.0000 (  2806 PWs)   bands (ev):

   -76.3650 -76.3298 -39.7284 -39.7222 -39.6712 -39.5846 -39.5256 -39.5094
    13.2831  14.9597  15.3044  16.2317  17.0008  17.0413  17.1574  18.4626
    18.5974  18.6128  19.0546  25.5942  26.1859

     occupation numbers 
     1.0000   1.0000   1.0000   1.0000   1.0000   1.0000   1.0000   1.0000
     1.0000   1.0000   1.0000   1.0000   0.9987   0.9984   0.9973   0.8251
     0.7716   0.7650   0.5389   0.0000   0.0000

          k = 0.0000 0.3849 0.0768 (  2798 PWs)   bands (ev):

   -76.3636 -76.3311 -39.7517 -39.6947 -39.6747 -39.5817 -39.5263 -39.5123
    13.3516  14.9713  15.3162  16.1665  16.9633  17.0555  17.3545  18.4786
    18.5540  18.5675  19.0208  23.8799  27.8879

     occupation numbers 
     1.0000   1.0000   1.0000   1.0000   1.0000   1.0000   1.0000   1.0000
     1.0000   1.0000   1.0000   1.0000   0.9989   0.9983   0.9938   0.8192
     0.7898   0.7842   0.5579   0.0000   0.0000

          k = 0.0000 0.3849 0.1537 (  2788 PWs)   bands (ev):

   -76.3598 -76.3349 -39.7656 -39.7056 -39.6446 -39.5736 -39.5315 -39.5204
    13.5477  14.8828  15.3947  16.1062  16.9370  17.2142  17.6224  18.3610
    18.5430  18.5499  18.9382  22.1253  29.0507

     occupation numbers 
     1.0000   1.0000   1.0000   1.0000   1.0000   1.0000   1.0000   1.0000
     1.0000   1.0000   1.0000   1.0000   0.9990   0.9965   0.9831   0.8596
     0.7942   0.7914   0.6034   0.0000   0.0000

          k = 0.0000 0.3849 0.2305 (  2799 PWs)   bands (ev):

   -76.3541 -76.3406 -39.7657 -39.7308 -39.6052 -39.5614 -39.5458 -39.5327
    13.8458  14.5869  15.5982  16.0365  17.0810  17.4603  17.6468  18.0837
    18.6256  18.8300  18.8353  20.6646  29.8049

     occupation numbers 
     1.0000   1.0000   1.0000   1.0000   1.0000   1.0000   1.0000   1.0000
     1.0000   1.0000   1.0000   1.0000   0.9981   0.9907   0.9816   0.9293
     0.7594   0.6610   0.6583   0.0147   0.0000

          k = 0.0000 0.3849-0.3074 (  2796 PWs)   bands (ev):

   -76.3474 -76.3474 -39.7529 -39.7529 -39.5708 -39.5708 -39.5470 -39.5470
    14.2095  14.2095  15.8451  15.8451  17.3870  17.3870  17.7646  17.7646
    18.7273  18.7273  19.5545  19.5545  30.6546

     occupation numbers 
     1.0000   1.0000   1.0000   1.0000   1.0000   1.0000   1.0000   1.0000
     1.0000   1.0000   1.0000   1.0000   0.9930   0.9930   0.9727   0.9727
     0.7124   0.7124   0.2712   0.2712   0.0000

          k = 0.0000 0.4619 0.0000 (  2798 PWs)   bands (ev):

   -76.3547 -76.3278 -39.7636 -39.7105 -39.6988 -39.5965 -39.5443 -39.5171
    14.0533  14.7945  15.0368  16.4359  16.8830  17.0370  17.2254  18.8033
    18.9405  19.0736  19.4204  24.8749  27.2082

     occupation numbers 
     1.0000   1.0000   1.0000   1.0000   1.0000   1.0000   1.0000   1.0000
     1.0000   1.0000   1.0000   0.9999   0.9992   0.9984   0.9964   0.6747
     0.6022   0.5282   0.3374   0.0000   0.0000

          k = 0.0000 0.4619 0.0768 (  2805 PWs)   bands (ev):

   -76.3537 -76.3289 -39.7758 -39.7213 -39.6771 -39.5935 -39.5429 -39.5202
    14.0288  14.7810  15.1914  16.1337  16.9483  17.2065  17.4707  18.8044
    18.8525  19.0652  19.3322  24.1403  27.0894

     occupation numbers 
     1.0000   1.0000   1.0000   1.0000   1.0000   1.0000   1.0000   1.0000
     1.0000   1.0000   1.0000   1.0000   0.9990   0.9966   0.9903   0.6742
     0.6493   0.5329   0.3841   0.0000   0.0000

          k = 0.0000 0.4619 0.1537 (  2790 PWs)   bands (ev):

   -76.3508 -76.3318 -39.7913 -39.7436 -39.6390 -39.5849 -39.5430 -39.5288
    14.0221  14.7400  15.4078  15.9046  17.1384  17.2422  18.1716  18.5752
    18.8483  19.0376  19.0765  22.7041  27.2732

     occupation numbers 
     1.0000   1.0000   1.0000   1.0000   1.0000   1.0000   1.0000   1.0000
     1.0000   1.0000   1.0000   1.0000   0.9975   0.9961   0.9109   0.7810
     0.6515   0.5485   0.5266   0.0000   0.0000

          k = 0.0000 0.4619 0.2305 (  2801 PWs)   bands (ev):

   -76.3464 -76.3361 -39.7960 -39.7685 -39.6012 -39.5721 -39.5511 -39.5417
    14.1082  14.5521  15.5473  15.8806  17.4355  17.5195  18.2088  18.5642
    18.8914  18.9944  19.0873  21.2761  27.7426

     occupation numbers 
     1.0000   1.0000   1.0000   1.0000   1.0000   1.0000   1.0000   1.0000
     1.0000   1.0000   1.0000   1.0000   0.9915   0.9884   0.9021   0.7856
     0.6287   0.5725   0.5205   0.0012   0.0000

          k = 0.0000 0.4619-0.3074 (  2802 PWs)   bands (ev):

   -76.3413 -76.3413 -39.7877 -39.7877 -39.5707 -39.5707 -39.5569 -39.5569
    14.2993  14.2993  15.7394  15.7394  17.8080  17.8080  18.0451  18.0451
    18.9430  18.9430  20.0548  20.0548  28.4387

     occupation numbers 
     1.0000   1.0000   1.0000   1.0000   1.0000   1.0000   1.0000   1.0000
     1.0000   1.0000   1.0000   1.0000   0.9686   0.9686   0.9364   0.9364
     0.6008   0.6008   0.0940   0.0940   0.0000

          k = 0.0000 0.5389 0.0000 (  2794 PWs)   bands (ev):

   -76.3484 -76.3275 -39.7863 -39.7318 -39.6787 -39.6029 -39.5585 -39.5214
    14.4483  14.6446  14.9039  16.6895  16.8206  16.9718  17.3315  18.9877
    19.0822  19.1392  20.4670  23.1326  28.6116

     occupation numbers 
     1.0000   1.0000   1.0000   1.0000   1.0000   1.0000   1.0000   1.0000
     1.0000   1.0000   1.0000   0.9997   0.9994   0.9988   0.9944   0.5762
     0.5234   0.4913   0.0287   0.0000   0.0000

          k = 0.0000 0.5389 0.0768 (  2795 PWs)   bands (ev):

   -76.3476 -76.3283 -39.7952 -39.7416 -39.6629 -39.5998 -39.5555 -39.5245
    14.3048  14.6419  15.1872  16.1373  16.8905  17.3239  17.6573  18.9257
    19.0343  19.1443  20.3328  22.9623  27.8635

     occupation numbers 
     1.0000   1.0000   1.0000   1.0000   1.0000   1.0000   1.0000   1.0000
     1.0000   1.0000   1.0000   1.0000   0.9992   0.9945   0.9809   0.6102
     0.5503   0.4884   0.0436   0.0000   0.0000

          k = 0.0000 0.5389 0.1537 (  2797 PWs)   bands (ev):

   -76.3454 -76.3305 -39.8090 -39.7644 -39.6300 -39.5910 -39.5516 -39.5334
    14.1651  14.6561  15.5422  15.7229  17.0941  17.3901  18.5400  18.6474
    19.0370  19.1338  19.9482  22.4345  27.0834

     occupation numbers 
     1.0000   1.0000   1.0000   1.0000   1.0000   1.0000   1.0000   1.0000
     1.0000   1.0000   1.0000   1.0000   0.9979   0.9929   0.7955   0.7497
     0.5488   0.4943   0.1218   0.0000   0.0000

          k = 0.0000 0.5389 0.2305 (  2798 PWs)   bands (ev):

   -76.3420 -76.3339 -39.8144 -39.7891 -39.5962 -39.5779 -39.5549 -39.5467
    14.1661  14.5234  15.5412  15.7816  17.4131  17.7555  18.2484  19.0586
    19.0735  19.1122  19.7482  21.6057  26.8035

     occupation numbers 
     1.0000   1.0000   1.0000   1.0000   1.0000   1.0000   1.0000   1.0000
     1.0000   1.0000   1.0000   1.0000   0.9922   0.9735   0.8921   0.5367
     0.5283   0.5065   0.1885   0.0002   0.0000

          k = 0.0000 0.5389-0.3074 (  2808 PWs)   bands (ev):

   -76.3379 -76.3379 -39.8074 -39.8074 -39.5699 -39.5699 -39.5623 -39.5623
    14.3054  14.3054  15.6782  15.6782  17.8144  17.8144  18.4272  18.4272
    19.0855  19.0855  20.6388  20.6388  26.9799

     occupation numbers 
     1.0000   1.0000   1.0000   1.0000   1.0000   1.0000   1.0000   1.0000
     1.0000   1.0000   1.0000   1.0000   0.9680   0.9680   0.8377   0.8377
     0.5215   0.5215   0.0161   0.0161   0.0000

          k = 0.0667 0.1155 0.0000 (  2799 PWs)   bands (ev):

   -76.4008 -76.3430 -39.8157 -39.5557 -39.5375 -39.5055 -39.4820 -39.4806
    10.4755  14.4172  16.5804  17.1448  17.1692  17.2056  17.2192  17.4913
    17.5129  17.7420  18.9013  20.8241  25.8653

     occupation numbers 
     1.0000   1.0000   1.0000   1.0000   1.0000   1.0000   1.0000   1.0000
     1.0000   1.0000   0.9998   0.9974   0.9971   0.9967   0.9965   0.9895
     0.9886   0.9746   0.6234   0.0081   0.0000

          k = 0.0667 0.1155 0.0768 (  2798 PWs)   bands (ev):

   -76.3986 -76.3452 -39.8039 -39.5531 -39.5360 -39.5152 -39.4864 -39.4827
    10.6286  14.3776  16.5893  16.8594  17.0534  17.1301  17.3269  17.4386
    17.7025  17.7982  18.8851  20.3332  26.8221

     occupation numbers 
     1.0000   1.0000   1.0000   1.0000   1.0000   1.0000   1.0000   1.0000
     1.0000   1.0000   0.9998   0.9993   0.9983   0.9976   0.9945   0.9914
     0.9778   0.9696   0.6321   0.0436   0.0000

          k = 0.0667 0.1155 0.1537 (  2799 PWs)   bands (ev):

   -76.3924 -76.3515 -39.7702 -39.5503 -39.5458 -39.5273 -39.4958 -39.4887
    11.0776  14.1606  16.4649  16.6275  16.7918  17.0503  17.2629  17.3272
    17.9925  18.0032  18.8246  19.5808  28.9627

     occupation numbers 
     1.0000   1.0000   1.0000   1.0000   1.0000   1.0000   1.0000   1.0000
     1.0000   1.0000   0.9999   0.9998   0.9995   0.9983   0.9957   0.9945
     0.9452   0.9435   0.6638   0.2590   0.0000

          k = 0.0667 0.1155 0.2305 (  2796 PWs)   bands (ev):

   -76.3830 -76.3609 -39.7196 -39.5999 -39.5349 -39.5201 -39.5069 -39.4975
    11.7866  13.5630  16.2367  16.5228  16.7159  17.0199  17.0786  17.1952
    18.2535  18.3314  18.7001  19.0572  31.6087

     occupation numbers 
     1.0000   1.0000   1.0000   1.0000   1.0000   1.0000   1.0000   1.0000
     1.0000   1.0000   1.0000   0.9999   0.9997   0.9985   0.9981   0.9968
     0.8908   0.8687   0.7254   0.5375   0.0000

          k = 0.0667 0.1155-0.3074 (  2810 PWs)   bands (ev):

   -76.3720 -76.3720 -39.6597 -39.6597 -39.5225 -39.5225 -39.5074 -39.5074
    12.6742  12.6742  16.3013  16.3013  16.8639  16.8639  17.0883  17.0883
    18.4997  18.4997  18.6787  18.6787  34.5117

     occupation numbers 
     1.0000   1.0000   1.0000   1.0000   1.0000   1.0000   1.0000   1.0000
     1.0000   1.0000   1.0000   1.0000   0.9993   0.9993   0.9980   0.9980
     0.8112   0.8112   0.7354   0.7354   0.0000

          k = 0.0667 0.1925 0.0000 (  2795 PWs)   bands (ev):

   -76.3926 -76.3394 -39.7971 -39.5929 -39.5623 -39.5339 -39.4900 -39.4894
    11.0781  14.7362  16.3370  16.4982  17.0450  17.3035  17.4144  17.5015
    17.6340  17.7979  18.9442  22.0446  25.9721

     occupation numbers 
     1.0000   1.0000   1.0000   1.0000   1.0000   1.0000   1.0000   1.0000
     1.0000   1.0000   1.0000   0.9999   0.9984   0.9950   0.9922   0.9891
     0.9824   0.9696   0.6002   0.0000   0.0000

          k = 0.0667 0.1925 0.0768 (  2795 PWs)   bands (ev):

   -76.3906 -76.3414 -39.7875 -39.5894 -39.5651 -39.5382 -39.4943 -39.4914
    11.2235  14.7206  16.3201  16.3608  17.0094  17.1825  17.3617  17.5714
    17.7890  17.8207  18.9219  21.3426  27.0672

     occupation numbers 
     1.0000   1.0000   1.0000   1.0000   1.0000   1.0000   1.0000   1.0000
     1.0000   1.0000   1.0000   1.0000   0.9986   0.9970   0.9936   0.9859
     0.9705   0.9673   0.6123   0.0009   0.0000

          k = 0.0667 0.1925 0.1537 (  2790 PWs)   bands (ev):

   -76.3848 -76.3472 -39.7603 -39.5864 -39.5769 -39.5399 -39.5053 -39.4978
    11.6488  14.5561  16.0180  16.4278  16.7606  17.1582  17.2339  17.5503
    17.9995  18.0624  18.8471  20.2628  29.3191

     occupation numbers 
     1.0000   1.0000   1.0000   1.0000   1.0000   1.0000   1.0000   1.0000
     1.0000   1.0000   1.0000   0.9999   0.9996   0.9973   0.9962   0.9870
     0.9441   0.9333   0.6522   0.0536   0.0000

          k = 0.0667 0.1925 0.2305 (  2794 PWs)   bands (ev):

   -76.3762 -76.3558 -39.7194 -39.6237 -39.5625 -39.5355 -39.5187 -39.5073
    12.3178  13.9932  15.9526  16.4154  16.6011  16.9892  17.2392  17.4270
    18.2547  18.4131  18.7110  19.4406  32.0028

     occupation numbers 
     1.0000   1.0000   1.0000   1.0000   1.0000   1.0000   1.0000   1.0000
     1.0000   1.0000   1.0000   0.9999   0.9998   0.9987   0.9962   0.9918
     0.8904   0.8425   0.7202   0.3270   0.0000

          k = 0.0667 0.1925-0.3074 (  2802 PWs)   bands (ev):

   -76.3660 -76.3660 -39.6713 -39.6713 -39.5449 -39.5449 -39.5175 -39.5175
    13.1526  13.1526  16.1414  16.1414  16.7750  16.7750  17.3106  17.3106
    18.4957  18.4957  18.8674  18.8674  34.9013

     occupation numbers 
     1.0000   1.0000   1.0000   1.0000   1.0000   1.0000   1.0000   1.0000
     1.0000   1.0000   1.0000   1.0000   0.9996   0.9996   0.9948   0.9948
     0.8128   0.8128   0.6415   0.6415   0.0000

          k = 0.0667 0.2694 0.0000 (  2782 PWs)   bands (ev):

   -76.3817 -76.3350 -39.7714 -39.6426 -39.6043 -39.5583 -39.5021 -39.5000
    11.9214  15.0320  15.9291  16.1301  16.9406  17.1190  17.4803  17.7038
    17.9031  18.1843  18.9864  23.4333  26.1638

     occupation numbers 
     1.0000   1.0000   1.0000   1.0000   1.0000   1.0000   1.0000   1.0000
     1.0000   1.0000   1.0000   1.0000   0.9990   0.9977   0.9899   0.9777
     0.9578   0.9080   0.5770   0.0000   0.0000

          k = 0.0667 0.2694 0.0768 (  2786 PWs)   bands (ev):

   -76.3800 -76.3368 -39.7664 -39.6367 -39.6098 -39.5586 -39.5061 -39.5014
    12.0507  15.0485  15.8137  16.1651  16.8536  17.1608  17.3887  17.7766
    17.9942  18.1583  18.9605  22.4314  27.4888

     occupation numbers 
     1.0000   1.0000   1.0000   1.0000   1.0000   1.0000   1.0000   1.0000
     1.0000   1.0000   1.0000   1.0000   0.9993   0.9972   0.9929   0.9716
     0.9449   0.9139   0.5913   0.0000   0.0000

          k = 0.0667 0.2694 0.1537 (  2785 PWs)   bands (ev):

   -76.3749 -76.3419 -39.7514 -39.6350 -39.6130 -39.5558 -39.5162 -39.5078
    12.4264  14.9476  15.6428  16.2507  16.6728  17.1499  17.3128  17.8327
    18.1679  18.2180  18.8806  21.0283  29.8553

     occupation numbers 
     1.0000   1.0000   1.0000   1.0000   1.0000   1.0000   1.0000   1.0000
     1.0000   1.0000   1.0000   1.0000   0.9997   0.9974   0.9948   0.9661
     0.9118   0.8999   0.6345   0.0035   0.0000

          k = 0.0667 0.2694 0.2305 (  2786 PWs)   bands (ev):

   -76.3673 -76.3495 -39.7273 -39.6631 -39.5897 -39.5505 -39.5305 -39.5185
    13.0087  14.4384  15.7548  16.2665  16.5586  16.9610  17.4045  17.7178
    18.3543  18.5505  18.7546  19.9109  32.5007

     occupation numbers 
     1.0000   1.0000   1.0000   1.0000   1.0000   1.0000   1.0000   1.0000
     1.0000   1.0000   1.0000   1.0000   0.9999   0.9989   0.9925   0.9766
     0.8617   0.7912   0.6992   0.1328   0.0000

          k = 0.0667 0.2694-0.3074 (  2794 PWs)   bands (ev):

   -76.3584 -76.3584 -39.6964 -39.6964 -39.5635 -39.5635 -39.5300 -39.5300
    13.7214  13.7214  16.0198  16.0198  16.7283  16.7283  17.5522  17.5522
    18.5548  18.5548  19.1165  19.1165  34.5227

     occupation numbers 
     1.0000   1.0000   1.0000   1.0000   1.0000   1.0000   1.0000   1.0000
     1.0000   1.0000   1.0000   1.0000   0.9996   0.9996   0.9869   0.9869
     0.7894   0.7894   0.5041   0.5041   0.0000

          k = 0.0667 0.3464 0.0000 (  2802 PWs)   bands (ev):

   -76.3698 -76.3310 -39.7413 -39.6958 -39.6516 -39.5789 -39.5181 -39.5110
    12.8999  15.0847  15.4808  16.0943  16.9617  16.9731  17.3023  18.0970
    18.3358  18.6540  19.0191  24.9456  26.3685

     occupation numbers 
     1.0000   1.0000   1.0000   1.0000   1.0000   1.0000   1.0000   1.0000
     1.0000   1.0000   1.0000   1.0000   0.9989   0.9988   0.9950   0.9267
     0.8674   0.7467   0.5588   0.0000   0.0000

          k = 0.0667 0.3464 0.0768 (  2794 PWs)   bands (ev):

   -76.3683 -76.3325 -39.7487 -39.6814 -39.6561 -39.5775 -39.5205 -39.5123
    12.9958  15.1123  15.4315  16.1159  16.8196  17.1171  17.3134  18.1030
    18.3809  18.5821  19.0096  23.5184  28.0155

     occupation numbers 
     1.0000   1.0000   1.0000   1.0000   1.0000   1.0000   1.0000   1.0000
     1.0000   1.0000   1.0000   1.0000   0.9994   0.9977   0.9948   0.9255
     0.8532   0.7781   0.5641   0.0000   0.0000

          k = 0.0667 0.3464 0.1537 (  2796 PWs)   bands (ev):

   -76.3641 -76.3367 -39.7546 -39.6847 -39.6390 -39.5721 -39.5289 -39.5175
    13.2692  15.0152  15.4394  16.1750  16.7053  17.2549  17.3183  18.1249
    18.4548  18.5085  18.9664  21.8422  30.0800

     occupation numbers 
     1.0000   1.0000   1.0000   1.0000   1.0000   1.0000   1.0000   1.0000
     1.0000   1.0000   1.0000   1.0000   0.9997   0.9959   0.9947   0.9211
     0.8279   0.8078   0.5880   0.0001   0.0000

          k = 0.0667 0.3464 0.2305 (  2791 PWs)   bands (ev):

   -76.3578 -76.3430 -39.7494 -39.7092 -39.6041 -39.5637 -39.5421 -39.5284
    13.6789  14.6405  15.6554  16.1399  16.7389  17.1590  17.4792  17.9745
    18.5635  18.7562  18.9050  20.4661  31.1061

     occupation numbers 
     1.0000   1.0000   1.0000   1.0000   1.0000   1.0000   1.0000   1.0000
     1.0000   1.0000   1.0000   1.0000   0.9996   0.9973   0.9900   0.9479
     0.7859   0.6984   0.6214   0.0288   0.0000

          k = 0.0667 0.3464-0.3074 (  2800 PWs)   bands (ev):

   -76.3504 -76.3504 -39.7331 -39.7331 -39.5736 -39.5736 -39.5419 -39.5419
    14.1616  14.1616  15.9264  15.9264  16.9440  16.9440  17.7134  17.7134
    18.7281  18.7281  19.4472  19.4472  31.9879

     occupation numbers 
     1.0000   1.0000   1.0000   1.0000   1.0000   1.0000   1.0000   1.0000
     1.0000   1.0000   1.0000   1.0000   0.9990   0.9990   0.9769   0.9769
     0.7121   0.7121   0.3237   0.3237   0.0000

          k = 0.0667 0.4234 0.0000 (  2799 PWs)   bands (ev):

   -76.3586 -76.3284 -39.7426 -39.7103 -39.6931 -39.5954 -39.5367 -39.5206
    13.8057  14.9395  15.1613  16.2213  16.8511  17.1316  17.1432  18.5553
    18.7160  19.0403  19.2509  25.8255  26.5434

     occupation numbers 
     1.0000   1.0000   1.0000   1.0000   1.0000   1.0000   1.0000   1.0000
     1.0000   1.0000   1.0000   1.0000   0.9993   0.9976   0.9975   0.7892
     0.7179   0.5470   0.4286   0.0000   0.0000

          k = 0.0667 0.4234 0.0768 (  2798 PWs)   bands (ev):

   -76.3574 -76.3295 -39.7594 -39.7068 -39.6801 -39.5931 -39.5370 -39.5223
    13.8321  14.9427  15.2312  16.0995  16.9002  17.1439  17.3211  18.5242
    18.7463  18.9074  19.2696  24.3477  27.4815

     occupation numbers 
     1.0000   1.0000   1.0000   1.0000   1.0000   1.0000   1.0000   1.0000
     1.0000   1.0000   1.0000   1.0000   0.9992   0.9974   0.9946   0.8017
     0.7032   0.6201   0.4182   0.0000   0.0000

          k = 0.0667 0.4234 0.1537 (  2791 PWs)   bands (ev):

   -76.3541 -76.3328 -39.7757 -39.7264 -39.6425 -39.5853 -39.5421 -39.5266
    13.9232  14.8744  15.3767  16.0186  16.9290  17.2655  17.6636  18.4148
    18.6825  18.8447  19.2501  22.6278  28.0992

     occupation numbers 
     1.0000   1.0000   1.0000   1.0000   1.0000   1.0000   1.0000   1.0000
     1.0000   1.0000   1.0000   1.0000   0.9990   0.9957   0.9805   0.8420
     0.7337   0.6534   0.4291   0.0000   0.0000

          k = 0.0667 0.4234 0.2305 (  2799 PWs)   bands (ev):

   -76.3493 -76.3377 -39.7795 -39.7505 -39.6063 -39.5735 -39.5533 -39.5356
    14.0957  14.6383  15.5819  15.9950  17.0862  17.4704  17.7975  18.1276
    18.7403  18.9935  19.3003  21.1358  28.7470

     occupation numbers 
     1.0000   1.0000   1.0000   1.0000   1.0000   1.0000   1.0000   1.0000
     1.0000   1.0000   1.0000   1.0000   0.9980   0.9903   0.9696   0.9205
     0.7062   0.5731   0.4014   0.0022   0.0000

          k = 0.0667 0.4234-0.3074 (  2804 PWs)   bands (ev):

   -76.3435 -76.3435 -39.7701 -39.7701 -39.5791 -39.5791 -39.5501 -39.5501
    14.3463  14.3463  15.8224  15.8224  17.4218  17.4218  17.8381  17.8381
    18.9234  18.9234  19.9720  19.9720  29.5576

     occupation numbers 
     1.0000   1.0000   1.0000   1.0000   1.0000   1.0000   1.0000   1.0000
     1.0000   1.0000   1.0000   1.0000   0.9920   0.9920   0.9655   0.9655
     0.6115   0.6115   0.1151   0.1151   0.0000

          k = 0.0667 0.5004 0.0000 (  2786 PWs)   bands (ev):

   -76.3501 -76.3275 -39.7745 -39.7213 -39.6841 -39.6063 -39.5545 -39.5272
    14.3778  14.7776  14.9708  16.4747  16.7957  17.0008  17.3006  18.9046
    18.9850  19.0514  20.1286  24.0676  28.1216

     occupation numbers 
     1.0000   1.0000   1.0000   1.0000   1.0000   1.0000   1.0000   1.0000
     1.0000   1.0000   1.0000   0.9999   0.9995   0.9987   0.9950   0.6216
     0.5777   0.5407   0.0776   0.0000   0.0000

          k = 0.0667 0.5004 0.0768 (  2801 PWs)   bands (ev):

   -76.3492 -76.3283 -39.7841 -39.7315 -39.6674 -39.6029 -39.5528 -39.5292
    14.2883  14.7656  15.2025  16.0997  16.8525  17.3131  17.4488  18.8498
    18.9881  18.9983  20.0650  23.7591  27.3967

     occupation numbers 
     1.0000   1.0000   1.0000   1.0000   1.0000   1.0000   1.0000   1.0000
     1.0000   1.0000   1.0000   1.0000   0.9993   0.9948   0.9911   0.6508
     0.5760   0.5704   0.0916   0.0000   0.0000

          k = 0.0667 0.5004 0.1537 (  2801 PWs)   bands (ev):

   -76.3467 -76.3308 -39.7984 -39.7541 -39.6354 -39.5925 -39.5538 -39.5335
    14.1976  14.7634  15.4770  15.8330  16.9328  17.4424  18.0622  18.5865
    18.9191  19.0642  19.9195  22.8759  26.9738

     occupation numbers 
     1.0000   1.0000   1.0000   1.0000   1.0000   1.0000   1.0000   1.0000
     1.0000   1.0000   1.0000   1.0000   0.9990   0.9913   0.9333   0.7763
     0.6138   0.5335   0.1302   0.0000   0.0000

          k = 0.0667 0.5004 0.2305 (  2803 PWs)   bands (ev):

   -76.3431 -76.3344 -39.8038 -39.7786 -39.6056 -39.5764 -39.5629 -39.5403
    14.2261  14.6089  15.5600  15.8728  17.1720  17.7554  18.1098  18.4367
    18.9016  19.1245  20.0032  21.7462  27.1147

     occupation numbers 
     1.0000   1.0000   1.0000   1.0000   1.0000   1.0000   1.0000   1.0000
     1.0000   1.0000   1.0000   1.0000   0.9971   0.9735   0.9242   0.8344
     0.6233   0.4995   0.1068   0.0001   0.0000

          k = 0.0667 0.5004-0.3074 (  2798 PWs)   bands (ev):

   -76.3388 -76.3388 -39.7968 -39.7968 -39.5831 -39.5831 -39.5538 -39.5538
    14.3800  14.3800  15.7410  15.7410  17.6179  17.6179  18.1886  18.1886
    19.0153  19.0153  20.7061  20.7061  27.6253

     occupation numbers 
     1.0000   1.0000   1.0000   1.0000   1.0000   1.0000   1.0000   1.0000
     1.0000   1.0000   1.0000   1.0000   0.9834   0.9834   0.9070   0.9070
     0.5609   0.5609   0.0126   0.0126   0.0000

          k = 0.0667 0.5774 0.0000 (  2796 PWs)   bands (ev):

   -76.3467 -76.3275 -39.7858 -39.7312 -39.6728 -39.6101 -39.5628 -39.5296
    14.5973  14.6610  14.9075  16.6258  16.7834  16.9480  17.3566  19.0172
    19.0549  19.0915  20.9230  22.8595  29.0486

     occupation numbers 
     1.0000   1.0000   1.0000   1.0000   1.0000   1.0000   1.0000   1.0000
     1.0000   1.0000   1.0000   0.9998   0.9995   0.9990   0.9938   0.5598
     0.5388   0.5181   0.0055   0.0000   0.0000

          k = 0.0667 0.5774 0.0768 (  2804 PWs)   bands (ev):

   -76.3460 -76.3282 -39.7941 -39.7410 -39.6593 -39.6060 -39.5602 -39.5317
    14.4006  14.6908  15.2204  16.1122  16.8186  17.3749  17.5476  18.9165
    19.0583  19.0853  20.8190  22.7584  28.5045

     occupation numbers 
     1.0000   1.0000   1.0000   1.0000   1.0000   1.0000   1.0000   1.0000
     1.0000   1.0000   1.0000   1.0000   0.9994   0.9933   0.9871   0.6152
     0.5368   0.5216   0.0083   0.0000   0.0000

          k = 0.0667 0.5774 0.1537 (  2813 PWs)   bands (ev):

   -76.3439 -76.3303 -39.8074 -39.7639 -39.6316 -39.5937 -39.5593 -39.5361
    14.2464  14.7220  15.6436  15.6623  16.9103  17.5171  18.2193  18.6197
    19.0676  19.1104  20.5747  22.4332  27.6194

     occupation numbers 
     1.0000   1.0000   1.0000   1.0000   1.0000   1.0000   1.0000   1.0000
     1.0000   1.0000   1.0000   1.0000   0.9991   0.9885   0.8995   0.7620
     0.5316   0.5075   0.0201   0.0000   0.0000

          k = 0.0667 0.5774 0.2305 (  2804 PWs)   bands (ev):

   -76.3408 -76.3334 -39.8130 -39.7885 -39.6056 -39.5742 -39.5684 -39.5421
    14.2424  14.5963  15.5629  15.8237  17.1709  17.8845  18.1280  18.6240
    19.0418  19.1092  20.5686  21.8636  27.0101

     occupation numbers 
     1.0000   1.0000   1.0000   1.0000   1.0000   1.0000   1.0000   1.0000
     1.0000   1.0000   1.0000   1.0000   0.9971   0.9602   0.9204   0.7601
     0.5461   0.5081   0.0205   0.0001   0.0000

          k = 0.0667 0.5774-0.3074 (  2794 PWs)   bands (ev):

   -76.3371 -76.3371 -39.8064 -39.8064 -39.5848 -39.5848 -39.5546 -39.5546
    14.3790  14.3790  15.7114  15.7114  17.6345  17.6345  18.3890  18.3890
    19.0250  19.0250  21.1401  21.1401  26.7961

     occupation numbers 
     1.0000   1.0000   1.0000   1.0000   1.0000   1.0000   1.0000   1.0000
     1.0000   1.0000   1.0000   1.0000   0.9824   0.9824   0.8506   0.8506
     0.5555   0.5555   0.0022   0.0022   0.0000

          k = 0.1333 0.2309 0.0000 (  2784 PWs)   bands (ev):

   -76.3834 -76.3357 -39.7754 -39.6267 -39.6069 -39.5488 -39.5039 -39.5001
    11.7918  15.0460  16.0297  16.0810  16.9762  17.0642  17.5525  17.5716
    17.8739  18.1858  18.9591  23.2318  26.1488

     occupation numbers 
     1.0000   1.0000   1.0000   1.0000   1.0000   1.0000   1.0000   1.0000
     1.0000   1.0000   1.0000   1.0000   0.9988   0.9982   0.9869   0.9859
     0.9614   0.9076   0.5920   0.0000   0.0000

          k = 0.1333 0.2309 0.0768 (  2784 PWs)   bands (ev):

   -76.3816 -76.3375 -39.7693 -39.6210 -39.6107 -39.5526 -39.5063 -39.5022
    11.9248  15.0621  15.8943  16.1099  16.9638  17.0121  17.4564  17.6429
    17.9968  18.1612  18.9403  22.2847  27.4315

     occupation numbers 
     1.0000   1.0000   1.0000   1.0000   1.0000   1.0000   1.0000   1.0000
     1.0000   1.0000   1.0000   1.0000   0.9989   0.9986   0.9908   0.9819
     0.9445   0.9133   0.6023   0.0000   0.0000

          k = 0.1333 0.2309 0.1537 (  2782 PWs)   bands (ev):

   -76.3764 -76.3427 -39.7516 -39.6263 -39.6052 -39.5566 -39.5129 -39.5099
    12.3124  14.9569  15.6845  16.1949  16.7399  17.0260  17.3353  17.7568
    18.1926  18.1977  18.8775  20.9305  29.7873

     occupation numbers 
     1.0000   1.0000   1.0000   1.0000   1.0000   1.0000   1.0000   1.0000
     1.0000   1.0000   1.0000   1.0000   0.9996   0.9985   0.9943   0.9734
     0.9060   0.9048   0.6361   0.0053   0.0000

          k = 0.1333 0.2309 0.2305 (  2789 PWs)   bands (ev):

   -76.3687 -76.3504 -39.7242 -39.6553 -39.5833 -39.5555 -39.5228 -39.5219
    12.9161  14.4173  15.7815  16.2681  16.5283  16.8685  17.3883  17.6794
    18.3901  18.5014  18.7755  19.8524  32.4796

     occupation numbers 
     1.0000   1.0000   1.0000   1.0000   1.0000   1.0000   1.0000   1.0000
     1.0000   1.0000   1.0000   1.0000   0.9999   0.9993   0.9929   0.9794
     0.8502   0.8106   0.6888   0.1514   0.0000

          k = 0.1333 0.2309-0.3074 (  2800 PWs)   bands (ev):

   -76.3595 -76.3595 -39.6903 -39.6903 -39.5623 -39.5623 -39.5290 -39.5290
    13.6608  13.6608  16.0479  16.0479  16.6457  16.6457  17.5269  17.5269
    18.5729  18.5729  19.0840  19.0840  35.2518

     occupation numbers 
     1.0000   1.0000   1.0000   1.0000   1.0000   1.0000   1.0000   1.0000
     1.0000   1.0000   1.0000   1.0000   0.9998   0.9998   0.9880   0.9880
     0.7820   0.7820   0.5224   0.5224   0.0000

          k = 0.1333 0.3079 0.0000 (  2787 PWs)   bands (ev):

   -76.3724 -76.3318 -39.7480 -39.6698 -39.6494 -39.5708 -39.5197 -39.5143
    12.6990  15.2624  15.6166  15.8813  16.8727  16.9657  17.4316  17.7914
    18.3078  18.6803  18.9710  24.6186  26.4394

     occupation numbers 
     1.0000   1.0000   1.0000   1.0000   1.0000   1.0000   1.0000   1.0000
     1.0000   1.0000   1.0000   1.0000   0.9993   0.9989   0.9916   0.9702
     0.8757   0.7347   0.5855   0.0000   0.0000

          k = 0.1333 0.3079 0.0768 (  2792 PWs)   bands (ev):

   -76.3708 -76.3334 -39.7494 -39.6628 -39.6495 -39.5739 -39.5229 -39.5136
    12.8083  15.3116  15.5209  15.9213  16.8076  17.0206  17.3585  17.8367
    18.3792  18.5852  18.9970  23.3293  28.0009

     occupation numbers 
     1.0000   1.0000   1.0000   1.0000   1.0000   1.0000   1.0000   1.0000
     1.0000   1.0000   1.0000   1.0000   0.9995   0.9985   0.9937   0.9656
     0.8538   0.7768   0.5711   0.0000   0.0000

          k = 0.1333 0.3079 0.1537 (  2790 PWs)   bands (ev):

[...]
    19.4562  19.7753  20.2610  21.6240  31.6904

     occupation numbers 
     1.0000   1.0000   1.0000   1.0000   1.0000   1.0000   1.0000   1.0000
     1.0000   1.0000   0.9999   0.9999   0.9970   0.9953   0.9353   0.7323
     0.3191   0.1784   0.0539   0.0002   0.0000

          k = 0.2000 0.3464-0.3074 (  2802 PWs)   bands (ev):

   -75.5042 -75.5042 -38.9314 -38.9314 -38.7805 -38.7805 -38.7254 -38.7254
    14.8214  14.8214  16.5779  16.5779  17.1019  17.1019  18.3451  18.3451
    19.7810  19.7810  20.6354  20.6354  32.4727

     occupation numbers 
     1.0000   1.0000   1.0000   1.0000   1.0000   1.0000   1.0000   1.0000
     1.0000   1.0000   0.9998   0.9998   0.9979   0.9979   0.8646   0.8646
     0.1763   0.1763   0.0163   0.0163   0.0000

          k = 0.2000 0.4234 0.0000 (  2810 PWs)   bands (ev):

   -75.5109 -75.4857 -38.9186 -38.8927 -38.8731 -38.8028 -38.7474 -38.7274
    14.6002  15.6875  15.8356  16.1667  17.2450  17.7603  17.8814  18.9357
    19.7170  19.7207  20.7423  26.9524  27.8427

     occupation numbers 
     1.0000   1.0000   1.0000   1.0000   1.0000   1.0000   1.0000   1.0000
     1.0000   1.0000   1.0000   1.0000   0.9961   0.9731   0.9605   0.6048
     0.2007   0.1993   0.0110   0.0000   0.0000

          k = 0.2000 0.4234 0.0768 (  2804 PWs)   bands (ev):

   -75.5099 -75.4866 -38.9287 -38.9087 -38.8457 -38.8072 -38.7506 -38.7211
    14.6425  15.6436  15.8949  16.2372  17.2773  17.6687  17.8998  18.9560
    19.5770  19.7706  20.7965  25.6114  28.3362

     occupation numbers 
     1.0000   1.0000   1.0000   1.0000   1.0000   1.0000   1.0000   1.0000
     1.0000   1.0000   1.0000   1.0000   0.9955   0.9802   0.9583   0.5937
     0.2608   0.1801   0.0090   0.0000   0.0000

          k = 0.2000 0.4234 0.1537 (  2802 PWs)   bands (ev):

   -75.5072 -75.4894 -38.9472 -38.9227 -38.8215 -38.8028 -38.7548 -38.7127
    14.7625  15.5340  16.0468  16.4323  17.2780  17.4781  17.9638  18.9976
    19.3202  19.8807  20.9116  23.9691  28.8156

     occupation numbers 
     1.0000   1.0000   1.0000   1.0000   1.0000   1.0000   1.0000   1.0000
     1.0000   1.0000   1.0000   0.9999   0.9955   0.9900   0.9495   0.5708
     0.3905   0.1422   0.0057   0.0000   0.0000

          k = 0.2000 0.4234 0.2305 (  2795 PWs)   bands (ev):

   -75.5031 -75.4935 -38.9561 -38.9392 -38.8140 -38.7940 -38.7453 -38.7131
    14.9417  15.3635  16.2864  16.6480  17.1173  17.3296  18.1021  18.7119
    19.5092  19.9421  21.1101  22.5832  29.4868

     occupation numbers 
     1.0000   1.0000   1.0000   1.0000   1.0000   1.0000   1.0000   1.0000
     1.0000   1.0000   1.0000   0.9998   0.9977   0.9944   0.9257   0.7198
     0.2928   0.1235   0.0025   0.0000   0.0000

          k = 0.2000 0.4234-0.3074 (  2798 PWs)   bands (ev):

   -75.4983 -75.4983 -38.9525 -38.9525 -38.8030 -38.8030 -38.7254 -38.7254
    15.1537  15.1537  16.5647  16.5647  17.1554  17.1554  18.3534  18.3534
    19.8306  19.8306  21.6028  21.6028  30.3274

     occupation numbers 
     1.0000   1.0000   1.0000   1.0000   1.0000   1.0000   1.0000   1.0000
     1.0000   1.0000   0.9999   0.9999   0.9973   0.9973   0.8620   0.8620
     0.1587   0.1587   0.0002   0.0002   0.0000

          k = 0.2000 0.5004 0.0000 (  2805 PWs)   bands (ev):

   -75.5027 -75.4858 -38.9429 -38.8963 -38.8455 -38.8278 -38.7611 -38.7477
    15.2332  15.5908  15.6697  16.3100  17.2365  17.5569  18.0550  19.2647
    19.7062  19.7860  21.6942  25.2350  28.8050

     occupation numbers 
     1.0000   1.0000   1.0000   1.0000   1.0000   1.0000   1.0000   1.0000
     1.0000   1.0000   1.0000   1.0000   0.9962   0.9866   0.9346   0.4209
     0.2050   0.1745   0.0001   0.0000   0.0000

          k = 0.2000 0.5004 0.0768 (  2808 PWs)   bands (ev):

   -75.5021 -75.4864 -38.9488 -38.9089 -38.8448 -38.8142 -38.7674 -38.7369
    15.1749  15.6770  15.7409  16.2921  17.2565  17.5381  18.0824  19.2704
    19.5632  19.8259  21.7519  25.0782  28.0802

     occupation numbers 
     1.0000   1.0000   1.0000   1.0000   1.0000   1.0000   1.0000   1.0000
     1.0000   1.0000   1.0000   1.0000   0.9959   0.9875   0.9296   0.4178
     0.2671   0.1603   0.0001   0.0000   0.0000

          k = 0.2000 0.5004 0.1537 (  2798 PWs)   bands (ev):

   -75.5002 -75.4883 -38.9613 -38.9305 -38.8444 -38.7944 -38.7675 -38.7228
    15.1329  15.6648  15.9442  16.4288  17.1551  17.5475  18.1758  19.1535
    19.3883  19.8992  21.9102  24.4646  27.5477

     occupation numbers 
     1.0000   1.0000   1.0000   1.0000   1.0000   1.0000   1.0000   1.0000
     1.0000   1.0000   1.0000   0.9999   0.9973   0.9871   0.9100   0.4832
     0.3541   0.1364   0.0000   0.0000   0.0000

          k = 0.2000 0.5004 0.2305 (  2794 PWs)   bands (ev):

   -75.4975 -75.4910 -38.9692 -38.9517 -38.8352 -38.8035 -38.7439 -38.7171
    15.1796  15.4976  16.2154  16.7326  16.9570  17.4854  18.3134  18.7762
    19.5450  19.9057  22.2025  23.5433  27.7245

     occupation numbers 
     1.0000   1.0000   1.0000   1.0000   1.0000   1.0000   1.0000   1.0000
     1.0000   1.0000   1.0000   0.9996   0.9989   0.9897   0.8741   0.6884
     0.2757   0.1344   0.0000   0.0000   0.0000

          k = 0.2000 0.5004-0.3074 (  2794 PWs)   bands (ev):

   -75.4943 -75.4943 -38.9660 -38.9660 -38.8199 -38.8199 -38.7243 -38.7243
    15.3117  15.3117  16.5322  16.5322  17.2308  17.2308  18.4896  18.4896
    19.7712  19.7712  22.7327  22.7327  28.3227

     occupation numbers 
     1.0000   1.0000   1.0000   1.0000   1.0000   1.0000   1.0000   1.0000
     1.0000   1.0000   0.9999   0.9999   0.9963   0.9963   0.8151   0.8151
     0.1799   0.1799   0.0000   0.0000   0.0000

          k = 0.2000 0.5774 0.0000 (  2804 PWs)   bands (ev):

   -75.4992 -75.4864 -38.9513 -38.8955 -38.8389 -38.8322 -38.7658 -38.7585
    15.4340  15.5594  15.6003  16.4090  17.2760  17.4418  18.1232  19.4856
    19.7011  19.7170  22.5522  23.9705  28.7660

     occupation numbers 
     1.0000   1.0000   1.0000   1.0000   1.0000   1.0000   1.0000   1.0000
     1.0000   1.0000   1.0000   0.9999   0.9955   0.9913   0.9215   0.3044
     0.2071   0.2007   0.0000   0.0000   0.0000

          k = 0.2000 0.5774 0.0768 (  2803 PWs)   bands (ev):

   -75.4987 -75.4869 -38.9566 -38.9066 -38.8534 -38.8046 -38.7764 -38.7444
    15.2727  15.6449  15.8383  16.2923  17.2329  17.5201  18.1575  19.4913
    19.5471  19.7549  22.6237  23.9445  28.7098

     occupation numbers 
     1.0000   1.0000   1.0000   1.0000   1.0000   1.0000   1.0000   1.0000
     1.0000   1.0000   1.0000   1.0000   0.9963   0.9883   0.9141   0.3016
     0.2746   0.1860   0.0000   0.0000   0.0000

          k = 0.2000 0.5774 0.1537 (  2802 PWs)   bands (ev):

   -75.4974 -75.4883 -38.9676 -38.9310 -38.8543 -38.7905 -38.7707 -38.7277
    15.1843  15.7066  16.1234  16.2660  17.0871  17.6247  18.2686  19.1913
    19.5189  19.8150  22.8081  23.8552  28.1785

     occupation numbers 
     1.0000   1.0000   1.0000   1.0000   1.0000   1.0000   1.0000   1.0000
     1.0000   1.0000   1.0000   1.0000   0.9980   0.9830   0.8867   0.4619
     0.2881   0.1641   0.0000   0.0000   0.0000

          k = 0.2000 0.5774 0.2305 (  2802 PWs)   bands (ev):

   -75.4953 -75.4904 -38.9744 -38.9550 -38.8433 -38.8076 -38.7418 -38.7193
    15.2157  15.5620  16.2384  16.7272  16.8667  17.5654  18.4296  18.8268
    19.5943  19.8152  23.0744  23.6735  27.5620

     occupation numbers 
     1.0000   1.0000   1.0000   1.0000   1.0000   1.0000   1.0000   1.0000
     1.0000   1.0000   1.0000   0.9996   0.9993   0.9862   0.8369   0.6627
     0.2528   0.1640   0.0000   0.0000   0.0000

          k = 0.2000 0.5774-0.3074 (  2788 PWs)   bands (ev):

   -75.4928 -75.4928 -38.9706 -38.9706 -38.8262 -38.8262 -38.7238 -38.7238
    15.3538  15.3538  16.5215  16.5215  17.2453  17.2453  18.5953  18.5953
    19.7182  19.7182  23.3911  23.3911  27.3634

     occupation numbers 
     1.0000   1.0000   1.0000   1.0000   1.0000   1.0000   1.0000   1.0000
     1.0000   1.0000   0.9999   0.9999   0.9961   0.9961   0.7726   0.7726
     0.2002   0.2002   0.0000   0.0000   0.0000

          k = 0.2667 0.4619 0.0000 (  2828 PWs)   bands (ev):

   -75.5023 -75.4858 -38.9275 -38.8971 -38.8441 -38.8292 -38.7776 -38.7488
    15.3108  15.6382  15.9606  15.9857  17.1750  17.5638  18.0747  19.1071
    19.6747  19.7862  21.7253  26.6695  27.1484

     occupation numbers 
     1.0000   1.0000   1.0000   1.0000   1.0000   1.0000   1.0000   1.0000
     1.0000   1.0000   1.0000   1.0000   0.9971   0.9863   0.9310   0.5094
     0.2179   0.1744   0.0001   0.0000   0.0000

          k = 0.2667 0.4619 0.0768 (  2811 PWs)   bands (ev):

   -75.5017 -75.4865 -38.9287 -38.9155 -38.8381 -38.8246 -38.7781 -38.7392
    15.3316  15.6060  15.9838  16.0984  17.2201  17.4650  18.0727  19.1313
    19.5288  19.8273  21.8030  26.1912  27.3116

     occupation numbers 
     1.0000   1.0000   1.0000   1.0000   1.0000   1.0000   1.0000   1.0000
     1.0000   1.0000   1.0000   1.0000   0.9964   0.9905   0.9314   0.4957
     0.2833   0.1598   0.0001   0.0000   0.0000

          k = 0.2667 0.4619 0.1537 (  2805 PWs)   bands (ev):

   -75.4999 -75.4882 -38.9399 -38.9350 -38.8483 -38.8091 -38.7676 -38.7239
    15.3789  15.5623  16.0820  16.3602  17.2167  17.2810  18.0836  19.0872
    19.3298  19.9013  22.0046  25.0324  27.7743

     occupation numbers 
     1.0000   1.0000   1.0000   1.0000   1.0000   1.0000   1.0000   1.0000
     1.0000   1.0000   1.0000   1.0000   0.9965   0.9954   0.9293   0.5205
     0.3853   0.1357   0.0000   0.0000   0.0000

          k = 0.2667 0.4619 0.2305 (  2791 PWs)   bands (ev):

   -75.4972 -75.4909 -38.9542 -38.9469 -38.8454 -38.8179 -38.7422 -38.7169
    15.4316  15.5253  16.2843  16.6860  16.9023  17.2254  18.1601  18.7015
    19.5343  19.9113  22.3410  23.8408  28.4649

     occupation numbers 
     1.0000   1.0000   1.0000   1.0000   1.0000   1.0000   1.0000   1.0000
     1.0000   1.0000   1.0000   0.9997   0.9992   0.9964   0.9135   0.7248
     0.2807   0.1327   0.0000   0.0000   0.0000

          k = 0.2667 0.4619-0.3074 (  2796 PWs)   bands (ev):

   -75.4941 -75.4941 -38.9557 -38.9557 -38.8329 -38.8329 -38.7231 -38.7231
    15.4822  15.4822  16.5695  16.5695  17.0110  17.0110  18.3617  18.3617
    19.7826  19.7826  22.9225  22.9225  29.2145

     occupation numbers 
     1.0000   1.0000   1.0000   1.0000   1.0000   1.0000   1.0000   1.0000
     1.0000   1.0000   0.9998   0.9998   0.9986   0.9986   0.8594   0.8594
     0.1757   0.1757   0.0000   0.0000   0.0000

          k = 0.2667 0.5389 0.0000 (  2821 PWs)   bands (ev):

   -75.4961 -75.4875 -38.9330 -38.8844 -38.8558 -38.8193 -38.7964 -38.7694
    15.6229  15.6514  15.8578  16.1337  17.1994  17.3843  18.2088  19.3344
    19.6491  19.6696  22.9672  24.9751  26.7030

     occupation numbers 
     1.0000   1.0000   1.0000   1.0000   1.0000   1.0000   1.0000   1.0000
     1.0000   1.0000   1.0000   1.0000   0.9967   0.9931   0.9021   0.3828
     0.2287   0.2200   0.0000   0.0000   0.0000

          k = 0.2667 0.5389 0.0768 (  2818 PWs)   bands (ev):

   -75.4958 -75.4878 -38.9341 -38.8991 -38.8681 -38.8078 -38.7929 -38.7561
    15.5484  15.7856  15.9190  16.1272  17.1946  17.3326  18.2081  19.3560
    19.4970  19.7022  23.0823  24.9995  26.7671

     occupation numbers 
     1.0000   1.0000   1.0000   1.0000   1.0000   1.0000   1.0000   1.0000
     1.0000   1.0000   1.0000   1.0000   0.9968   0.9943   0.9023   0.3712
     0.2988   0.2066   0.0000   0.0000   0.0000

          k = 0.2667 0.5389 0.1537 (  2805 PWs)   bands (ev):

   -75.4948 -75.4887 -38.9420 -38.9225 -38.8779 -38.8177 -38.7627 -38.7349
    15.5387  15.8982  16.0305  16.2365  17.1016  17.2519  18.2196  19.1196
    19.4450  19.7606  23.3687  24.9867  26.9193

     occupation numbers 
     1.0000   1.0000   1.0000   1.0000   1.0000   1.0000   1.0000   1.0000
     1.0000   1.0000   1.0000   1.0000   0.9979   0.9959   0.8995   0.5023
     0.3248   0.1839   0.0000   0.0000   0.0000

          k = 0.2667 0.5389 0.2305 (  2793 PWs)   bands (ev):

   -75.4934 -75.4901 -38.9524 -38.9425 -38.8703 -38.8345 -38.7362 -38.7216
    15.5973  15.8233  16.2425  16.4819  16.9263  17.1519  18.2767  18.7213
    19.5714  19.7737  23.7600  24.7261  27.1686

     occupation numbers 
     1.0000   1.0000   1.0000   1.0000   1.0000   1.0000   1.0000   1.0000
     1.0000   1.0000   1.0000   0.9999   0.9991   0.9974   0.8845   0.7153
     0.2633   0.1790   0.0000   0.0000   0.0000

          k = 0.2667 0.5389-0.3074 (  2794 PWs)   bands (ev):

   -75.4918 -75.4918 -38.9536 -38.9536 -38.8534 -38.8534 -38.7217 -38.7217
    15.7028  15.7028  16.4760  16.4760  16.9699  16.9699  18.4284  18.4284
    19.7025  19.7025  24.2412  24.2412  27.6611

     occupation numbers 
     1.0000   1.0000   1.0000   1.0000   1.0000   1.0000   1.0000   1.0000
     1.0000   1.0000   0.9999   0.9999   0.9988   0.9988   0.8373   0.8373
     0.2065   0.2065   0.0000   0.0000   0.0000

          k = 0.3333 0.5774 0.0000 (  2826 PWs)   bands (ev):

   -75.4909 -75.4909 -38.9247 -38.8718 -38.8718 -38.8159 -38.7936 -38.7936
    15.6420  15.8603  15.8603  16.0821  17.2510  17.2510  18.2812  19.4788
    19.4788  19.6280  24.1748  25.0295  25.0295

     occupation numbers 
     1.0000   1.0000   1.0000   1.0000   1.0000   1.0000   1.0000   1.0000
     1.0000   1.0000   1.0000   1.0000   0.9960   0.9960   0.8833   0.3078
     0.3078   0.2379   0.0000   0.0000   0.0000

          k = 0.3333 0.5774 0.0768 (  2817 PWs)   bands (ev):

   -75.4909 -75.4909 -38.9206 -38.8886 -38.8886 -38.8201 -38.7767 -38.7767
    15.6899  15.8935  15.8935  16.0983  17.2106  17.2106  18.2671  19.4708
    19.5087  19.5087  24.4142  25.0588  25.0588

     occupation numbers 
     1.0000   1.0000   1.0000   1.0000   1.0000   1.0000   1.0000   1.0000
     1.0000   1.0000   1.0000   1.0000   0.9966   0.9966   0.8871   0.3118
     0.2931   0.2931   0.0000   0.0000   0.0000

          k = 0.3333 0.5774 0.1537 (  2814 PWs)   bands (ev):

   -75.4909 -75.4909 -38.9162 -38.9162 -38.9088 -38.8319 -38.7489 -38.7489
    15.8184  15.9798  15.9798  16.1344  17.1105  17.1105  18.2430  19.1001
    19.5774  19.5774  25.0456  25.1397  25.1397

     occupation numbers 
     1.0000   1.0000   1.0000   1.0000   1.0000   1.0000   1.0000   1.0000
     1.0000   1.0000   1.0000   1.0000   0.9978   0.9978   0.8935   0.5133
     0.2605   0.2605   0.0000   0.0000   0.0000

          k = 0.3333 0.5774 0.2305 (  2793 PWs)   bands (ev):

   -75.4909 -75.4909 -38.9366 -38.9366 -38.8912 -38.8496 -38.7282 -38.7282
    15.9810  16.0789  16.0789  16.1539  17.0023  17.0023  18.2627  18.6979
    19.6419  19.6419  25.2393  25.2393  25.9282

     occupation numbers 
     1.0000   1.0000   1.0000   1.0000   1.0000   1.0000   1.0000   1.0000
     1.0000   1.0000   1.0000   1.0000   0.9987   0.9987   0.8883   0.7265
     0.2318   0.2318   0.0000   0.0000   0.0000

          k = 0.3333 0.5774-0.3074 (  2772 PWs)   bands (ev):

   -75.4909 -75.4909 -38.9440 -38.9440 -38.8704 -38.8704 -38.7207 -38.7207
    16.1084  16.1084  16.1257  16.1257  16.9529  16.9529  18.4012  18.4012
    19.6674  19.6674  25.2880  25.2880  26.9799

     occupation numbers 
     1.0000   1.0000   1.0000   1.0000   1.0000   1.0000   1.0000   1.0000
     1.0000   1.0000   1.0000   1.0000   0.9989   0.9989   0.8465   0.8465
     0.2210   0.2210   0.0000   0.0000   0.0000

     the Fermi energy is    19.1237 ev

!    total energy              =    -753.50452729 Ry
     total all-electron energy =     -5573.861219 Ry
     estimated scf accuracy    <       0.00000006 Ry
     smearing contrib. (-TS)   =      -0.12935162 Ry
     internal energy E=F+TS    =    -753.37517567 Ry

     The total energy is F=E-TS. E is the sum of the following terms:
     one-electron contribution =    -278.79062126 Ry
     hartree contribution      =     163.53725732 Ry
     xc contribution           =     -61.30356753 Ry
     ewald contribution        =    -401.63724122 Ry
     one-center paw contrib.   =    -175.18100298 Ry
      -> PAW hartree energy AE =     222.27946532 Ry
      -> PAW hartree energy PS =    -221.22160551 Ry
      -> PAW xc energy AE      =    -117.62950743 Ry
      -> PAW xc energy PS      =      28.98114614 Ry
      -> total E_H with PAW    =     164.59511712 Ry
      -> total E_XC with PAW   =    -149.95192882 Ry

     total magnetization       =     1.33 Bohr mag/cell
     absolute magnetization    =     1.44 Bohr mag/cell

     convergence has been achieved in   2 iterations

     Writing all to output data dir ./out/Co.save/
 
     init_run     :      0.52s CPU      0.76s WALL (       1 calls)
     electrons    :      6.67s CPU      7.16s WALL (       1 calls)

     Called by init_run:
     wfcinit      :      0.38s CPU      0.58s WALL (       1 calls)
     potinit      :      0.09s CPU      0.12s WALL (       1 calls)
     hinit0       :      0.03s CPU      0.03s WALL (       1 calls)

     Called by electrons:
     c_bands      :      5.40s CPU      5.76s WALL (       3 calls)
     sum_band     :      1.06s CPU      1.12s WALL (       3 calls)
     v_of_rho     :      0.01s CPU      0.01s WALL (       3 calls)
     v_h          :      0.00s CPU      0.00s WALL (       3 calls)
     v_xc         :      0.01s CPU      0.01s WALL (       3 calls)
     newd         :      0.01s CPU      0.02s WALL (       3 calls)
     PAW_pot      :      0.27s CPU      0.34s WALL (       3 calls)
     mix_rho      :      0.00s CPU      0.00s WALL (       3 calls)

     Called by c_bands:
     init_us_2    :      0.06s CPU      0.07s WALL (    1620 calls)
     init_us_2:cp :      0.06s CPU      0.07s WALL (    1620 calls)
     cegterg      :      5.01s CPU      5.21s WALL (     810 calls)

     Called by sum_band:
     sum_band:wei :      0.07s CPU      0.07s WALL (       3 calls)
     sum_band:loo :      0.96s CPU      1.01s WALL (       3 calls)
     sum_band:buf :      0.00s CPU      0.01s WALL (     810 calls)
     sum_band:ini :      0.04s CPU      0.04s WALL (     810 calls)
     sum_band:cal :      0.09s CPU      0.08s WALL (     810 calls)
     sum_band:bec :      0.00s CPU      0.01s WALL (     810 calls)
     addusdens    :      0.03s CPU      0.04s WALL (       3 calls)
                                        0.00s GPU  (       3 calls)
     addusd:skk   :      0.00s CPU      0.00s WALL (       3 calls)
                                        0.00s GPU  (       3 calls)

     Called by *egterg:
     cdiaghg      :      1.08s CPU      1.09s WALL (    2005 calls)
     cegterg:over :      0.15s CPU      0.13s WALL (    1735 calls)
     cegterg:upda :      0.02s CPU      0.03s WALL (    1735 calls)
     cegterg:last :      0.03s CPU      0.05s WALL (    1339 calls)
     h_psi        :      3.51s CPU      3.67s WALL (    2545 calls)
     s_psi        :      0.07s CPU      0.06s WALL (    2545 calls)
     g_psi        :      0.01s CPU      0.01s WALL (    1735 calls)

     Called by h_psi:
     h_psi:calbec :      0.19s CPU      0.17s WALL (    2545 calls)
     vloc_psi     :      3.26s CPU      3.40s WALL (    2545 calls)
     add_vuspsi   :      0.05s CPU      0.07s WALL (    2545 calls)

     General routines
     calbec       :      0.28s CPU      0.25s WALL (    3355 calls)
     fft          :      0.01s CPU      0.01s WALL (      71 calls)
     ffts         :      0.00s CPU      0.00s WALL (      12 calls)
     fftw         :      3.75s CPU      3.91s WALL (   91746 calls)
     interpolate  :      0.00s CPU      0.00s WALL (       6 calls)
 
     Parallel routines

     PAW routines
     PAW_pot      :      0.27s CPU      0.34s WALL (       3 calls)
     PAW_symme    :      0.00s CPU      0.00s WALL (       5 calls)
 
     PWSCF        :      7.66s CPU      9.20s WALL

 
   This run was terminated on:  16:30:49  13Mar2024            

=------------------------------------------------------------------------------=
   JOB DONE.
=------------------------------------------------------------------------------=
