
     Program PWSCF v.7.2 starts on 18Mar2024 at 16:51:33 

     This program is part of the open-source Quantum ESPRESSO suite
     for quantum simulation of materials; please cite
         "P. Giannozzi et al., J. Phys.:Condens. Matter 21 395502 (2009);
         "P. Giannozzi et al., J. Phys.:Condens. Matter 29 465901 (2017);
         "P. Giannozzi et al., J. Chem. Phys. 152 154105 (2020);
          URL http://www.quantum-espresso.org", 
     in publications or presentations arising from this work. More details at
     http://www.quantum-espresso.org/quote

     Parallel version (MPI), running on    20 processors

     MPI processes distributed on     1 nodes
     317253 MiB available memory on the printing compute node when the environment starts
 
     Waiting for input...
     Reading input from standard input

     Current dimensions of program PWSCF are:
     Max number of different atomic species (ntypx) = 10
     Max number of k-points (npk) = 120000
     Max angular momentum in pseudopotentials (lmaxx) =  4
     file Co.pbe-spn-kjpaw_psl.0.3.1.UPF: wavefunction(s)  3P 3D renormalized
 
     R & G space division:  proc/nbgrp/npool/nimage =      20
     Subspace diagonalization in iterative solution of the eigenvalue problem:
     a serial algorithm will be used

 
     Parallelization info
     --------------------
     sticks:   dense  smooth     PW     G-vecs:    dense   smooth      PW
     Min          34      33      9                 1182     1145     181
     Max          35      34     10                 1192     1154     188
     Sum         685     673    199                23727    23007    3729
 
     Using Slab Decomposition
 


     bravais-lattice index     =            4
     lattice parameter (alat)  =       4.7300  a.u.
     unit-cell volume          =     147.5502 (a.u.)^3
     number of atoms/cell      =            2
     number of atomic types    =            1
     number of electrons       =        34.00
     number of Kohn-Sham states=           21
     kinetic-energy cutoff     =     110.0000  Ry
     charge density cutoff     =     450.0000  Ry
     scf convergence threshold =      1.0E-06
     mixing beta               =       0.7000
     number of iterations used =            8  plain     mixing
     Exchange-correlation= SLA  PW   PBX  PBC
                           (   1   4   3   4   0   0   0)

     celldm(1)=   4.730000  celldm(2)=   0.000000  celldm(3)=   1.610000
     celldm(4)=   0.000000  celldm(5)=   0.000000  celldm(6)=   0.000000

     crystal axes: (cart. coord. in units of alat)
               a(1) = (   1.000000   0.000000   0.000000 )  
               a(2) = (  -0.500000   0.866025   0.000000 )  
               a(3) = (   0.000000   0.000000   1.610000 )  

     reciprocal axes: (cart. coord. in units 2 pi/alat)
               b(1) = (  1.000000  0.577350  0.000000 )  
               b(2) = (  0.000000  1.154701  0.000000 )  
               b(3) = (  0.000000  0.000000  0.621118 )  


     PseudoPot. # 1 for Co read from file:
     /truba/home/amuhaymin/ZnS/pseudo/QE/Co.pbe-spn-kjpaw_psl.0.3.1.UPF
     MD5 check sum: b0a1ad65bf214e88c1f3d33b20c7d919
     Pseudo is Projector augmented-wave + core cor, Zval = 17.0
     Generated using &quot;atomic&quot; code by A. Dal Corso  v.6.2.2
     Shape of augmentation charge: PSQ
     Using radial grid of 1193 points,  6 beta functions with: 
                l(1) =   0
                l(2) =   0
                l(3) =   1
                l(4) =   1
                l(5) =   2
                l(6) =   2
     Q(r) pseudized with 0 coefficients 


     atomic species   valence    mass     pseudopotential
        Co            17.00    58.93300     Co( 1.00)

     Starting magnetic structure 
     atomic species   magnetization
        Co           0.294

     24 Sym. Ops., with inversion, found (12 have fractional translation)


                                    s                        frac. trans.

      isym =  1     identity                                     

 cryst.   s( 1) = (     1          0          0      )
                  (     0          1          0      )
                  (     0          0          1      )

 cart.    s( 1) = (  1.0000000  0.0000000  0.0000000 )
                  (  0.0000000  1.0000000  0.0000000 )
                  (  0.0000000  0.0000000  1.0000000 )


      isym =  2     180 deg rotation - cart. axis [0,0,1]        

 cryst.   s( 2) = (    -1          0          0      )    f =(  0.0000000 )
                  (     0         -1          0      )       ( -0.0000000 )
                  (     0          0          1      )       ( -0.5000000 )

 cart.    s( 2) = ( -1.0000000  0.0000000  0.0000000 )    f =(  0.0000000 )
                  (  0.0000000 -1.0000000  0.0000000 )       ( -0.0000000 )
                  (  0.0000000  0.0000000  1.0000000 )       ( -0.8050000 )


      isym =  3     180 deg rotation - cart. axis [0,1,0]        

 cryst.   s( 3) = (    -1          0          0      )    f =(  0.0000000 )
                  (     1          1          0      )       (  0.0000000 )
                  (     0          0         -1      )       (  0.5000000 )

 cart.    s( 3) = ( -1.0000000  0.0000000  0.0000000 )    f =(  0.0000000 )
                  (  0.0000000  1.0000000  0.0000000 )       (  0.0000000 )
                  (  0.0000000  0.0000000 -1.0000000 )       (  0.8050000 )


      isym =  4     180 deg rotation - cart. axis [1,0,0]        

 cryst.   s( 4) = (     1          0          0      )
                  (    -1         -1          0      )
                  (     0          0         -1      )

 cart.    s( 4) = (  1.0000000  0.0000000  0.0000000 )
                  (  0.0000000 -1.0000000  0.0000000 )
                  (  0.0000000  0.0000000 -1.0000000 )


      isym =  5      60 deg rotation - cryst. axis [0,0,1]       

 cryst.   s( 5) = (     1          1          0      )    f =(  0.0000000 )
                  (    -1          0          0      )       ( -0.0000000 )
                  (     0          0          1      )       ( -0.5000000 )

 cart.    s( 5) = (  0.5000000 -0.8660254  0.0000000 )    f =(  0.0000000 )
                  (  0.8660254  0.5000000  0.0000000 )       ( -0.0000000 )
                  (  0.0000000  0.0000000  1.0000000 )       ( -0.8050000 )


      isym =  6      60 deg rotation - cryst. axis [0,0,-1]      

 cryst.   s( 6) = (     0         -1          0      )    f =(  0.0000000 )
                  (     1          1          0      )       ( -0.0000000 )
                  (     0          0          1      )       ( -0.5000000 )

 cart.    s( 6) = (  0.5000000  0.8660254  0.0000000 )    f =(  0.0000000 )
                  ( -0.8660254  0.5000000  0.0000000 )       ( -0.0000000 )
                  (  0.0000000  0.0000000  1.0000000 )       ( -0.8050000 )


      isym =  7     120 deg rotation - cryst. axis [0,0,1]       

 cryst.   s( 7) = (     0          1          0      )
                  (    -1         -1          0      )
                  (     0          0          1      )

 cart.    s( 7) = ( -0.5000000 -0.8660254  0.0000000 )
                  (  0.8660254 -0.5000000  0.0000000 )
                  (  0.0000000  0.0000000  1.0000000 )


      isym =  8     120 deg rotation - cryst. axis [0,0,-1]      

 cryst.   s( 8) = (    -1         -1          0      )
                  (     1          0          0      )
                  (     0          0          1      )

 cart.    s( 8) = ( -0.5000000  0.8660254  0.0000000 )
                  ( -0.8660254 -0.5000000  0.0000000 )
                  (  0.0000000  0.0000000  1.0000000 )


      isym =  9     180 deg rotation - cryst. axis [1,-1,0]      

 cryst.   s( 9) = (     0         -1          0      )    f =( -0.0000000 )
                  (    -1          0          0      )       ( -0.0000000 )
                  (     0          0         -1      )       (  0.5000000 )

 cart.    s( 9) = (  0.5000000 -0.8660254  0.0000000 )    f =( -0.0000000 )
                  ( -0.8660254 -0.5000000  0.0000000 )       ( -0.0000000 )
                  (  0.0000000  0.0000000 -1.0000000 )       (  0.8050000 )


      isym = 10     180 deg rotation - cryst. axis [2,1,0]       

 cryst.   s(10) = (     1          1          0      )    f =(  0.0000000 )
                  (     0         -1          0      )       ( -0.0000000 )
                  (     0          0         -1      )       (  0.5000000 )

 cart.    s(10) = (  0.5000000  0.8660254  0.0000000 )    f =(  0.0000000 )
                  (  0.8660254 -0.5000000  0.0000000 )       ( -0.0000000 )
                  (  0.0000000  0.0000000 -1.0000000 )       (  0.8050000 )


      isym = 11     180 deg rotation - cryst. axis [0,1,0]       

 cryst.   s(11) = (    -1         -1          0      )
                  (     0          1          0      )
                  (     0          0         -1      )

 cart.    s(11) = ( -0.5000000 -0.8660254  0.0000000 )
                  ( -0.8660254  0.5000000  0.0000000 )
                  (  0.0000000  0.0000000 -1.0000000 )


      isym = 12     180 deg rotation - cryst. axis [1,1,0]       

 cryst.   s(12) = (     0          1          0      )
                  (     1          0          0      )
                  (     0          0         -1      )

 cart.    s(12) = ( -0.5000000  0.8660254  0.0000000 )
                  (  0.8660254  0.5000000  0.0000000 )
                  (  0.0000000  0.0000000 -1.0000000 )


      isym = 13     inversion                                    

 cryst.   s(13) = (    -1          0          0      )
                  (     0         -1          0      )
                  (     0          0         -1      )

 cart.    s(13) = ( -1.0000000  0.0000000  0.0000000 )
                  (  0.0000000 -1.0000000  0.0000000 )
                  (  0.0000000  0.0000000 -1.0000000 )


      isym = 14     inv. 180 deg rotation - cart. axis [0,0,1]   

 cryst.   s(14) = (     1          0          0      )    f =(  0.0000000 )
                  (     0          1          0      )       (  0.0000000 )
                  (     0          0         -1      )       (  0.5000000 )

 cart.    s(14) = (  1.0000000  0.0000000  0.0000000 )    f =(  0.0000000 )
                  (  0.0000000  1.0000000  0.0000000 )       (  0.0000000 )
                  (  0.0000000  0.0000000 -1.0000000 )       (  0.8050000 )


      isym = 15     inv. 180 deg rotation - cart. axis [0,1,0]   

 cryst.   s(15) = (     1          0          0      )    f =(  0.0000000 )
                  (    -1         -1          0      )       ( -0.0000000 )
                  (     0          0          1      )       ( -0.5000000 )

 cart.    s(15) = (  1.0000000  0.0000000  0.0000000 )    f =(  0.0000000 )
                  (  0.0000000 -1.0000000  0.0000000 )       ( -0.0000000 )
                  (  0.0000000  0.0000000  1.0000000 )       ( -0.8050000 )


      isym = 16     inv. 180 deg rotation - cart. axis [1,0,0]   

 cryst.   s(16) = (    -1          0          0      )
                  (     1          1          0      )
                  (     0          0          1      )

 cart.    s(16) = ( -1.0000000  0.0000000  0.0000000 )
                  (  0.0000000  1.0000000  0.0000000 )
                  (  0.0000000  0.0000000  1.0000000 )


      isym = 17     inv.  60 deg rotation - cryst. axis [0,0,1]  

 cryst.   s(17) = (    -1         -1          0      )    f =(  0.0000000 )
                  (     1          0          0      )       ( -0.0000000 )
                  (     0          0         -1      )       (  0.5000000 )

 cart.    s(17) = ( -0.5000000  0.8660254  0.0000000 )    f =(  0.0000000 )
                  ( -0.8660254 -0.5000000  0.0000000 )       ( -0.0000000 )
                  (  0.0000000  0.0000000 -1.0000000 )       (  0.8050000 )


      isym = 18     inv.  60 deg rotation - cryst. axis [0,0,-1] 

 cryst.   s(18) = (     0          1          0      )    f =( -0.0000000 )
                  (    -1         -1          0      )       ( -0.0000000 )
                  (     0          0         -1      )       (  0.5000000 )

 cart.    s(18) = ( -0.5000000 -0.8660254  0.0000000 )    f =(  0.0000000 )
                  (  0.8660254 -0.5000000  0.0000000 )       ( -0.0000000 )
                  (  0.0000000  0.0000000 -1.0000000 )       (  0.8050000 )


      isym = 19     inv. 120 deg rotation - cryst. axis [0,0,1]  

 cryst.   s(19) = (     0         -1          0      )
                  (     1          1          0      )
                  (     0          0         -1      )

 cart.    s(19) = (  0.5000000  0.8660254  0.0000000 )
                  ( -0.8660254  0.5000000  0.0000000 )
                  (  0.0000000  0.0000000 -1.0000000 )


      isym = 20     inv. 120 deg rotation - cryst. axis [0,0,-1] 

 cryst.   s(20) = (     1          1          0      )
                  (    -1          0          0      )
                  (     0          0         -1      )

 cart.    s(20) = (  0.5000000 -0.8660254  0.0000000 )
                  (  0.8660254  0.5000000  0.0000000 )
                  (  0.0000000  0.0000000 -1.0000000 )


      isym = 21     inv. 180 deg rotation - cryst. axis [1,-1,0] 

 cryst.   s(21) = (     0          1          0      )    f =(  0.0000000 )
                  (     1          0          0      )       ( -0.0000000 )
                  (     0          0          1      )       ( -0.5000000 )

 cart.    s(21) = ( -0.5000000  0.8660254  0.0000000 )    f =(  0.0000000 )
                  (  0.8660254  0.5000000  0.0000000 )       ( -0.0000000 )
                  (  0.0000000  0.0000000  1.0000000 )       ( -0.8050000 )


      isym = 22     inv. 180 deg rotation - cryst. axis [2,1,0]  

 cryst.   s(22) = (    -1         -1          0      )    f =(  0.0000000 )
                  (     0          1          0      )       ( -0.0000000 )
                  (     0          0          1      )       ( -0.5000000 )

 cart.    s(22) = ( -0.5000000 -0.8660254  0.0000000 )    f =(  0.0000000 )
                  ( -0.8660254  0.5000000  0.0000000 )       ( -0.0000000 )
                  (  0.0000000  0.0000000  1.0000000 )       ( -0.8050000 )


      isym = 23     inv. 180 deg rotation - cryst. axis [0,1,0]  

 cryst.   s(23) = (     1          1          0      )
                  (     0         -1          0      )
                  (     0          0          1      )

 cart.    s(23) = (  0.5000000  0.8660254  0.0000000 )
                  (  0.8660254 -0.5000000  0.0000000 )
                  (  0.0000000  0.0000000  1.0000000 )


      isym = 24     inv. 180 deg rotation - cryst. axis [1,1,0]  

 cryst.   s(24) = (     0         -1          0      )
                  (    -1          0          0      )
                  (     0          0          1      )

 cart.    s(24) = (  0.5000000 -0.8660254  0.0000000 )
                  ( -0.8660254 -0.5000000  0.0000000 )
                  (  0.0000000  0.0000000  1.0000000 )


     point group D_6h(6/mmm)
     there are 12 classes
     the character table:

       E     2C6   2C3   C2    3C2'  3C2'' i     2S3   2S6   s_h   3s_d  3s_v 
A_1g   1.00  1.00  1.00  1.00  1.00  1.00  1.00  1.00  1.00  1.00  1.00  1.00
A_2g   1.00  1.00  1.00  1.00 -1.00 -1.00  1.00  1.00  1.00  1.00 -1.00 -1.00
B_1g   1.00 -1.00  1.00 -1.00  1.00 -1.00  1.00 -1.00  1.00 -1.00  1.00 -1.00
B_2g   1.00 -1.00  1.00 -1.00 -1.00  1.00  1.00 -1.00  1.00 -1.00 -1.00  1.00
E_1g   2.00  1.00 -1.00 -2.00  0.00  0.00  2.00  1.00 -1.00 -2.00  0.00  0.00
E_2g   2.00 -1.00 -1.00  2.00  0.00  0.00  2.00 -1.00 -1.00  2.00  0.00  0.00
A_1u   1.00  1.00  1.00  1.00  1.00  1.00 -1.00 -1.00 -1.00 -1.00 -1.00 -1.00
A_2u   1.00  1.00  1.00  1.00 -1.00 -1.00 -1.00 -1.00 -1.00 -1.00  1.00  1.00
B_1u   1.00 -1.00  1.00 -1.00  1.00 -1.00 -1.00  1.00 -1.00  1.00 -1.00  1.00
B_2u   1.00 -1.00  1.00 -1.00 -1.00  1.00 -1.00  1.00 -1.00  1.00  1.00 -1.00
E_1u   2.00  1.00 -1.00 -2.00  0.00  0.00 -2.00 -1.00  1.00  2.00  0.00  0.00
E_2u   2.00 -1.00 -1.00  2.00  0.00  0.00 -2.00  1.00  1.00 -2.00  0.00  0.00

     the symmetry operations in each class and the name of the first element:

     E        1
          identity                                               
     2C6      5    6
           60 deg rotation - cryst. axis [0,0,1]                 
     2C3      7    8
          120 deg rotation - cryst. axis [0,0,1]                 
     C2       2
          180 deg rotation - cart. axis [0,0,1]                  
     3C2'     4   12   11
          180 deg rotation - cart. axis [1,0,0]                  
     3C2''    3    9   10
          180 deg rotation - cart. axis [0,1,0]                  
     i       13
          inversion                                              
     2S3     17   18
          inv.  60 deg rotation - cryst. axis [0,0,1]            
     2S6     19   20
          inv. 120 deg rotation - cryst. axis [0,0,1]            
     s_h     14
          inv. 180 deg rotation - cart. axis [0,0,1]             
     3s_d    16   24   23
          inv. 180 deg rotation - cart. axis [1,0,0]             
     3s_v    15   21   22
          inv. 180 deg rotation - cart. axis [0,1,0]             

   Cartesian axes

     site n.     atom                  positions (alat units)
         1           Co  tau(   1) = (  -0.0000000   0.5773503   0.4025000  )
         2           Co  tau(   2) = (   0.5000000   0.2886751   1.2075000  )

   Crystallographic axes

     site n.     atom                  positions (cryst. coord.)
         1           Co  tau(   1) = (  0.3333333  0.6666667  0.2500000  )
         2           Co  tau(   2) = (  0.6666667  0.3333333  0.7500000  )

     number of k points=    76  Gaussian smearing, width (Ry)=  0.0010
                       cart. coord. in units 2pi/alat
        k(    1) = (   0.0000000   0.0000000   0.0000000), wk =   0.0011574
        k(    2) = (   0.0000000   0.0000000   0.1035197), wk =   0.0023148
        k(    3) = (   0.0000000   0.0000000   0.2070393), wk =   0.0023148
        k(    4) = (   0.0000000   0.0000000  -0.3105590), wk =   0.0011574
        k(    5) = (   0.0000000   0.0962250   0.0000000), wk =   0.0069444
        k(    6) = (   0.0000000   0.0962250   0.1035197), wk =   0.0138889
        k(    7) = (   0.0000000   0.0962250   0.2070393), wk =   0.0138889
        k(    8) = (   0.0000000   0.0962250  -0.3105590), wk =   0.0069444
        k(    9) = (   0.0000000   0.1924501   0.0000000), wk =   0.0069444
        k(   10) = (   0.0000000   0.1924501   0.1035197), wk =   0.0138889
        k(   11) = (   0.0000000   0.1924501   0.2070393), wk =   0.0138889
        k(   12) = (   0.0000000   0.1924501  -0.3105590), wk =   0.0069444
        k(   13) = (   0.0000000   0.2886751   0.0000000), wk =   0.0069444
        k(   14) = (   0.0000000   0.2886751   0.1035197), wk =   0.0138889
        k(   15) = (   0.0000000   0.2886751   0.2070393), wk =   0.0138889
        k(   16) = (   0.0000000   0.2886751  -0.3105590), wk =   0.0069444
        k(   17) = (   0.0000000   0.3849002   0.0000000), wk =   0.0069444
        k(   18) = (   0.0000000   0.3849002   0.1035197), wk =   0.0138889
        k(   19) = (   0.0000000   0.3849002   0.2070393), wk =   0.0138889
        k(   20) = (   0.0000000   0.3849002  -0.3105590), wk =   0.0069444
        k(   21) = (   0.0000000   0.4811252   0.0000000), wk =   0.0069444
        k(   22) = (   0.0000000   0.4811252   0.1035197), wk =   0.0138889
        k(   23) = (   0.0000000   0.4811252   0.2070393), wk =   0.0138889
        k(   24) = (   0.0000000   0.4811252  -0.3105590), wk =   0.0069444
        k(   25) = (   0.0000000  -0.5773503   0.0000000), wk =   0.0034722
        k(   26) = (   0.0000000  -0.5773503   0.1035197), wk =   0.0069444
        k(   27) = (   0.0000000  -0.5773503   0.2070393), wk =   0.0069444
        k(   28) = (   0.0000000  -0.5773503  -0.3105590), wk =   0.0034722
        k(   29) = (   0.0833333   0.1443376   0.0000000), wk =   0.0069444
        k(   30) = (   0.0833333   0.1443376   0.1035197), wk =   0.0138889
        k(   31) = (   0.0833333   0.1443376   0.2070393), wk =   0.0138889
        k(   32) = (   0.0833333   0.1443376  -0.3105590), wk =   0.0069444
        k(   33) = (   0.0833333   0.2405626   0.0000000), wk =   0.0138889
        k(   34) = (   0.0833333   0.2405626   0.1035197), wk =   0.0277778
        k(   35) = (   0.0833333   0.2405626   0.2070393), wk =   0.0277778
        k(   36) = (   0.0833333   0.2405626  -0.3105590), wk =   0.0138889
        k(   37) = (   0.0833333   0.3367877   0.0000000), wk =   0.0138889
        k(   38) = (   0.0833333   0.3367877   0.1035197), wk =   0.0277778
        k(   39) = (   0.0833333   0.3367877   0.2070393), wk =   0.0277778
        k(   40) = (   0.0833333   0.3367877  -0.3105590), wk =   0.0138889
        k(   41) = (   0.0833333   0.4330127   0.0000000), wk =   0.0138889
        k(   42) = (   0.0833333   0.4330127   0.1035197), wk =   0.0277778
        k(   43) = (   0.0833333   0.4330127   0.2070393), wk =   0.0277778
        k(   44) = (   0.0833333   0.4330127  -0.3105590), wk =   0.0138889
        k(   45) = (   0.0833333   0.5292377   0.0000000), wk =   0.0138889
        k(   46) = (   0.0833333   0.5292377   0.1035197), wk =   0.0277778
        k(   47) = (   0.0833333   0.5292377   0.2070393), wk =   0.0277778
        k(   48) = (   0.0833333   0.5292377  -0.3105590), wk =   0.0138889
        k(   49) = (   0.1666667   0.2886751   0.0000000), wk =   0.0069444
        k(   50) = (   0.1666667   0.2886751   0.1035197), wk =   0.0138889
        k(   51) = (   0.1666667   0.2886751   0.2070393), wk =   0.0138889
        k(   52) = (   0.1666667   0.2886751  -0.3105590), wk =   0.0069444
        k(   53) = (   0.1666667   0.3849002   0.0000000), wk =   0.0138889
        k(   54) = (   0.1666667   0.3849002   0.1035197), wk =   0.0277778
        k(   55) = (   0.1666667   0.3849002   0.2070393), wk =   0.0277778
        k(   56) = (   0.1666667   0.3849002  -0.3105590), wk =   0.0138889
        k(   57) = (   0.1666667   0.4811252   0.0000000), wk =   0.0138889
        k(   58) = (   0.1666667   0.4811252   0.1035197), wk =   0.0277778
        k(   59) = (   0.1666667   0.4811252   0.2070393), wk =   0.0277778
        k(   60) = (   0.1666667   0.4811252  -0.3105590), wk =   0.0138889
        k(   61) = (   0.1666667   0.5773503   0.0000000), wk =   0.0069444
        k(   62) = (   0.1666667   0.5773503   0.1035197), wk =   0.0138889
        k(   63) = (   0.1666667   0.5773503   0.2070393), wk =   0.0138889
        k(   64) = (   0.1666667   0.5773503  -0.3105590), wk =   0.0069444
        k(   65) = (   0.2500000   0.4330127   0.0000000), wk =   0.0069444
        k(   66) = (   0.2500000   0.4330127   0.1035197), wk =   0.0138889
        k(   67) = (   0.2500000   0.4330127   0.2070393), wk =   0.0138889
        k(   68) = (   0.2500000   0.4330127  -0.3105590), wk =   0.0069444
        k(   69) = (   0.2500000   0.5292377   0.0000000), wk =   0.0138889
        k(   70) = (   0.2500000   0.5292377   0.1035197), wk =   0.0277778
        k(   71) = (   0.2500000   0.5292377   0.2070393), wk =   0.0277778
        k(   72) = (   0.2500000   0.5292377  -0.3105590), wk =   0.0138889
        k(   73) = (   0.3333333   0.5773503   0.0000000), wk =   0.0023148
        k(   74) = (   0.3333333   0.5773503   0.1035197), wk =   0.0046296
        k(   75) = (   0.3333333   0.5773503   0.2070393), wk =   0.0046296
        k(   76) = (   0.3333333   0.5773503  -0.3105590), wk =   0.0023148

                       cryst. coord.
        k(    1) = (   0.0000000   0.0000000   0.0000000), wk =   0.0011574
        k(    2) = (   0.0000000   0.0000000   0.1666667), wk =   0.0023148
        k(    3) = (   0.0000000   0.0000000   0.3333333), wk =   0.0023148
        k(    4) = (   0.0000000   0.0000000  -0.5000000), wk =   0.0011574
        k(    5) = (   0.0000000   0.0833333   0.0000000), wk =   0.0069444
        k(    6) = (   0.0000000   0.0833333   0.1666667), wk =   0.0138889
        k(    7) = (   0.0000000   0.0833333   0.3333333), wk =   0.0138889
        k(    8) = (   0.0000000   0.0833333  -0.5000000), wk =   0.0069444
        k(    9) = (   0.0000000   0.1666667   0.0000000), wk =   0.0069444
        k(   10) = (   0.0000000   0.1666667   0.1666667), wk =   0.0138889
        k(   11) = (   0.0000000   0.1666667   0.3333333), wk =   0.0138889
        k(   12) = (   0.0000000   0.1666667  -0.5000000), wk =   0.0069444
        k(   13) = (   0.0000000   0.2500000   0.0000000), wk =   0.0069444
        k(   14) = (   0.0000000   0.2500000   0.1666667), wk =   0.0138889
        k(   15) = (   0.0000000   0.2500000   0.3333333), wk =   0.0138889
        k(   16) = (   0.0000000   0.2500000  -0.5000000), wk =   0.0069444
        k(   17) = (   0.0000000   0.3333333   0.0000000), wk =   0.0069444
        k(   18) = (   0.0000000   0.3333333   0.1666667), wk =   0.0138889
        k(   19) = (   0.0000000   0.3333333   0.3333333), wk =   0.0138889
        k(   20) = (   0.0000000   0.3333333  -0.5000000), wk =   0.0069444
        k(   21) = (   0.0000000   0.4166667   0.0000000), wk =   0.0069444
        k(   22) = (   0.0000000   0.4166667   0.1666667), wk =   0.0138889
        k(   23) = (   0.0000000   0.4166667   0.3333333), wk =   0.0138889
        k(   24) = (   0.0000000   0.4166667  -0.5000000), wk =   0.0069444
        k(   25) = (   0.0000000  -0.5000000   0.0000000), wk =   0.0034722
        k(   26) = (   0.0000000  -0.5000000   0.1666667), wk =   0.0069444
        k(   27) = (   0.0000000  -0.5000000   0.3333333), wk =   0.0069444
        k(   28) = (   0.0000000  -0.5000000  -0.5000000), wk =   0.0034722
        k(   29) = (   0.0833333   0.0833333   0.0000000), wk =   0.0069444
        k(   30) = (   0.0833333   0.0833333   0.1666667), wk =   0.0138889
        k(   31) = (   0.0833333   0.0833333   0.3333333), wk =   0.0138889
        k(   32) = (   0.0833333   0.0833333  -0.5000000), wk =   0.0069444
        k(   33) = (   0.0833333   0.1666667   0.0000000), wk =   0.0138889
        k(   34) = (   0.0833333   0.1666667   0.1666667), wk =   0.0277778
        k(   35) = (   0.0833333   0.1666667   0.3333333), wk =   0.0277778
        k(   36) = (   0.0833333   0.1666667  -0.5000000), wk =   0.0138889
        k(   37) = (   0.0833333   0.2500000   0.0000000), wk =   0.0138889
        k(   38) = (   0.0833333   0.2500000   0.1666667), wk =   0.0277778
        k(   39) = (   0.0833333   0.2500000   0.3333333), wk =   0.0277778
        k(   40) = (   0.0833333   0.2500000  -0.5000000), wk =   0.0138889
        k(   41) = (   0.0833333   0.3333333   0.0000000), wk =   0.0138889
        k(   42) = (   0.0833333   0.3333333   0.1666667), wk =   0.0277778
        k(   43) = (   0.0833333   0.3333333   0.3333333), wk =   0.0277778
        k(   44) = (   0.0833333   0.3333333  -0.5000000), wk =   0.0138889
        k(   45) = (   0.0833333   0.4166667   0.0000000), wk =   0.0138889
        k(   46) = (   0.0833333   0.4166667   0.1666667), wk =   0.0277778
        k(   47) = (   0.0833333   0.4166667   0.3333333), wk =   0.0277778
        k(   48) = (   0.0833333   0.4166667  -0.5000000), wk =   0.0138889
        k(   49) = (   0.1666667   0.1666667   0.0000000), wk =   0.0069444
        k(   50) = (   0.1666667   0.1666667   0.1666667), wk =   0.0138889
        k(   51) = (   0.1666667   0.1666667   0.3333333), wk =   0.0138889
        k(   52) = (   0.1666667   0.1666667  -0.5000000), wk =   0.0069444
        k(   53) = (   0.1666667   0.2500000   0.0000000), wk =   0.0138889
        k(   54) = (   0.1666667   0.2500000   0.1666667), wk =   0.0277778
        k(   55) = (   0.1666667   0.2500000   0.3333333), wk =   0.0277778
        k(   56) = (   0.1666667   0.2500000  -0.5000000), wk =   0.0138889
        k(   57) = (   0.1666667   0.3333333   0.0000000), wk =   0.0138889
        k(   58) = (   0.1666667   0.3333333   0.1666667), wk =   0.0277778
        k(   59) = (   0.1666667   0.3333333   0.3333333), wk =   0.0277778
        k(   60) = (   0.1666667   0.3333333  -0.5000000), wk =   0.0138889
        k(   61) = (   0.1666667   0.4166667   0.0000000), wk =   0.0069444
        k(   62) = (   0.1666667   0.4166667   0.1666667), wk =   0.0138889
        k(   63) = (   0.1666667   0.4166667   0.3333333), wk =   0.0138889
        k(   64) = (   0.1666667   0.4166667  -0.5000000), wk =   0.0069444
        k(   65) = (   0.2500000   0.2500000   0.0000000), wk =   0.0069444
        k(   66) = (   0.2500000   0.2500000   0.1666667), wk =   0.0138889
        k(   67) = (   0.2500000   0.2500000   0.3333333), wk =   0.0138889
        k(   68) = (   0.2500000   0.2500000  -0.5000000), wk =   0.0069444
        k(   69) = (   0.2500000   0.3333333   0.0000000), wk =   0.0138889
        k(   70) = (   0.2500000   0.3333333   0.1666667), wk =   0.0277778
        k(   71) = (   0.2500000   0.3333333   0.3333333), wk =   0.0277778
        k(   72) = (   0.2500000   0.3333333  -0.5000000), wk =   0.0138889
        k(   73) = (   0.3333333   0.3333333   0.0000000), wk =   0.0023148
        k(   74) = (   0.3333333   0.3333333   0.1666667), wk =   0.0046296
        k(   75) = (   0.3333333   0.3333333   0.3333333), wk =   0.0046296
        k(   76) = (   0.3333333   0.3333333  -0.5000000), wk =   0.0023148

     Dense  grid:    23727 G-vectors     FFT dimensions: (  32,  32,  54)

     Smooth grid:    23007 G-vectors     FFT dimensions: (  32,  32,  54)

     Dynamical RAM for                 wfc:       0.05 MB

     Dynamical RAM for     wfc (w. buffer):       7.01 MB

     Dynamical RAM for           str. fact:       0.02 MB

     Dynamical RAM for           local pot:       0.00 MB

     Dynamical RAM for          nlocal pot:       0.08 MB

     Dynamical RAM for                qrad:       1.70 MB

     Dynamical RAM for          rho,v,vnew:       0.25 MB

     Dynamical RAM for               rhoin:       0.08 MB

     Dynamical RAM for            rho*nmix:       0.58 MB

     Dynamical RAM for           G-vectors:       0.08 MB

     Dynamical RAM for          h,s,v(r/c):       0.08 MB

     Dynamical RAM for          <psi|beta>:       0.01 MB

     Dynamical RAM for                 psi:       0.09 MB

     Dynamical RAM for                hpsi:       0.09 MB

     Dynamical RAM for                spsi:       0.09 MB

     Dynamical RAM for      wfcinit/wfcrot:       0.10 MB

     Dynamical RAM for           addusdens:       3.42 MB

     Estimated static dynamical RAM per process >       9.40 MB

     Estimated max dynamical RAM per process >      13.39 MB

     Estimated total dynamical RAM >     267.90 MB

     Check: negative core charge=   -0.000042
     Generating pointlists ...
     new r_m :   0.4086 (alat units)  1.9329 (a.u.) for type    1

     The initial density is read from file :
     ./out/Co.save/charge-density

     Starting wfcs from file
     Checking if some PAW data can be deallocated... 

     total cpu time spent up to now is        0.6 secs

     Self-consistent Calculation

     iteration #  1     ecut=   110.00 Ry     beta= 0.70
     Davidson diagonalization with overlap

---- Real-time Memory Report at c_bands before calling an iterative solver
            56 MiB given to the printing process from OS
             0 MiB allocation reported by mallinfo(arena+hblkhd)
        316334 MiB available memory on the node where the printing process lives
------------------
     ethr =  1.00E-05,  avg # of iterations =  1.0

     Threshold (ethr) on eigenvalues was too large:
     Diagonalizing with lowered threshold

     Davidson diagonalization with overlap

---- Real-time Memory Report at c_bands before calling an iterative solver
            63 MiB given to the printing process from OS
             0 MiB allocation reported by mallinfo(arena+hblkhd)
        316477 MiB available memory on the node where the printing process lives
------------------
     c_bands:  1 eigenvalues not converged
     c_bands:  2 eigenvalues not converged
     c_bands:  2 eigenvalues not converged
     c_bands:  2 eigenvalues not converged
     c_bands:  1 eigenvalues not converged
     c_bands:  1 eigenvalues not converged
     c_bands:  2 eigenvalues not converged
     c_bands:  1 eigenvalues not converged
     c_bands:  1 eigenvalues not converged
     c_bands:  3 eigenvalues not converged
     c_bands:  2 eigenvalues not converged
     c_bands:  1 eigenvalues not converged
     c_bands:  1 eigenvalues not converged
     c_bands:  1 eigenvalues not converged
     c_bands:  1 eigenvalues not converged
     c_bands:  1 eigenvalues not converged
     c_bands:  2 eigenvalues not converged
     c_bands:  1 eigenvalues not converged
     c_bands:  2 eigenvalues not converged
     c_bands:  4 eigenvalues not converged
     c_bands:  4 eigenvalues not converged
     c_bands:  2 eigenvalues not converged
     c_bands:  1 eigenvalues not converged
     c_bands:  2 eigenvalues not converged
     c_bands:  3 eigenvalues not converged
     ethr =  1.21E-11,  avg # of iterations = 17.6
 
     Magnetic moment per site  (integrated on atomic sphere of radius R)
     atom   1 (R=0.409)  charge= 15.5842  magn=  1.7291
     atom   2 (R=0.409)  charge= 15.5842  magn=  1.7291

     total cpu time spent up to now is        6.9 secs

     End of self-consistent calculation

 ------ SPIN UP ------------


          k = 0.0000 0.0000 0.0000 (  2863 PWs)   bands (ev):

   -77.6072 -77.5515 -41.0036 -40.7242 -40.7242 -40.6813 -40.6766 -40.6766
     9.5620  13.3609  15.8968  15.9017  15.9017  16.2165  16.2165  16.5377
    16.5377  17.6497  17.6497  18.3320  24.8076

     occupation numbers 
     1.0000   1.0000   1.0000   1.0000   1.0000   1.0000   1.0000   1.0000
     1.0000   1.0000   1.0000   1.0000   1.0000   1.0000   1.0000   1.0000
     1.0000   1.0000   1.0000   1.0000   0.0000

          k = 0.0000 0.0000 0.1035 (  2845 PWs)   bands (ev):

   -77.6035 -77.5553 -40.9823 -40.7210 -40.7210 -40.7032 -40.6798 -40.6798
     9.8395  13.2936  15.8252  15.8333  15.8333  16.1411  16.1411  16.7053
    16.7053  17.3631  17.6344  17.6344  26.3426

     occupation numbers 
     1.0000   1.0000   1.0000   1.0000   1.0000   1.0000   1.0000   1.0000
     1.0000   1.0000   1.0000   1.0000   1.0000   1.0000   1.0000   1.0000
     1.0000   1.0000   1.0000   1.0000   0.0000

          k = 0.0000 0.0000 0.2070 (  2870 PWs)   bands (ev):

   -77.5933 -77.5655 -40.9239 -40.7628 -40.7123 -40.7123 -40.6885 -40.6885
    10.6355  12.8605  15.6591  15.7757  15.7757  15.9751  15.9751  16.0308
    17.0317  17.0317  17.5479  17.5479  29.5735

     occupation numbers 
     1.0000   1.0000   1.0000   1.0000   1.0000   1.0000   1.0000   1.0000
     1.0000   1.0000   1.0000   1.0000   1.0000   1.0000   1.0000   1.0000
     1.0000   1.0000   1.0000   1.0000   0.0000

          k = 0.0000 0.0000-0.3106 (  2858 PWs)   bands (ev):

   -77.5794 -77.5794 -40.8436 -40.8436 -40.7004 -40.7004 -40.7004 -40.7004
    11.7957  11.7957  15.5774  15.5774  15.8280  15.8280  15.8280  15.8280
    17.3413  17.3413  17.3413  17.3413  33.4229

     occupation numbers 
     1.0000   1.0000   1.0000   1.0000   1.0000   1.0000   1.0000   1.0000
     1.0000   1.0000   1.0000   1.0000   1.0000   1.0000   1.0000   1.0000
     1.0000   1.0000   1.0000   1.0000   0.0000

          k = 0.0000 0.0962 0.0000 (  2857 PWs)   bands (ev):

   -77.6042 -77.5502 -40.9967 -40.7391 -40.7291 -40.6921 -40.6843 -40.6791
     9.8015  13.5032  15.6706  16.0136  16.0895  16.1721  16.3152  16.3888
    16.4674  16.8751  17.6800  19.4216  24.8479

     occupation numbers 
     1.0000   1.0000   1.0000   1.0000   1.0000   1.0000   1.0000   1.0000
     1.0000   1.0000   1.0000   1.0000   1.0000   1.0000   1.0000   1.0000
     1.0000   1.0000   1.0000   0.0000   0.0000

          k = 0.0000 0.0962 0.1035 (  2857 PWs)   bands (ev):

   -77.6006 -77.5538 -40.9766 -40.7354 -40.7258 -40.7132 -40.6874 -40.6824
    10.0748  13.4507  15.6667  15.9108  15.9277  15.9905  16.2336  16.5455
    16.6629  16.7621  17.6573  18.6274  26.4514

     occupation numbers 
     1.0000   1.0000   1.0000   1.0000   1.0000   1.0000   1.0000   1.0000
     1.0000   1.0000   1.0000   1.0000   1.0000   1.0000   1.0000   1.0000
     1.0000   1.0000   1.0000   0.0000   0.0000

          k = 0.0000 0.0962 0.2070 (  2865 PWs)   bands (ev):

   -77.5907 -77.5637 -40.9216 -40.7696 -40.7251 -40.7166 -40.6974 -40.6916
    10.8584  13.0465  15.5641  15.6319  15.7054  15.8635  16.0667  16.1517
    17.0072  17.0539  17.5542  17.8478  29.7254

     occupation numbers 
     1.0000   1.0000   1.0000   1.0000   1.0000   1.0000   1.0000   1.0000
     1.0000   1.0000   1.0000   1.0000   1.0000   1.0000   1.0000   1.0000
     1.0000   1.0000   1.0000   1.0000   0.0000

          k = 0.0000 0.0962-0.3106 (  2862 PWs)   bands (ev):

   -77.5772 -77.5772 -40.8459 -40.8459 -40.7113 -40.7113 -40.7041 -40.7041
    12.0000  12.0000  15.4226  15.4226  15.8519  15.8519  15.9176  15.9176
    17.3307  17.3307  17.4334  17.4334  33.5882

     occupation numbers 
     1.0000   1.0000   1.0000   1.0000   1.0000   1.0000   1.0000   1.0000
     1.0000   1.0000   1.0000   1.0000   1.0000   1.0000   1.0000   1.0000
     1.0000   1.0000   1.0000   1.0000   0.0000

          k = 0.0000 0.1925 0.0000 (  2848 PWs)   bands (ev):

   -77.5957 -77.5467 -40.9770 -40.7799 -40.7423 -40.7339 -40.6933 -40.6860
    10.4946  13.8554  15.3961  15.6883  16.0037  16.2939  16.3296  16.3910
    16.5063  16.5919  17.7450  20.9985  24.9895

     occupation numbers 
     1.0000   1.0000   1.0000   1.0000   1.0000   1.0000   1.0000   1.0000
     1.0000   1.0000   1.0000   1.0000   1.0000   1.0000   1.0000   1.0000
     1.0000   1.0000   1.0000   0.0000   0.0000

          k = 0.0000 0.1925 0.1035 (  2859 PWs)   bands (ev):

   -77.5925 -77.5500 -40.9609 -40.7745 -40.7500 -40.7385 -40.6990 -40.6898
    10.7520  13.8478  15.4124  15.4384  15.8870  16.1277  16.2726  16.4738
    16.6492  16.7523  17.7057  19.8527  26.8043

     occupation numbers 
     1.0000   1.0000   1.0000   1.0000   1.0000   1.0000   1.0000   1.0000
     1.0000   1.0000   1.0000   1.0000   1.0000   1.0000   1.0000   1.0000
     1.0000   1.0000   1.0000   0.0000   0.0000

          k = 0.0000 0.1925 0.2070 (  2857 PWs)   bands (ev):

   -77.5835 -77.5590 -40.9170 -40.7961 -40.7574 -40.7283 -40.7147 -40.7001
    11.4869  13.5292  15.0714  15.4878  15.6100  16.0773  16.0916  16.3209
    16.9826  17.1473  17.5677  18.4930  30.1791

     occupation numbers 
     1.0000   1.0000   1.0000   1.0000   1.0000   1.0000   1.0000   1.0000
     1.0000   1.0000   1.0000   1.0000   1.0000   1.0000   1.0000   1.0000
     1.0000   1.0000   1.0000   0.0097   0.0000

          k = 0.0000 0.1925-0.3106 (  2876 PWs)   bands (ev):

   -77.5713 -77.5713 -40.8566 -40.8566 -40.7362 -40.7362 -40.7142 -40.7142
    12.5508  12.5508  15.1875  15.1875  15.8013  15.8013  16.1566  16.1566
    17.3156  17.3156  17.6811  17.6811  34.0325

     occupation numbers 
     1.0000   1.0000   1.0000   1.0000   1.0000   1.0000   1.0000   1.0000
     1.0000   1.0000   1.0000   1.0000   1.0000   1.0000   1.0000   1.0000
     1.0000   1.0000   1.0000   1.0000   0.0000

          k = 0.0000 0.2887 0.0000 (  2864 PWs)   bands (ev):

   -77.5838 -77.5424 -40.9474 -40.8360 -40.7902 -40.7598 -40.7082 -40.6960
    11.5454  14.1409  14.9741  15.2243  15.9140  16.0851  16.3122  16.7878
    16.8106  16.9896  17.8069  22.7776  25.2609

     occupation numbers 
     1.0000   1.0000   1.0000   1.0000   1.0000   1.0000   1.0000   1.0000
     1.0000   1.0000   1.0000   1.0000   1.0000   1.0000   1.0000   1.0000
     1.0000   1.0000   1.0000   0.0000   0.0000

          k = 0.0000 0.2887 0.1035 (  2869 PWs)   bands (ev):

   -77.5810 -77.5452 -40.9407 -40.8258 -40.8036 -40.7555 -40.7121 -40.7003
    11.7607  14.1873  14.8289  15.2751  15.7620  16.1225  16.3173  16.8334
    16.9286  16.9434  17.7522  21.1268  27.4326

     occupation numbers 
     1.0000   1.0000   1.0000   1.0000   1.0000   1.0000   1.0000   1.0000
     1.0000   1.0000   1.0000   1.0000   1.0000   1.0000   1.0000   1.0000
     1.0000   1.0000   1.0000   0.0000   0.0000

          k = 0.0000 0.2887 0.2070 (  2878 PWs)   bands (ev):

   -77.5734 -77.5527 -40.9194 -40.8439 -40.7914 -40.7439 -40.7277 -40.7120
    12.3605  13.9621  14.7382  15.3162  15.6230  16.1574  16.2428  16.6807
    17.0995  17.3104  17.5928  19.2656  30.7771

     occupation numbers 
     1.0000   1.0000   1.0000   1.0000   1.0000   1.0000   1.0000   1.0000
     1.0000   1.0000   1.0000   1.0000   1.0000   1.0000   1.0000   1.0000
     1.0000   1.0000   1.0000   0.0000   0.0000

          k = 0.0000 0.2887-0.3106 (  2878 PWs)   bands (ev):

   -77.5631 -77.5631 -40.8848 -40.8848 -40.7566 -40.7566 -40.7279 -40.7279
    13.1909  13.1909  15.0354  15.0354  15.8570  15.8570  16.4433  16.4433
    17.3557  17.3557  18.0271  18.0271  32.7544

     occupation numbers 
     1.0000   1.0000   1.0000   1.0000   1.0000   1.0000   1.0000   1.0000
     1.0000   1.0000   1.0000   1.0000   1.0000   1.0000   1.0000   1.0000
     1.0000   1.0000   1.0000   1.0000   0.0000

          k = 0.0000 0.3849 0.0000 (  2870 PWs)   bands (ev):

   -77.5709 -77.5389 -40.9128 -40.8927 -40.8454 -40.7768 -40.7282 -40.7064
    12.7004  14.0801  14.4549  15.3227  15.8971  16.0342  16.1412  17.2757
    17.4212  17.4791  17.8497  24.7170  25.2936

     occupation numbers 
     1.0000   1.0000   1.0000   1.0000   1.0000   1.0000   1.0000   1.0000
     1.0000   1.0000   1.0000   1.0000   1.0000   1.0000   1.0000   1.0000
     1.0000   1.0000   1.0000   0.0000   0.0000

          k = 0.0000 0.3849 0.1035 (  2872 PWs)   bands (ev):

   -77.5687 -77.5411 -40.9331 -40.8687 -40.8490 -40.7721 -40.7284 -40.7111
    12.8040  14.1171  14.4830  15.1932  15.9456  15.9890  16.4776  17.2980
    17.3283  17.4163  17.7937  22.3591  27.3696

     occupation numbers 
     1.0000   1.0000   1.0000   1.0000   1.0000   1.0000   1.0000   1.0000
     1.0000   1.0000   1.0000   1.0000   1.0000   1.0000   1.0000   1.0000
     1.0000   1.0000   1.0000   0.0000   0.0000

          k = 0.0000 0.3849 0.2070 (  2872 PWs)   bands (ev):

   -77.5629 -77.5469 -40.9402 -40.8960 -40.8055 -40.7593 -40.7374 -40.7240
    13.0919  13.9430  14.6176  15.1279  16.0311  16.2482  16.7652  17.0196
    17.4026  17.5363  17.6707  20.1494  28.4316

     occupation numbers 
     1.0000   1.0000   1.0000   1.0000   1.0000   1.0000   1.0000   1.0000
     1.0000   1.0000   1.0000   1.0000   1.0000   1.0000   1.0000   1.0000
     1.0000   1.0000   1.0000   0.0000   0.0000

          k = 0.0000 0.3849-0.3106 (  2888 PWs)   bands (ev):

   -77.5549 -77.5549 -40.9258 -40.9258 -40.7638 -40.7638 -40.7417 -40.7417
    13.5073  13.5073  14.9152  14.9152  16.4396  16.4396  16.6227  16.6227
    17.5311  17.5311  18.5054  18.5054  29.5573

     occupation numbers 
     1.0000   1.0000   1.0000   1.0000   1.0000   1.0000   1.0000   1.0000
     1.0000   1.0000   1.0000   1.0000   1.0000   1.0000   1.0000   1.0000
     1.0000   1.0000   0.0001   0.0001   0.0000

          k = 0.0000 0.4811 0.0000 (  2872 PWs)   bands (ev):

   -77.5603 -77.5375 -40.9345 -40.8853 -40.8806 -40.7891 -40.7496 -40.7141
    13.4752  13.8962  14.1442  15.6696  15.7688  16.0206  16.2327  17.6399
    17.7792  17.8728  18.5674  23.4075  26.7187

     occupation numbers 
     1.0000   1.0000   1.0000   1.0000   1.0000   1.0000   1.0000   1.0000
     1.0000   1.0000   1.0000   1.0000   1.0000   1.0000   1.0000   1.0000
     1.0000   1.0000   0.0000   0.0000   0.0000

          k = 0.0000 0.4811 0.1035 (  2890 PWs)   bands (ev):

   -77.5588 -77.5391 -40.9531 -40.9026 -40.8486 -40.7841 -40.7456 -40.7192
    13.3733  13.8981  14.4494  15.0928  15.8815  16.2260  16.8207  17.5916
    17.6796  17.8586  18.4098  22.6557  25.9767

     occupation numbers 
     1.0000   1.0000   1.0000   1.0000   1.0000   1.0000   1.0000   1.0000
     1.0000   1.0000   1.0000   1.0000   1.0000   1.0000   1.0000   1.0000
     1.0000   1.0000   1.0000   0.0000   0.0000

          k = 0.0000 0.4811 0.2070 (  2873 PWs)   bands (ev):

   -77.5546 -77.5432 -40.9674 -40.9345 -40.8017 -40.7704 -40.7461 -40.7329
    13.3483  13.8282  14.6059  14.9400  16.2016  16.4569  17.1881  17.7075
    17.7691  17.8182  18.0979  20.9629  26.0883

     occupation numbers 
     1.0000   1.0000   1.0000   1.0000   1.0000   1.0000   1.0000   1.0000
     1.0000   1.0000   1.0000   1.0000   1.0000   1.0000   1.0000   1.0000
     1.0000   1.0000   1.0000   0.0000   0.0000

          k = 0.0000 0.4811-0.3106 (  2878 PWs)   bands (ev):

   -77.5489 -77.5489 -40.9603 -40.9603 -40.7645 -40.7645 -40.7517 -40.7517
    13.5355  13.5355  14.7980  14.7980  16.6716  16.6716  17.1568  17.1568
    17.7626  17.7626  19.3202  19.3202  26.8690

     occupation numbers 
     1.0000   1.0000   1.0000   1.0000   1.0000   1.0000   1.0000   1.0000
     1.0000   1.0000   1.0000   1.0000   1.0000   1.0000   1.0000   1.0000
     1.0000   1.0000   0.0000   0.0000   0.0000

          k = 0.0000-0.5774 0.0000 (  2878 PWs)   bands (ev):

   -77.5558 -77.5376 -40.9499 -40.8997 -40.8655 -40.7935 -40.7607 -40.7170
    13.7469  13.7510  14.0410  15.7234  15.9113  15.9770  16.3087  17.7714
    17.8799  17.9241  19.7064  21.6888  28.0155

     occupation numbers 
     1.0000   1.0000   1.0000   1.0000   1.0000   1.0000   1.0000   1.0000
     1.0000   1.0000   1.0000   1.0000   1.0000   1.0000   1.0000   1.0000
     1.0000   1.0000   0.0000   0.0000   0.0000

          k = 0.0000-0.5774 0.1035 (  2878 PWs)   bands (ev):

   -77.5546 -77.5388 -40.9648 -40.9163 -40.8402 -40.7884 -40.7545 -40.7221
    13.4806  13.8024  14.4857  15.0658  15.8421  16.3137  17.0159  17.6594
    17.8257  17.9162  19.5039  21.5195  27.1206

     occupation numbers 
     1.0000   1.0000   1.0000   1.0000   1.0000   1.0000   1.0000   1.0000
     1.0000   1.0000   1.0000   1.0000   1.0000   1.0000   1.0000   1.0000
     1.0000   1.0000   0.0000   0.0000   0.0000

          k = 0.0000-0.5774 0.2070 (  2876 PWs)   bands (ev):

   -77.5513 -77.5422 -40.9791 -40.9485 -40.7974 -40.7745 -40.7504 -40.7362
    13.3718  13.7835  14.6298  14.8545  16.1796  16.6004  17.2252  17.8365
    17.8836  17.8947  19.1908  20.9416  26.0373

     occupation numbers 
     1.0000   1.0000   1.0000   1.0000   1.0000   1.0000   1.0000   1.0000
     1.0000   1.0000   1.0000   1.0000   1.0000   1.0000   1.0000   1.0000
     1.0000   1.0000   0.0000   0.0000   0.0000

          k = 0.0000-0.5774-0.3106 (  2884 PWs)   bands (ev):

   -77.5467 -77.5467 -40.9734 -40.9734 -40.7642 -40.7642 -40.7554 -40.7554
    13.5199  13.5199  14.7515  14.7515  16.6768  16.6768  17.3988  17.3988
    17.8651  17.8651  19.9604  19.9604  25.6254

     occupation numbers 
     1.0000   1.0000   1.0000   1.0000   1.0000   1.0000   1.0000   1.0000
     1.0000   1.0000   1.0000   1.0000   1.0000   1.0000   1.0000   1.0000
     1.0000   1.0000   0.0000   0.0000   0.0000

          k = 0.0833 0.1443 0.0000 (  2858 PWs)   bands (ev):

   -77.5984 -77.5478 -40.9834 -40.7644 -40.7441 -40.7154 -40.6903 -40.6857
    10.2686  13.7560  15.4549  15.9303  16.0684  16.2421  16.2459  16.2688
    16.5335  16.6219  17.7183  20.5562  24.9409

     occupation numbers 
     1.0000   1.0000   1.0000   1.0000   1.0000   1.0000   1.0000   1.0000
     1.0000   1.0000   1.0000   1.0000   1.0000   1.0000   1.0000   1.0000
     1.0000   1.0000   1.0000   0.0000   0.0000

          k = 0.0833 0.1443 0.1035 (  2852 PWs)   bands (ev):

   -77.5950 -77.5512 -40.9659 -40.7595 -40.7453 -40.7290 -40.6948 -40.6893
    10.5321  13.7339  15.4791  15.5994  15.9294  16.0928  16.2462  16.3922
    16.6796  16.7299  17.6870  19.5203  26.6843

     occupation numbers 
     1.0000   1.0000   1.0000   1.0000   1.0000   1.0000   1.0000   1.0000
     1.0000   1.0000   1.0000   1.0000   1.0000   1.0000   1.0000   1.0000
     1.0000   1.0000   1.0000   0.0000   0.0000

          k = 0.0833 0.1443 0.2070 (  2859 PWs)   bands (ev):

   -77.5858 -77.5605 -40.9180 -40.7864 -40.7462 -40.7277 -40.7072 -40.6991
    11.2857  13.3872  15.1946  15.5349  15.6218  16.0172  16.1030  16.2413
    17.0118  17.0910  17.5673  18.3060  30.0312

     occupation numbers 
     1.0000   1.0000   1.0000   1.0000   1.0000   1.0000   1.0000   1.0000
     1.0000   1.0000   1.0000   1.0000   1.0000   1.0000   1.0000   1.0000
     1.0000   1.0000   1.0000   1.0000   0.0000

          k = 0.0833 0.1443-0.3106 (  2872 PWs)   bands (ev):

   -77.5731 -77.5731 -40.8522 -40.8522 -40.7290 -40.7290 -40.7114 -40.7114
    12.3811  12.3811  15.2463  15.2463  15.8011  15.8011  16.0941  16.0941
    17.3211  17.3211  17.6037  17.6037  33.9055

     occupation numbers 
     1.0000   1.0000   1.0000   1.0000   1.0000   1.0000   1.0000   1.0000
     1.0000   1.0000   1.0000   1.0000   1.0000   1.0000   1.0000   1.0000
     1.0000   1.0000   1.0000   1.0000   0.0000

          k = 0.0833 0.2406 0.0000 (  2866 PWs)   bands (ev):

   -77.5882 -77.5439 -40.9587 -40.8092 -40.7808 -40.7438 -40.7023 -40.6971
    11.1486  14.1172  15.1830  15.2368  15.9520  16.0488  16.4707  16.4964
    16.6587  16.9417  17.7657  22.1354  25.1689

     occupation numbers 
     1.0000   1.0000   1.0000   1.0000   1.0000   1.0000   1.0000   1.0000
     1.0000   1.0000   1.0000   1.0000   1.0000   1.0000   1.0000   1.0000
     1.0000   1.0000   1.0000   0.0000   0.0000

          k = 0.0833 0.2406 0.1035 (  2867 PWs)   bands (ev):

   -77.5853 -77.5469 -40.9475 -40.8019 -40.7883 -40.7480 -40.7060 -40.7005
    11.3851  14.1543  15.0256  15.2315  15.8289  16.0859  16.2803  16.6038
    16.8553  16.9271  17.7283  20.6878  27.1973

     occupation numbers 
     1.0000   1.0000   1.0000   1.0000   1.0000   1.0000   1.0000   1.0000
     1.0000   1.0000   1.0000   1.0000   1.0000   1.0000   1.0000   1.0000
     1.0000   1.0000   1.0000   0.0000   0.0000

          k = 0.0833 0.2406 0.2070 (  2867 PWs)   bands (ev):

   -77.5772 -77.5550 -40.9161 -40.8243 -40.7775 -40.7452 -40.7188 -40.7108
    12.0534  13.9011  14.8205  15.3345  15.5706  15.9885  16.2221  16.5534
    17.1002  17.2214  17.6071  18.9970  30.6248

     occupation numbers 
     1.0000   1.0000   1.0000   1.0000   1.0000   1.0000   1.0000   1.0000
     1.0000   1.0000   1.0000   1.0000   1.0000   1.0000   1.0000   1.0000
     1.0000   1.0000   1.0000   0.0000   0.0000

          k = 0.0833 0.2406-0.3106 (  2884 PWs)   bands (ev):

   -77.5661 -77.5661 -40.8713 -40.8713 -40.7516 -40.7516 -40.7237 -40.7237
    13.0052  13.0052  15.0878  15.0878  15.7007  15.7007  16.3680  16.3680
    17.3639  17.3639  17.9029  17.9029  34.1826

     occupation numbers 
     1.0000   1.0000   1.0000   1.0000   1.0000   1.0000   1.0000   1.0000
     1.0000   1.0000   1.0000   1.0000   1.0000   1.0000   1.0000   1.0000
     1.0000   1.0000   1.0000   1.0000   0.0000

          k = 0.0833 0.3368 0.0000 (  2869 PWs)   bands (ev):

   -77.5757 -77.5400 -40.9263 -40.8643 -40.8273 -40.7694 -40.7200 -40.7095
    12.2867  14.2407  14.6680  15.1044  15.8638  15.9645  16.2806  16.8897
    17.1530  17.4958  17.8059  23.9570  25.5060

     occupation numbers 
     1.0000   1.0000   1.0000   1.0000   1.0000   1.0000   1.0000   1.0000
     1.0000   1.0000   1.0000   1.0000   1.0000   1.0000   1.0000   1.0000
     1.0000   1.0000   1.0000   0.0000   0.0000

          k = 0.0833 0.3368 0.1035 (  2868 PWs)   bands (ev):

   -77.5734 -77.5424 -40.9305 -40.8512 -40.8322 -40.7690 -40.7221 -40.7120
    12.4537  14.3103  14.5719  15.1546  15.7438  16.0892  16.2616  16.9093
    17.2447  17.3659  17.8083  21.9452  27.9027

     occupation numbers 
     1.0000   1.0000   1.0000   1.0000   1.0000   1.0000   1.0000   1.0000
     1.0000   1.0000   1.0000   1.0000   1.0000   1.0000   1.0000   1.0000
     1.0000   1.0000   1.0000   0.0000   0.0000

          k = 0.0833 0.3368 0.2070 (  2873 PWs)   bands (ev):

   -77.5668 -77.5490 -40.9267 -40.8737 -40.8009 -40.7618 -40.7332 -40.7209
    12.9054  14.0819  14.6683  15.2394  15.6505  16.1202  16.3009  16.8807
    17.3260  17.4865  17.7697  19.8502  30.0653

     occupation numbers 
     1.0000   1.0000   1.0000   1.0000   1.0000   1.0000   1.0000   1.0000
     1.0000   1.0000   1.0000   1.0000   1.0000   1.0000   1.0000   1.0000
     1.0000   1.0000   1.0000   0.0000   0.0000

          k = 0.0833 0.3368-0.3106 (  2872 PWs)   bands (ev):

   -77.5579 -77.5579 -40.9058 -40.9058 -40.7666 -40.7666 -40.7363 -40.7363
    13.5070  13.5070  15.0129  15.0129  15.8645  15.8645  16.5642  16.5642
    17.5543  17.5543  18.3589  18.3589  31.2578

     occupation numbers 
     1.0000   1.0000   1.0000   1.0000   1.0000   1.0000   1.0000   1.0000
     1.0000   1.0000   1.0000   1.0000   1.0000   1.0000   1.0000   1.0000
     1.0000   1.0000   1.0000   1.0000   0.0000

          k = 0.0833 0.4330 0.0000 (  2877 PWs)   bands (ev):

   -77.5638 -77.5378 -40.9132 -40.8919 -40.8684 -40.7893 -40.7417 -40.7201
    13.3004  14.0729  14.2825  15.3217  15.7434  16.0933  16.1526  17.3825
    17.5756  17.8312  18.2790  24.7503  25.9359

     occupation numbers 
     1.0000   1.0000   1.0000   1.0000   1.0000   1.0000   1.0000   1.0000
     1.0000   1.0000   1.0000   1.0000   1.0000   1.0000   1.0000   1.0000
     1.0000   1.0000   1.0000   0.0000   0.0000

          k = 0.0833 0.4330 0.1035 (  2875 PWs)   bands (ev):

   -77.5621 -77.5395 -40.9377 -40.8876 -40.8505 -40.7858 -40.7403 -40.7226
    13.3002  14.1022  14.4256  15.0996  15.8217  16.1559  16.4331  17.3308
    17.6374  17.6467  18.2818  23.0024  26.4740

     occupation numbers 
     1.0000   1.0000   1.0000   1.0000   1.0000   1.0000   1.0000   1.0000
     1.0000   1.0000   1.0000   1.0000   1.0000   1.0000   1.0000   1.0000
     1.0000   1.0000   1.0000   0.0000   0.0000

          k = 0.0833 0.4330 0.2070 (  2874 PWs)   bands (ev):

   -77.5573 -77.5443 -40.9513 -40.9168 -40.8069 -40.7729 -40.7478 -40.7289
    13.3923  13.9765  14.6079  15.0880  15.9287  16.3497  16.8020  17.0753
    17.5077  17.8028  18.3487  20.8583  27.1754

     occupation numbers 
     1.0000   1.0000   1.0000   1.0000   1.0000   1.0000   1.0000   1.0000
     1.0000   1.0000   1.0000   1.0000   1.0000   1.0000   1.0000   1.0000
     1.0000   1.0000   1.0000   0.0000   0.0000

          k = 0.0833 0.4330-0.3106 (  2870 PWs)   bands (ev):

   -77.5508 -77.5508 -40.9427 -40.9427 -40.7753 -40.7753 -40.7442 -40.7442
    13.6422  13.6422  14.9030  14.9030  16.3644  16.3644  16.7459  16.7459
    17.7545  17.7545  19.1882  19.1882  28.2234

     occupation numbers 
     1.0000   1.0000   1.0000   1.0000   1.0000   1.0000   1.0000   1.0000
     1.0000   1.0000   1.0000   1.0000   1.0000   1.0000   1.0000   1.0000
     1.0000   1.0000   0.0000   0.0000   0.0000

          k = 0.0833 0.5292 0.0000 (  2882 PWs)   bands (ev):

   -77.5559 -77.5376 -40.9416 -40.8922 -40.8657 -40.8003 -40.7605 -40.7262
    13.7651  13.9113  14.0896  15.6753  15.6946  15.9695  16.3055  17.7349
    17.8054  17.8424  19.5347  22.4465  27.8239

     occupation numbers 
     1.0000   1.0000   1.0000   1.0000   1.0000   1.0000   1.0000   1.0000
     1.0000   1.0000   1.0000   1.0000   1.0000   1.0000   1.0000   1.0000
     1.0000   1.0000   0.0000   0.0000   0.0000

          k = 0.0833 0.5292 0.1035 (  2880 PWs)   bands (ev):

   -77.5546 -77.5388 -40.9566 -40.9092 -40.8420 -40.7935 -40.7561 -40.7291
    13.5581  13.9310  14.5127  15.0461  15.7481  16.3504  16.6836  17.6098
    17.7694  17.8387  19.4706  22.1980  26.5269

     occupation numbers 
     1.0000   1.0000   1.0000   1.0000   1.0000   1.0000   1.0000   1.0000
     1.0000   1.0000   1.0000   1.0000   1.0000   1.0000   1.0000   1.0000
     1.0000   1.0000   0.0000   0.0000   0.0000

          k = 0.0833 0.5292 0.2070 (  2876 PWs)   bands (ev):

   -77.5513 -77.5421 -40.9710 -40.9412 -40.8070 -40.7733 -40.7597 -40.7340
    13.4730  13.9079  14.6366  14.9575  15.9210  16.6552  17.0738  17.3106
    17.7260  17.9182  19.5184  21.3664  25.7693

     occupation numbers 
     1.0000   1.0000   1.0000   1.0000   1.0000   1.0000   1.0000   1.0000
     1.0000   1.0000   1.0000   1.0000   1.0000   1.0000   1.0000   1.0000
     1.0000   1.0000   0.0000   0.0000   0.0000

          k = 0.0833 0.5292-0.3106 (  2872 PWs)   bands (ev):

   -77.5467 -77.5467 -40.9657 -40.9657 -40.7804 -40.7804 -40.7470 -40.7470
    13.6311  13.6311  14.8213  14.8213  16.4683  16.4683  17.1711  17.1711
    17.7950  17.7950  20.2552  20.2552  26.0387

     occupation numbers 
     1.0000   1.0000   1.0000   1.0000   1.0000   1.0000   1.0000   1.0000
     1.0000   1.0000   1.0000   1.0000   1.0000   1.0000   1.0000   1.0000
     1.0000   1.0000   0.0000   0.0000   0.0000

          k = 0.1667 0.2887 0.0000 (  2874 PWs)   bands (ev):

   -77.5775 -77.5405 -40.9310 -40.8416 -40.8324 -40.7608 -40.7173 -40.7172
    12.1406  14.4090  14.7800  14.8925  15.7963  15.9618  16.3706  16.6617
    17.1410  17.5156  17.7687  23.6999  25.5508

     occupation numbers 
     1.0000   1.0000   1.0000   1.0000   1.0000   1.0000   1.0000   1.0000
     1.0000   1.0000   1.0000   1.0000   1.0000   1.0000   1.0000   1.0000
     1.0000   1.0000   1.0000   0.0000   0.0000

          k = 0.1667 0.2887 0.1035 (  2869 PWs)   bands (ev):

   -77.5750 -77.5430 -40.9304 -40.8393 -40.8262 -40.7680 -40.7212 -40.7152
    12.3290  14.5054  14.6398  14.9450  15.7708  15.9722  16.2460  16.7366
    17.2604  17.3573  17.8201  21.8073  27.9134

     occupation numbers 
     1.0000   1.0000   1.0000   1.0000   1.0000   1.0000   1.0000   1.0000
     1.0000   1.0000   1.0000   1.0000   1.0000   1.0000   1.0000   1.0000
     1.0000   1.0000   1.0000   0.0000   0.0000

          k = 0.1667 0.2887 0.2070 (  2867 PWs)   bands (ev):

   -77.5682 -77.5497 -40.9207 -40.8640 -40.7934 -40.7704 -40.7310 -40.7210
    12.8449  14.2017  14.7676  15.0974  15.6015  15.8366  16.2386  16.8200
    17.3422  17.4622  17.8450  19.7728  31.2669

     occupation numbers 
     1.0000   1.0000   1.0000   1.0000   1.0000   1.0000   1.0000   1.0000
     1.0000   1.0000   1.0000   1.0000   1.0000   1.0000   1.0000   1.0000
     1.0000   1.0000   1.0000   0.0000   0.0000

          k = 0.1667 0.2887-0.3106 (  2882 PWs)   bands (ev):

   -77.5590 -77.5590 -40.8965 -40.8965 -40.7692 -40.7692 -40.7347 -40.7347
    13.5404  13.5404  15.0910  15.0910  15.5511  15.5511  16.5150  16.5150
    17.6041  17.6041  18.3378  18.3378  32.9728

     occupation numbers 
     1.0000   1.0000   1.0000   1.0000   1.0000   1.0000   1.0000   1.0000
     1.0000   1.0000   1.0000   1.0000   1.0000   1.0000   1.0000   1.0000
     1.0000   1.0000   1.0000   1.0000   0.0000

          k = 0.1667 0.3849 0.0000 (  2870 PWs)   bands (ev):

   -77.5658 -77.5380 -40.8980 -40.8851 -40.8638 -40.7873 -40.7376 -40.7364
    13.2326  14.4010  14.4206  14.8574  15.6437  16.1038  16.1833  16.9636
    17.5770  17.7676  18.3011  25.5425  25.8955

     occupation numbers 
     1.0000   1.0000   1.0000   1.0000   1.0000   1.0000   1.0000   1.0000
     1.0000   1.0000   1.0000   1.0000   1.0000   1.0000   1.0000   1.0000
     1.0000   1.0000   1.0000   0.0000   0.0000

          k = 0.1667 0.3849 0.1035 (  2877 PWs)   bands (ev):

   -77.5639 -77.5399 -40.9219 -40.8810 -40.8405 -40.7934 -40.7427 -40.7287
    13.3154  14.3503  14.5043  14.9405  15.6997  16.0797  16.1380  16.9930
    17.5488  17.6662  18.3924  23.0875  27.9112

     occupation numbers 
     1.0000   1.0000   1.0000   1.0000   1.0000   1.0000   1.0000   1.0000
     1.0000   1.0000   1.0000   1.0000   1.0000   1.0000   1.0000   1.0000
     1.0000   1.0000   1.0000   0.0000   0.0000

          k = 0.1667 0.3849 0.2070 (  2872 PWs)   bands (ev):

   -77.5589 -77.5450 -40.9340 -40.9021 -40.8054 -40.7896 -40.7504 -40.7267
    13.5387  14.1504  14.7510  15.1766  15.6223  15.9111  16.2677  16.9513
    17.4486  17.8184  18.5764  20.8758  28.8632

     occupation numbers 
     1.0000   1.0000   1.0000   1.0000   1.0000   1.0000   1.0000   1.0000
     1.0000   1.0000   1.0000   1.0000   1.0000   1.0000   1.0000   1.0000
     1.0000   1.0000   0.0000   0.0000   0.0000

          k = 0.1667 0.3849-0.3106 (  2858 PWs)   bands (ev):

   -77.5519 -77.5519 -40.9252 -40.9252 -40.7886 -40.7886 -40.7403 -40.7403
    13.8445  13.8445  15.0937  15.0937  15.6953  15.6953  16.5378  16.5378
    17.8101  17.8101  19.2762  19.2762  30.0218

     occupation numbers 
     1.0000   1.0000   1.0000   1.0000   1.0000   1.0000   1.0000   1.0000
     1.0000   1.0000   1.0000   1.0000   1.0000   1.0000   1.0000   1.0000
     1.0000   1.0000   0.0000   0.0000   0.0000

          k = 0.1667 0.4811 0.0000 (  2887 PWs)   bands (ev):

   -77.5559 -77.5375 -40.9201 -40.8787 -40.8661 -40.8126 -40.7602 -40.7495
    13.9340  14.1984  14.2058  15.1543  15.6010  15.9806  16.3021  17.3625
    17.7657  17.7950  19.4560  24.0903  27.5391

     occupation numbers 
     1.0000   1.0000   1.0000   1.0000   1.0000   1.0000   1.0000   1.0000
     1.0000   1.0000   1.0000   1.0000   1.0000   1.0000   1.0000   1.0000
     1.0000   1.0000   0.0000   0.0000   0.0000

          k = 0.1667 0.4811 0.1035 (  2881 PWs)   bands (ev):

   -77.5547 -77.5388 -40.9352 -40.8981 -40.8425 -40.8068 -40.7626 -40.7416
    13.7893  14.2713  14.4495  14.9848  15.6521  16.1085  16.3653  17.3459
    17.5683  17.8580  19.5407  23.5653  26.3079

     occupation numbers 
     1.0000   1.0000   1.0000   1.0000   1.0000   1.0000   1.0000   1.0000
     1.0000   1.0000   1.0000   1.0000   1.0000   1.0000   1.0000   1.0000
     1.0000   1.0000   0.0000   0.0000   0.0000

          k = 0.1667 0.4811 0.2070 (  2883 PWs)   bands (ev):

   -77.5513 -77.5421 -40.9509 -40.9260 -40.8238 -40.7899 -40.7631 -40.7330
    13.7548  14.1942  14.6492  15.1945  15.5455  16.2264  16.5736  17.0404
    17.5318  17.9361  19.8552  22.0671  26.3619

     occupation numbers 
     1.0000   1.0000   1.0000   1.0000   1.0000   1.0000   1.0000   1.0000
     1.0000   1.0000   1.0000   1.0000   1.0000   1.0000   1.0000   1.0000
     1.0000   1.0000   0.0000   0.0000   0.0000

          k = 0.1667 0.4811-0.3106 (  2862 PWs)   bands (ev):

   -77.5467 -77.5467 -40.9475 -40.9475 -40.8044 -40.8044 -40.7414 -40.7414
    13.9130  13.9130  14.9970  14.9970  15.9516  15.9516  16.7241  16.7241
    17.8156  17.8156  20.6644  20.6644  27.2423

     occupation numbers 
     1.0000   1.0000   1.0000   1.0000   1.0000   1.0000   1.0000   1.0000
     1.0000   1.0000   1.0000   1.0000   1.0000   1.0000   1.0000   1.0000
     1.0000   1.0000   0.0000   0.0000   0.0000

          k = 0.1667 0.5774 0.0000 (  2892 PWs)   bands (ev):

   -77.5515 -77.5381 -40.9327 -40.8830 -40.8499 -40.8232 -40.7730 -40.7541
    14.1102  14.1106  14.1238  15.3693  15.6169  15.8756  16.3870  17.6327
    17.7646  17.7750  20.7053  22.2539  28.6202

     occupation numbers 
     1.0000   1.0000   1.0000   1.0000   1.0000   1.0000   1.0000   1.0000
     1.0000   1.0000   1.0000   1.0000   1.0000   1.0000   1.0000   1.0000
     1.0000   1.0000   0.0000   0.0000   0.0000

          k = 0.1667 0.5774 0.1035 (  2888 PWs)   bands (ev):

   -77.5506 -77.5390 -40.9446 -40.9010 -40.8463 -40.8017 -40.7749 -40.7471
    13.8188  14.1867  14.6136  14.9664  15.5757  16.2260  16.4542  17.5393
    17.6290  17.8300  20.8074  22.2086  27.6132

     occupation numbers 
     1.0000   1.0000   1.0000   1.0000   1.0000   1.0000   1.0000   1.0000
     1.0000   1.0000   1.0000   1.0000   1.0000   1.0000   1.0000   1.0000
     1.0000   1.0000   0.0000   0.0000   0.0000

          k = 0.1667 0.5774 0.2070 (  2890 PWs)   bands (ev):

   -77.5482 -77.5415 -40.9589 -40.9334 -40.8317 -40.7891 -40.7662 -40.7363
    13.7544  14.2066  14.6858  15.1536  15.4624  16.4260  16.6921  17.1100
    17.6446  17.8699  21.1190  22.0226  26.3305

     occupation numbers 
     1.0000   1.0000   1.0000   1.0000   1.0000   1.0000   1.0000   1.0000
     1.0000   1.0000   1.0000   1.0000   1.0000   1.0000   1.0000   1.0000
     1.0000   1.0000   0.0000   0.0000   0.0000

          k = 0.1667 0.5774-0.3106 (  2874 PWs)   bands (ev):

   -77.5448 -77.5448 -40.9559 -40.9559 -40.8104 -40.8104 -40.7414 -40.7414
    13.9165  13.9165  14.9576  14.9576  15.9918  15.9918  16.9241  16.9241
    17.7552  17.7552  21.6087  21.6087  25.8305

     occupation numbers 
     1.0000   1.0000   1.0000   1.0000   1.0000   1.0000   1.0000   1.0000
     1.0000   1.0000   1.0000   1.0000   1.0000   1.0000   1.0000   1.0000
     1.0000   1.0000   0.0000   0.0000   0.0000

          k = 0.2500 0.4330 0.0000 (  2894 PWs)   bands (ev):

   -77.5559 -77.5375 -40.9012 -40.8804 -40.8663 -40.8126 -40.7668 -40.7600
    14.0577  14.2608  14.5890  14.6442  15.5388  15.9948  16.3092  17.1406
    17.7263  17.8014  19.4627  25.8489  26.5802

     occupation numbers 
     1.0000   1.0000   1.0000   1.0000   1.0000   1.0000   1.0000   1.0000
     1.0000   1.0000   1.0000   1.0000   1.0000   1.0000   1.0000   1.0000
     1.0000   1.0000   0.0000   0.0000   0.0000

          k = 0.2500 0.4330 0.1035 (  2877 PWs)   bands (ev):

   -77.5547 -77.5387 -40.9135 -40.9051 -40.8277 -40.8257 -40.7695 -40.7457
    14.0671  14.2121  14.6574  14.7709  15.6881  15.8516  16.2987  17.1721
    17.5177  17.8660  19.5898  24.3627  26.8650

     occupation numbers 
     1.0000   1.0000   1.0000   1.0000   1.0000   1.0000   1.0000   1.0000
     1.0000   1.0000   1.0000   1.0000   1.0000   1.0000   1.0000   1.0000
     1.0000   1.0000   0.0000   0.0000   0.0000

          k = 0.2500 0.4330 0.2070 (  2877 PWs)   bands (ev):

   -77.5513 -77.5421 -40.9356 -40.9206 -40.8300 -40.8056 -40.7622 -40.7330
    14.0787  14.1589  14.8234  15.1560  15.5289  15.7994  16.3255  16.9566
    17.5022  17.9429  19.9685  22.3445  27.6518

     occupation numbers 
     1.0000   1.0000   1.0000   1.0000   1.0000   1.0000   1.0000   1.0000
     1.0000   1.0000   1.0000   1.0000   1.0000   1.0000   1.0000   1.0000
     1.0000   1.0000   0.0000   0.0000   0.0000

          k = 0.2500 0.4330-0.3106 (  2876 PWs)   bands (ev):

   -77.5467 -77.5467 -40.9363 -40.9363 -40.8174 -40.8174 -40.7397 -40.7397
    14.1113  14.1113  15.1431  15.1431  15.5833  15.5833  16.5301  16.5301
    17.8349  17.8349  20.8185  20.8185  28.6822

     occupation numbers 
     1.0000   1.0000   1.0000   1.0000   1.0000   1.0000   1.0000   1.0000
     1.0000   1.0000   1.0000   1.0000   1.0000   1.0000   1.0000   1.0000
     1.0000   1.0000   0.0000   0.0000   0.0000

          k = 0.2500 0.5292 0.0000 (  2890 PWs)   bands (ev):

   -77.5485 -77.5390 -40.9138 -40.8715 -40.8407 -40.8378 -40.7861 -40.7831
    14.1852  14.3548  14.4582  14.9441  15.5574  15.8001  16.4747  17.4099
    17.7018  17.7492  21.0970  23.6313  25.9348

     occupation numbers 
     1.0000   1.0000   1.0000   1.0000   1.0000   1.0000   1.0000   1.0000
     1.0000   1.0000   1.0000   1.0000   1.0000   1.0000   1.0000   1.0000
     1.0000   1.0000   0.0000   0.0000   0.0000

          k = 0.2500 0.5292 0.1035 (  2887 PWs)   bands (ev):

   -77.5478 -77.5396 -40.9201 -40.8945 -40.8590 -40.8080 -40.7900 -40.7612
    14.1260  14.4862  14.5826  14.8473  15.5858  15.7985  16.4774  17.4176
    17.4926  17.7931  21.2866  23.6578  25.9870

     occupation numbers 
     1.0000   1.0000   1.0000   1.0000   1.0000   1.0000   1.0000   1.0000
     1.0000   1.0000   1.0000   1.0000   1.0000   1.0000   1.0000   1.0000
     1.0000   1.0000   0.0000   0.0000   0.0000

          k = 0.2500 0.5292 0.2070 (  2886 PWs)   bands (ev):

   -77.5461 -77.5414 -40.9362 -40.9219 -40.8576 -40.8170 -40.7597 -40.7400
    14.1444  14.4920  14.7479  15.0349  15.4555  15.8130  16.5175  16.9868
    17.5680  17.8329  21.7864  23.3861  25.9306

     occupation numbers 
     1.0000   1.0000   1.0000   1.0000   1.0000   1.0000   1.0000   1.0000
     1.0000   1.0000   1.0000   1.0000   1.0000   1.0000   1.0000   1.0000
     1.0000   1.0000   0.0000   0.0000   0.0000

          k = 0.2500 0.5292-0.3106 (  2878 PWs)   bands (ev):

   -77.5437 -77.5437 -40.9389 -40.9389 -40.8386 -40.8386 -40.7386 -40.7386
    14.2812  14.2812  15.0394  15.0394  15.5901  15.5901  16.6448  16.6448
    17.7459  17.7459  22.5557  22.5557  26.4727

     occupation numbers 
     1.0000   1.0000   1.0000   1.0000   1.0000   1.0000   1.0000   1.0000
     1.0000   1.0000   1.0000   1.0000   1.0000   1.0000   1.0000   1.0000
     1.0000   1.0000   0.0000   0.0000   0.0000

          k = 0.3333 0.5774 0.0000 (  2892 PWs)   bands (ev):

   -77.5426 -77.5426 -40.9057 -40.8583 -40.8583 -40.8095 -40.8095 -40.8085
    14.1908  14.5474  14.5474  14.8355  15.6330  15.6330  16.5718  17.5530
    17.5530  17.6764  22.8217  23.6244  23.6244

     occupation numbers 
     1.0000   1.0000   1.0000   1.0000   1.0000   1.0000   1.0000   1.0000
     1.0000   1.0000   1.0000   1.0000   1.0000   1.0000   1.0000   1.0000
     1.0000   1.0000   0.0000   0.0000   0.0000

          k = 0.3333 0.5774 0.1035 (  2895 PWs)   bands (ev):

   -77.5426 -77.5426 -40.8993 -40.8863 -40.8863 -40.8151 -40.7813 -40.7813
    14.2851  14.5729  14.5729  14.8559  15.6064  15.6064  16.5432  17.4402
    17.5915  17.5915  23.2234  23.7020  23.7020

     occupation numbers 
     1.0000   1.0000   1.0000   1.0000   1.0000   1.0000   1.0000   1.0000
     1.0000   1.0000   1.0000   1.0000   1.0000   1.0000   1.0000   1.0000
     1.0000   1.0000   0.0000   0.0000   0.0000

          k = 0.3333 0.5774 0.2070 (  2886 PWs)   bands (ev):

   -77.5426 -77.5426 -40.9178 -40.9178 -40.8815 -40.8329 -40.7496 -40.7496
    14.5258  14.6226  14.6226  14.8737  15.5593  15.5593  16.5041  16.9588
    17.6640  17.6640  23.8956  23.8956  24.2489

     occupation numbers 
     1.0000   1.0000   1.0000   1.0000   1.0000   1.0000   1.0000   1.0000
     1.0000   1.0000   1.0000   1.0000   1.0000   1.0000   1.0000   1.0000
     1.0000   1.0000   0.0000   0.0000   0.0000

          k = 0.3333 0.5774-0.3106 (  2910 PWs)   bands (ev):

   -77.5426 -77.5426 -40.9297 -40.9297 -40.8573 -40.8573 -40.7376 -40.7376
    14.6466  14.6466  14.7743  14.7743  15.5390  15.5390  16.5986  16.5986
    17.6983  17.6983  24.0212  24.0212  25.6573

     occupation numbers 
     1.0000   1.0000   1.0000   1.0000   1.0000   1.0000   1.0000   1.0000
     1.0000   1.0000   1.0000   1.0000   1.0000   1.0000   1.0000   1.0000
     1.0000   1.0000   0.0000   0.0000   0.0000

 ------ SPIN DOWN ----------


          k = 0.0000 0.0000 0.0000 (  2863 PWs)   bands (ev):

   -75.4909 -75.4309 -38.9631 -38.6611 -38.6611 -38.6113 -38.6098 -38.6098
     9.5571  14.3339  17.5897  17.5952  17.5952  17.9673  17.9673  18.2663
    18.3574  18.3574  19.5952  19.5952  25.8638

     occupation numbers 
     1.0000   1.0000   1.0000   1.0000   1.0000   1.0000   1.0000   1.0000
     1.0000   1.0000   1.0000   1.0000   1.0000   1.0000   1.0000   1.0000
     1.0000   1.0000   0.0000   0.0000   0.0000

          k = 0.0000 0.0000 0.1035 (  2845 PWs)   bands (ev):

   -75.4869 -75.4349 -38.9399 -38.6577 -38.6577 -38.6352 -38.6133 -38.6133
     9.8360  14.1014  17.4960  17.5231  17.5231  17.6726  17.8802  17.8802
    18.5423  18.5423  19.5815  19.5815  27.1900

     occupation numbers 
     1.0000   1.0000   1.0000   1.0000   1.0000   1.0000   1.0000   1.0000
     1.0000   1.0000   1.0000   1.0000   1.0000   1.0000   1.0000   1.0000
     0.0000   0.0000   0.0000   0.0000   0.0000

          k = 0.0000 0.0000 0.2070 (  2870 PWs)   bands (ev):

   -75.4759 -75.4459 -38.8762 -38.7003 -38.6483 -38.6483 -38.6227 -38.6227
    10.6429  13.2117  17.0324  17.2579  17.4621  17.4621  17.6900  17.6900
    18.9089  18.9089  19.4896  19.4896  30.1825

     occupation numbers 
     1.0000   1.0000   1.0000   1.0000   1.0000   1.0000   1.0000   1.0000
     1.0000   1.0000   1.0000   1.0000   1.0000   1.0000   1.0000   1.0000
     0.0000   0.0000   0.0000   0.0000   0.0000

          k = 0.0000 0.0000-0.3106 (  2858 PWs)   bands (ev):

   -75.4609 -75.4609 -38.7886 -38.7886 -38.6355 -38.6355 -38.6355 -38.6355
    11.8663  11.8663  17.0115  17.0115  17.5225  17.5225  17.5225  17.5225
    19.2586  19.2586  19.2586  19.2586  33.8499

     occupation numbers 
     1.0000   1.0000   1.0000   1.0000   1.0000   1.0000   1.0000   1.0000
     1.0000   1.0000   1.0000   1.0000   1.0000   1.0000   1.0000   1.0000
     0.0000   0.0000   0.0000   0.0000   0.0000

          k = 0.0000 0.0962 0.0000 (  2857 PWs)   bands (ev):

   -75.4876 -75.4295 -38.9555 -38.6774 -38.6665 -38.6267 -38.6145 -38.6124
     9.7977  14.4970  17.3156  17.6370  17.7190  17.8101  17.9059  18.0765
    18.2745  18.2935  19.6316  20.4387  25.8805

     occupation numbers 
     1.0000   1.0000   1.0000   1.0000   1.0000   1.0000   1.0000   1.0000
     1.0000   1.0000   1.0000   1.0000   1.0000   1.0000   1.0000   1.0000
     1.0000   1.0000   0.0000   0.0000   0.0000

          k = 0.0000 0.0962 0.1035 (  2857 PWs)   bands (ev):

   -75.4837 -75.4334 -38.9336 -38.6734 -38.6629 -38.6474 -38.6203 -38.6161
    10.0729  14.2780  17.2045  17.3121  17.6060  17.6289  17.9226  17.9811
    18.4906  18.5108  19.6088  20.0898  27.2724

     occupation numbers 
     1.0000   1.0000   1.0000   1.0000   1.0000   1.0000   1.0000   1.0000
     1.0000   1.0000   1.0000   1.0000   1.0000   1.0000   1.0000   1.0000
     0.0186   0.0000   0.0000   0.0000   0.0000

          k = 0.0000 0.0962 0.2070 (  2865 PWs)   bands (ev):

   -75.4731 -75.4440 -38.8736 -38.7081 -38.6622 -38.6530 -38.6320 -38.6260
    10.8691  13.4050  16.8034  17.2413  17.3594  17.5596  17.7243  17.7897
    18.8787  18.9158  19.4967  19.6818  30.3182

     occupation numbers 
     1.0000   1.0000   1.0000   1.0000   1.0000   1.0000   1.0000   1.0000
     1.0000   1.0000   1.0000   1.0000   1.0000   1.0000   1.0000   1.0000
     0.0000   0.0000   0.0000   0.0000   0.0000

          k = 0.0000 0.0962-0.3106 (  2862 PWs)   bands (ev):

   -75.4586 -75.4586 -38.7911 -38.7911 -38.6472 -38.6472 -38.6395 -38.6395
    12.0761  12.0761  16.9090  16.9090  17.4955  17.4955  17.6208  17.6208
    19.2453  19.2453  19.3225  19.3225  34.0086

     occupation numbers 
     1.0000   1.0000   1.0000   1.0000   1.0000   1.0000   1.0000   1.0000
     1.0000   1.0000   1.0000   1.0000   1.0000   1.0000   1.0000   1.0000
     0.0000   0.0000   0.0000   0.0000   0.0000

          k = 0.0000 0.1925 0.0000 (  2848 PWs)   bands (ev):

   -75.4785 -75.4257 -38.9339 -38.7220 -38.6808 -38.6725 -38.6242 -38.6199
    10.4983  14.9165  16.8024  16.9577  17.6837  18.0707  18.0715  18.1349
    18.1401  18.3835  19.7086  21.8938  25.9480

     occupation numbers 
     1.0000   1.0000   1.0000   1.0000   1.0000   1.0000   1.0000   1.0000
     1.0000   1.0000   1.0000   1.0000   1.0000   1.0000   1.0000   1.0000
     1.0000   1.0000   0.0000   0.0000   0.0000

          k = 0.0000 0.1925 0.1035 (  2859 PWs)   bands (ev):

   -75.4750 -75.4292 -38.9165 -38.7161 -38.6891 -38.6767 -38.6313 -38.6240
    10.7607  14.7421  16.5432  16.9954  17.5707  17.8613  17.8617  18.2387
    18.4643  18.5291  19.6656  21.1015  27.5494

     occupation numbers 
     1.0000   1.0000   1.0000   1.0000   1.0000   1.0000   1.0000   1.0000
     1.0000   1.0000   1.0000   1.0000   1.0000   1.0000   1.0000   1.0000
     0.7418   0.0000   0.0000   0.0000   0.0000

          k = 0.0000 0.1925 0.2070 (  2857 PWs)   bands (ev):

   -75.4653 -75.4389 -38.8688 -38.7382 -38.6972 -38.6656 -38.6497 -38.6352
    11.5182  13.9251  16.4124  17.0755  17.2131  17.6740  17.7993  18.0668
    18.8442  18.9787  19.5108  20.1508  30.7272

     occupation numbers 
     1.0000   1.0000   1.0000   1.0000   1.0000   1.0000   1.0000   1.0000
     1.0000   1.0000   1.0000   1.0000   1.0000   1.0000   1.0000   1.0000
     0.0000   0.0000   0.0000   0.0000   0.0000

          k = 0.0000 0.1925-0.3106 (  2876 PWs)   bands (ev):

   -75.4521 -75.4521 -38.8034 -38.8034 -38.6738 -38.6738 -38.6504 -38.6504
    12.6631  12.6631  16.6994  16.6994  17.3905  17.3905  17.8840  17.8840
    19.2243  19.2243  19.5024  19.5024  34.4398

     occupation numbers 
     1.0000   1.0000   1.0000   1.0000   1.0000   1.0000   1.0000   1.0000
     1.0000   1.0000   1.0000   1.0000   1.0000   1.0000   1.0000   1.0000
     0.0000   0.0000   0.0000   0.0000   0.0000

          k = 0.0000 0.2887 0.0000 (  2864 PWs)   bands (ev):

   -75.4656 -75.4210 -38.9014 -38.7835 -38.7338 -38.6998 -38.6403 -38.6307
    11.5856  15.3320  16.1342  16.6370  17.5316  17.8291  17.9221  18.5759
    18.5870  18.8269  19.7809  23.5744  26.0890

     occupation numbers 
     1.0000   1.0000   1.0000   1.0000   1.0000   1.0000   1.0000   1.0000
     1.0000   1.0000   1.0000   1.0000   1.0000   1.0000   1.0000   0.0000
     0.0000   0.0000   0.0000   0.0000   0.0000

          k = 0.0000 0.2887 0.1035 (  2869 PWs)   bands (ev):

   -75.4626 -75.4240 -38.8944 -38.7722 -38.7478 -38.6952 -38.6449 -38.6353
    11.8187  15.2296  16.0032  16.6974  17.3890  17.8651  17.8668  18.6323
    18.7336  18.7846  19.7186  22.2142  28.0685

     occupation numbers 
     1.0000   1.0000   1.0000   1.0000   1.0000   1.0000   1.0000   1.0000
     1.0000   1.0000   1.0000   1.0000   1.0000   1.0000   1.0000   0.0000
     0.0000   0.0000   0.0000   0.0000   0.0000

          k = 0.0000 0.2887 0.2070 (  2878 PWs)   bands (ev):

   -75.4545 -75.4322 -38.8720 -38.7914 -38.7337 -38.6826 -38.6627 -38.6480
    12.4847  14.5342  16.1189  16.7844  17.1619  17.6565  17.9883  18.4643
    18.9661  19.1273  19.5359  20.7250  31.2796

     occupation numbers 
     1.0000   1.0000   1.0000   1.0000   1.0000   1.0000   1.0000   1.0000
     1.0000   1.0000   1.0000   1.0000   1.0000   1.0000   1.0000   0.7413
     0.0000   0.0000   0.0000   0.0000   0.0000

          k = 0.0000 0.2887-0.3106 (  2878 PWs)   bands (ev):

   -75.4433 -75.4433 -38.8351 -38.8351 -38.6950 -38.6950 -38.6653 -38.6653
    13.4697  13.4697  16.4977  16.4977  17.3335  17.3335  18.2034  18.2034
    19.2626  19.2626  19.7513  19.7513  33.2083

     occupation numbers 
     1.0000   1.0000   1.0000   1.0000   1.0000   1.0000   1.0000   1.0000
     1.0000   1.0000   1.0000   1.0000   1.0000   1.0000   1.0000   1.0000
     0.0000   0.0000   0.0000   0.0000   0.0000

          k = 0.0000 0.3849 0.0000 (  2870 PWs)   bands (ev):

   -75.4517 -75.4173 -38.8633 -38.8457 -38.7940 -38.7183 -38.6620 -38.6418
    12.8932  15.3746  15.6628  16.5033  17.6120  17.6247  17.7127  19.1476
    19.2162  19.3113  19.8302  25.4097  25.9667

     occupation numbers 
     1.0000   1.0000   1.0000   1.0000   1.0000   1.0000   1.0000   1.0000
     1.0000   1.0000   1.0000   1.0000   1.0000   1.0000   1.0000   0.0000
     0.0000   0.0000   0.0000   0.0000   0.0000

          k = 0.0000 0.3849 0.1035 (  2872 PWs)   bands (ev):

   -75.4494 -75.4196 -38.8875 -38.8188 -38.7963 -38.7132 -38.6625 -38.6470
    13.0596  15.2900  15.6918  16.5229  17.4600  17.7120  17.8938  19.1612
    19.2092  19.2183  19.7634  23.2343  28.0335

     occupation numbers 
     1.0000   1.0000   1.0000   1.0000   1.0000   1.0000   1.0000   1.0000
     1.0000   1.0000   1.0000   1.0000   1.0000   1.0000   1.0000   0.0000
     0.0000   0.0000   0.0000   0.0000   0.0000

          k = 0.0000 0.3849 0.2070 (  2872 PWs)   bands (ev):

   -75.4431 -75.4259 -38.8959 -38.8485 -38.7479 -38.6993 -38.6728 -38.6610
    13.5207  14.8307  15.9610  16.5526  17.3970  17.9233  17.9954  18.8514
    19.3010  19.3732  19.6166  21.3151  29.0908

     occupation numbers 
     1.0000   1.0000   1.0000   1.0000   1.0000   1.0000   1.0000   1.0000
     1.0000   1.0000   1.0000   1.0000   1.0000   1.0000   1.0000   0.0000
     0.0000   0.0000   0.0000   0.0000   0.0000

          k = 0.0000 0.3849-0.3106 (  2888 PWs)   bands (ev):

   -75.4345 -75.4345 -38.8806 -38.8806 -38.7020 -38.7020 -38.6802 -38.6802
    14.1662  14.1662  16.3340  16.3340  17.6444  17.6444  18.4085  18.4085
[...]
    19.7448  19.8206  20.9129  23.3877  28.3220

     occupation numbers 
     1.0000   1.0000   1.0000   1.0000   1.0000   1.0000   1.0000   1.0000
     1.0000   1.0000   1.0000   1.0000   1.0000   1.0000   1.0000   0.0000
     0.0000   0.0000   0.0000   0.0000   0.0000

          k = 0.0833 0.5292 0.1035 (  2880 PWs)   bands (ev):

   -75.4342 -75.4172 -38.9149 -38.8631 -38.7867 -38.7363 -38.6929 -38.6662
    14.4959  15.1315  15.6673  16.1819  17.4026  17.9156  17.9731  19.5396
    19.7030  19.7862  20.7780  23.0622  27.2403

     occupation numbers 
     1.0000   1.0000   1.0000   1.0000   1.0000   1.0000   1.0000   1.0000
     1.0000   1.0000   1.0000   1.0000   1.0000   1.0000   1.0000   0.0000
     0.0000   0.0000   0.0000   0.0000   0.0000

          k = 0.0833 0.5292 0.2070 (  2876 PWs)   bands (ev):

   -75.4306 -75.4208 -38.9303 -38.8978 -38.7495 -38.7136 -38.6983 -38.6705
    14.4828  14.9666  15.9693  16.2895  17.4579  18.2118  18.4147  19.0747
    19.6519  19.8795  20.5623  22.1443  26.6716

     occupation numbers 
     1.0000   1.0000   1.0000   1.0000   1.0000   1.0000   1.0000   1.0000
     1.0000   1.0000   1.0000   1.0000   1.0000   1.0000   1.0000   0.0000
     0.0000   0.0000   0.0000   0.0000   0.0000

          k = 0.0833 0.5292-0.3106 (  2872 PWs)   bands (ev):

   -75.4257 -75.4257 -38.9244 -38.9244 -38.7211 -38.7211 -38.6844 -38.6844
    14.6636  14.6636  16.2442  16.2442  17.9521  17.9521  18.7179  18.7179
    19.7319  19.7319  21.0976  21.0976  26.9234

     occupation numbers 
     1.0000   1.0000   1.0000   1.0000   1.0000   1.0000   1.0000   1.0000
     1.0000   1.0000   1.0000   1.0000   1.0000   1.0000   0.0000   0.0000
     0.0000   0.0000   0.0000   0.0000   0.0000

          k = 0.1667 0.2887 0.0000 (  2874 PWs)   bands (ev):

   -75.4588 -75.4190 -38.8834 -38.7893 -38.7800 -38.7010 -38.6538 -38.6501
    12.2054  15.6159  15.9591  16.3107  17.4588  17.5632  18.0291  18.4542
    18.9666  19.3254  19.7354  24.4646  26.3087

     occupation numbers 
     1.0000   1.0000   1.0000   1.0000   1.0000   1.0000   1.0000   1.0000
     1.0000   1.0000   1.0000   1.0000   1.0000   1.0000   1.0000   0.9548
     0.0000   0.0000   0.0000   0.0000   0.0000

          k = 0.1667 0.2887 0.1035 (  2869 PWs)   bands (ev):

   -75.4562 -75.4217 -38.8833 -38.7873 -38.7721 -38.7085 -38.6582 -38.6485
    12.4200  15.5542  15.8542  16.3765  17.3815  17.5907  17.9152  18.5256
    19.0954  19.2056  19.7429  22.8161  28.5043

     occupation numbers 
     1.0000   1.0000   1.0000   1.0000   1.0000   1.0000   1.0000   1.0000
     1.0000   1.0000   1.0000   1.0000   1.0000   1.0000   1.0000   0.0000
     0.0000   0.0000   0.0000   0.0000   0.0000

          k = 0.1667 0.2887 0.2070 (  2867 PWs)   bands (ev):

   -75.4489 -75.4290 -38.8736 -38.8135 -38.7355 -38.7109 -38.6688 -38.6558
    13.0289  14.8682  16.1032  16.5445  17.1387  17.4202  17.9696  18.5709
    19.2152  19.3232  19.6936  21.0972  31.7463

     occupation numbers 
     1.0000   1.0000   1.0000   1.0000   1.0000   1.0000   1.0000   1.0000
     1.0000   1.0000   1.0000   1.0000   1.0000   1.0000   1.0000   0.0000
     0.0000   0.0000   0.0000   0.0000   0.0000

          k = 0.1667 0.2887-0.3106 (  2882 PWs)   bands (ev):

   -75.4389 -75.4389 -38.8481 -38.8481 -38.7091 -38.7091 -38.6720 -38.6720
    13.9166  13.9166  16.4811  16.4811  17.1026  17.1026  18.2737  18.2737
    19.5158  19.5158  19.9257  19.9257  33.3905

     occupation numbers 
     1.0000   1.0000   1.0000   1.0000   1.0000   1.0000   1.0000   1.0000
     1.0000   1.0000   1.0000   1.0000   1.0000   1.0000   1.0000   1.0000
     0.0000   0.0000   0.0000   0.0000   0.0000

          k = 0.1667 0.3849 0.0000 (  2870 PWs)   bands (ev):

   -75.4463 -75.4163 -38.8472 -38.8373 -38.8138 -38.7300 -38.6747 -38.6721
    13.4515  15.6549  15.6930  16.1123  17.2631  17.6997  17.8027  18.7882
    19.4676  19.7340  20.0325  26.2237  26.5133

     occupation numbers 
     1.0000   1.0000   1.0000   1.0000   1.0000   1.0000   1.0000   1.0000
     1.0000   1.0000   1.0000   1.0000   1.0000   1.0000   1.0000   0.0000
     0.0000   0.0000   0.0000   0.0000   0.0000

          k = 0.1667 0.3849 0.1035 (  2877 PWs)   bands (ev):

   -75.4443 -75.4183 -38.8752 -38.8326 -38.7865 -38.7362 -38.6811 -38.6635
    13.6029  15.5177  15.7978  16.2159  17.2482  17.6514  17.7634  18.8179
    19.4629  19.5699  20.1458  23.9022  28.5262

     occupation numbers 
     1.0000   1.0000   1.0000   1.0000   1.0000   1.0000   1.0000   1.0000
     1.0000   1.0000   1.0000   1.0000   1.0000   1.0000   1.0000   0.0000
     0.0000   0.0000   0.0000   0.0000   0.0000

          k = 0.1667 0.3849 0.2070 (  2872 PWs)   bands (ev):

   -75.4388 -75.4238 -38.8889 -38.8552 -38.7484 -38.7314 -38.6895 -38.6617
    14.0173  15.1344  16.0844  16.4347  17.1223  17.3650  17.9477  18.7551
    19.3250  19.7545  20.2277  21.9083  29.4623

     occupation numbers 
     1.0000   1.0000   1.0000   1.0000   1.0000   1.0000   1.0000   1.0000
     1.0000   1.0000   1.0000   1.0000   1.0000   1.0000   1.0000   0.0000
     0.0000   0.0000   0.0000   0.0000   0.0000

          k = 0.1667 0.3849-0.3106 (  2858 PWs)   bands (ev):

   -75.4313 -75.4313 -38.8799 -38.8799 -38.7304 -38.7304 -38.6772 -38.6772
    14.5818  14.5818  16.4283  16.4283  17.0925  17.0925  18.3062  18.3062
    19.7571  19.7571  20.5826  20.5826  30.5780

     occupation numbers 
     1.0000   1.0000   1.0000   1.0000   1.0000   1.0000   1.0000   1.0000
     1.0000   1.0000   1.0000   1.0000   1.0000   1.0000   1.0000   1.0000
     0.0000   0.0000   0.0000   0.0000   0.0000

          k = 0.1667 0.4811 0.0000 (  2887 PWs)   bands (ev):

   -75.4356 -75.4158 -38.8756 -38.8300 -38.8122 -38.7575 -38.6968 -38.6888
    14.5579  15.4759  15.4789  16.1489  17.2051  17.5496  17.9330  19.2297
    19.7285  19.7314  20.9243  24.8434  28.1168

     occupation numbers 
     1.0000   1.0000   1.0000   1.0000   1.0000   1.0000   1.0000   1.0000
     1.0000   1.0000   1.0000   1.0000   1.0000   1.0000   1.0000   0.0000
     0.0000   0.0000   0.0000   0.0000   0.0000

          k = 0.1667 0.4811 0.1035 (  2881 PWs)   bands (ev):

   -75.4343 -75.4171 -38.8912 -38.8509 -38.7881 -38.7504 -38.7019 -38.6782
    14.5810  15.4286  15.6425  16.1927  17.2226  17.5315  17.9828  19.2151
    19.4939  19.8040  20.9772  24.2575  27.0626

     occupation numbers 
     1.0000   1.0000   1.0000   1.0000   1.0000   1.0000   1.0000   1.0000
     1.0000   1.0000   1.0000   1.0000   1.0000   1.0000   1.0000   0.0000
     0.0000   0.0000   0.0000   0.0000   0.0000

          k = 0.1667 0.4811 0.2070 (  2883 PWs)   bands (ev):

   -75.4306 -75.4207 -38.9080 -38.8811 -38.7689 -38.7316 -38.7024 -38.6685
    14.6949  15.2251  15.9780  16.4786  17.0613  17.5026  18.1789  18.8823
    19.4279  19.9012  21.1292  22.8339  27.1668

     occupation numbers 
     1.0000   1.0000   1.0000   1.0000   1.0000   1.0000   1.0000   1.0000
     1.0000   1.0000   1.0000   1.0000   1.0000   1.0000   1.0000   0.0000
     0.0000   0.0000   0.0000   0.0000   0.0000

          k = 0.1667 0.4811-0.3106 (  2862 PWs)   bands (ev):

   -75.4257 -75.4257 -38.9044 -38.9044 -38.7479 -38.7479 -38.6779 -38.6779
    14.9284  14.9284  16.3937  16.3937  17.2341  17.2341  18.4499  18.4499
    19.7498  19.7498  21.6584  21.6584  27.9756

     occupation numbers 
     1.0000   1.0000   1.0000   1.0000   1.0000   1.0000   1.0000   1.0000
     1.0000   1.0000   1.0000   1.0000   1.0000   1.0000   0.9839   0.9839
     0.0000   0.0000   0.0000   0.0000   0.0000

          k = 0.1667 0.5774 0.0000 (  2892 PWs)   bands (ev):

   -75.4308 -75.4165 -38.8894 -38.8347 -38.7945 -38.7691 -38.7107 -38.6938
    15.0303  15.3438  15.4175  16.2011  17.2407  17.3998  18.0376  19.5391
    19.7128  19.7301  21.8166  23.2822  29.0341

     occupation numbers 
     1.0000   1.0000   1.0000   1.0000   1.0000   1.0000   1.0000   1.0000
     1.0000   1.0000   1.0000   1.0000   1.0000   1.0000   1.0000   0.0000
     0.0000   0.0000   0.0000   0.0000   0.0000

          k = 0.1667 0.5774 0.1035 (  2888 PWs)   bands (ev):

   -75.4299 -75.4174 -38.9018 -38.8541 -38.7925 -38.7443 -38.7147 -38.6846
    14.8887  15.3894  15.7823  16.0356  17.1783  17.5677  18.0965  19.4626
    19.5361  19.7771  21.8491  23.1885  28.2095

     occupation numbers 
     1.0000   1.0000   1.0000   1.0000   1.0000   1.0000   1.0000   1.0000
     1.0000   1.0000   1.0000   1.0000   1.0000   1.0000   1.0000   0.0000
     0.0000   0.0000   0.0000   0.0000   0.0000

          k = 0.1667 0.5774 0.2070 (  2890 PWs)   bands (ev):

   -75.4272 -75.4200 -38.9169 -38.8891 -38.7775 -38.7312 -38.7049 -38.6721
    14.8532  15.2836  16.0410  16.3936  16.9721  17.6746  18.3243  18.9555
    19.5587  19.8211  21.9815  22.8747  27.1167

     occupation numbers 
     1.0000   1.0000   1.0000   1.0000   1.0000   1.0000   1.0000   1.0000
     1.0000   1.0000   1.0000   1.0000   1.0000   1.0000   1.0000   0.0000
     0.0000   0.0000   0.0000   0.0000   0.0000

          k = 0.1667 0.5774-0.3106 (  2874 PWs)   bands (ev):

   -75.4236 -75.4236 -38.9135 -38.9135 -38.7545 -38.7545 -38.6777 -38.6777
    15.0112  15.0112  16.3854  16.3854  17.2844  17.2844  18.6130  18.6130
    19.6856  19.6856  22.3751  22.3751  26.7252

     occupation numbers 
     1.0000   1.0000   1.0000   1.0000   1.0000   1.0000   1.0000   1.0000
     1.0000   1.0000   1.0000   1.0000   1.0000   1.0000   0.0000   0.0000
     0.0000   0.0000   0.0000   0.0000   0.0000

          k = 0.2500 0.4330 0.0000 (  2894 PWs)   bands (ev):

   -75.4356 -75.4158 -38.8550 -38.8318 -38.8124 -38.7577 -38.7077 -38.6965
    14.5606  15.5482  15.8171  15.8331  17.1162  17.5736  17.9360  18.9953
    19.6861  19.7337  20.9606  26.4095  27.1910

     occupation numbers 
     1.0000   1.0000   1.0000   1.0000   1.0000   1.0000   1.0000   1.0000
     1.0000   1.0000   1.0000   1.0000   1.0000   1.0000   1.0000   0.0000
     0.0000   0.0000   0.0000   0.0000   0.0000

          k = 0.2500 0.4330 0.1035 (  2877 PWs)   bands (ev):

   -75.4343 -75.4171 -38.8666 -38.8590 -38.7718 -38.7714 -38.7106 -38.6816
    14.6443  15.4661  15.8860  16.0211  17.1626  17.3999  17.9322  19.0263
    19.4386  19.8131  21.0670  25.0062  27.4814

     occupation numbers 
     1.0000   1.0000   1.0000   1.0000   1.0000   1.0000   1.0000   1.0000
     1.0000   1.0000   1.0000   1.0000   1.0000   1.0000   1.0000   0.0000
     0.0000   0.0000   0.0000   0.0000   0.0000

          k = 0.2500 0.4330 0.2070 (  2877 PWs)   bands (ev):

   -75.4307 -75.4207 -38.8909 -38.8753 -38.7761 -38.7488 -38.7014 -38.6683
    14.8580  15.3251  16.1086  16.3837  17.0193  17.1424  18.0009  18.7873
    19.3882  19.9094  21.3043  23.1508  28.2672

     occupation numbers 
     1.0000   1.0000   1.0000   1.0000   1.0000   1.0000   1.0000   1.0000
     1.0000   1.0000   1.0000   1.0000   1.0000   1.0000   1.0000   0.0000
     0.0000   0.0000   0.0000   0.0000   0.0000

          k = 0.2500 0.4330-0.3106 (  2876 PWs)   bands (ev):

   -75.4257 -75.4257 -38.8920 -38.8920 -38.7623 -38.7623 -38.6760 -38.6760
    15.1139  15.1139  16.4498  16.4498  16.9128  16.9128  18.2893  18.2893
    19.7731  19.7731  21.8709  21.8709  29.2838

     occupation numbers 
     1.0000   1.0000   1.0000   1.0000   1.0000   1.0000   1.0000   1.0000
     1.0000   1.0000   1.0000   1.0000   1.0000   1.0000   1.0000   1.0000
     0.0000   0.0000   0.0000   0.0000   0.0000

          k = 0.2500 0.5292 0.0000 (  2890 PWs)   bands (ev):

   -75.4276 -75.4174 -38.8686 -38.8221 -38.7885 -38.7813 -38.7287 -38.7217
    15.2840  15.5111  15.6553  15.9111  17.1187  17.3374  18.1342  19.2956
    19.6577  19.6810  22.2202  24.4373  26.5098

     occupation numbers 
     1.0000   1.0000   1.0000   1.0000   1.0000   1.0000   1.0000   1.0000
     1.0000   1.0000   1.0000   1.0000   1.0000   1.0000   1.0000   0.0000
     0.0000   0.0000   0.0000   0.0000   0.0000

          k = 0.2500 0.5292 0.1035 (  2887 PWs)   bands (ev):

   -75.4269 -75.4180 -38.8749 -38.8466 -38.8075 -38.7508 -38.7319 -38.6988
    15.2538  15.6220  15.7417  15.9801  17.0983  17.2399  18.1376  19.3080
    19.4063  19.7335  22.3843  24.4210  26.5893

     occupation numbers 
     1.0000   1.0000   1.0000   1.0000   1.0000   1.0000   1.0000   1.0000
     1.0000   1.0000   1.0000   1.0000   1.0000   1.0000   1.0000   0.0000
     0.0000   0.0000   0.0000   0.0000   0.0000

          k = 0.2500 0.5292 0.2070 (  2886 PWs)   bands (ev):

   -75.4250 -75.4199 -38.8918 -38.8763 -38.8064 -38.7621 -38.6976 -38.6759
    15.2976  15.5873  16.0190  16.3276  16.8577  17.0977  18.1952  18.8284
    19.4729  19.7781  22.7689  24.0791  26.6783

     occupation numbers 
     1.0000   1.0000   1.0000   1.0000   1.0000   1.0000   1.0000   1.0000
     1.0000   1.0000   1.0000   1.0000   1.0000   1.0000   1.0000   0.0000
     0.0000   0.0000   0.0000   0.0000   0.0000

          k = 0.2500 0.5292-0.3106 (  2878 PWs)   bands (ev):

   -75.4225 -75.4225 -38.8947 -38.8947 -38.7858 -38.7858 -38.6745 -38.6745
    15.4326  15.4326  16.4146  16.4146  16.8133  16.8133  18.3959  18.3959
    19.6726  19.6726  23.3597  23.3597  27.2227

     occupation numbers 
     1.0000   1.0000   1.0000   1.0000   1.0000   1.0000   1.0000   1.0000
     1.0000   1.0000   1.0000   1.0000   1.0000   1.0000   1.0000   1.0000
     0.0000   0.0000   0.0000   0.0000   0.0000

          k = 0.3333 0.5774 0.0000 (  2892 PWs)   bands (ev):

   -75.4213 -75.4213 -38.8596 -38.8078 -38.8078 -38.7531 -38.7504 -38.7504
    15.5409  15.6374  15.6374  15.8453  17.1650  17.1650  18.2411  19.4609
    19.4609  19.6284  23.6502  24.4251  24.4251

     occupation numbers 
     1.0000   1.0000   1.0000   1.0000   1.0000   1.0000   1.0000   1.0000
     1.0000   1.0000   1.0000   1.0000   1.0000   1.0000   1.0000   0.0000
     0.0000   0.0000   0.0000   0.0000   0.0000

          k = 0.3333 0.5774 0.1035 (  2895 PWs)   bands (ev):

   -75.4213 -75.4213 -38.8525 -38.8374 -38.8374 -38.7603 -38.7207 -38.7207
    15.6151  15.7136  15.7136  15.8784  17.0810  17.0810  18.2176  19.3506
    19.5045  19.5045  24.0682  24.4777  24.4777

     occupation numbers 
     1.0000   1.0000   1.0000   1.0000   1.0000   1.0000   1.0000   1.0000
     1.0000   1.0000   1.0000   1.0000   1.0000   1.0000   1.0000   0.0000
     0.0000   0.0000   0.0000   0.0000   0.0000

          k = 0.3333 0.5774 0.2070 (  2886 PWs)   bands (ev):

   -75.4213 -75.4213 -38.8714 -38.8714 -38.8331 -38.7798 -38.6863 -38.6863
    15.7891  15.8949  15.8949  15.9400  16.8920  16.8920  18.2081  18.8025
    19.5833  19.5833  24.6081  24.6081  25.0792

     occupation numbers 
     1.0000   1.0000   1.0000   1.0000   1.0000   1.0000   1.0000   1.0000
     1.0000   1.0000   1.0000   1.0000   1.0000   1.0000   1.0000   0.0000
     0.0000   0.0000   0.0000   0.0000   0.0000

          k = 0.3333 0.5774-0.3106 (  2910 PWs)   bands (ev):

   -75.4213 -75.4213 -38.8844 -38.8844 -38.8065 -38.8065 -38.6733 -38.6733
    15.9299  15.9299  16.0128  16.0128  16.7738  16.7738  18.3705  18.3705
    19.6188  19.6188  24.6912  24.6912  26.4094

     occupation numbers 
     1.0000   1.0000   1.0000   1.0000   1.0000   1.0000   1.0000   1.0000
     1.0000   1.0000   1.0000   1.0000   1.0000   1.0000   1.0000   1.0000
     0.0000   0.0000   0.0000   0.0000   0.0000

     the Fermi energy is    18.4705 ev

!    total energy              =    -753.45508024 Ry
     total all-electron energy =     -5573.811771 Ry
     estimated scf accuracy    <          3.7E-09 Ry
     smearing contrib. (-TS)   =      -0.00001992 Ry
     internal energy E=F+TS    =    -753.45506032 Ry

     The total energy is F=E-TS. E is the sum of the following terms:
     one-electron contribution =    -284.58637296 Ry
     hartree contribution      =     165.71035175 Ry
     xc contribution           =     -61.39024312 Ry
     ewald contribution        =    -398.01436583 Ry
     one-center paw contrib.   =    -175.17443015 Ry
      -> PAW hartree energy AE =     221.97455082 Ry
      -> PAW hartree energy PS =    -220.91904640 Ry
      -> PAW xc energy AE      =    -117.66917666 Ry
      -> PAW xc energy PS      =      29.02645716 Ry
      -> total E_H with PAW    =     166.76585617 Ry
      -> total E_XC with PAW   =    -150.03296262 Ry

     total magnetization       =     3.31 Bohr mag/cell
     absolute magnetization    =     3.64 Bohr mag/cell

     convergence has been achieved in   1 iterations

     Writing all to output data dir ./out/Co.save/
 
     init_run     :      0.37s CPU      0.54s WALL (       1 calls)
     electrons    :      6.02s CPU      6.33s WALL (       1 calls)

     Called by init_run:
     wfcinit      :      0.23s CPU      0.36s WALL (       1 calls)
     potinit      :      0.10s CPU      0.12s WALL (       1 calls)
     hinit0       :      0.03s CPU      0.03s WALL (       1 calls)

     Called by electrons:
     c_bands      :      5.53s CPU      5.78s WALL (       2 calls)
     sum_band     :      0.38s CPU      0.40s WALL (       2 calls)
     v_of_rho     :      0.01s CPU      0.01s WALL (       2 calls)
     v_h          :      0.00s CPU      0.00s WALL (       2 calls)
     v_xc         :      0.01s CPU      0.01s WALL (       2 calls)
     newd         :      0.01s CPU      0.01s WALL (       2 calls)
     PAW_pot      :      0.18s CPU      0.23s WALL (       2 calls)
     mix_rho      :      0.00s CPU      0.00s WALL (       2 calls)

     Called by c_bands:
     init_us_2    :      0.02s CPU      0.03s WALL (     608 calls)
     init_us_2:cp :      0.02s CPU      0.03s WALL (     608 calls)
     cegterg      :      5.37s CPU      5.56s WALL (     305 calls)

     Called by sum_band:
     sum_band:wei :      0.00s CPU      0.00s WALL (       2 calls)
     sum_band:loo :      0.36s CPU      0.38s WALL (       2 calls)
     sum_band:buf :      0.00s CPU      0.00s WALL (     304 calls)
     sum_band:ini :      0.01s CPU      0.01s WALL (     304 calls)
     sum_band:cal :      0.03s CPU      0.03s WALL (     304 calls)
     sum_band:bec :      0.00s CPU      0.00s WALL (     304 calls)
     addusdens    :      0.02s CPU      0.02s WALL (       2 calls)
                                        0.00s GPU  (       2 calls)
     addusd:skk   :      0.00s CPU      0.00s WALL (       2 calls)
                                        0.00s GPU  (       2 calls)

     Called by *egterg:
     cdiaghg      :      1.71s CPU      1.72s WALL (    2826 calls)
     cegterg:over :      0.21s CPU      0.19s WALL (    2826 calls)
     cegterg:upda :      0.03s CPU      0.05s WALL (    2826 calls)
     cegterg:last :      0.08s CPU      0.09s WALL (    1448 calls)
     h_psi        :      3.13s CPU      3.27s WALL (    3131 calls)
     s_psi        :      0.07s CPU      0.06s WALL (    3131 calls)
     g_psi        :      0.01s CPU      0.01s WALL (    2826 calls)

     Called by h_psi:
     h_psi:calbec :      0.18s CPU      0.16s WALL (    3131 calls)
     vloc_psi     :      2.89s CPU      3.02s WALL (    3131 calls)
     add_vuspsi   :      0.05s CPU      0.07s WALL (    3131 calls)

     General routines
     calbec       :      0.21s CPU      0.19s WALL (    3435 calls)
     fft          :      0.00s CPU      0.00s WALL (      46 calls)
     ffts         :      0.00s CPU      0.00s WALL (       8 calls)
     fftw         :      2.98s CPU      3.08s WALL (   68732 calls)
     interpolate  :      0.00s CPU      0.00s WALL (       4 calls)
 
     Parallel routines

     PAW routines
     PAW_pot      :      0.18s CPU      0.23s WALL (       2 calls)
     PAW_symme    :      0.00s CPU      0.00s WALL (       3 calls)
 
     PWSCF        :      6.67s CPU      7.70s WALL

 
   This run was terminated on:  16:51:41  18Mar2024            

=------------------------------------------------------------------------------=
   JOB DONE.
=------------------------------------------------------------------------------=
