
     Program PWSCF v.7.2 starts on 18Mar2024 at 16:42: 4 

     This program is part of the open-source Quantum ESPRESSO suite
     for quantum simulation of materials; please cite
         "P. Giannozzi et al., J. Phys.:Condens. Matter 21 395502 (2009);
         "P. Giannozzi et al., J. Phys.:Condens. Matter 29 465901 (2017);
         "P. Giannozzi et al., J. Chem. Phys. 152 154105 (2020);
          URL http://www.quantum-espresso.org", 
     in publications or presentations arising from this work. More details at
     http://www.quantum-espresso.org/quote

     Parallel version (MPI), running on    20 processors

     MPI processes distributed on     1 nodes
     354108 MiB available memory on the printing compute node when the environment starts
 
     Waiting for input...
     Reading input from standard input

     Current dimensions of program PWSCF are:
     Max number of different atomic species (ntypx) = 10
     Max number of k-points (npk) = 120000
     Max angular momentum in pseudopotentials (lmaxx) =  4
     file Co.pbe-spn-kjpaw_psl.0.3.1.UPF: wavefunction(s)  3P 3D renormalized
 
     R & G space division:  proc/nbgrp/npool/nimage =      20
     Subspace diagonalization in iterative solution of the eigenvalue problem:
     a serial algorithm will be used

 
     Parallelization info
     --------------------
     sticks:   dense  smooth     PW     G-vecs:    dense   smooth      PW
     Min          33      33      9                 1171     1141     183
     Max          34      34     10                 1190     1146     190
     Sum         673     673    199                23631    22875    3777
 
     Using Slab Decomposition
 


     bravais-lattice index     =            4
     lattice parameter (alat)  =       4.7000  a.u.
     unit-cell volume          =     146.5588 (a.u.)^3
     number of atoms/cell      =            2
     number of atomic types    =            1
     number of electrons       =        34.00
     number of Kohn-Sham states=           21
     kinetic-energy cutoff     =     110.0000  Ry
     charge density cutoff     =     450.0000  Ry
     scf convergence threshold =      1.0E-06
     mixing beta               =       0.7000
     number of iterations used =            8  plain     mixing
     Exchange-correlation= SLA  PW   PBX  PBC
                           (   1   4   3   4   0   0   0)

     celldm(1)=   4.700000  celldm(2)=   0.000000  celldm(3)=   1.630000
     celldm(4)=   0.000000  celldm(5)=   0.000000  celldm(6)=   0.000000

     crystal axes: (cart. coord. in units of alat)
               a(1) = (   1.000000   0.000000   0.000000 )  
               a(2) = (  -0.500000   0.866025   0.000000 )  
               a(3) = (   0.000000   0.000000   1.630000 )  

     reciprocal axes: (cart. coord. in units 2 pi/alat)
               b(1) = (  1.000000  0.577350  0.000000 )  
               b(2) = (  0.000000  1.154701  0.000000 )  
               b(3) = (  0.000000  0.000000  0.613497 )  


     PseudoPot. # 1 for Co read from file:
     /truba/home/amuhaymin/ZnS/pseudo/QE/Co.pbe-spn-kjpaw_psl.0.3.1.UPF
     MD5 check sum: b0a1ad65bf214e88c1f3d33b20c7d919
     Pseudo is Projector augmented-wave + core cor, Zval = 17.0
     Generated using &quot;atomic&quot; code by A. Dal Corso  v.6.2.2
     Shape of augmentation charge: PSQ
     Using radial grid of 1193 points,  6 beta functions with: 
                l(1) =   0
                l(2) =   0
                l(3) =   1
                l(4) =   1
                l(5) =   2
                l(6) =   2
     Q(r) pseudized with 0 coefficients 


     atomic species   valence    mass     pseudopotential
        Co            17.00    58.93300     Co( 1.00)

     Starting magnetic structure 
     atomic species   magnetization
        Co           0.294

     24 Sym. Ops., with inversion, found (12 have fractional translation)


                                    s                        frac. trans.

      isym =  1     identity                                     

 cryst.   s( 1) = (     1          0          0      )
                  (     0          1          0      )
                  (     0          0          1      )

 cart.    s( 1) = (  1.0000000  0.0000000  0.0000000 )
                  (  0.0000000  1.0000000  0.0000000 )
                  (  0.0000000  0.0000000  1.0000000 )


      isym =  2     180 deg rotation - cart. axis [0,0,1]        

 cryst.   s( 2) = (    -1          0          0      )    f =(  0.0000000 )
                  (     0         -1          0      )       (  0.0000000 )
                  (     0          0          1      )       ( -0.5000000 )

 cart.    s( 2) = ( -1.0000000  0.0000000  0.0000000 )    f =(  0.0000000 )
                  (  0.0000000 -1.0000000  0.0000000 )       (  0.0000000 )
                  (  0.0000000  0.0000000  1.0000000 )       ( -0.8150000 )


      isym =  3     180 deg rotation - cart. axis [0,1,0]        

 cryst.   s( 3) = (    -1          0          0      )    f =(  0.0000000 )
                  (     1          1          0      )       (  0.0000000 )
                  (     0          0         -1      )       (  0.5000000 )

 cart.    s( 3) = ( -1.0000000  0.0000000  0.0000000 )    f =(  0.0000000 )
                  (  0.0000000  1.0000000  0.0000000 )       (  0.0000000 )
                  (  0.0000000  0.0000000 -1.0000000 )       (  0.8150000 )


      isym =  4     180 deg rotation - cart. axis [1,0,0]        

 cryst.   s( 4) = (     1          0          0      )
                  (    -1         -1          0      )
                  (     0          0         -1      )

 cart.    s( 4) = (  1.0000000  0.0000000  0.0000000 )
                  (  0.0000000 -1.0000000  0.0000000 )
                  (  0.0000000  0.0000000 -1.0000000 )


      isym =  5      60 deg rotation - cryst. axis [0,0,1]       

 cryst.   s( 5) = (     1          1          0      )    f =(  0.0000000 )
                  (    -1          0          0      )       ( -0.0000000 )
                  (     0          0          1      )       ( -0.5000000 )

 cart.    s( 5) = (  0.5000000 -0.8660254  0.0000000 )    f =(  0.0000000 )
                  (  0.8660254  0.5000000  0.0000000 )       ( -0.0000000 )
                  (  0.0000000  0.0000000  1.0000000 )       ( -0.8150000 )


      isym =  6      60 deg rotation - cryst. axis [0,0,-1]      

 cryst.   s( 6) = (     0         -1          0      )    f =(  0.0000000 )
                  (     1          1          0      )       ( -0.0000000 )
                  (     0          0          1      )       ( -0.5000000 )

 cart.    s( 6) = (  0.5000000  0.8660254  0.0000000 )    f =(  0.0000000 )
                  ( -0.8660254  0.5000000  0.0000000 )       ( -0.0000000 )
                  (  0.0000000  0.0000000  1.0000000 )       ( -0.8150000 )


      isym =  7     120 deg rotation - cryst. axis [0,0,1]       

 cryst.   s( 7) = (     0          1          0      )
                  (    -1         -1          0      )
                  (     0          0          1      )

 cart.    s( 7) = ( -0.5000000 -0.8660254  0.0000000 )
                  (  0.8660254 -0.5000000  0.0000000 )
                  (  0.0000000  0.0000000  1.0000000 )


      isym =  8     120 deg rotation - cryst. axis [0,0,-1]      

 cryst.   s( 8) = (    -1         -1          0      )
                  (     1          0          0      )
                  (     0          0          1      )

 cart.    s( 8) = ( -0.5000000  0.8660254  0.0000000 )
                  ( -0.8660254 -0.5000000  0.0000000 )
                  (  0.0000000  0.0000000  1.0000000 )


      isym =  9     180 deg rotation - cryst. axis [1,-1,0]      

 cryst.   s( 9) = (     0         -1          0      )    f =(  0.0000000 )
                  (    -1          0          0      )       (  0.0000000 )
                  (     0          0         -1      )       (  0.5000000 )

 cart.    s( 9) = (  0.5000000 -0.8660254  0.0000000 )    f =(  0.0000000 )
                  ( -0.8660254 -0.5000000  0.0000000 )       (  0.0000000 )
                  (  0.0000000  0.0000000 -1.0000000 )       (  0.8150000 )


      isym = 10     180 deg rotation - cryst. axis [2,1,0]       

 cryst.   s(10) = (     1          1          0      )    f =(  0.0000000 )
                  (     0         -1          0      )       ( -0.0000000 )
                  (     0          0         -1      )       (  0.5000000 )

 cart.    s(10) = (  0.5000000  0.8660254  0.0000000 )    f =(  0.0000000 )
                  (  0.8660254 -0.5000000  0.0000000 )       ( -0.0000000 )
                  (  0.0000000  0.0000000 -1.0000000 )       (  0.8150000 )


      isym = 11     180 deg rotation - cryst. axis [0,1,0]       

 cryst.   s(11) = (    -1         -1          0      )
                  (     0          1          0      )
                  (     0          0         -1      )

 cart.    s(11) = ( -0.5000000 -0.8660254  0.0000000 )
                  ( -0.8660254  0.5000000  0.0000000 )
                  (  0.0000000  0.0000000 -1.0000000 )


      isym = 12     180 deg rotation - cryst. axis [1,1,0]       

 cryst.   s(12) = (     0          1          0      )
                  (     1          0          0      )
                  (     0          0         -1      )

 cart.    s(12) = ( -0.5000000  0.8660254  0.0000000 )
                  (  0.8660254  0.5000000  0.0000000 )
                  (  0.0000000  0.0000000 -1.0000000 )


      isym = 13     inversion                                    

 cryst.   s(13) = (    -1          0          0      )
                  (     0         -1          0      )
                  (     0          0         -1      )

 cart.    s(13) = ( -1.0000000  0.0000000  0.0000000 )
                  (  0.0000000 -1.0000000  0.0000000 )
                  (  0.0000000  0.0000000 -1.0000000 )


      isym = 14     inv. 180 deg rotation - cart. axis [0,0,1]   

 cryst.   s(14) = (     1          0          0      )    f =(  0.0000000 )
                  (     0          1          0      )       (  0.0000000 )
                  (     0          0         -1      )       (  0.5000000 )

 cart.    s(14) = (  1.0000000  0.0000000  0.0000000 )    f =(  0.0000000 )
                  (  0.0000000  1.0000000  0.0000000 )       (  0.0000000 )
                  (  0.0000000  0.0000000 -1.0000000 )       (  0.8150000 )


      isym = 15     inv. 180 deg rotation - cart. axis [0,1,0]   

 cryst.   s(15) = (     1          0          0      )    f =(  0.0000000 )
                  (    -1         -1          0      )       (  0.0000000 )
                  (     0          0          1      )       ( -0.5000000 )

 cart.    s(15) = (  1.0000000  0.0000000  0.0000000 )    f =(  0.0000000 )
                  (  0.0000000 -1.0000000  0.0000000 )       (  0.0000000 )
                  (  0.0000000  0.0000000  1.0000000 )       ( -0.8150000 )


      isym = 16     inv. 180 deg rotation - cart. axis [1,0,0]   

 cryst.   s(16) = (    -1          0          0      )
                  (     1          1          0      )
                  (     0          0          1      )

 cart.    s(16) = ( -1.0000000  0.0000000  0.0000000 )
                  (  0.0000000  1.0000000  0.0000000 )
                  (  0.0000000  0.0000000  1.0000000 )


      isym = 17     inv.  60 deg rotation - cryst. axis [0,0,1]  

 cryst.   s(17) = (    -1         -1          0      )    f =(  0.0000000 )
                  (     1          0          0      )       (  0.0000000 )
                  (     0          0         -1      )       (  0.5000000 )

 cart.    s(17) = ( -0.5000000  0.8660254  0.0000000 )    f =(  0.0000000 )
                  ( -0.8660254 -0.5000000  0.0000000 )       (  0.0000000 )
                  (  0.0000000  0.0000000 -1.0000000 )       (  0.8150000 )


      isym = 18     inv.  60 deg rotation - cryst. axis [0,0,-1] 

 cryst.   s(18) = (     0          1          0      )    f =(  0.0000000 )
                  (    -1         -1          0      )       ( -0.0000000 )
                  (     0          0         -1      )       (  0.5000000 )

 cart.    s(18) = ( -0.5000000 -0.8660254  0.0000000 )    f =(  0.0000000 )
                  (  0.8660254 -0.5000000  0.0000000 )       ( -0.0000000 )
                  (  0.0000000  0.0000000 -1.0000000 )       (  0.8150000 )


      isym = 19     inv. 120 deg rotation - cryst. axis [0,0,1]  

 cryst.   s(19) = (     0         -1          0      )
                  (     1          1          0      )
                  (     0          0         -1      )

 cart.    s(19) = (  0.5000000  0.8660254  0.0000000 )
                  ( -0.8660254  0.5000000  0.0000000 )
                  (  0.0000000  0.0000000 -1.0000000 )


      isym = 20     inv. 120 deg rotation - cryst. axis [0,0,-1] 

 cryst.   s(20) = (     1          1          0      )
                  (    -1          0          0      )
                  (     0          0         -1      )

 cart.    s(20) = (  0.5000000 -0.8660254  0.0000000 )
                  (  0.8660254  0.5000000  0.0000000 )
                  (  0.0000000  0.0000000 -1.0000000 )


      isym = 21     inv. 180 deg rotation - cryst. axis [1,-1,0] 

 cryst.   s(21) = (     0          1          0      )    f =(  0.0000000 )
                  (     1          0          0      )       ( -0.0000000 )
                  (     0          0          1      )       ( -0.5000000 )

 cart.    s(21) = ( -0.5000000  0.8660254  0.0000000 )    f =(  0.0000000 )
                  (  0.8660254  0.5000000  0.0000000 )       ( -0.0000000 )
                  (  0.0000000  0.0000000  1.0000000 )       ( -0.8150000 )


      isym = 22     inv. 180 deg rotation - cryst. axis [2,1,0]  

 cryst.   s(22) = (    -1         -1          0      )    f =(  0.0000000 )
                  (     0          1          0      )       ( -0.0000000 )
                  (     0          0          1      )       ( -0.5000000 )

 cart.    s(22) = ( -0.5000000 -0.8660254  0.0000000 )    f =(  0.0000000 )
                  ( -0.8660254  0.5000000  0.0000000 )       ( -0.0000000 )
                  (  0.0000000  0.0000000  1.0000000 )       ( -0.8150000 )


      isym = 23     inv. 180 deg rotation - cryst. axis [0,1,0]  

 cryst.   s(23) = (     1          1          0      )
                  (     0         -1          0      )
                  (     0          0          1      )

 cart.    s(23) = (  0.5000000  0.8660254  0.0000000 )
                  (  0.8660254 -0.5000000  0.0000000 )
                  (  0.0000000  0.0000000  1.0000000 )


      isym = 24     inv. 180 deg rotation - cryst. axis [1,1,0]  

 cryst.   s(24) = (     0         -1          0      )
                  (    -1          0          0      )
                  (     0          0          1      )

 cart.    s(24) = (  0.5000000 -0.8660254  0.0000000 )
                  ( -0.8660254 -0.5000000  0.0000000 )
                  (  0.0000000  0.0000000  1.0000000 )


     point group D_6h(6/mmm)
     there are 12 classes
     the character table:

       E     2C6   2C3   C2    3C2'  3C2'' i     2S3   2S6   s_h   3s_d  3s_v 
A_1g   1.00  1.00  1.00  1.00  1.00  1.00  1.00  1.00  1.00  1.00  1.00  1.00
A_2g   1.00  1.00  1.00  1.00 -1.00 -1.00  1.00  1.00  1.00  1.00 -1.00 -1.00
B_1g   1.00 -1.00  1.00 -1.00  1.00 -1.00  1.00 -1.00  1.00 -1.00  1.00 -1.00
B_2g   1.00 -1.00  1.00 -1.00 -1.00  1.00  1.00 -1.00  1.00 -1.00 -1.00  1.00
E_1g   2.00  1.00 -1.00 -2.00  0.00  0.00  2.00  1.00 -1.00 -2.00  0.00  0.00
E_2g   2.00 -1.00 -1.00  2.00  0.00  0.00  2.00 -1.00 -1.00  2.00  0.00  0.00
A_1u   1.00  1.00  1.00  1.00  1.00  1.00 -1.00 -1.00 -1.00 -1.00 -1.00 -1.00
A_2u   1.00  1.00  1.00  1.00 -1.00 -1.00 -1.00 -1.00 -1.00 -1.00  1.00  1.00
B_1u   1.00 -1.00  1.00 -1.00  1.00 -1.00 -1.00  1.00 -1.00  1.00 -1.00  1.00
B_2u   1.00 -1.00  1.00 -1.00 -1.00  1.00 -1.00  1.00 -1.00  1.00  1.00 -1.00
E_1u   2.00  1.00 -1.00 -2.00  0.00  0.00 -2.00 -1.00  1.00  2.00  0.00  0.00
E_2u   2.00 -1.00 -1.00  2.00  0.00  0.00 -2.00  1.00  1.00 -2.00  0.00  0.00

     the symmetry operations in each class and the name of the first element:

     E        1
          identity                                               
     2C6      5    6
           60 deg rotation - cryst. axis [0,0,1]                 
     2C3      7    8
          120 deg rotation - cryst. axis [0,0,1]                 
     C2       2
          180 deg rotation - cart. axis [0,0,1]                  
     3C2'     4   12   11
          180 deg rotation - cart. axis [1,0,0]                  
     3C2''    3    9   10
          180 deg rotation - cart. axis [0,1,0]                  
     i       13
          inversion                                              
     2S3     17   18
          inv.  60 deg rotation - cryst. axis [0,0,1]            
     2S6     19   20
          inv. 120 deg rotation - cryst. axis [0,0,1]            
     s_h     14
          inv. 180 deg rotation - cart. axis [0,0,1]             
     3s_d    16   24   23
          inv. 180 deg rotation - cart. axis [1,0,0]             
     3s_v    15   21   22
          inv. 180 deg rotation - cart. axis [0,1,0]             

   Cartesian axes

     site n.     atom                  positions (alat units)
         1           Co  tau(   1) = (  -0.0000000   0.5773503   0.4075000  )
         2           Co  tau(   2) = (   0.5000000   0.2886751   1.2225000  )

   Crystallographic axes

     site n.     atom                  positions (cryst. coord.)
         1           Co  tau(   1) = (  0.3333333  0.6666667  0.2500000  )
         2           Co  tau(   2) = (  0.6666667  0.3333333  0.7500000  )

     number of k points=    76  Gaussian smearing, width (Ry)=  0.0010
                       cart. coord. in units 2pi/alat
        k(    1) = (   0.0000000   0.0000000   0.0000000), wk =   0.0011574
        k(    2) = (   0.0000000   0.0000000   0.1022495), wk =   0.0023148
        k(    3) = (   0.0000000   0.0000000   0.2044990), wk =   0.0023148
        k(    4) = (   0.0000000   0.0000000  -0.3067485), wk =   0.0011574
        k(    5) = (   0.0000000   0.0962250   0.0000000), wk =   0.0069444
        k(    6) = (   0.0000000   0.0962250   0.1022495), wk =   0.0138889
        k(    7) = (   0.0000000   0.0962250   0.2044990), wk =   0.0138889
        k(    8) = (   0.0000000   0.0962250  -0.3067485), wk =   0.0069444
        k(    9) = (   0.0000000   0.1924501   0.0000000), wk =   0.0069444
        k(   10) = (   0.0000000   0.1924501   0.1022495), wk =   0.0138889
        k(   11) = (   0.0000000   0.1924501   0.2044990), wk =   0.0138889
        k(   12) = (   0.0000000   0.1924501  -0.3067485), wk =   0.0069444
        k(   13) = (   0.0000000   0.2886751   0.0000000), wk =   0.0069444
        k(   14) = (   0.0000000   0.2886751   0.1022495), wk =   0.0138889
        k(   15) = (   0.0000000   0.2886751   0.2044990), wk =   0.0138889
        k(   16) = (   0.0000000   0.2886751  -0.3067485), wk =   0.0069444
        k(   17) = (   0.0000000   0.3849002   0.0000000), wk =   0.0069444
        k(   18) = (   0.0000000   0.3849002   0.1022495), wk =   0.0138889
        k(   19) = (   0.0000000   0.3849002   0.2044990), wk =   0.0138889
        k(   20) = (   0.0000000   0.3849002  -0.3067485), wk =   0.0069444
        k(   21) = (   0.0000000   0.4811252   0.0000000), wk =   0.0069444
        k(   22) = (   0.0000000   0.4811252   0.1022495), wk =   0.0138889
        k(   23) = (   0.0000000   0.4811252   0.2044990), wk =   0.0138889
        k(   24) = (   0.0000000   0.4811252  -0.3067485), wk =   0.0069444
        k(   25) = (   0.0000000  -0.5773503   0.0000000), wk =   0.0034722
        k(   26) = (   0.0000000  -0.5773503   0.1022495), wk =   0.0069444
        k(   27) = (   0.0000000  -0.5773503   0.2044990), wk =   0.0069444
        k(   28) = (   0.0000000  -0.5773503  -0.3067485), wk =   0.0034722
        k(   29) = (   0.0833333   0.1443376   0.0000000), wk =   0.0069444
        k(   30) = (   0.0833333   0.1443376   0.1022495), wk =   0.0138889
        k(   31) = (   0.0833333   0.1443376   0.2044990), wk =   0.0138889
        k(   32) = (   0.0833333   0.1443376  -0.3067485), wk =   0.0069444
        k(   33) = (   0.0833333   0.2405626   0.0000000), wk =   0.0138889
        k(   34) = (   0.0833333   0.2405626   0.1022495), wk =   0.0277778
        k(   35) = (   0.0833333   0.2405626   0.2044990), wk =   0.0277778
        k(   36) = (   0.0833333   0.2405626  -0.3067485), wk =   0.0138889
        k(   37) = (   0.0833333   0.3367877   0.0000000), wk =   0.0138889
        k(   38) = (   0.0833333   0.3367877   0.1022495), wk =   0.0277778
        k(   39) = (   0.0833333   0.3367877   0.2044990), wk =   0.0277778
        k(   40) = (   0.0833333   0.3367877  -0.3067485), wk =   0.0138889
        k(   41) = (   0.0833333   0.4330127   0.0000000), wk =   0.0138889
        k(   42) = (   0.0833333   0.4330127   0.1022495), wk =   0.0277778
        k(   43) = (   0.0833333   0.4330127   0.2044990), wk =   0.0277778
        k(   44) = (   0.0833333   0.4330127  -0.3067485), wk =   0.0138889
        k(   45) = (   0.0833333   0.5292377   0.0000000), wk =   0.0138889
        k(   46) = (   0.0833333   0.5292377   0.1022495), wk =   0.0277778
        k(   47) = (   0.0833333   0.5292377   0.2044990), wk =   0.0277778
        k(   48) = (   0.0833333   0.5292377  -0.3067485), wk =   0.0138889
        k(   49) = (   0.1666667   0.2886751   0.0000000), wk =   0.0069444
        k(   50) = (   0.1666667   0.2886751   0.1022495), wk =   0.0138889
        k(   51) = (   0.1666667   0.2886751   0.2044990), wk =   0.0138889
        k(   52) = (   0.1666667   0.2886751  -0.3067485), wk =   0.0069444
        k(   53) = (   0.1666667   0.3849002   0.0000000), wk =   0.0138889
        k(   54) = (   0.1666667   0.3849002   0.1022495), wk =   0.0277778
        k(   55) = (   0.1666667   0.3849002   0.2044990), wk =   0.0277778
        k(   56) = (   0.1666667   0.3849002  -0.3067485), wk =   0.0138889
        k(   57) = (   0.1666667   0.4811252   0.0000000), wk =   0.0138889
        k(   58) = (   0.1666667   0.4811252   0.1022495), wk =   0.0277778
        k(   59) = (   0.1666667   0.4811252   0.2044990), wk =   0.0277778
        k(   60) = (   0.1666667   0.4811252  -0.3067485), wk =   0.0138889
        k(   61) = (   0.1666667   0.5773503   0.0000000), wk =   0.0069444
        k(   62) = (   0.1666667   0.5773503   0.1022495), wk =   0.0138889
        k(   63) = (   0.1666667   0.5773503   0.2044990), wk =   0.0138889
        k(   64) = (   0.1666667   0.5773503  -0.3067485), wk =   0.0069444
        k(   65) = (   0.2500000   0.4330127   0.0000000), wk =   0.0069444
        k(   66) = (   0.2500000   0.4330127   0.1022495), wk =   0.0138889
        k(   67) = (   0.2500000   0.4330127   0.2044990), wk =   0.0138889
        k(   68) = (   0.2500000   0.4330127  -0.3067485), wk =   0.0069444
        k(   69) = (   0.2500000   0.5292377   0.0000000), wk =   0.0138889
        k(   70) = (   0.2500000   0.5292377   0.1022495), wk =   0.0277778
        k(   71) = (   0.2500000   0.5292377   0.2044990), wk =   0.0277778
        k(   72) = (   0.2500000   0.5292377  -0.3067485), wk =   0.0138889
        k(   73) = (   0.3333333   0.5773503   0.0000000), wk =   0.0023148
        k(   74) = (   0.3333333   0.5773503   0.1022495), wk =   0.0046296
        k(   75) = (   0.3333333   0.5773503   0.2044990), wk =   0.0046296
        k(   76) = (   0.3333333   0.5773503  -0.3067485), wk =   0.0023148

                       cryst. coord.
        k(    1) = (   0.0000000   0.0000000   0.0000000), wk =   0.0011574
        k(    2) = (   0.0000000   0.0000000   0.1666667), wk =   0.0023148
        k(    3) = (   0.0000000   0.0000000   0.3333333), wk =   0.0023148
        k(    4) = (   0.0000000   0.0000000  -0.5000000), wk =   0.0011574
        k(    5) = (   0.0000000   0.0833333   0.0000000), wk =   0.0069444
        k(    6) = (   0.0000000   0.0833333   0.1666667), wk =   0.0138889
        k(    7) = (   0.0000000   0.0833333   0.3333333), wk =   0.0138889
        k(    8) = (   0.0000000   0.0833333  -0.5000000), wk =   0.0069444
        k(    9) = (   0.0000000   0.1666667   0.0000000), wk =   0.0069444
        k(   10) = (   0.0000000   0.1666667   0.1666667), wk =   0.0138889
        k(   11) = (   0.0000000   0.1666667   0.3333333), wk =   0.0138889
        k(   12) = (   0.0000000   0.1666667  -0.5000000), wk =   0.0069444
        k(   13) = (   0.0000000   0.2500000   0.0000000), wk =   0.0069444
        k(   14) = (   0.0000000   0.2500000   0.1666667), wk =   0.0138889
        k(   15) = (   0.0000000   0.2500000   0.3333333), wk =   0.0138889
        k(   16) = (   0.0000000   0.2500000  -0.5000000), wk =   0.0069444
        k(   17) = (   0.0000000   0.3333333   0.0000000), wk =   0.0069444
        k(   18) = (   0.0000000   0.3333333   0.1666667), wk =   0.0138889
        k(   19) = (   0.0000000   0.3333333   0.3333333), wk =   0.0138889
        k(   20) = (   0.0000000   0.3333333  -0.5000000), wk =   0.0069444
        k(   21) = (   0.0000000   0.4166667   0.0000000), wk =   0.0069444
        k(   22) = (   0.0000000   0.4166667   0.1666667), wk =   0.0138889
        k(   23) = (   0.0000000   0.4166667   0.3333333), wk =   0.0138889
        k(   24) = (   0.0000000   0.4166667  -0.5000000), wk =   0.0069444
        k(   25) = (   0.0000000  -0.5000000   0.0000000), wk =   0.0034722
        k(   26) = (   0.0000000  -0.5000000   0.1666667), wk =   0.0069444
        k(   27) = (   0.0000000  -0.5000000   0.3333333), wk =   0.0069444
        k(   28) = (   0.0000000  -0.5000000  -0.5000000), wk =   0.0034722
        k(   29) = (   0.0833333   0.0833333   0.0000000), wk =   0.0069444
        k(   30) = (   0.0833333   0.0833333   0.1666667), wk =   0.0138889
        k(   31) = (   0.0833333   0.0833333   0.3333333), wk =   0.0138889
        k(   32) = (   0.0833333   0.0833333  -0.5000000), wk =   0.0069444
        k(   33) = (   0.0833333   0.1666667   0.0000000), wk =   0.0138889
        k(   34) = (   0.0833333   0.1666667   0.1666667), wk =   0.0277778
        k(   35) = (   0.0833333   0.1666667   0.3333333), wk =   0.0277778
        k(   36) = (   0.0833333   0.1666667  -0.5000000), wk =   0.0138889
        k(   37) = (   0.0833333   0.2500000   0.0000000), wk =   0.0138889
        k(   38) = (   0.0833333   0.2500000   0.1666667), wk =   0.0277778
        k(   39) = (   0.0833333   0.2500000   0.3333333), wk =   0.0277778
        k(   40) = (   0.0833333   0.2500000  -0.5000000), wk =   0.0138889
        k(   41) = (   0.0833333   0.3333333   0.0000000), wk =   0.0138889
        k(   42) = (   0.0833333   0.3333333   0.1666667), wk =   0.0277778
        k(   43) = (   0.0833333   0.3333333   0.3333333), wk =   0.0277778
        k(   44) = (   0.0833333   0.3333333  -0.5000000), wk =   0.0138889
        k(   45) = (   0.0833333   0.4166667   0.0000000), wk =   0.0138889
        k(   46) = (   0.0833333   0.4166667   0.1666667), wk =   0.0277778
        k(   47) = (   0.0833333   0.4166667   0.3333333), wk =   0.0277778
        k(   48) = (   0.0833333   0.4166667  -0.5000000), wk =   0.0138889
        k(   49) = (   0.1666667   0.1666667   0.0000000), wk =   0.0069444
        k(   50) = (   0.1666667   0.1666667   0.1666667), wk =   0.0138889
        k(   51) = (   0.1666667   0.1666667   0.3333333), wk =   0.0138889
        k(   52) = (   0.1666667   0.1666667  -0.5000000), wk =   0.0069444
        k(   53) = (   0.1666667   0.2500000   0.0000000), wk =   0.0138889
        k(   54) = (   0.1666667   0.2500000   0.1666667), wk =   0.0277778
        k(   55) = (   0.1666667   0.2500000   0.3333333), wk =   0.0277778
        k(   56) = (   0.1666667   0.2500000  -0.5000000), wk =   0.0138889
        k(   57) = (   0.1666667   0.3333333   0.0000000), wk =   0.0138889
        k(   58) = (   0.1666667   0.3333333   0.1666667), wk =   0.0277778
        k(   59) = (   0.1666667   0.3333333   0.3333333), wk =   0.0277778
        k(   60) = (   0.1666667   0.3333333  -0.5000000), wk =   0.0138889
        k(   61) = (   0.1666667   0.4166667   0.0000000), wk =   0.0069444
        k(   62) = (   0.1666667   0.4166667   0.1666667), wk =   0.0138889
        k(   63) = (   0.1666667   0.4166667   0.3333333), wk =   0.0138889
        k(   64) = (   0.1666667   0.4166667  -0.5000000), wk =   0.0069444
        k(   65) = (   0.2500000   0.2500000   0.0000000), wk =   0.0069444
        k(   66) = (   0.2500000   0.2500000   0.1666667), wk =   0.0138889
        k(   67) = (   0.2500000   0.2500000   0.3333333), wk =   0.0138889
        k(   68) = (   0.2500000   0.2500000  -0.5000000), wk =   0.0069444
        k(   69) = (   0.2500000   0.3333333   0.0000000), wk =   0.0138889
        k(   70) = (   0.2500000   0.3333333   0.1666667), wk =   0.0277778
        k(   71) = (   0.2500000   0.3333333   0.3333333), wk =   0.0277778
        k(   72) = (   0.2500000   0.3333333  -0.5000000), wk =   0.0138889
        k(   73) = (   0.3333333   0.3333333   0.0000000), wk =   0.0023148
        k(   74) = (   0.3333333   0.3333333   0.1666667), wk =   0.0046296
        k(   75) = (   0.3333333   0.3333333   0.3333333), wk =   0.0046296
        k(   76) = (   0.3333333   0.3333333  -0.5000000), wk =   0.0023148

     Dense  grid:    23631 G-vectors     FFT dimensions: (  32,  32,  54)

     Smooth grid:    22875 G-vectors     FFT dimensions: (  32,  32,  54)

     Dynamical RAM for                 wfc:       0.05 MB

     Dynamical RAM for     wfc (w. buffer):       6.96 MB

     Dynamical RAM for           str. fact:       0.02 MB

     Dynamical RAM for           local pot:       0.00 MB

     Dynamical RAM for          nlocal pot:       0.08 MB

     Dynamical RAM for                qrad:       1.70 MB

     Dynamical RAM for          rho,v,vnew:       0.25 MB

     Dynamical RAM for               rhoin:       0.08 MB

     Dynamical RAM for            rho*nmix:       0.57 MB

     Dynamical RAM for           G-vectors:       0.08 MB

     Dynamical RAM for          h,s,v(r/c):       0.08 MB

     Dynamical RAM for          <psi|beta>:       0.01 MB

     Dynamical RAM for                 psi:       0.09 MB

     Dynamical RAM for                hpsi:       0.09 MB

     Dynamical RAM for                spsi:       0.09 MB

     Dynamical RAM for      wfcinit/wfcrot:       0.10 MB

     Dynamical RAM for           addusdens:       3.38 MB

     Estimated static dynamical RAM per process >       9.34 MB

     Estimated max dynamical RAM per process >      13.30 MB

     Estimated total dynamical RAM >     265.97 MB

     Check: negative core charge=   -0.000043
     Generating pointlists ...
     new r_m :   0.4120 (alat units)  1.9364 (a.u.) for type    1

     The initial density is read from file :
     ./out/Co.save/charge-density

     Starting wfcs from file
     Checking if some PAW data can be deallocated... 

     total cpu time spent up to now is        0.6 secs

     Self-consistent Calculation

     iteration #  1     ecut=   110.00 Ry     beta= 0.70
     Davidson diagonalization with overlap

---- Real-time Memory Report at c_bands before calling an iterative solver
            54 MiB given to the printing process from OS
             0 MiB allocation reported by mallinfo(arena+hblkhd)
        353537 MiB available memory on the node where the printing process lives
------------------
     ethr =  1.00E-05,  avg # of iterations =  1.0

     Threshold (ethr) on eigenvalues was too large:
     Diagonalizing with lowered threshold

     Davidson diagonalization with overlap

---- Real-time Memory Report at c_bands before calling an iterative solver
            62 MiB given to the printing process from OS
             0 MiB allocation reported by mallinfo(arena+hblkhd)
        353338 MiB available memory on the node where the printing process lives
------------------
     ethr =  5.26E-10,  avg # of iterations =  6.6
 
     Magnetic moment per site  (integrated on atomic sphere of radius R)
     atom   1 (R=0.412)  charge= 15.6030  magn=  1.7525
     atom   2 (R=0.412)  charge= 15.6030  magn=  1.7525

     total cpu time spent up to now is        4.1 secs

     End of self-consistent calculation

 ------ SPIN UP ------------


          k = 0.0000 0.0000 0.0000 (  2875 PWs)   bands (ev):

   -77.4823 -77.4280 -40.8838 -40.5863 -40.5863 -40.5644 -40.5409 -40.5409
     9.6669  13.4566  15.9624  16.0360  16.0360  16.3402  16.3402  16.7015
    16.7015  17.7768  17.7768  18.3359  24.8278

     occupation numbers 
     1.0000   1.0000   1.0000   1.0000   1.0000   1.0000   1.0000   1.0000
     1.0000   1.0000   1.0000   1.0000   1.0000   1.0000   1.0000   1.0000
     1.0000   1.0000   1.0000   1.0000   0.0000

          k = 0.0000 0.0000 0.1022 (  2851 PWs)   bands (ev):

   -77.4787 -77.4316 -40.8626 -40.5861 -40.5832 -40.5832 -40.5439 -40.5439
     9.9409  13.3831  15.8937  15.9753  15.9753  16.2696  16.2696  16.8579
    16.8579  17.3958  17.7595  17.7595  26.3330

     occupation numbers 
     1.0000   1.0000   1.0000   1.0000   1.0000   1.0000   1.0000   1.0000
     1.0000   1.0000   1.0000   1.0000   1.0000   1.0000   1.0000   1.0000
     1.0000   1.0000   1.0000   1.0000   0.0000

          k = 0.0000 0.0000 0.2045 (  2864 PWs)   bands (ev):

   -77.4688 -77.4416 -40.8048 -40.6451 -40.5749 -40.5749 -40.5522 -40.5522
    10.7269  12.9358  15.7351  15.9234  15.9234  16.1025  16.1133  16.1133
    17.1695  17.1695  17.6713  17.6713  29.5178

     occupation numbers 
     1.0000   1.0000   1.0000   1.0000   1.0000   1.0000   1.0000   1.0000
     1.0000   1.0000   1.0000   1.0000   1.0000   1.0000   1.0000   1.0000
     1.0000   1.0000   1.0000   1.0000   0.0000

          k = 0.0000 0.0000-0.3067 (  2834 PWs)   bands (ev):

   -77.4552 -77.4552 -40.7252 -40.7252 -40.5635 -40.5635 -40.5635 -40.5635
    11.8735  11.8735  15.6606  15.6606  15.9739  15.9739  15.9739  15.9739
    17.4687  17.4687  17.4687  17.4687  33.3238

     occupation numbers 
     1.0000   1.0000   1.0000   1.0000   1.0000   1.0000   1.0000   1.0000
     1.0000   1.0000   1.0000   1.0000   1.0000   1.0000   1.0000   1.0000
     1.0000   1.0000   1.0000   1.0000   0.0000

          k = 0.0000 0.0962 0.0000 (  2829 PWs)   bands (ev):

   -77.4791 -77.4264 -40.8767 -40.6021 -40.5914 -40.5672 -40.5573 -40.5436
     9.9098  13.6042  15.7844  16.1504  16.1789  16.2902  16.4419  16.5373
    16.6309  16.9634  17.8060  19.4770  24.8680

     occupation numbers 
     1.0000   1.0000   1.0000   1.0000   1.0000   1.0000   1.0000   1.0000
     1.0000   1.0000   1.0000   1.0000   1.0000   1.0000   1.0000   1.0000
     1.0000   1.0000   1.0000   0.0000   0.0000

          k = 0.0000 0.0962 0.1022 (  2847 PWs)   bands (ev):

   -77.4756 -77.4300 -40.8568 -40.5988 -40.5922 -40.5882 -40.5561 -40.5468
    10.1796  13.5451  15.7835  16.0108  16.0738  16.1102  16.3655  16.6394
    16.8132  16.8847  17.7814  18.7183  26.4427

     occupation numbers 
     1.0000   1.0000   1.0000   1.0000   1.0000   1.0000   1.0000   1.0000
     1.0000   1.0000   1.0000   1.0000   1.0000   1.0000   1.0000   1.0000
     1.0000   1.0000   1.0000   0.0000   0.0000

          k = 0.0000 0.0962 0.2045 (  2865 PWs)   bands (ev):

   -77.4660 -77.4397 -40.8020 -40.6503 -40.5890 -40.5794 -40.5636 -40.5555
    10.9531  13.1257  15.6707  15.7190  15.8439  16.0148  16.2078  16.2564
    17.1437  17.1870  17.6770  17.9675  29.6727

     occupation numbers 
     1.0000   1.0000   1.0000   1.0000   1.0000   1.0000   1.0000   1.0000
     1.0000   1.0000   1.0000   1.0000   1.0000   1.0000   1.0000   1.0000
     1.0000   1.0000   1.0000   1.0000   0.0000

          k = 0.0000 0.0962-0.3067 (  2854 PWs)   bands (ev):

   -77.4528 -77.4528 -40.7266 -40.7266 -40.5761 -40.5761 -40.5675 -40.5675
    12.0814  12.0814  15.5230  15.5230  15.9796  15.9796  16.0665  16.0665
    17.4575  17.4575  17.5591  17.5591  33.4937

     occupation numbers 
     1.0000   1.0000   1.0000   1.0000   1.0000   1.0000   1.0000   1.0000
     1.0000   1.0000   1.0000   1.0000   1.0000   1.0000   1.0000   1.0000
     1.0000   1.0000   1.0000   1.0000   0.0000

          k = 0.0000 0.1925 0.0000 (  2839 PWs)   bands (ev):

   -77.4703 -77.4224 -40.8567 -40.6458 -40.6051 -40.6020 -40.5756 -40.5513
    10.6121  13.9695  15.5208  15.7843  16.1071  16.4565  16.4736  16.4807
    16.6274  16.7272  17.8674  21.0666  25.0100

     occupation numbers 
     1.0000   1.0000   1.0000   1.0000   1.0000   1.0000   1.0000   1.0000
     1.0000   1.0000   1.0000   1.0000   1.0000   1.0000   1.0000   1.0000
     1.0000   1.0000   1.0000   0.0000   0.0000

          k = 0.0000 0.1925 0.1022 (  2846 PWs)   bands (ev):

   -77.4671 -77.4256 -40.8406 -40.6411 -40.6218 -40.6015 -40.5771 -40.5549
    10.8660  13.9548  15.5147  15.5614  15.9869  16.2876  16.3688  16.6144
    16.7917  16.8716  17.8272  19.9436  26.8000

     occupation numbers 
     1.0000   1.0000   1.0000   1.0000   1.0000   1.0000   1.0000   1.0000
     1.0000   1.0000   1.0000   1.0000   1.0000   1.0000   1.0000   1.0000
     1.0000   1.0000   1.0000   0.0000   0.0000

          k = 0.0000 0.1925 0.2045 (  2853 PWs)   bands (ev):

   -77.4583 -77.4344 -40.7961 -40.6721 -40.6252 -40.5917 -40.5879 -40.5648
    11.5907  13.6174  15.1803  15.6190  15.7073  16.1953  16.2382  16.4693
    17.1167  17.2703  17.6892  18.6077  30.1361

     occupation numbers 
     1.0000   1.0000   1.0000   1.0000   1.0000   1.0000   1.0000   1.0000
     1.0000   1.0000   1.0000   1.0000   1.0000   1.0000   1.0000   1.0000
     1.0000   1.0000   1.0000   0.9998   0.0000

          k = 0.0000 0.1925-0.3067 (  2864 PWs)   bands (ev):

   -77.4463 -77.4463 -40.7348 -40.7348 -40.6061 -40.6061 -40.5782 -40.5782
    12.6413  12.6413  15.2985  15.2985  15.9167  15.9167  16.3133  16.3133
    17.4415  17.4415  17.8027  17.8027  33.9605

     occupation numbers 
     1.0000   1.0000   1.0000   1.0000   1.0000   1.0000   1.0000   1.0000
     1.0000   1.0000   1.0000   1.0000   1.0000   1.0000   1.0000   1.0000
     1.0000   1.0000   1.0000   1.0000   0.0000

          k = 0.0000 0.2887 0.0000 (  2830 PWs)   bands (ev):

   -77.4577 -77.4172 -40.8268 -40.7060 -40.6620 -40.6234 -40.5898 -40.5623
    11.6748  14.2631  15.0627  15.3608  16.0041  16.2468  16.4234  16.9128
    16.9424  17.1372  17.9246  22.8555  25.2876

     occupation numbers 
     1.0000   1.0000   1.0000   1.0000   1.0000   1.0000   1.0000   1.0000
     1.0000   1.0000   1.0000   1.0000   1.0000   1.0000   1.0000   1.0000
     1.0000   1.0000   1.0000   0.0000   0.0000

          k = 0.0000 0.2887 0.1022 (  2837 PWs)   bands (ev):

   -77.4550 -77.4200 -40.8192 -40.6970 -40.6760 -40.6193 -40.5926 -40.5664
    11.8860  14.3017  14.9220  15.4122  15.8551  16.2856  16.4245  16.9834
    17.0370  17.0941  17.8708  21.2188  27.4430

     occupation numbers 
     1.0000   1.0000   1.0000   1.0000   1.0000   1.0000   1.0000   1.0000
     1.0000   1.0000   1.0000   1.0000   1.0000   1.0000   1.0000   1.0000
     1.0000   1.0000   1.0000   0.0000   0.0000

          k = 0.0000 0.2887 0.2045 (  2858 PWs)   bands (ev):

   -77.4476 -77.4274 -40.7961 -40.7177 -40.6651 -40.6082 -40.6063 -40.5776
    12.4745  14.0539  14.8513  15.4353  15.7342  16.2682  16.4073  16.8370
    17.2406  17.4266  17.7153  19.3772  30.7887

     occupation numbers 
     1.0000   1.0000   1.0000   1.0000   1.0000   1.0000   1.0000   1.0000
     1.0000   1.0000   1.0000   1.0000   1.0000   1.0000   1.0000   1.0000
     1.0000   1.0000   1.0000   0.0000   0.0000

          k = 0.0000 0.2887-0.3067 (  2862 PWs)   bands (ev):

   -77.4375 -77.4375 -40.7598 -40.7598 -40.6329 -40.6329 -40.5929 -40.5929
    13.2903  13.2903  15.1445  15.1445  15.9770  15.9770  16.6057  16.6057
    17.4860  17.4860  18.1457  18.1457  33.0363

     occupation numbers 
     1.0000   1.0000   1.0000   1.0000   1.0000   1.0000   1.0000   1.0000
     1.0000   1.0000   1.0000   1.0000   1.0000   1.0000   1.0000   1.0000
     1.0000   1.0000   1.0000   1.0000   0.0000

          k = 0.0000 0.3849 0.0000 (  2856 PWs)   bands (ev):

   -77.4442 -77.4130 -40.7918 -40.7667 -40.7210 -40.6413 -40.6090 -40.5736
    12.8352  14.1957  14.5436  15.4712  16.0578  16.1256  16.2375  17.4426
    17.5812  17.6069  17.9629  24.8055  25.3860

     occupation numbers 
     1.0000   1.0000   1.0000   1.0000   1.0000   1.0000   1.0000   1.0000
     1.0000   1.0000   1.0000   1.0000   1.0000   1.0000   1.0000   1.0000
     1.0000   1.0000   1.0000   0.0000   0.0000

          k = 0.0000 0.3849 0.1022 (  2861 PWs)   bands (ev):

   -77.4421 -77.4151 -40.8093 -40.7446 -40.7254 -40.6368 -40.6091 -40.5782
    12.9327  14.2218  14.5807  15.3207  16.0552  16.1490  16.5856  17.4573
    17.4909  17.5432  17.9146  22.4594  27.5866

     occupation numbers 
     1.0000   1.0000   1.0000   1.0000   1.0000   1.0000   1.0000   1.0000
     1.0000   1.0000   1.0000   1.0000   1.0000   1.0000   1.0000   1.0000
     1.0000   1.0000   1.0000   0.0000   0.0000

          k = 0.0000 0.3849 0.2045 (  2854 PWs)   bands (ev):

   -77.4364 -77.4208 -40.8154 -40.7711 -40.6841 -40.6244 -40.6178 -40.5906
    13.2071  14.0364  14.7255  15.2263  16.1658  16.4062  16.8988  17.1732
    17.5616  17.6555  17.8066  20.2658  28.7259

     occupation numbers 
     1.0000   1.0000   1.0000   1.0000   1.0000   1.0000   1.0000   1.0000
     1.0000   1.0000   1.0000   1.0000   1.0000   1.0000   1.0000   1.0000
     1.0000   1.0000   1.0000   0.0000   0.0000

          k = 0.0000 0.3849-0.3067 (  2872 PWs)   bands (ev):

   -77.4286 -77.4286 -40.8007 -40.8007 -40.6436 -40.6436 -40.6075 -40.6075
    13.6094  13.6094  15.0125  15.0125  16.5804  16.5804  16.7778  16.7778
    17.6802  17.6802  18.6276  18.6276  29.8349

     occupation numbers 
     1.0000   1.0000   1.0000   1.0000   1.0000   1.0000   1.0000   1.0000
     1.0000   1.0000   1.0000   1.0000   1.0000   1.0000   1.0000   1.0000
     1.0000   1.0000   0.9355   0.9355   0.0000

          k = 0.0000 0.4811 0.0000 (  2854 PWs)   bands (ev):

   -77.4332 -77.4110 -40.8113 -40.7635 -40.7595 -40.6541 -40.6298 -40.5821
    13.5988  14.0071  14.2344  15.8288  15.9286  16.1055  16.3324  17.8174
    17.9480  17.9828  18.7291  23.6253  26.8204

     occupation numbers 
     1.0000   1.0000   1.0000   1.0000   1.0000   1.0000   1.0000   1.0000
     1.0000   1.0000   1.0000   1.0000   1.0000   1.0000   1.0000   1.0000
     1.0000   1.0000   0.0000   0.0000   0.0000

          k = 0.0000 0.4811 0.1022 (  2854 PWs)   bands (ev):

   -77.4317 -77.4125 -40.8296 -40.7804 -40.7279 -40.6493 -40.6261 -40.5869
    13.4892  13.9995  14.5461  15.2122  16.0397  16.3377  16.9435  17.7372
    17.8467  18.0069  18.5701  22.8242  26.1851

     occupation numbers 
     1.0000   1.0000   1.0000   1.0000   1.0000   1.0000   1.0000   1.0000
     1.0000   1.0000   1.0000   1.0000   1.0000   1.0000   1.0000   1.0000
     1.0000   1.0000   1.0000   0.0000   0.0000

          k = 0.0000 0.4811 0.2045 (  2855 PWs)   bands (ev):

   -77.4276 -77.4165 -40.8436 -40.8114 -40.6818 -40.6362 -40.6269 -40.6002
    13.4557  13.9255  14.7103  15.0272  16.3549  16.5942  17.3259  17.8792
    17.9014  17.9799  18.2561  21.1080  26.3416

     occupation numbers 
     1.0000   1.0000   1.0000   1.0000   1.0000   1.0000   1.0000   1.0000
     1.0000   1.0000   1.0000   1.0000   1.0000   1.0000   1.0000   1.0000
     1.0000   1.0000   1.0000   0.0000   0.0000

          k = 0.0000 0.4811-0.3067 (  2856 PWs)   bands (ev):

   -77.4221 -77.4221 -40.8366 -40.8366 -40.6452 -40.6452 -40.6182 -40.6182
    13.6372  13.6372  14.8884  14.8884  16.8173  16.8173  17.3027  17.3027
    17.9305  17.9305  19.4654  19.4654  27.1162

     occupation numbers 
     1.0000   1.0000   1.0000   1.0000   1.0000   1.0000   1.0000   1.0000
     1.0000   1.0000   1.0000   1.0000   1.0000   1.0000   1.0000   1.0000
     1.0000   1.0000   0.0000   0.0000   0.0000

          k = 0.0000-0.5774 0.0000 (  2862 PWs)   bands (ev):

   -77.4286 -77.4108 -40.8277 -40.7789 -40.7444 -40.6588 -40.6406 -40.5853
    13.8567  13.8666  14.1319  15.8829  16.0578  16.0792  16.4069  17.9530
    17.9888  18.0964  19.8920  21.9077  28.1284

     occupation numbers 
     1.0000   1.0000   1.0000   1.0000   1.0000   1.0000   1.0000   1.0000
     1.0000   1.0000   1.0000   1.0000   1.0000   1.0000   1.0000   1.0000
     1.0000   1.0000   0.0000   0.0000   0.0000

          k = 0.0000-0.5774 0.1022 (  2852 PWs)   bands (ev):

   -77.4274 -77.4120 -40.8422 -40.7949 -40.7196 -40.6539 -40.6348 -40.5902
    13.5889  13.9046  14.5793  15.1838  15.9998  16.4234  17.1462  17.7900
    17.9904  18.0889  19.6834  21.7284  27.2820

     occupation numbers 
     1.0000   1.0000   1.0000   1.0000   1.0000   1.0000   1.0000   1.0000
     1.0000   1.0000   1.0000   1.0000   1.0000   1.0000   1.0000   1.0000
     1.0000   1.0000   0.0000   0.0000   0.0000

          k = 0.0000-0.5774 0.2045 (  2874 PWs)   bands (ev):

   -77.4241 -77.4152 -40.8560 -40.8262 -40.6777 -40.6405 -40.6313 -40.6037
    13.4756  13.8818  14.7365  14.9351  16.3315  16.7357  17.3568  18.0110
    18.0192  18.0682  19.3594  21.1260  26.2906

     occupation numbers 
     1.0000   1.0000   1.0000   1.0000   1.0000   1.0000   1.0000   1.0000
     1.0000   1.0000   1.0000   1.0000   1.0000   1.0000   1.0000   1.0000
     1.0000   1.0000   0.0000   0.0000   0.0000

          k = 0.0000-0.5774-0.3067 (  2860 PWs)   bands (ev):

   -77.4197 -77.4197 -40.8505 -40.8505 -40.6451 -40.6451 -40.6221 -40.6221
    13.6210  13.6210  14.8401  14.8401  16.8194  16.8194  17.5411  17.5411
    18.0398  18.0398  20.1257  20.1257  25.8551

     occupation numbers 
     1.0000   1.0000   1.0000   1.0000   1.0000   1.0000   1.0000   1.0000
     1.0000   1.0000   1.0000   1.0000   1.0000   1.0000   1.0000   1.0000
     1.0000   1.0000   0.0000   0.0000   0.0000

          k = 0.0833 0.1443 0.0000 (  2840 PWs)   bands (ev):

   -77.4731 -77.4236 -40.8632 -40.6293 -40.6078 -40.5815 -40.5728 -40.5508
    10.3832  13.8665  15.5770  16.0308  16.1829  16.3282  16.3840  16.4224
    16.6649  16.7535  17.8408  20.6218  24.9610

     occupation numbers 
     1.0000   1.0000   1.0000   1.0000   1.0000   1.0000   1.0000   1.0000
     1.0000   1.0000   1.0000   1.0000   1.0000   1.0000   1.0000   1.0000
     1.0000   1.0000   1.0000   0.0000   0.0000

          k = 0.0833 0.1443 0.1022 (  2851 PWs)   bands (ev):

   -77.4698 -77.4270 -40.8457 -40.6248 -40.6144 -40.5970 -40.5698 -40.5543
    10.6432  13.8374  15.6046  15.7012  16.0320  16.2405  16.3478  16.5299
    16.8077  16.8680  17.8083  19.6111  26.6783

     occupation numbers 
     1.0000   1.0000   1.0000   1.0000   1.0000   1.0000   1.0000   1.0000
     1.0000   1.0000   1.0000   1.0000   1.0000   1.0000   1.0000   1.0000
     1.0000   1.0000   1.0000   0.0000   0.0000

          k = 0.0833 0.1443 0.2045 (  2856 PWs)   bands (ev):

   -77.4608 -77.4360 -40.7976 -40.6637 -40.6125 -40.5929 -40.5765 -40.5636
    11.3868  13.4731  15.3028  15.6651  15.7194  16.1637  16.2173  16.3887
    17.1457  17.2177  17.6881  18.4223  29.9846

     occupation numbers 
     1.0000   1.0000   1.0000   1.0000   1.0000   1.0000   1.0000   1.0000
     1.0000   1.0000   1.0000   1.0000   1.0000   1.0000   1.0000   1.0000
     1.0000   1.0000   1.0000   1.0000   0.0000

          k = 0.0833 0.1443-0.3067 (  2846 PWs)   bands (ev):

   -77.4484 -77.4484 -40.7313 -40.7313 -40.5970 -40.5970 -40.5753 -40.5753
    12.4689  12.4689  15.3560  15.3560  15.9183  15.9183  16.2483  16.2483
    17.4467  17.4467  17.7267  17.7267  33.8216

     occupation numbers 
     1.0000   1.0000   1.0000   1.0000   1.0000   1.0000   1.0000   1.0000
     1.0000   1.0000   1.0000   1.0000   1.0000   1.0000   1.0000   1.0000
     1.0000   1.0000   1.0000   1.0000   0.0000

          k = 0.0833 0.2406 0.0000 (  2842 PWs)   bands (ev):

   -77.4623 -77.4190 -40.8382 -40.6774 -40.6493 -40.6091 -40.5842 -40.5633
    11.2743  14.2417  15.3099  15.3267  16.0529  16.1947  16.5866  16.6044
    16.8099  17.0839  17.8829  22.2104  25.1918

     occupation numbers 
     1.0000   1.0000   1.0000   1.0000   1.0000   1.0000   1.0000   1.0000
     1.0000   1.0000   1.0000   1.0000   1.0000   1.0000   1.0000   1.0000
     1.0000   1.0000   1.0000   0.0000   0.0000

          k = 0.0833 0.2406 0.1022 (  2840 PWs)   bands (ev):

   -77.4595 -77.4219 -40.8265 -40.6711 -40.6588 -40.6140 -40.5843 -40.5669
    11.5070  14.2714  15.1189  15.3598  15.9355  16.2034  16.4239  16.7282
    16.9967  17.0619  17.8456  20.7799  27.1999

     occupation numbers 
     1.0000   1.0000   1.0000   1.0000   1.0000   1.0000   1.0000   1.0000
     1.0000   1.0000   1.0000   1.0000   1.0000   1.0000   1.0000   1.0000
     1.0000   1.0000   1.0000   0.0000   0.0000

          k = 0.0833 0.2406 0.2045 (  2850 PWs)   bands (ev):

   -77.4515 -77.4299 -40.7938 -40.6982 -40.6487 -40.6136 -40.5913 -40.5768
    12.1647  13.9939  14.9343  15.4660  15.6681  16.0917  16.3842  16.7083
    17.2360  17.3432  17.7265  19.1102  30.5949

     occupation numbers 
     1.0000   1.0000   1.0000   1.0000   1.0000   1.0000   1.0000   1.0000
     1.0000   1.0000   1.0000   1.0000   1.0000   1.0000   1.0000   1.0000
     1.0000   1.0000   1.0000   0.0000   0.0000

          k = 0.0833 0.2406-0.3067 (  2856 PWs)   bands (ev):

   -77.4407 -77.4407 -40.7473 -40.7473 -40.6249 -40.6249 -40.5891 -40.5891
    13.1027  13.1027  15.2026  15.2026  15.8117  15.8117  16.5289  16.5289
    17.4919  17.4919  18.0229  18.0229  34.2376

     occupation numbers 
     1.0000   1.0000   1.0000   1.0000   1.0000   1.0000   1.0000   1.0000
     1.0000   1.0000   1.0000   1.0000   1.0000   1.0000   1.0000   1.0000
     1.0000   1.0000   1.0000   1.0000   0.0000

          k = 0.0833 0.3368 0.0000 (  2848 PWs)   bands (ev):

   -77.4493 -77.4144 -40.8055 -40.7364 -40.7005 -40.6346 -40.6011 -40.5768
    12.4230  14.3646  14.7580  15.2441  16.0051  16.0554  16.4026  16.9993
    17.3151  17.6524  17.9177  24.0420  25.5493

     occupation numbers 
     1.0000   1.0000   1.0000   1.0000   1.0000   1.0000   1.0000   1.0000
     1.0000   1.0000   1.0000   1.0000   1.0000   1.0000   1.0000   1.0000
     1.0000   1.0000   1.0000   0.0000   0.0000

          k = 0.0833 0.3368 0.1022 (  2851 PWs)   bands (ev):

   -77.4469 -77.4167 -40.8078 -40.7250 -40.7063 -40.6348 -40.6009 -40.5802
    12.5851  14.4248  14.6687  15.2902  15.8485  16.2327  16.3759  17.0286
    17.4008  17.5121  17.9310  22.0414  27.9494

     occupation numbers 
     1.0000   1.0000   1.0000   1.0000   1.0000   1.0000   1.0000   1.0000
     1.0000   1.0000   1.0000   1.0000   1.0000   1.0000   1.0000   1.0000
     1.0000   1.0000   1.0000   0.0000   0.0000

          k = 0.0833 0.3368 0.2045 (  2853 PWs)   bands (ev):

   -77.4406 -77.4231 -40.8021 -40.7479 -40.6774 -40.6306 -40.6072 -40.5900
    13.0238  14.1748  14.7835  15.3539  15.7673  16.2448  16.4480  17.0324
    17.4607  17.6249  17.9022  19.9653  30.3562

     occupation numbers 
     1.0000   1.0000   1.0000   1.0000   1.0000   1.0000   1.0000   1.0000
     1.0000   1.0000   1.0000   1.0000   1.0000   1.0000   1.0000   1.0000
     1.0000   1.0000   1.0000   0.0000   0.0000

          k = 0.0833 0.3368-0.3067 (  2856 PWs)   bands (ev):

   -77.4318 -77.4318 -40.7804 -40.7804 -40.6433 -40.6433 -40.6040 -40.6040
    13.6104  13.6104  15.1193  15.1193  15.9894  15.9894  16.7184  16.7184
    17.6971  17.6971  18.4823  18.4823  31.5498

     occupation numbers 
     1.0000   1.0000   1.0000   1.0000   1.0000   1.0000   1.0000   1.0000
     1.0000   1.0000   1.0000   1.0000   1.0000   1.0000   1.0000   1.0000
     1.0000   1.0000   1.0000   1.0000   0.0000

          k = 0.0833 0.4330 0.0000 (  2862 PWs)   bands (ev):

   -77.4369 -77.4114 -40.7886 -40.7708 -40.7451 -40.6550 -40.6221 -40.5883
    13.4347  14.1889  14.3747  15.4735  15.8859  16.1986  16.2482  17.5201
    17.7452  17.9386  18.4511  24.9401  26.0330

     occupation numbers 
     1.0000   1.0000   1.0000   1.0000   1.0000   1.0000   1.0000   1.0000
     1.0000   1.0000   1.0000   1.0000   1.0000   1.0000   1.0000   1.0000
     1.0000   1.0000   1.0000   0.0000   0.0000

          k = 0.0833 0.4330 0.1022 (  2860 PWs)   bands (ev):

   -77.4351 -77.4131 -40.8135 -40.7642 -40.7288 -40.6521 -40.6195 -40.5916
    13.4262  14.2065  14.5292  15.2248  15.9629  16.2827  16.5443  17.4697
    17.7616  17.8041  18.4496  23.1285  26.7329

     occupation numbers 
     1.0000   1.0000   1.0000   1.0000   1.0000   1.0000   1.0000   1.0000
     1.0000   1.0000   1.0000   1.0000   1.0000   1.0000   1.0000   1.0000
     1.0000   1.0000   1.0000   0.0000   0.0000

          k = 0.0833 0.4330 0.2045 (  2857 PWs)   bands (ev):

   -77.4305 -77.4178 -40.8267 -40.7927 -40.6852 -40.6425 -40.6223 -40.6003
    13.5056  14.0744  14.7165  15.1829  16.0696  16.4968  16.9367  17.2161
    17.6407  17.9555  18.5132  20.9916  27.4541

     occupation numbers 
     1.0000   1.0000   1.0000   1.0000   1.0000   1.0000   1.0000   1.0000
     1.0000   1.0000   1.0000   1.0000   1.0000   1.0000   1.0000   1.0000
     1.0000   1.0000   1.0000   0.0000   0.0000

          k = 0.0833 0.4330-0.3067 (  2852 PWs)   bands (ev):

   -77.4241 -77.4241 -40.8182 -40.8182 -40.6516 -40.6516 -40.6150 -40.6150
    13.7461  13.7461  14.9987  14.9987  16.5052  16.5052  16.8930  16.8930
    17.9051  17.9051  19.3342  19.3342  28.4871

     occupation numbers 
     1.0000   1.0000   1.0000   1.0000   1.0000   1.0000   1.0000   1.0000
     1.0000   1.0000   1.0000   1.0000   1.0000   1.0000   1.0000   1.0000
     1.0000   1.0000   0.0000   0.0000   0.0000

          k = 0.0833 0.5292 0.0000 (  2859 PWs)   bands (ev):

   -77.4286 -77.4108 -40.8189 -40.7708 -40.7445 -40.6663 -40.6404 -40.5951
    13.8855  14.0258  14.1836  15.8391  15.8457  16.0572  16.4047  17.8968
    17.9475  17.9727  19.7284  22.6771  27.9362

     occupation numbers 
     1.0000   1.0000   1.0000   1.0000   1.0000   1.0000   1.0000   1.0000
     1.0000   1.0000   1.0000   1.0000   1.0000   1.0000   1.0000   1.0000
     1.0000   1.0000   0.0000   0.0000   0.0000

          k = 0.0833 0.5292 0.1022 (  2856 PWs)   bands (ev):

   -77.4274 -77.4120 -40.8335 -40.7873 -40.7207 -40.6604 -40.6356 -40.5984
    13.6701  14.0361  14.6138  15.1674  15.8935  16.4680  16.8131  17.7349
    17.9161  18.0019  19.6613  22.4099  26.7002

     occupation numbers 
     1.0000   1.0000   1.0000   1.0000   1.0000   1.0000   1.0000   1.0000
     1.0000   1.0000   1.0000   1.0000   1.0000   1.0000   1.0000   1.0000
     1.0000   1.0000   0.0000   0.0000   0.0000

          k = 0.0833 0.5292 0.2045 (  2858 PWs)   bands (ev):

   -77.4241 -77.4152 -40.8475 -40.8184 -40.6839 -40.6443 -40.6354 -40.6061
    13.5794  14.0085  14.7450  15.0434  16.0647  16.7985  17.2005  17.4672
    17.8762  18.0674  19.7012  21.5473  25.9966

     occupation numbers 
     1.0000   1.0000   1.0000   1.0000   1.0000   1.0000   1.0000   1.0000
     1.0000   1.0000   1.0000   1.0000   1.0000   1.0000   1.0000   1.0000
     1.0000   1.0000   0.0000   0.0000   0.0000

          k = 0.0833 0.5292-0.3067 (  2860 PWs)   bands (ev):

   -77.4197 -77.4197 -40.8423 -40.8423 -40.6555 -40.6555 -40.6200 -40.6200
    13.7342  13.7342  14.9132  14.9132  16.6054  16.6054  17.3261  17.3261
    17.9459  17.9459  20.4289  20.4289  26.2744

     occupation numbers 
     1.0000   1.0000   1.0000   1.0000   1.0000   1.0000   1.0000   1.0000
     1.0000   1.0000   1.0000   1.0000   1.0000   1.0000   1.0000   1.0000
     1.0000   1.0000   0.0000   0.0000   0.0000

          k = 0.1667 0.2887 0.0000 (  2848 PWs)   bands (ev):

   -77.4511 -77.4149 -40.8102 -40.7127 -40.7037 -40.6272 -40.5985 -40.5848
    12.2776  14.5464  14.8716  15.0169  15.9303  16.0595  16.5027  16.7532
    17.3019  17.6760  17.8776  23.7843  25.5852

     occupation numbers 
     1.0000   1.0000   1.0000   1.0000   1.0000   1.0000   1.0000   1.0000
     1.0000   1.0000   1.0000   1.0000   1.0000   1.0000   1.0000   1.0000
     1.0000   1.0000   1.0000   0.0000   0.0000

          k = 0.1667 0.2887 0.1022 (  2843 PWs)   bands (ev):

   -77.4487 -77.4174 -40.8082 -40.7116 -40.6990 -40.6358 -40.5939 -40.5886
    12.4615  14.6397  14.7294  15.0695  15.8920  16.0692  16.3891  16.8466
    17.4160  17.5016  17.9446  21.9038  27.9343

     occupation numbers 
     1.0000   1.0000   1.0000   1.0000   1.0000   1.0000   1.0000   1.0000
     1.0000   1.0000   1.0000   1.0000   1.0000   1.0000   1.0000   1.0000
     1.0000   1.0000   1.0000   0.0000   0.0000

          k = 0.1667 0.2887 0.2045 (  2843 PWs)   bands (ev):

   -77.4421 -77.4240 -40.7965 -40.7377 -40.6689 -40.6400 -40.5980 -40.5965
    12.9653  14.2945  14.8941  15.2204  15.7085  15.9356  16.3918  16.9698
    17.4655  17.6115  17.9782  19.8891  31.2870

     occupation numbers 
     1.0000   1.0000   1.0000   1.0000   1.0000   1.0000   1.0000   1.0000
     1.0000   1.0000   1.0000   1.0000   1.0000   1.0000   1.0000   1.0000
     1.0000   1.0000   1.0000   0.0000   0.0000

          k = 0.1667 0.2887-0.3067 (  2866 PWs)   bands (ev):

   -77.4330 -77.4330 -40.7710 -40.7710 -40.6438 -40.6438 -40.6040 -40.6040
    13.6453  13.6453  15.2109  15.2109  15.6577  15.6577  16.6671  16.6671
    17.7462  17.7462  18.4632  18.4632  33.2747

     occupation numbers 
     1.0000   1.0000   1.0000   1.0000   1.0000   1.0000   1.0000   1.0000
     1.0000   1.0000   1.0000   1.0000   1.0000   1.0000   1.0000   1.0000
     1.0000   1.0000   1.0000   1.0000   0.0000

          k = 0.1667 0.3849 0.0000 (  2857 PWs)   bands (ev):

   -77.4389 -77.4118 -40.7770 -40.7590 -40.7379 -40.6549 -40.6181 -40.6056
    13.3776  14.5176  14.5298  14.9943  15.7707  16.2005  16.3051  17.0687
    17.7419  17.8694  18.4844  25.6388  25.9989

     occupation numbers 
     1.0000   1.0000   1.0000   1.0000   1.0000   1.0000   1.0000   1.0000
     1.0000   1.0000   1.0000   1.0000   1.0000   1.0000   1.0000   1.0000
     1.0000   1.0000   1.0000   0.0000   0.0000

          k = 0.1667 0.3849 0.1022 (  2858 PWs)   bands (ev):

   -77.4371 -77.4136 -40.7979 -40.7556 -40.7174 -40.6619 -40.6148 -40.6047
    13.4534  14.4509  14.6265  15.0737  15.8179  16.1907  16.2621  17.1070
    17.6624  17.8279  18.5658  23.1997  28.1697

     occupation numbers 
     1.0000   1.0000   1.0000   1.0000   1.0000   1.0000   1.0000   1.0000
     1.0000   1.0000   1.0000   1.0000   1.0000   1.0000   1.0000   1.0000
     1.0000   1.0000   1.0000   0.0000   0.0000

          k = 0.1667 0.3849 0.2045 (  2853 PWs)   bands (ev):

   -77.4321 -77.4185 -40.8090 -40.7769 -40.6814 -40.6615 -40.6202 -40.6034
    13.6611  14.2501  14.8684  15.2977  15.7351  16.0331  16.4024  17.0857
    17.5723  17.9743  18.7439  21.0087  29.1655

     occupation numbers 
     1.0000   1.0000   1.0000   1.0000   1.0000   1.0000   1.0000   1.0000
     1.0000   1.0000   1.0000   1.0000   1.0000   1.0000   1.0000   1.0000
     1.0000   1.0000   0.0000   0.0000   0.0000

          k = 0.1667 0.3849-0.3067 (  2848 PWs)   bands (ev):

   -77.4253 -77.4253 -40.8000 -40.8000 -40.6619 -40.6619 -40.6142 -40.6142
    13.9522  13.9522  15.2025  15.2025  15.8196  15.8196  16.6767  16.6767
    17.9555  17.9555  19.4279  19.4279  30.3052

     occupation numbers 
     1.0000   1.0000   1.0000   1.0000   1.0000   1.0000   1.0000   1.0000
     1.0000   1.0000   1.0000   1.0000   1.0000   1.0000   1.0000   1.0000
     1.0000   1.0000   0.0000   0.0000   0.0000

          k = 0.1667 0.4811 0.0000 (  2870 PWs)   bands (ev):

   -77.4287 -77.4107 -40.7957 -40.7553 -40.7449 -40.6807 -40.6401 -40.6197
    14.0721  14.3003  14.3276  15.3059  15.7296  16.0870  16.4020  17.4887
    17.8626  17.9548  19.6640  24.3407  27.6504

     occupation numbers 
     1.0000   1.0000   1.0000   1.0000   1.0000   1.0000   1.0000   1.0000
     1.0000   1.0000   1.0000   1.0000   1.0000   1.0000   1.0000   1.0000
     1.0000   1.0000   0.0000   0.0000   0.0000

          k = 0.1667 0.4811 0.1022 (  2857 PWs)   bands (ev):

   -77.4275 -77.4119 -40.8110 -40.7746 -40.7195 -40.6774 -40.6376 -40.6162
    13.9108  14.3847  14.5684  15.1152  15.7799  16.2277  16.4809  17.4747
    17.6737  18.0145  19.7442  23.7647  26.5206

     occupation numbers 
     1.0000   1.0000   1.0000   1.0000   1.0000   1.0000   1.0000   1.0000
     1.0000   1.0000   1.0000   1.0000   1.0000   1.0000   1.0000   1.0000
     1.0000   1.0000   0.0000   0.0000   0.0000

          k = 0.1667 0.4811 0.2045 (  2856 PWs)   bands (ev):

   -77.4242 -77.4152 -40.8264 -40.8020 -40.6968 -40.6646 -40.6365 -40.6099
    13.8673  14.3015  14.7641  15.2971  15.6767  16.3588  16.7084  17.1687
    17.6628  18.0874  20.0499  22.2379  26.6210

     occupation numbers 
     1.0000   1.0000   1.0000   1.0000   1.0000   1.0000   1.0000   1.0000
     1.0000   1.0000   1.0000   1.0000   1.0000   1.0000   1.0000   1.0000
     1.0000   1.0000   0.0000   0.0000   0.0000

          k = 0.1667 0.4811-0.3067 (  2850 PWs)   bands (ev):

   -77.4197 -77.4197 -40.8231 -40.8231 -40.6771 -40.6771 -40.6179 -40.6179
    14.0208  14.0208  15.0991  15.0991  16.0830  16.0830  16.8639  16.8639
    17.9598  17.9598  20.8457  20.8457  27.4940

     occupation numbers 
     1.0000   1.0000   1.0000   1.0000   1.0000   1.0000   1.0000   1.0000
     1.0000   1.0000   1.0000   1.0000   1.0000   1.0000   1.0000   1.0000
     1.0000   1.0000   0.0000   0.0000   0.0000

          k = 0.1667 0.5774 0.0000 (  2866 PWs)   bands (ev):

   -77.4242 -77.4111 -40.8091 -40.7608 -40.7287 -40.6914 -40.6526 -40.6248
    14.2277  14.2288  14.2440  15.5279  15.7551  15.9671  16.4884  17.7747
    17.8599  17.9253  20.9301  22.5024  28.9552

     occupation numbers 
     1.0000   1.0000   1.0000   1.0000   1.0000   1.0000   1.0000   1.0000
     1.0000   1.0000   1.0000   1.0000   1.0000   1.0000   1.0000   1.0000
     1.0000   1.0000   0.0000   0.0000   0.0000

          k = 0.1667 0.5774 0.1022 (  2864 PWs)   bands (ev):

   -77.4233 -77.4120 -40.8209 -40.7783 -40.7210 -40.6743 -40.6517 -40.6209
    13.9330  14.3010  14.7332  15.0950  15.7016  16.3501  16.5727  17.6461
    17.7714  17.9743  21.0245  22.4498  27.8028

     occupation numbers 
     1.0000   1.0000   1.0000   1.0000   1.0000   1.0000   1.0000   1.0000
     1.0000   1.0000   1.0000   1.0000   1.0000   1.0000   1.0000   1.0000
     1.0000   1.0000   0.0000   0.0000   0.0000

          k = 0.1667 0.5774 0.2045 (  2864 PWs)   bands (ev):

   -77.4209 -77.4144 -40.8348 -40.8098 -40.7042 -40.6629 -40.6421 -40.6130
    13.8641  14.3140  14.8012  15.2519  15.5943  16.5573  16.8330  17.2383
    17.7874  18.0119  21.3215  22.2427  26.5518

     occupation numbers 
     1.0000   1.0000   1.0000   1.0000   1.0000   1.0000   1.0000   1.0000
     1.0000   1.0000   1.0000   1.0000   1.0000   1.0000   1.0000   1.0000
     1.0000   1.0000   0.0000   0.0000   0.0000

          k = 0.1667 0.5774-0.3067 (  2862 PWs)   bands (ev):

   -77.4176 -77.4176 -40.8318 -40.8318 -40.6830 -40.6830 -40.6185 -40.6185
    14.0240  14.0240  15.0586  15.0586  16.1207  16.1207  17.0703  17.0703
    17.8977  17.8977  21.8087  21.8087  26.0621

     occupation numbers 
     1.0000   1.0000   1.0000   1.0000   1.0000   1.0000   1.0000   1.0000
     1.0000   1.0000   1.0000   1.0000   1.0000   1.0000   1.0000   1.0000
     1.0000   1.0000   0.0000   0.0000   0.0000

          k = 0.2500 0.4330 0.0000 (  2864 PWs)   bands (ev):

   -77.4287 -77.4107 -40.7756 -40.7555 -40.7451 -40.6826 -40.6399 -40.6382
    14.2084  14.3679  14.7315  14.7703  15.6564  16.1093  16.4109  17.2493
    17.8188  17.9580  19.6757  26.0810  26.8910

     occupation numbers 
     1.0000   1.0000   1.0000   1.0000   1.0000   1.0000   1.0000   1.0000
     1.0000   1.0000   1.0000   1.0000   1.0000   1.0000   1.0000   1.0000
     1.0000   1.0000   0.0000   0.0000   0.0000

          k = 0.2500 0.4330 0.1022 (  2857 PWs)   bands (ev):

   -77.4275 -77.4119 -40.7890 -40.7800 -40.7062 -40.6962 -40.6408 -40.6245
    14.2094  14.3203  14.7804  14.9078  15.8075  15.9642  16.4093  17.2890
    17.6189  18.0213  19.7970  24.5215  27.1691

     occupation numbers 
     1.0000   1.0000   1.0000   1.0000   1.0000   1.0000   1.0000   1.0000
     1.0000   1.0000   1.0000   1.0000   1.0000   1.0000   1.0000   1.0000
     1.0000   1.0000   0.0000   0.0000   0.0000

          k = 0.2500 0.4330 0.2045 (  2855 PWs)   bands (ev):

   -77.4242 -77.4152 -40.8105 -40.7958 -40.7009 -40.6815 -40.6364 -40.6114
    14.2028  14.2651  14.9428  15.2849  15.6422  15.9185  16.4495  17.0784
    17.6302  18.0951  20.1665  22.5098  27.9396

     occupation numbers 
     1.0000   1.0000   1.0000   1.0000   1.0000   1.0000   1.0000   1.0000
     1.0000   1.0000   1.0000   1.0000   1.0000   1.0000   1.0000   1.0000
     1.0000   1.0000   0.0000   0.0000   0.0000

          k = 0.2500 0.4330-0.3067 (  2850 PWs)   bands (ev):

   -77.4197 -77.4197 -40.8112 -40.8112 -40.6897 -40.6897 -40.6172 -40.6172
    14.2218  14.2218  15.2566  15.2566  15.7073  15.7073  16.6585  16.6585
    17.9792  17.9792  21.0020  21.0020  28.9513

     occupation numbers 
     1.0000   1.0000   1.0000   1.0000   1.0000   1.0000   1.0000   1.0000
     1.0000   1.0000   1.0000   1.0000   1.0000   1.0000   1.0000   1.0000
     1.0000   1.0000   0.0000   0.0000   0.0000

          k = 0.2500 0.5292 0.0000 (  2871 PWs)   bands (ev):

   -77.4211 -77.4118 -40.7881 -40.7469 -40.7167 -40.7122 -40.6625 -40.6591
    14.3000  14.4985  14.5927  15.0891  15.6737  15.9041  16.5784  17.5313
    17.7892  17.8907  21.3375  23.9045  26.2381

     occupation numbers 
     1.0000   1.0000   1.0000   1.0000   1.0000   1.0000   1.0000   1.0000
     1.0000   1.0000   1.0000   1.0000   1.0000   1.0000   1.0000   1.0000
     1.0000   1.0000   0.0000   0.0000   0.0000

          k = 0.2500 0.5292 0.1022 (  2870 PWs)   bands (ev):

   -77.4205 -77.4124 -40.7950 -40.7698 -40.7314 -40.6852 -40.6646 -40.6394
    14.2443  14.6202  14.7131  14.9819  15.7004  15.9113  16.5890  17.5348
    17.5983  17.9351  21.5209  23.9176  26.2641

     occupation numbers 
     1.0000   1.0000   1.0000   1.0000   1.0000   1.0000   1.0000   1.0000
     1.0000   1.0000   1.0000   1.0000   1.0000   1.0000   1.0000   1.0000
     1.0000   1.0000   0.0000   0.0000   0.0000

          k = 0.2500 0.5292 0.2045 (  2863 PWs)   bands (ev):

   -77.4188 -77.4141 -40.8110 -40.7969 -40.7297 -40.6911 -40.6376 -40.6187
    14.2588  14.6101  14.8688  15.1659  15.5638  15.9360  16.6415  17.1019
    17.7036  17.9775  22.0095  23.6089  26.1741

     occupation numbers 
     1.0000   1.0000   1.0000   1.0000   1.0000   1.0000   1.0000   1.0000
     1.0000   1.0000   1.0000   1.0000   1.0000   1.0000   1.0000   1.0000
     1.0000   1.0000   0.0000   0.0000   0.0000

          k = 0.2500 0.5292-0.3067 (  2864 PWs)   bands (ev):

   -77.4164 -77.4164 -40.8136 -40.8136 -40.7115 -40.7115 -40.6173 -40.6173
    14.3936  14.3936  15.1547  15.1547  15.7127  15.7127  16.7708  16.7708
    17.8900  17.8900  22.7691  22.7691  26.7132

     occupation numbers 
     1.0000   1.0000   1.0000   1.0000   1.0000   1.0000   1.0000   1.0000
     1.0000   1.0000   1.0000   1.0000   1.0000   1.0000   1.0000   1.0000
     1.0000   1.0000   0.0000   0.0000   0.0000

          k = 0.3333 0.5774 0.0000 (  2856 PWs)   bands (ev):

   -77.4152 -77.4152 -40.7780 -40.7322 -40.7322 -40.6885 -40.6885 -40.6840
    14.3123  14.6955  14.6955  14.9681  15.7397  15.7397  16.6774  17.6793
    17.6793  17.7599  23.0825  23.9065  23.9065

     occupation numbers 
     1.0000   1.0000   1.0000   1.0000   1.0000   1.0000   1.0000   1.0000
     1.0000   1.0000   1.0000   1.0000   1.0000   1.0000   1.0000   1.0000
     1.0000   1.0000   0.0000   0.0000   0.0000

          k = 0.3333 0.5774 0.1022 (  2865 PWs)   bands (ev):

   -77.4152 -77.4152 -40.7718 -40.7606 -40.7606 -40.6903 -40.6600 -40.6600
    14.4055  14.7135  14.7135  14.9857  15.7169  15.7169  16.6512  17.5334
    17.7221  17.7221  23.4745  23.9775  23.9775

     occupation numbers 
     1.0000   1.0000   1.0000   1.0000   1.0000   1.0000   1.0000   1.0000
     1.0000   1.0000   1.0000   1.0000   1.0000   1.0000   1.0000   1.0000
     1.0000   1.0000   0.0000   0.0000   0.0000

          k = 0.3333 0.5774 0.2045 (  2856 PWs)   bands (ev):

   -77.4152 -77.4152 -40.7917 -40.7917 -40.7546 -40.7076 -40.6286 -40.6286
    14.6437  14.7474  14.7474  14.9966  15.6783  15.6783  16.6181  17.0680
    17.8040  17.8040  24.1539  24.1539  24.4829

     occupation numbers 
     1.0000   1.0000   1.0000   1.0000   1.0000   1.0000   1.0000   1.0000
     1.0000   1.0000   1.0000   1.0000   1.0000   1.0000   1.0000   1.0000
     1.0000   1.0000   0.0000   0.0000   0.0000

          k = 0.3333 0.5774-0.3067 (  2862 PWs)   bands (ev):

   -77.4152 -77.4152 -40.8034 -40.8034 -40.7311 -40.7311 -40.6168 -40.6168
    14.7631  14.7631  14.8917  14.8917  15.6623  15.6623  16.7157  16.7157
    17.8434  17.8434  24.2676  24.2676  25.8758

     occupation numbers 
     1.0000   1.0000   1.0000   1.0000   1.0000   1.0000   1.0000   1.0000
     1.0000   1.0000   1.0000   1.0000   1.0000   1.0000   1.0000   1.0000
     1.0000   1.0000   0.0000   0.0000   0.0000

 ------ SPIN DOWN ----------


          k = 0.0000 0.0000 0.0000 (  2875 PWs)   bands (ev):

   -75.3390 -75.2803 -38.8053 -38.5020 -38.5020 -38.4561 -38.4531 -38.4531
     9.6742  14.4296  17.6583  17.7440  17.7440  18.1033  18.1033  18.2846
    18.5702  18.5702  19.7691  19.7691  25.9092

     occupation numbers 
     1.0000   1.0000   1.0000   1.0000   1.0000   1.0000   1.0000   1.0000
     1.0000   1.0000   1.0000   1.0000   1.0000   1.0000   1.0000   1.0000
     1.0000   1.0000   0.0000   0.0000   0.0000

          k = 0.0000 0.0000 0.1022 (  2851 PWs)   bands (ev):

   -75.3350 -75.2843 -38.7822 -38.4987 -38.4987 -38.4799 -38.4564 -38.4564
     9.9497  14.1883  17.5675  17.6828  17.6828  17.7206  18.0230  18.0230
    18.7405  18.7405  19.7516  19.7516  27.2065

     occupation numbers 
     1.0000   1.0000   1.0000   1.0000   1.0000   1.0000   1.0000   1.0000
     1.0000   1.0000   1.0000   1.0000   1.0000   1.0000   1.0000   1.0000
     0.0000   0.0000   0.0000   0.0000   0.0000

          k = 0.0000 0.0000 0.2045 (  2864 PWs)   bands (ev):

   -75.3243 -75.2950 -38.7190 -38.5444 -38.4898 -38.4898 -38.4653 -38.4653
    10.7465  13.2899  17.1155  17.3370  17.6301  17.6301  17.8459  17.8459
    19.0886  19.0886  19.6551  19.6551  30.1507

     occupation numbers 
     1.0000   1.0000   1.0000   1.0000   1.0000   1.0000   1.0000   1.0000
     1.0000   1.0000   1.0000   1.0000   1.0000   1.0000   1.0000   1.0000
     0.0000   0.0000   0.0000   0.0000   0.0000

          k = 0.0000 0.0000-0.3067 (  2834 PWs)   bands (ev):

   -75.3097 -75.3097 -38.6320 -38.6320 -38.4775 -38.4775 -38.4775 -38.4775
    11.9553  11.9553  17.0987  17.0987  17.6884  17.6884  17.6884  17.6884
    19.4270  19.4270  19.4270  19.4270  33.7740

     occupation numbers 
     1.0000   1.0000   1.0000   1.0000   1.0000   1.0000   1.0000   1.0000
     1.0000   1.0000   1.0000   1.0000   1.0000   1.0000   1.0000   1.0000
     0.0000   0.0000   0.0000   0.0000   0.0000

          k = 0.0000 0.0962 0.0000 (  2829 PWs)   bands (ev):

   -75.3355 -75.2787 -38.7975 -38.5194 -38.5076 -38.4711 -38.4591 -38.4560
     9.9182  14.5983  17.4412  17.7019  17.8704  17.9056  18.0354  18.2158
    18.4868  18.4921  19.8042  20.5764  25.9254

     occupation numbers 
     1.0000   1.0000   1.0000   1.0000   1.0000   1.0000   1.0000   1.0000
     1.0000   1.0000   1.0000   1.0000   1.0000   1.0000   1.0000   1.0000
     1.0000   1.0000   0.0000   0.0000   0.0000

          k = 0.0000 0.0962 0.1022 (  2847 PWs)   bands (ev):

   -75.3317 -75.2825 -38.7758 -38.5156 -38.5041 -38.4915 -38.4649 -38.4595
    10.1900  14.3697  17.2886  17.4391  17.7169  17.7938  18.0437  18.1282
    18.6846  18.6962  19.7778  20.2451  27.2895

     occupation numbers 
     1.0000   1.0000   1.0000   1.0000   1.0000   1.0000   1.0000   1.0000
     1.0000   1.0000   1.0000   1.0000   1.0000   1.0000   1.0000   1.0000
     0.0000   0.0000   0.0000   0.0000   0.0000

          k = 0.0000 0.0962 0.2045 (  2865 PWs)   bands (ev):

   -75.3213 -75.2929 -38.7162 -38.5518 -38.5050 -38.4947 -38.4761 -38.4689
    10.9761  13.4870  16.9051  17.3298  17.5206  17.7323  17.8614  17.9493
    19.0556  19.0889  19.6613  19.8451  30.2892

     occupation numbers 
     1.0000   1.0000   1.0000   1.0000   1.0000   1.0000   1.0000   1.0000
     1.0000   1.0000   1.0000   1.0000   1.0000   1.0000   1.0000   1.0000
     0.0000   0.0000   0.0000   0.0000   0.0000

          k = 0.0000 0.0962-0.3067 (  2854 PWs)   bands (ev):

   -75.3071 -75.3071 -38.6342 -38.6342 -38.4906 -38.4906 -38.4818 -38.4818
    12.1686  12.1686  17.0112  17.0112  17.6457  17.6457  17.7907  17.7907
    19.4121  19.4121  19.4882  19.4882  33.9373

     occupation numbers 
     1.0000   1.0000   1.0000   1.0000   1.0000   1.0000   1.0000   1.0000
     1.0000   1.0000   1.0000   1.0000   1.0000   1.0000   1.0000   1.0000
     0.0000   0.0000   0.0000   0.0000   0.0000

          k = 0.0000 0.1925 0.0000 (  2839 PWs)   bands (ev):

   -75.3259 -75.2743 -38.7755 -38.5672 -38.5225 -38.5199 -38.4683 -38.4643
    10.6283  15.0328  16.8899  17.0959  17.7976  18.2294  18.2338  18.2824
    18.3153  18.5320  19.8774  22.0174  25.9919

     occupation numbers 
     1.0000   1.0000   1.0000   1.0000   1.0000   1.0000   1.0000   1.0000
     1.0000   1.0000   1.0000   1.0000   1.0000   1.0000   1.0000   1.0000
     1.0000   1.0000   0.0000   0.0000   0.0000

          k = 0.0000 0.1925 0.1022 (  2846 PWs)   bands (ev):

   -75.3225 -75.2777 -38.7582 -38.5615 -38.5352 -38.5187 -38.4764 -38.4682
    10.8872  14.8463  16.6446  17.1371  17.6843  17.9813  18.0497  18.3993
    18.6367  18.6805  19.8313  21.2426  27.5696

     occupation numbers 
     1.0000   1.0000   1.0000   1.0000   1.0000   1.0000   1.0000   1.0000
     1.0000   1.0000   1.0000   1.0000   1.0000   1.0000   1.0000   1.0000
     0.7172   0.0000   0.0000   0.0000   0.0000

          k = 0.0000 0.1925 0.2045 (  2853 PWs)   bands (ev):

   -75.3130 -75.2872 -38.7108 -38.5823 -38.5432 -38.5080 -38.4961 -38.4789
    11.6348  14.0170  16.5326  17.2295  17.3147  17.7949  17.9872  18.2359
    19.0127  19.1362  19.6725  20.3070  30.7072

     occupation numbers 
     1.0000   1.0000   1.0000   1.0000   1.0000   1.0000   1.0000   1.0000
     1.0000   1.0000   1.0000   1.0000   1.0000   1.0000   1.0000   1.0000
     0.0000   0.0000   0.0000   0.0000   0.0000

          k = 0.0000 0.1925-0.3067 (  2864 PWs)   bands (ev):

   -75.3001 -75.3001 -38.6461 -38.6461 -38.5203 -38.5203 -38.4935 -38.4935
    12.7653  12.7653  16.8221  16.8221  17.5200  17.5200  18.0651  18.0651
    19.3869  19.3869  19.6609  19.6609  34.3892

     occupation numbers 
     1.0000   1.0000   1.0000   1.0000   1.0000   1.0000   1.0000   1.0000
     1.0000   1.0000   1.0000   1.0000   1.0000   1.0000   1.0000   1.0000
     0.0000   0.0000   0.0000   0.0000   0.0000

          k = 0.0000 0.2887 0.0000 (  2830 PWs)   bands (ev):

   -75.3123 -75.2688 -38.7426 -38.6331 -38.5854 -38.5424 -38.4836 -38.4761
    11.7287  15.4623  16.2348  16.7856  17.6301  18.0384  18.0802  18.6809
    18.7567  18.9887  19.9444  23.6953  26.1362

     occupation numbers 
     1.0000   1.0000   1.0000   1.0000   1.0000   1.0000   1.0000   1.0000
     1.0000   1.0000   1.0000   1.0000   1.0000   1.0000   1.0000   0.0000
     0.0000   0.0000   0.0000   0.0000   0.0000

          k = 0.0000 0.2887 0.1022 (  2837 PWs)   bands (ev):

   -75.3094 -75.2717 -38.7360 -38.6215 -38.5978 -38.5380 -38.4895 -38.4806
    11.9581  15.3433  16.1189  16.8481  17.4958  17.9994  18.0734  18.8003
    18.8582  18.9525  19.8800  22.3460  28.1014

     occupation numbers 
     1.0000   1.0000   1.0000   1.0000   1.0000   1.0000   1.0000   1.0000
     1.0000   1.0000   1.0000   1.0000   1.0000   1.0000   1.0000   0.0000
     0.0000   0.0000   0.0000   0.0000   0.0000

          k = 0.0000 0.2887 0.2045 (  2858 PWs)   bands (ev):

   -75.3015 -75.2797 -38.7149 -38.6386 -38.5826 -38.5259 -38.5094 -38.4927
    12.6136  14.6366  16.2482  16.9318  17.2728  17.7790  18.1924  18.6454
    19.1301  19.2708  19.6945  20.8732  31.3073

     occupation numbers 
     1.0000   1.0000   1.0000   1.0000   1.0000   1.0000   1.0000   1.0000
     1.0000   1.0000   1.0000   1.0000   1.0000   1.0000   1.0000   0.3701
     0.0000   0.0000   0.0000   0.0000   0.0000

          k = 0.0000 0.2887-0.3067 (  2862 PWs)   bands (ev):

   -75.2906 -75.2906 -38.6797 -38.6797 -38.5431 -38.5431 -38.5093 -38.5093
    13.5840  13.5840  16.6260  16.6260  17.4599  17.4599  18.3984  18.3984
    19.4220  19.4220  19.9022  19.9022  33.5068

     occupation numbers 
     1.0000   1.0000   1.0000   1.0000   1.0000   1.0000   1.0000   1.0000
     1.0000   1.0000   1.0000   1.0000   1.0000   1.0000   1.0000   1.0000
     0.0000   0.0000   0.0000   0.0000   0.0000

          k = 0.0000 0.3849 0.0000 (  2856 PWs)   bands (ev):

   -75.2978 -75.2641 -38.7041 -38.6995 -38.6496 -38.5618 -38.5044 -38.4884
    13.0468  15.5011  15.7736  16.6659  17.7204  17.8198  17.8490  19.3302
    19.3459  19.4866  19.9887  25.5331  26.0708

     occupation numbers 
     1.0000   1.0000   1.0000   1.0000   1.0000   1.0000   1.0000   1.0000
     1.0000   1.0000   1.0000   1.0000   1.0000   1.0000   1.0000   0.0000
     0.0000   0.0000   0.0000   0.0000   0.0000

          k = 0.0000 0.3849 0.1022 (  2861 PWs)   bands (ev):

   -75.2955 -75.2664 -38.7338 -38.6710 -38.6465 -38.5569 -38.5063 -38.4933
    13.2087  15.4009  15.8171  16.6775  17.5731  17.9188  18.0229  19.3398
    19.3425  19.4003  19.9224  23.3634  28.2550

     occupation numbers 
     1.0000   1.0000   1.0000   1.0000   1.0000   1.0000   1.0000   1.0000
     1.0000   1.0000   1.0000   1.0000   1.0000   1.0000   1.0000   0.0000
     0.0000   0.0000   0.0000   0.0000   0.0000

          k = 0.0000 0.3849 0.2045 (  2854 PWs)   bands (ev):

   -75.2894 -75.2726 -38.7432 -38.6995 -38.5961 -38.5435 -38.5189 -38.5068
    13.6575  14.9411  16.0859  16.6821  17.5315  18.0616  18.1991  19.0402
    19.4772  19.5153  19.7790  21.4598  29.3997

     occupation numbers 
     1.0000   1.0000   1.0000   1.0000   1.0000   1.0000   1.0000   1.0000
     1.0000   1.0000   1.0000   1.0000   1.0000   1.0000   1.0000   0.0000
     0.0000   0.0000   0.0000   0.0000   0.0000

          k = 0.0000 0.3849-0.3067 (  2872 PWs)   bands (ev):

   -75.2810 -75.2810 -38.7293 -38.7293 -38.5495 -38.5495 -38.5252 -38.5252
    14.2883  14.2883  16.4516  16.4516  17.7905  17.7905  18.6063  18.6063
    19.6205  19.6205  20.1818  20.1818  30.4453

     occupation numbers 
     1.0000   1.0000   1.0000   1.0000   1.0000   1.0000   1.0000   1.0000
     1.0000   1.0000   1.0000   1.0000   1.0000   1.0000   0.9999   0.9999
     0.0000   0.0000   0.0000   0.0000   0.0000

          k = 0.0000 0.4811 0.0000 (  2854 PWs)   bands (ev):

   -75.2859 -75.2620 -38.7485 -38.6958 -38.6686 -38.5758 -38.5271 -38.4975
    14.2224  15.2891  15.5034  16.6865  17.6709  17.6816  17.9469  19.7650
    19.9063  20.0114  20.2996  24.4336  27.4153

     occupation numbers 
     1.0000   1.0000   1.0000   1.0000   1.0000   1.0000   1.0000   1.0000
     1.0000   1.0000   1.0000   1.0000   1.0000   1.0000   1.0000   0.0000
     0.0000   0.0000   0.0000   0.0000   0.0000

          k = 0.0000 0.4811 0.1022 (  2854 PWs)   bands (ev):

   -75.2843 -75.2636 -38.7642 -38.7124 -38.6386 -38.5706 -38.5246 -38.5028
    14.2367  15.2150  15.7282  16.4591  17.7931  17.8894  18.1665  19.7014
    19.7967  19.9985  20.1392  23.5657  27.0186

     occupation numbers 
[...]
    19.9282  19.9696  21.1099  23.6189  28.4589

     occupation numbers 
     1.0000   1.0000   1.0000   1.0000   1.0000   1.0000   1.0000   1.0000
     1.0000   1.0000   1.0000   1.0000   1.0000   1.0000   1.0000   0.0000
     0.0000   0.0000   0.0000   0.0000   0.0000

          k = 0.0833 0.5292 0.1022 (  2856 PWs)   bands (ev):

   -75.2797 -75.2631 -38.7696 -38.7200 -38.6302 -38.5817 -38.5368 -38.5136
    14.6355  15.2498  15.7970  16.3390  17.5809  18.0610  18.1024  19.7064
    19.8644  19.9661  20.9738  23.2762  27.4396

     occupation numbers 
     1.0000   1.0000   1.0000   1.0000   1.0000   1.0000   1.0000   1.0000
     1.0000   1.0000   1.0000   1.0000   1.0000   1.0000   1.0000   0.0000
     0.0000   0.0000   0.0000   0.0000   0.0000

          k = 0.0833 0.5292 0.2045 (  2858 PWs)   bands (ev):

   -75.2762 -75.2666 -38.7829 -38.7520 -38.5952 -38.5597 -38.5448 -38.5170
    14.6135  15.0890  16.0969  16.4043  17.6228  18.3843  18.5758  19.2494
    19.8171  20.0485  20.7605  22.3368  26.9188

     occupation numbers 
     1.0000   1.0000   1.0000   1.0000   1.0000   1.0000   1.0000   1.0000
     1.0000   1.0000   1.0000   1.0000   1.0000   1.0000   1.0000   0.0000
     0.0000   0.0000   0.0000   0.0000   0.0000

          k = 0.0833 0.5292-0.3067 (  2860 PWs)   bands (ev):

   -75.2714 -75.2714 -38.7770 -38.7770 -38.5676 -38.5676 -38.5311 -38.5311
    14.7896  14.7896  16.3533  16.3533  18.1224  18.1224  18.8974  18.8974
    19.9014  19.9014  21.2874  21.2874  27.1771

     occupation numbers 
     1.0000   1.0000   1.0000   1.0000   1.0000   1.0000   1.0000   1.0000
     1.0000   1.0000   1.0000   1.0000   1.0000   1.0000   0.0000   0.0000
     0.0000   0.0000   0.0000   0.0000   0.0000

          k = 0.1667 0.2887 0.0000 (  2848 PWs)   bands (ev):

   -75.3052 -75.2663 -38.7244 -38.6401 -38.6310 -38.5467 -38.5007 -38.4930
    12.3562  15.7621  16.0662  16.4493  17.6355  17.6675  18.2109  18.5512
    19.1429  19.4983  19.8887  24.5891  26.3621

     occupation numbers 
     1.0000   1.0000   1.0000   1.0000   1.0000   1.0000   1.0000   1.0000
     1.0000   1.0000   1.0000   1.0000   1.0000   1.0000   1.0000   1.0000
     0.0000   0.0000   0.0000   0.0000   0.0000

          k = 0.1667 0.2887 0.1022 (  2843 PWs)   bands (ev):

   -75.3026 -75.2689 -38.7252 -38.6380 -38.6222 -38.5527 -38.5049 -38.4931
    12.5670  15.6708  15.9865  16.5152  17.5358  17.6933  18.1059  18.6526
    19.2693  19.3736  19.8979  22.9485  28.5472

     occupation numbers 
     1.0000   1.0000   1.0000   1.0000   1.0000   1.0000   1.0000   1.0000
     1.0000   1.0000   1.0000   1.0000   1.0000   1.0000   1.0000   0.1400
     0.0000   0.0000   0.0000   0.0000   0.0000

          k = 0.1667 0.2887 0.2045 (  2843 PWs)   bands (ev):

   -75.2955 -75.2760 -38.7172 -38.6620 -38.5848 -38.5555 -38.5148 -38.5021
    13.1651  14.9773  16.2418  16.6833  17.2647  17.5317  18.1610  18.7540
    19.3632  19.4931  19.8518  21.2471  31.7822

     occupation numbers 
     1.0000   1.0000   1.0000   1.0000   1.0000   1.0000   1.0000   1.0000
     1.0000   1.0000   1.0000   1.0000   1.0000   1.0000   1.0000   0.0000
     0.0000   0.0000   0.0000   0.0000   0.0000

          k = 0.1667 0.2887-0.3067 (  2866 PWs)   bands (ev):

   -75.2858 -75.2858 -38.6938 -38.6938 -38.5565 -38.5565 -38.5181 -38.5181
    14.0382  14.0382  16.6174  16.6174  17.2211  17.2211  18.4642  18.4642
    19.6808  19.6808  20.0787  20.0787  33.7068

     occupation numbers 
     1.0000   1.0000   1.0000   1.0000   1.0000   1.0000   1.0000   1.0000
     1.0000   1.0000   1.0000   1.0000   1.0000   1.0000   1.0000   1.0000
     0.0000   0.0000   0.0000   0.0000   0.0000

          k = 0.1667 0.3849 0.0000 (  2857 PWs)   bands (ev):

   -75.2921 -75.2628 -38.6911 -38.6879 -38.6679 -38.5769 -38.5233 -38.5143
    13.6135  15.7747  15.8359  16.2625  17.4298  17.8009  17.9708  18.8994
    19.6479  19.8790  20.2272  26.3543  26.6307

     occupation numbers 
     1.0000   1.0000   1.0000   1.0000   1.0000   1.0000   1.0000   1.0000
     1.0000   1.0000   1.0000   1.0000   1.0000   1.0000   1.0000   0.0000
     0.0000   0.0000   0.0000   0.0000   0.0000

          k = 0.1667 0.3849 0.1022 (  2858 PWs)   bands (ev):

   -75.2901 -75.2648 -38.7216 -38.6853 -38.6356 -38.5817 -38.5291 -38.5080
    13.7602  15.6358  15.9377  16.3647  17.3960  17.7771  17.9247  18.9462
    19.6175  19.7493  20.3302  24.0424  28.7971

     occupation numbers 
     1.0000   1.0000   1.0000   1.0000   1.0000   1.0000   1.0000   1.0000
     1.0000   1.0000   1.0000   1.0000   1.0000   1.0000   1.0000   0.0000
     0.0000   0.0000   0.0000   0.0000   0.0000

          k = 0.1667 0.3849 0.2045 (  2853 PWs)   bands (ev):

   -75.2848 -75.2702 -38.7360 -38.7061 -38.5960 -38.5782 -38.5368 -38.5081
    14.1623  15.2539  16.2171  16.5762  17.2508  17.5026  18.1156  18.9289
    19.4693  19.9314  20.4110  22.0679  29.7784

     occupation numbers 
     1.0000   1.0000   1.0000   1.0000   1.0000   1.0000   1.0000   1.0000
     1.0000   1.0000   1.0000   1.0000   1.0000   1.0000   1.0000   0.0000
     0.0000   0.0000   0.0000   0.0000   0.0000

          k = 0.1667 0.3849-0.3067 (  2848 PWs)   bands (ev):

   -75.2775 -75.2775 -38.7285 -38.7285 -38.5778 -38.5778 -38.5243 -38.5243
    14.7120  14.7120  16.5563  16.5563  17.2279  17.2279  18.4820  18.4820
    19.9239  19.9239  20.7568  20.7568  30.8759

     occupation numbers 
     1.0000   1.0000   1.0000   1.0000   1.0000   1.0000   1.0000   1.0000
     1.0000   1.0000   1.0000   1.0000   1.0000   1.0000   1.0000   1.0000
     0.0000   0.0000   0.0000   0.0000   0.0000

          k = 0.1667 0.4811 0.0000 (  2870 PWs)   bands (ev):

   -75.2811 -75.2617 -38.7313 -38.6868 -38.6527 -38.6050 -38.5386 -38.5382
    14.7198  15.6064  15.6121  16.3159  17.3694  17.7005  18.0369  19.3631
    19.8710  19.9026  21.1412  25.0994  28.2576

     occupation numbers 
     1.0000   1.0000   1.0000   1.0000   1.0000   1.0000   1.0000   1.0000
     1.0000   1.0000   1.0000   1.0000   1.0000   1.0000   1.0000   0.0000
     0.0000   0.0000   0.0000   0.0000   0.0000

          k = 0.1667 0.4811 0.1022 (  2857 PWs)   bands (ev):

   -75.2798 -75.2630 -38.7440 -38.7050 -38.6333 -38.5969 -38.5498 -38.5236
    14.7349  15.5565  15.7800  16.3494  17.3799  17.6751  18.1118  19.3581
    19.6380  19.9767  21.1902  24.4691  27.2986

     occupation numbers 
     1.0000   1.0000   1.0000   1.0000   1.0000   1.0000   1.0000   1.0000
     1.0000   1.0000   1.0000   1.0000   1.0000   1.0000   1.0000   0.0000
     0.0000   0.0000   0.0000   0.0000   0.0000

          k = 0.1667 0.4811 0.2045 (  2856 PWs)   bands (ev):

   -75.2762 -75.2666 -38.7586 -38.7334 -38.6156 -38.5797 -38.5499 -38.5151
    14.8359  15.3544  16.1082  16.6134  17.2083  17.6518  18.3367  19.0463
    19.5773  20.0725  21.3376  23.0264  27.4411

     occupation numbers 
     1.0000   1.0000   1.0000   1.0000   1.0000   1.0000   1.0000   1.0000
     1.0000   1.0000   1.0000   1.0000   1.0000   1.0000   1.0000   0.0000
     0.0000   0.0000   0.0000   0.0000   0.0000

          k = 0.1667 0.4811-0.3067 (  2850 PWs)   bands (ev):

   -75.2714 -75.2714 -38.7552 -38.7552 -38.5958 -38.5958 -38.5251 -38.5251
    15.0608  15.0608  16.5125  16.5125  17.3900  17.3900  18.6158  18.6158
    19.9154  19.9154  21.8592  21.8592  28.2437

     occupation numbers 
     1.0000   1.0000   1.0000   1.0000   1.0000   1.0000   1.0000   1.0000
     1.0000   1.0000   1.0000   1.0000   1.0000   1.0000   0.9970   0.9970
     0.0000   0.0000   0.0000   0.0000   0.0000

          k = 0.1667 0.5774 0.0000 (  2866 PWs)   bands (ev):

   -75.2762 -75.2621 -38.7459 -38.6927 -38.6349 -38.6166 -38.5519 -38.5441
    15.1850  15.4732  15.5523  16.3810  17.4223  17.5259  18.1424  19.6900
    19.8677  19.8758  22.0488  23.5372  29.3859

     occupation numbers 
     1.0000   1.0000   1.0000   1.0000   1.0000   1.0000   1.0000   1.0000
     1.0000   1.0000   1.0000   1.0000   1.0000   1.0000   1.0000   0.0000
     0.0000   0.0000   0.0000   0.0000   0.0000

          k = 0.1667 0.5774 0.1022 (  2864 PWs)   bands (ev):

   -75.2752 -75.2631 -38.7560 -38.7098 -38.6368 -38.5905 -38.5619 -38.5310
    15.0314  15.5167  15.9257  16.1992  17.3387  17.7080  18.2262  19.6112
    19.6891  19.9363  22.0757  23.4367  28.4222

     occupation numbers 
     1.0000   1.0000   1.0000   1.0000   1.0000   1.0000   1.0000   1.0000
     1.0000   1.0000   1.0000   1.0000   1.0000   1.0000   1.0000   0.0000
     0.0000   0.0000   0.0000   0.0000   0.0000

          k = 0.1667 0.5774 0.2045 (  2864 PWs)   bands (ev):

   -75.2727 -75.2656 -38.7689 -38.7419 -38.6243 -38.5799 -38.5518 -38.5188
    14.9880  15.4146  16.1766  16.5263  17.1205  17.8267  18.4846  19.1156
    19.7176  19.9837  22.1991  23.1055  27.3508

     occupation numbers 
     1.0000   1.0000   1.0000   1.0000   1.0000   1.0000   1.0000   1.0000
     1.0000   1.0000   1.0000   1.0000   1.0000   1.0000   1.0000   0.0000
     0.0000   0.0000   0.0000   0.0000   0.0000

          k = 0.1667 0.5774-0.3067 (  2862 PWs)   bands (ev):

   -75.2692 -75.2692 -38.7651 -38.7651 -38.6027 -38.6027 -38.5249 -38.5249
    15.1431  15.1431  16.5029  16.5029  17.4446  17.4446  18.7790  18.7790
    19.8507  19.8507  22.5918  22.5918  26.9752

     occupation numbers 
     1.0000   1.0000   1.0000   1.0000   1.0000   1.0000   1.0000   1.0000
     1.0000   1.0000   1.0000   1.0000   1.0000   1.0000   0.0000   0.0000
     0.0000   0.0000   0.0000   0.0000   0.0000

          k = 0.2500 0.4330 0.0000 (  2864 PWs)   bands (ev):

   -75.2811 -75.2617 -38.7093 -38.6869 -38.6529 -38.6073 -38.5587 -38.5380
    14.7306  15.6832  15.9571  15.9907  17.2731  17.7294  18.0417  19.1114
    19.8206  19.9036  21.1836  26.6531  27.5141

     occupation numbers 
     1.0000   1.0000   1.0000   1.0000   1.0000   1.0000   1.0000   1.0000
     1.0000   1.0000   1.0000   1.0000   1.0000   1.0000   1.0000   0.0000
     0.0000   0.0000   0.0000   0.0000   0.0000

          k = 0.2500 0.4330 0.1022 (  2857 PWs)   bands (ev):

   -75.2798 -75.2630 -38.7158 -38.7130 -38.6188 -38.6186 -38.5609 -38.5258
    14.8088  15.5998  16.0245  16.1744  17.3134  17.5488  18.0515  19.1576
    19.5786  19.9843  21.2844  25.1895  27.7976

     occupation numbers 
     1.0000   1.0000   1.0000   1.0000   1.0000   1.0000   1.0000   1.0000
     1.0000   1.0000   1.0000   1.0000   1.0000   1.0000   1.0000   0.0000
     0.0000   0.0000   0.0000   0.0000   0.0000

          k = 0.2500 0.4330 0.2045 (  2855 PWs)   bands (ev):

   -75.2762 -75.2665 -38.7393 -38.7271 -38.6235 -38.5987 -38.5493 -38.5147
    15.0090  15.4560  16.2431  16.5267  17.1619  17.2824  18.1430  18.9461
    19.5358  20.0816  21.5161  23.3404  28.5681

     occupation numbers 
     1.0000   1.0000   1.0000   1.0000   1.0000   1.0000   1.0000   1.0000
     1.0000   1.0000   1.0000   1.0000   1.0000   1.0000   1.0000   0.0000
     0.0000   0.0000   0.0000   0.0000   0.0000

          k = 0.2500 0.4330-0.3067 (  2850 PWs)   bands (ev):

   -75.2714 -75.2714 -38.7414 -38.7414 -38.6115 -38.6115 -38.5234 -38.5234
    15.2511  15.2511  16.5793  16.5793  17.0562  17.0562  18.4461  18.4461
    19.9394  19.9394  22.0745  22.0745  29.5671

     occupation numbers 
     1.0000   1.0000   1.0000   1.0000   1.0000   1.0000   1.0000   1.0000
     1.0000   1.0000   1.0000   1.0000   1.0000   1.0000   1.0000   1.0000
     0.0000   0.0000   0.0000   0.0000   0.0000

          k = 0.2500 0.5292 0.0000 (  2871 PWs)   bands (ev):

   -75.2729 -75.2629 -38.7228 -38.6776 -38.6396 -38.6218 -38.5816 -38.5627
    15.4501  15.6579  15.7992  16.0748  17.2730  17.4794  18.2419  19.4251
    19.7863  19.8333  22.4706  24.7210  26.8264

     occupation numbers 
     1.0000   1.0000   1.0000   1.0000   1.0000   1.0000   1.0000   1.0000
     1.0000   1.0000   1.0000   1.0000   1.0000   1.0000   1.0000   0.0000
     0.0000   0.0000   0.0000   0.0000   0.0000

          k = 0.2500 0.5292 0.1022 (  2870 PWs)   bands (ev):

   -75.2722 -75.2636 -38.7279 -38.6986 -38.6557 -38.5997 -38.5805 -38.5435
    15.4076  15.7757  15.8818  16.1406  17.2466  17.3792  18.2564  19.4486
    19.5409  19.8895  22.6289  24.6917  26.8824

     occupation numbers 
     1.0000   1.0000   1.0000   1.0000   1.0000   1.0000   1.0000   1.0000
     1.0000   1.0000   1.0000   1.0000   1.0000   1.0000   1.0000   0.0000
     0.0000   0.0000   0.0000   0.0000   0.0000

          k = 0.2500 0.5292 0.2045 (  2863 PWs)   bands (ev):

   -75.2704 -75.2654 -38.7418 -38.7267 -38.6557 -38.6140 -38.5448 -38.5226
    15.4408  15.7307  16.1582  16.4838  16.9892  17.2397  18.3326  18.9770
    19.6283  19.9430  23.0054  24.3184  26.9400

     occupation numbers 
     1.0000   1.0000   1.0000   1.0000   1.0000   1.0000   1.0000   1.0000
     1.0000   1.0000   1.0000   1.0000   1.0000   1.0000   1.0000   0.0000
     0.0000   0.0000   0.0000   0.0000   0.0000

          k = 0.2500 0.5292-0.3067 (  2864 PWs)   bands (ev):

   -75.2679 -75.2679 -38.7440 -38.7440 -38.6367 -38.6367 -38.5219 -38.5219
    15.5718  15.5718  16.5510  16.5510  16.9563  16.9563  18.5438  18.5438
    19.8404  19.8404  23.5904  23.5904  27.4795

     occupation numbers 
     1.0000   1.0000   1.0000   1.0000   1.0000   1.0000   1.0000   1.0000
     1.0000   1.0000   1.0000   1.0000   1.0000   1.0000   1.0000   1.0000
     0.0000   0.0000   0.0000   0.0000   0.0000

          k = 0.3333 0.5774 0.0000 (  2856 PWs)   bands (ev):

   -75.2666 -75.2666 -38.7116 -38.6616 -38.6616 -38.6086 -38.5911 -38.5911
    15.6966  15.8024  15.8024  15.9941  17.3083  17.3083  18.3503  19.5965
    19.5965  19.7527  23.9227  24.7189  24.7189

     occupation numbers 
     1.0000   1.0000   1.0000   1.0000   1.0000   1.0000   1.0000   1.0000
     1.0000   1.0000   1.0000   1.0000   1.0000   1.0000   1.0000   0.0000
     0.0000   0.0000   0.0000   0.0000   0.0000

          k = 0.3333 0.5774 0.1022 (  2865 PWs)   bands (ev):

   -75.2666 -75.2666 -38.7048 -38.6872 -38.6872 -38.6155 -38.5654 -38.5654
    15.7690  15.8744  15.8744  16.0254  17.2217  17.2217  18.3314  19.4834
    19.6484  19.6484  24.3309  24.7650  24.7650

     occupation numbers 
     1.0000   1.0000   1.0000   1.0000   1.0000   1.0000   1.0000   1.0000
     1.0000   1.0000   1.0000   1.0000   1.0000   1.0000   1.0000   0.0000
     0.0000   0.0000   0.0000   0.0000   0.0000

          k = 0.3333 0.5774 0.2045 (  2856 PWs)   bands (ev):

   -75.2666 -75.2666 -38.7190 -38.7190 -38.6860 -38.6345 -38.5332 -38.5332
    15.9377  16.0462  16.0462  16.0833  17.0289  17.0289  18.3342  18.9445
    19.7441  19.7441  24.8790  24.8790  25.3274

     occupation numbers 
     1.0000   1.0000   1.0000   1.0000   1.0000   1.0000   1.0000   1.0000
     1.0000   1.0000   1.0000   1.0000   1.0000   1.0000   1.0000   0.0000
     0.0000   0.0000   0.0000   0.0000   0.0000

          k = 0.3333 0.5774-0.3067 (  2862 PWs)   bands (ev):

   -75.2666 -75.2666 -38.7314 -38.7314 -38.6603 -38.6603 -38.5207 -38.5207
    16.0731  16.0731  16.1585  16.1585  16.9097  16.9097  18.5096  18.5096
    19.7883  19.7883  24.9513  24.9513  26.6461

     occupation numbers 
     1.0000   1.0000   1.0000   1.0000   1.0000   1.0000   1.0000   1.0000
     1.0000   1.0000   1.0000   1.0000   1.0000   1.0000   1.0000   1.0000
     0.0000   0.0000   0.0000   0.0000   0.0000

     the Fermi energy is    18.6422 ev

!    total energy              =    -753.45510579 Ry
     total all-electron energy =     -5573.811797 Ry
     estimated scf accuracy    <       0.00000026 Ry
     smearing contrib. (-TS)   =      -0.00002050 Ry
     internal energy E=F+TS    =    -753.45508530 Ry

     The total energy is F=E-TS. E is the sum of the following terms:
     one-electron contribution =    -283.10979005 Ry
     hartree contribution      =     165.15707361 Ry
     xc contribution           =     -61.40341035 Ry
     ewald contribution        =    -398.92299456 Ry
     one-center paw contrib.   =    -175.17596395 Ry
      -> PAW hartree energy AE =     221.98828124 Ry
      -> PAW hartree energy PS =    -220.93312606 Ry
      -> PAW xc energy AE      =    -117.67223098 Ry
      -> PAW xc energy PS      =      29.02909382 Ry
      -> total E_H with PAW    =     166.21222879 Ry
      -> total E_XC with PAW   =    -150.04654750 Ry

     total magnetization       =     3.36 Bohr mag/cell
     absolute magnetization    =     3.68 Bohr mag/cell

     convergence has been achieved in   1 iterations

     Writing all to output data dir ./out/Co.save/
 
     init_run     :      0.39s CPU      0.53s WALL (       1 calls)
     electrons    :      3.27s CPU      3.49s WALL (       1 calls)

     Called by init_run:
     wfcinit      :      0.24s CPU      0.35s WALL (       1 calls)
     potinit      :      0.10s CPU      0.13s WALL (       1 calls)
     hinit0       :      0.04s CPU      0.04s WALL (       1 calls)

     Called by electrons:
     c_bands      :      2.75s CPU      2.93s WALL (       2 calls)
     sum_band     :      0.39s CPU      0.42s WALL (       2 calls)
     v_of_rho     :      0.01s CPU      0.01s WALL (       2 calls)
     v_h          :      0.00s CPU      0.00s WALL (       2 calls)
     v_xc         :      0.01s CPU      0.01s WALL (       2 calls)
     newd         :      0.01s CPU      0.01s WALL (       2 calls)
     PAW_pot      :      0.19s CPU      0.24s WALL (       2 calls)
     mix_rho      :      0.00s CPU      0.00s WALL (       2 calls)

     Called by c_bands:
     init_us_2    :      0.02s CPU      0.03s WALL (     608 calls)
     init_us_2:cp :      0.02s CPU      0.03s WALL (     608 calls)
     cegterg      :      2.60s CPU      2.72s WALL (     304 calls)

     Called by sum_band:
     sum_band:wei :      0.00s CPU      0.00s WALL (       2 calls)
     sum_band:loo :      0.37s CPU      0.39s WALL (       2 calls)
     sum_band:buf :      0.00s CPU      0.00s WALL (     304 calls)
     sum_band:ini :      0.01s CPU      0.01s WALL (     304 calls)
     sum_band:cal :      0.03s CPU      0.03s WALL (     304 calls)
     sum_band:bec :      0.00s CPU      0.00s WALL (     304 calls)
     addusdens    :      0.01s CPU      0.02s WALL (       2 calls)
                                        0.00s GPU  (       2 calls)
     addusd:skk   :      0.00s CPU      0.00s WALL (       2 calls)
                                        0.00s GPU  (       2 calls)

     Called by *egterg:
     cdiaghg      :      0.74s CPU      0.76s WALL (    1162 calls)
     cegterg:over :      0.09s CPU      0.08s WALL (    1162 calls)
     cegterg:upda :      0.01s CPU      0.02s WALL (    1162 calls)
     cegterg:last :      0.02s CPU      0.03s WALL (     550 calls)
     h_psi        :      1.63s CPU      1.72s WALL (    1466 calls)
     s_psi        :      0.03s CPU      0.03s WALL (    1466 calls)
     g_psi        :      0.00s CPU      0.01s WALL (    1162 calls)

     Called by h_psi:
     h_psi:calbec :      0.09s CPU      0.08s WALL (    1466 calls)
     vloc_psi     :      1.51s CPU      1.59s WALL (    1466 calls)
     add_vuspsi   :      0.03s CPU      0.04s WALL (    1466 calls)

     General routines
     calbec       :      0.12s CPU      0.11s WALL (    1770 calls)
     fft          :      0.00s CPU      0.00s WALL (      46 calls)
     ffts         :      0.00s CPU      0.00s WALL (       8 calls)
     fftw         :      1.70s CPU      1.77s WALL (   38848 calls)
     interpolate  :      0.00s CPU      0.00s WALL (       4 calls)
 
     Parallel routines

     PAW routines
     PAW_pot      :      0.19s CPU      0.24s WALL (       2 calls)
     PAW_symme    :      0.00s CPU      0.00s WALL (       3 calls)
 
     PWSCF        :      3.99s CPU      4.88s WALL

 
   This run was terminated on:  16:42: 9  18Mar2024            

=------------------------------------------------------------------------------=
   JOB DONE.
=------------------------------------------------------------------------------=
