
     Program PWSCF v.7.2 starts on 18Mar2024 at 16:53:20 

     This program is part of the open-source Quantum ESPRESSO suite
     for quantum simulation of materials; please cite
         "P. Giannozzi et al., J. Phys.:Condens. Matter 21 395502 (2009);
         "P. Giannozzi et al., J. Phys.:Condens. Matter 29 465901 (2017);
         "P. Giannozzi et al., J. Chem. Phys. 152 154105 (2020);
          URL http://www.quantum-espresso.org", 
     in publications or presentations arising from this work. More details at
     http://www.quantum-espresso.org/quote

     Parallel version (MPI), running on    20 processors

     MPI processes distributed on     1 nodes
     315162 MiB available memory on the printing compute node when the environment starts
 
     Waiting for input...
     Reading input from standard input

     Current dimensions of program PWSCF are:
     Max number of different atomic species (ntypx) = 10
     Max number of k-points (npk) = 120000
     Max angular momentum in pseudopotentials (lmaxx) =  4
     file Co.pbe-spn-kjpaw_psl.0.3.1.UPF: wavefunction(s)  3P 3D renormalized
 
     R & G space division:  proc/nbgrp/npool/nimage =      20
     Subspace diagonalization in iterative solution of the eigenvalue problem:
     a serial algorithm will be used

 
     Parallelization info
     --------------------
     sticks:   dense  smooth     PW     G-vecs:    dense   smooth      PW
     Min          34      33      9                 1193     1151     185
     Max          37      34     10                 1204     1160     192
     Sum         691     673    199                23937    23091    3789
 
     Using Slab Decomposition
 


     bravais-lattice index     =            4
     lattice parameter (alat)  =       4.7400  a.u.
     unit-cell volume          =     148.4881 (a.u.)^3
     number of atoms/cell      =            2
     number of atomic types    =            1
     number of electrons       =        34.00
     number of Kohn-Sham states=           21
     kinetic-energy cutoff     =     110.0000  Ry
     charge density cutoff     =     450.0000  Ry
     scf convergence threshold =      1.0E-06
     mixing beta               =       0.7000
     number of iterations used =            8  plain     mixing
     Exchange-correlation= SLA  PW   PBX  PBC
                           (   1   4   3   4   0   0   0)

     celldm(1)=   4.740000  celldm(2)=   0.000000  celldm(3)=   1.610000
     celldm(4)=   0.000000  celldm(5)=   0.000000  celldm(6)=   0.000000

     crystal axes: (cart. coord. in units of alat)
               a(1) = (   1.000000   0.000000   0.000000 )  
               a(2) = (  -0.500000   0.866025   0.000000 )  
               a(3) = (   0.000000   0.000000   1.610000 )  

     reciprocal axes: (cart. coord. in units 2 pi/alat)
               b(1) = (  1.000000  0.577350  0.000000 )  
               b(2) = (  0.000000  1.154701  0.000000 )  
               b(3) = (  0.000000  0.000000  0.621118 )  


     PseudoPot. # 1 for Co read from file:
     /truba/home/amuhaymin/ZnS/pseudo/QE/Co.pbe-spn-kjpaw_psl.0.3.1.UPF
     MD5 check sum: b0a1ad65bf214e88c1f3d33b20c7d919
     Pseudo is Projector augmented-wave + core cor, Zval = 17.0
     Generated using &quot;atomic&quot; code by A. Dal Corso  v.6.2.2
     Shape of augmentation charge: PSQ
     Using radial grid of 1193 points,  6 beta functions with: 
                l(1) =   0
                l(2) =   0
                l(3) =   1
                l(4) =   1
                l(5) =   2
                l(6) =   2
     Q(r) pseudized with 0 coefficients 


     atomic species   valence    mass     pseudopotential
        Co            17.00    58.93300     Co( 1.00)

     Starting magnetic structure 
     atomic species   magnetization
        Co           0.294

     24 Sym. Ops., with inversion, found (12 have fractional translation)


                                    s                        frac. trans.

      isym =  1     identity                                     

 cryst.   s( 1) = (     1          0          0      )
                  (     0          1          0      )
                  (     0          0          1      )

 cart.    s( 1) = (  1.0000000  0.0000000  0.0000000 )
                  (  0.0000000  1.0000000  0.0000000 )
                  (  0.0000000  0.0000000  1.0000000 )


      isym =  2     180 deg rotation - cart. axis [0,0,1]        

 cryst.   s( 2) = (    -1          0          0      )    f =(  0.0000000 )
                  (     0         -1          0      )       ( -0.0000000 )
                  (     0          0          1      )       ( -0.5000000 )

 cart.    s( 2) = ( -1.0000000  0.0000000  0.0000000 )    f =(  0.0000000 )
                  (  0.0000000 -1.0000000  0.0000000 )       ( -0.0000000 )
                  (  0.0000000  0.0000000  1.0000000 )       ( -0.8050000 )


      isym =  3     180 deg rotation - cart. axis [0,1,0]        

 cryst.   s( 3) = (    -1          0          0      )    f =(  0.0000000 )
                  (     1          1          0      )       (  0.0000000 )
                  (     0          0         -1      )       (  0.5000000 )

 cart.    s( 3) = ( -1.0000000  0.0000000  0.0000000 )    f =(  0.0000000 )
                  (  0.0000000  1.0000000  0.0000000 )       (  0.0000000 )
                  (  0.0000000  0.0000000 -1.0000000 )       (  0.8050000 )


      isym =  4     180 deg rotation - cart. axis [1,0,0]        

 cryst.   s( 4) = (     1          0          0      )
                  (    -1         -1          0      )
                  (     0          0         -1      )

 cart.    s( 4) = (  1.0000000  0.0000000  0.0000000 )
                  (  0.0000000 -1.0000000  0.0000000 )
                  (  0.0000000  0.0000000 -1.0000000 )


      isym =  5      60 deg rotation - cryst. axis [0,0,1]       

 cryst.   s( 5) = (     1          1          0      )    f =(  0.0000000 )
                  (    -1          0          0      )       ( -0.0000000 )
                  (     0          0          1      )       ( -0.5000000 )

 cart.    s( 5) = (  0.5000000 -0.8660254  0.0000000 )    f =(  0.0000000 )
                  (  0.8660254  0.5000000  0.0000000 )       ( -0.0000000 )
                  (  0.0000000  0.0000000  1.0000000 )       ( -0.8050000 )


      isym =  6      60 deg rotation - cryst. axis [0,0,-1]      

 cryst.   s( 6) = (     0         -1          0      )    f =(  0.0000000 )
                  (     1          1          0      )       ( -0.0000000 )
                  (     0          0          1      )       ( -0.5000000 )

 cart.    s( 6) = (  0.5000000  0.8660254  0.0000000 )    f =(  0.0000000 )
                  ( -0.8660254  0.5000000  0.0000000 )       ( -0.0000000 )
                  (  0.0000000  0.0000000  1.0000000 )       ( -0.8050000 )


      isym =  7     120 deg rotation - cryst. axis [0,0,1]       

 cryst.   s( 7) = (     0          1          0      )
                  (    -1         -1          0      )
                  (     0          0          1      )

 cart.    s( 7) = ( -0.5000000 -0.8660254  0.0000000 )
                  (  0.8660254 -0.5000000  0.0000000 )
                  (  0.0000000  0.0000000  1.0000000 )


      isym =  8     120 deg rotation - cryst. axis [0,0,-1]      

 cryst.   s( 8) = (    -1         -1          0      )
                  (     1          0          0      )
                  (     0          0          1      )

 cart.    s( 8) = ( -0.5000000  0.8660254  0.0000000 )
                  ( -0.8660254 -0.5000000  0.0000000 )
                  (  0.0000000  0.0000000  1.0000000 )


      isym =  9     180 deg rotation - cryst. axis [1,-1,0]      

 cryst.   s( 9) = (     0         -1          0      )    f =( -0.0000000 )
                  (    -1          0          0      )       ( -0.0000000 )
                  (     0          0         -1      )       (  0.5000000 )

 cart.    s( 9) = (  0.5000000 -0.8660254  0.0000000 )    f =( -0.0000000 )
                  ( -0.8660254 -0.5000000  0.0000000 )       ( -0.0000000 )
                  (  0.0000000  0.0000000 -1.0000000 )       (  0.8050000 )


      isym = 10     180 deg rotation - cryst. axis [2,1,0]       

 cryst.   s(10) = (     1          1          0      )    f =(  0.0000000 )
                  (     0         -1          0      )       ( -0.0000000 )
                  (     0          0         -1      )       (  0.5000000 )

 cart.    s(10) = (  0.5000000  0.8660254  0.0000000 )    f =(  0.0000000 )
                  (  0.8660254 -0.5000000  0.0000000 )       ( -0.0000000 )
                  (  0.0000000  0.0000000 -1.0000000 )       (  0.8050000 )


      isym = 11     180 deg rotation - cryst. axis [0,1,0]       

 cryst.   s(11) = (    -1         -1          0      )
                  (     0          1          0      )
                  (     0          0         -1      )

 cart.    s(11) = ( -0.5000000 -0.8660254  0.0000000 )
                  ( -0.8660254  0.5000000  0.0000000 )
                  (  0.0000000  0.0000000 -1.0000000 )


      isym = 12     180 deg rotation - cryst. axis [1,1,0]       

 cryst.   s(12) = (     0          1          0      )
                  (     1          0          0      )
                  (     0          0         -1      )

 cart.    s(12) = ( -0.5000000  0.8660254  0.0000000 )
                  (  0.8660254  0.5000000  0.0000000 )
                  (  0.0000000  0.0000000 -1.0000000 )


      isym = 13     inversion                                    

 cryst.   s(13) = (    -1          0          0      )
                  (     0         -1          0      )
                  (     0          0         -1      )

 cart.    s(13) = ( -1.0000000  0.0000000  0.0000000 )
                  (  0.0000000 -1.0000000  0.0000000 )
                  (  0.0000000  0.0000000 -1.0000000 )


      isym = 14     inv. 180 deg rotation - cart. axis [0,0,1]   

 cryst.   s(14) = (     1          0          0      )    f =(  0.0000000 )
                  (     0          1          0      )       (  0.0000000 )
                  (     0          0         -1      )       (  0.5000000 )

 cart.    s(14) = (  1.0000000  0.0000000  0.0000000 )    f =(  0.0000000 )
                  (  0.0000000  1.0000000  0.0000000 )       (  0.0000000 )
                  (  0.0000000  0.0000000 -1.0000000 )       (  0.8050000 )


      isym = 15     inv. 180 deg rotation - cart. axis [0,1,0]   

 cryst.   s(15) = (     1          0          0      )    f =(  0.0000000 )
                  (    -1         -1          0      )       ( -0.0000000 )
                  (     0          0          1      )       ( -0.5000000 )

 cart.    s(15) = (  1.0000000  0.0000000  0.0000000 )    f =(  0.0000000 )
                  (  0.0000000 -1.0000000  0.0000000 )       ( -0.0000000 )
                  (  0.0000000  0.0000000  1.0000000 )       ( -0.8050000 )


      isym = 16     inv. 180 deg rotation - cart. axis [1,0,0]   

 cryst.   s(16) = (    -1          0          0      )
                  (     1          1          0      )
                  (     0          0          1      )

 cart.    s(16) = ( -1.0000000  0.0000000  0.0000000 )
                  (  0.0000000  1.0000000  0.0000000 )
                  (  0.0000000  0.0000000  1.0000000 )


      isym = 17     inv.  60 deg rotation - cryst. axis [0,0,1]  

 cryst.   s(17) = (    -1         -1          0      )    f =(  0.0000000 )
                  (     1          0          0      )       ( -0.0000000 )
                  (     0          0         -1      )       (  0.5000000 )

 cart.    s(17) = ( -0.5000000  0.8660254  0.0000000 )    f =(  0.0000000 )
                  ( -0.8660254 -0.5000000  0.0000000 )       ( -0.0000000 )
                  (  0.0000000  0.0000000 -1.0000000 )       (  0.8050000 )


      isym = 18     inv.  60 deg rotation - cryst. axis [0,0,-1] 

 cryst.   s(18) = (     0          1          0      )    f =( -0.0000000 )
                  (    -1         -1          0      )       ( -0.0000000 )
                  (     0          0         -1      )       (  0.5000000 )

 cart.    s(18) = ( -0.5000000 -0.8660254  0.0000000 )    f =(  0.0000000 )
                  (  0.8660254 -0.5000000  0.0000000 )       ( -0.0000000 )
                  (  0.0000000  0.0000000 -1.0000000 )       (  0.8050000 )


      isym = 19     inv. 120 deg rotation - cryst. axis [0,0,1]  

 cryst.   s(19) = (     0         -1          0      )
                  (     1          1          0      )
                  (     0          0         -1      )

 cart.    s(19) = (  0.5000000  0.8660254  0.0000000 )
                  ( -0.8660254  0.5000000  0.0000000 )
                  (  0.0000000  0.0000000 -1.0000000 )


      isym = 20     inv. 120 deg rotation - cryst. axis [0,0,-1] 

 cryst.   s(20) = (     1          1          0      )
                  (    -1          0          0      )
                  (     0          0         -1      )

 cart.    s(20) = (  0.5000000 -0.8660254  0.0000000 )
                  (  0.8660254  0.5000000  0.0000000 )
                  (  0.0000000  0.0000000 -1.0000000 )


      isym = 21     inv. 180 deg rotation - cryst. axis [1,-1,0] 

 cryst.   s(21) = (     0          1          0      )    f =(  0.0000000 )
                  (     1          0          0      )       ( -0.0000000 )
                  (     0          0          1      )       ( -0.5000000 )

 cart.    s(21) = ( -0.5000000  0.8660254  0.0000000 )    f =(  0.0000000 )
                  (  0.8660254  0.5000000  0.0000000 )       ( -0.0000000 )
                  (  0.0000000  0.0000000  1.0000000 )       ( -0.8050000 )


      isym = 22     inv. 180 deg rotation - cryst. axis [2,1,0]  

 cryst.   s(22) = (    -1         -1          0      )    f =(  0.0000000 )
                  (     0          1          0      )       ( -0.0000000 )
                  (     0          0          1      )       ( -0.5000000 )

 cart.    s(22) = ( -0.5000000 -0.8660254  0.0000000 )    f =(  0.0000000 )
                  ( -0.8660254  0.5000000  0.0000000 )       ( -0.0000000 )
                  (  0.0000000  0.0000000  1.0000000 )       ( -0.8050000 )


      isym = 23     inv. 180 deg rotation - cryst. axis [0,1,0]  

 cryst.   s(23) = (     1          1          0      )
                  (     0         -1          0      )
                  (     0          0          1      )

 cart.    s(23) = (  0.5000000  0.8660254  0.0000000 )
                  (  0.8660254 -0.5000000  0.0000000 )
                  (  0.0000000  0.0000000  1.0000000 )


      isym = 24     inv. 180 deg rotation - cryst. axis [1,1,0]  

 cryst.   s(24) = (     0         -1          0      )
                  (    -1          0          0      )
                  (     0          0          1      )

 cart.    s(24) = (  0.5000000 -0.8660254  0.0000000 )
                  ( -0.8660254 -0.5000000  0.0000000 )
                  (  0.0000000  0.0000000  1.0000000 )


     point group D_6h(6/mmm)
     there are 12 classes
     the character table:

       E     2C6   2C3   C2    3C2'  3C2'' i     2S3   2S6   s_h   3s_d  3s_v 
A_1g   1.00  1.00  1.00  1.00  1.00  1.00  1.00  1.00  1.00  1.00  1.00  1.00
A_2g   1.00  1.00  1.00  1.00 -1.00 -1.00  1.00  1.00  1.00  1.00 -1.00 -1.00
B_1g   1.00 -1.00  1.00 -1.00  1.00 -1.00  1.00 -1.00  1.00 -1.00  1.00 -1.00
B_2g   1.00 -1.00  1.00 -1.00 -1.00  1.00  1.00 -1.00  1.00 -1.00 -1.00  1.00
E_1g   2.00  1.00 -1.00 -2.00  0.00  0.00  2.00  1.00 -1.00 -2.00  0.00  0.00
E_2g   2.00 -1.00 -1.00  2.00  0.00  0.00  2.00 -1.00 -1.00  2.00  0.00  0.00
A_1u   1.00  1.00  1.00  1.00  1.00  1.00 -1.00 -1.00 -1.00 -1.00 -1.00 -1.00
A_2u   1.00  1.00  1.00  1.00 -1.00 -1.00 -1.00 -1.00 -1.00 -1.00  1.00  1.00
B_1u   1.00 -1.00  1.00 -1.00  1.00 -1.00 -1.00  1.00 -1.00  1.00 -1.00  1.00
B_2u   1.00 -1.00  1.00 -1.00 -1.00  1.00 -1.00  1.00 -1.00  1.00  1.00 -1.00
E_1u   2.00  1.00 -1.00 -2.00  0.00  0.00 -2.00 -1.00  1.00  2.00  0.00  0.00
E_2u   2.00 -1.00 -1.00  2.00  0.00  0.00 -2.00  1.00  1.00 -2.00  0.00  0.00

     the symmetry operations in each class and the name of the first element:

     E        1
          identity                                               
     2C6      5    6
           60 deg rotation - cryst. axis [0,0,1]                 
     2C3      7    8
          120 deg rotation - cryst. axis [0,0,1]                 
     C2       2
          180 deg rotation - cart. axis [0,0,1]                  
     3C2'     4   12   11
          180 deg rotation - cart. axis [1,0,0]                  
     3C2''    3    9   10
          180 deg rotation - cart. axis [0,1,0]                  
     i       13
          inversion                                              
     2S3     17   18
          inv.  60 deg rotation - cryst. axis [0,0,1]            
     2S6     19   20
          inv. 120 deg rotation - cryst. axis [0,0,1]            
     s_h     14
          inv. 180 deg rotation - cart. axis [0,0,1]             
     3s_d    16   24   23
          inv. 180 deg rotation - cart. axis [1,0,0]             
     3s_v    15   21   22
          inv. 180 deg rotation - cart. axis [0,1,0]             

   Cartesian axes

     site n.     atom                  positions (alat units)
         1           Co  tau(   1) = (  -0.0000000   0.5773503   0.4025000  )
         2           Co  tau(   2) = (   0.5000000   0.2886751   1.2075000  )

   Crystallographic axes

     site n.     atom                  positions (cryst. coord.)
         1           Co  tau(   1) = (  0.3333333  0.6666667  0.2500000  )
         2           Co  tau(   2) = (  0.6666667  0.3333333  0.7500000  )

     number of k points=    76  Gaussian smearing, width (Ry)=  0.0010
                       cart. coord. in units 2pi/alat
        k(    1) = (   0.0000000   0.0000000   0.0000000), wk =   0.0011574
        k(    2) = (   0.0000000   0.0000000   0.1035197), wk =   0.0023148
        k(    3) = (   0.0000000   0.0000000   0.2070393), wk =   0.0023148
        k(    4) = (   0.0000000   0.0000000  -0.3105590), wk =   0.0011574
        k(    5) = (   0.0000000   0.0962250   0.0000000), wk =   0.0069444
        k(    6) = (   0.0000000   0.0962250   0.1035197), wk =   0.0138889
        k(    7) = (   0.0000000   0.0962250   0.2070393), wk =   0.0138889
        k(    8) = (   0.0000000   0.0962250  -0.3105590), wk =   0.0069444
        k(    9) = (   0.0000000   0.1924501   0.0000000), wk =   0.0069444
        k(   10) = (   0.0000000   0.1924501   0.1035197), wk =   0.0138889
        k(   11) = (   0.0000000   0.1924501   0.2070393), wk =   0.0138889
        k(   12) = (   0.0000000   0.1924501  -0.3105590), wk =   0.0069444
        k(   13) = (   0.0000000   0.2886751   0.0000000), wk =   0.0069444
        k(   14) = (   0.0000000   0.2886751   0.1035197), wk =   0.0138889
        k(   15) = (   0.0000000   0.2886751   0.2070393), wk =   0.0138889
        k(   16) = (   0.0000000   0.2886751  -0.3105590), wk =   0.0069444
        k(   17) = (   0.0000000   0.3849002   0.0000000), wk =   0.0069444
        k(   18) = (   0.0000000   0.3849002   0.1035197), wk =   0.0138889
        k(   19) = (   0.0000000   0.3849002   0.2070393), wk =   0.0138889
        k(   20) = (   0.0000000   0.3849002  -0.3105590), wk =   0.0069444
        k(   21) = (   0.0000000   0.4811252   0.0000000), wk =   0.0069444
        k(   22) = (   0.0000000   0.4811252   0.1035197), wk =   0.0138889
        k(   23) = (   0.0000000   0.4811252   0.2070393), wk =   0.0138889
        k(   24) = (   0.0000000   0.4811252  -0.3105590), wk =   0.0069444
        k(   25) = (   0.0000000  -0.5773503   0.0000000), wk =   0.0034722
        k(   26) = (   0.0000000  -0.5773503   0.1035197), wk =   0.0069444
        k(   27) = (   0.0000000  -0.5773503   0.2070393), wk =   0.0069444
        k(   28) = (   0.0000000  -0.5773503  -0.3105590), wk =   0.0034722
        k(   29) = (   0.0833333   0.1443376   0.0000000), wk =   0.0069444
        k(   30) = (   0.0833333   0.1443376   0.1035197), wk =   0.0138889
        k(   31) = (   0.0833333   0.1443376   0.2070393), wk =   0.0138889
        k(   32) = (   0.0833333   0.1443376  -0.3105590), wk =   0.0069444
        k(   33) = (   0.0833333   0.2405626   0.0000000), wk =   0.0138889
        k(   34) = (   0.0833333   0.2405626   0.1035197), wk =   0.0277778
        k(   35) = (   0.0833333   0.2405626   0.2070393), wk =   0.0277778
        k(   36) = (   0.0833333   0.2405626  -0.3105590), wk =   0.0138889
        k(   37) = (   0.0833333   0.3367877   0.0000000), wk =   0.0138889
        k(   38) = (   0.0833333   0.3367877   0.1035197), wk =   0.0277778
        k(   39) = (   0.0833333   0.3367877   0.2070393), wk =   0.0277778
        k(   40) = (   0.0833333   0.3367877  -0.3105590), wk =   0.0138889
        k(   41) = (   0.0833333   0.4330127   0.0000000), wk =   0.0138889
        k(   42) = (   0.0833333   0.4330127   0.1035197), wk =   0.0277778
        k(   43) = (   0.0833333   0.4330127   0.2070393), wk =   0.0277778
        k(   44) = (   0.0833333   0.4330127  -0.3105590), wk =   0.0138889
        k(   45) = (   0.0833333   0.5292377   0.0000000), wk =   0.0138889
        k(   46) = (   0.0833333   0.5292377   0.1035197), wk =   0.0277778
        k(   47) = (   0.0833333   0.5292377   0.2070393), wk =   0.0277778
        k(   48) = (   0.0833333   0.5292377  -0.3105590), wk =   0.0138889
        k(   49) = (   0.1666667   0.2886751   0.0000000), wk =   0.0069444
        k(   50) = (   0.1666667   0.2886751   0.1035197), wk =   0.0138889
        k(   51) = (   0.1666667   0.2886751   0.2070393), wk =   0.0138889
        k(   52) = (   0.1666667   0.2886751  -0.3105590), wk =   0.0069444
        k(   53) = (   0.1666667   0.3849002   0.0000000), wk =   0.0138889
        k(   54) = (   0.1666667   0.3849002   0.1035197), wk =   0.0277778
        k(   55) = (   0.1666667   0.3849002   0.2070393), wk =   0.0277778
        k(   56) = (   0.1666667   0.3849002  -0.3105590), wk =   0.0138889
        k(   57) = (   0.1666667   0.4811252   0.0000000), wk =   0.0138889
        k(   58) = (   0.1666667   0.4811252   0.1035197), wk =   0.0277778
        k(   59) = (   0.1666667   0.4811252   0.2070393), wk =   0.0277778
        k(   60) = (   0.1666667   0.4811252  -0.3105590), wk =   0.0138889
        k(   61) = (   0.1666667   0.5773503   0.0000000), wk =   0.0069444
        k(   62) = (   0.1666667   0.5773503   0.1035197), wk =   0.0138889
        k(   63) = (   0.1666667   0.5773503   0.2070393), wk =   0.0138889
        k(   64) = (   0.1666667   0.5773503  -0.3105590), wk =   0.0069444
        k(   65) = (   0.2500000   0.4330127   0.0000000), wk =   0.0069444
        k(   66) = (   0.2500000   0.4330127   0.1035197), wk =   0.0138889
        k(   67) = (   0.2500000   0.4330127   0.2070393), wk =   0.0138889
        k(   68) = (   0.2500000   0.4330127  -0.3105590), wk =   0.0069444
        k(   69) = (   0.2500000   0.5292377   0.0000000), wk =   0.0138889
        k(   70) = (   0.2500000   0.5292377   0.1035197), wk =   0.0277778
        k(   71) = (   0.2500000   0.5292377   0.2070393), wk =   0.0277778
        k(   72) = (   0.2500000   0.5292377  -0.3105590), wk =   0.0138889
        k(   73) = (   0.3333333   0.5773503   0.0000000), wk =   0.0023148
        k(   74) = (   0.3333333   0.5773503   0.1035197), wk =   0.0046296
        k(   75) = (   0.3333333   0.5773503   0.2070393), wk =   0.0046296
        k(   76) = (   0.3333333   0.5773503  -0.3105590), wk =   0.0023148

                       cryst. coord.
        k(    1) = (   0.0000000   0.0000000   0.0000000), wk =   0.0011574
        k(    2) = (   0.0000000   0.0000000   0.1666667), wk =   0.0023148
        k(    3) = (   0.0000000   0.0000000   0.3333333), wk =   0.0023148
        k(    4) = (   0.0000000   0.0000000  -0.5000000), wk =   0.0011574
        k(    5) = (   0.0000000   0.0833333   0.0000000), wk =   0.0069444
        k(    6) = (   0.0000000   0.0833333   0.1666667), wk =   0.0138889
        k(    7) = (   0.0000000   0.0833333   0.3333333), wk =   0.0138889
        k(    8) = (   0.0000000   0.0833333  -0.5000000), wk =   0.0069444
        k(    9) = (   0.0000000   0.1666667   0.0000000), wk =   0.0069444
        k(   10) = (   0.0000000   0.1666667   0.1666667), wk =   0.0138889
        k(   11) = (   0.0000000   0.1666667   0.3333333), wk =   0.0138889
        k(   12) = (   0.0000000   0.1666667  -0.5000000), wk =   0.0069444
        k(   13) = (   0.0000000   0.2500000   0.0000000), wk =   0.0069444
        k(   14) = (   0.0000000   0.2500000   0.1666667), wk =   0.0138889
        k(   15) = (   0.0000000   0.2500000   0.3333333), wk =   0.0138889
        k(   16) = (   0.0000000   0.2500000  -0.5000000), wk =   0.0069444
        k(   17) = (   0.0000000   0.3333333   0.0000000), wk =   0.0069444
        k(   18) = (   0.0000000   0.3333333   0.1666667), wk =   0.0138889
        k(   19) = (   0.0000000   0.3333333   0.3333333), wk =   0.0138889
        k(   20) = (   0.0000000   0.3333333  -0.5000000), wk =   0.0069444
        k(   21) = (   0.0000000   0.4166667   0.0000000), wk =   0.0069444
        k(   22) = (   0.0000000   0.4166667   0.1666667), wk =   0.0138889
        k(   23) = (   0.0000000   0.4166667   0.3333333), wk =   0.0138889
        k(   24) = (   0.0000000   0.4166667  -0.5000000), wk =   0.0069444
        k(   25) = (   0.0000000  -0.5000000   0.0000000), wk =   0.0034722
        k(   26) = (   0.0000000  -0.5000000   0.1666667), wk =   0.0069444
        k(   27) = (   0.0000000  -0.5000000   0.3333333), wk =   0.0069444
        k(   28) = (   0.0000000  -0.5000000  -0.5000000), wk =   0.0034722
        k(   29) = (   0.0833333   0.0833333   0.0000000), wk =   0.0069444
        k(   30) = (   0.0833333   0.0833333   0.1666667), wk =   0.0138889
        k(   31) = (   0.0833333   0.0833333   0.3333333), wk =   0.0138889
        k(   32) = (   0.0833333   0.0833333  -0.5000000), wk =   0.0069444
        k(   33) = (   0.0833333   0.1666667   0.0000000), wk =   0.0138889
        k(   34) = (   0.0833333   0.1666667   0.1666667), wk =   0.0277778
        k(   35) = (   0.0833333   0.1666667   0.3333333), wk =   0.0277778
        k(   36) = (   0.0833333   0.1666667  -0.5000000), wk =   0.0138889
        k(   37) = (   0.0833333   0.2500000   0.0000000), wk =   0.0138889
        k(   38) = (   0.0833333   0.2500000   0.1666667), wk =   0.0277778
        k(   39) = (   0.0833333   0.2500000   0.3333333), wk =   0.0277778
        k(   40) = (   0.0833333   0.2500000  -0.5000000), wk =   0.0138889
        k(   41) = (   0.0833333   0.3333333   0.0000000), wk =   0.0138889
        k(   42) = (   0.0833333   0.3333333   0.1666667), wk =   0.0277778
        k(   43) = (   0.0833333   0.3333333   0.3333333), wk =   0.0277778
        k(   44) = (   0.0833333   0.3333333  -0.5000000), wk =   0.0138889
        k(   45) = (   0.0833333   0.4166667   0.0000000), wk =   0.0138889
        k(   46) = (   0.0833333   0.4166667   0.1666667), wk =   0.0277778
        k(   47) = (   0.0833333   0.4166667   0.3333333), wk =   0.0277778
        k(   48) = (   0.0833333   0.4166667  -0.5000000), wk =   0.0138889
        k(   49) = (   0.1666667   0.1666667   0.0000000), wk =   0.0069444
        k(   50) = (   0.1666667   0.1666667   0.1666667), wk =   0.0138889
        k(   51) = (   0.1666667   0.1666667   0.3333333), wk =   0.0138889
        k(   52) = (   0.1666667   0.1666667  -0.5000000), wk =   0.0069444
        k(   53) = (   0.1666667   0.2500000   0.0000000), wk =   0.0138889
        k(   54) = (   0.1666667   0.2500000   0.1666667), wk =   0.0277778
        k(   55) = (   0.1666667   0.2500000   0.3333333), wk =   0.0277778
        k(   56) = (   0.1666667   0.2500000  -0.5000000), wk =   0.0138889
        k(   57) = (   0.1666667   0.3333333   0.0000000), wk =   0.0138889
        k(   58) = (   0.1666667   0.3333333   0.1666667), wk =   0.0277778
        k(   59) = (   0.1666667   0.3333333   0.3333333), wk =   0.0277778
        k(   60) = (   0.1666667   0.3333333  -0.5000000), wk =   0.0138889
        k(   61) = (   0.1666667   0.4166667   0.0000000), wk =   0.0069444
        k(   62) = (   0.1666667   0.4166667   0.1666667), wk =   0.0138889
        k(   63) = (   0.1666667   0.4166667   0.3333333), wk =   0.0138889
        k(   64) = (   0.1666667   0.4166667  -0.5000000), wk =   0.0069444
        k(   65) = (   0.2500000   0.2500000   0.0000000), wk =   0.0069444
        k(   66) = (   0.2500000   0.2500000   0.1666667), wk =   0.0138889
        k(   67) = (   0.2500000   0.2500000   0.3333333), wk =   0.0138889
        k(   68) = (   0.2500000   0.2500000  -0.5000000), wk =   0.0069444
        k(   69) = (   0.2500000   0.3333333   0.0000000), wk =   0.0138889
        k(   70) = (   0.2500000   0.3333333   0.1666667), wk =   0.0277778
        k(   71) = (   0.2500000   0.3333333   0.3333333), wk =   0.0277778
        k(   72) = (   0.2500000   0.3333333  -0.5000000), wk =   0.0138889
        k(   73) = (   0.3333333   0.3333333   0.0000000), wk =   0.0023148
        k(   74) = (   0.3333333   0.3333333   0.1666667), wk =   0.0046296
        k(   75) = (   0.3333333   0.3333333   0.3333333), wk =   0.0046296
        k(   76) = (   0.3333333   0.3333333  -0.5000000), wk =   0.0023148

     Dense  grid:    23937 G-vectors     FFT dimensions: (  36,  36,  54)

     Smooth grid:    23091 G-vectors     FFT dimensions: (  32,  32,  54)

     Dynamical RAM for                 wfc:       0.05 MB

     Dynamical RAM for     wfc (w. buffer):       7.06 MB

     Dynamical RAM for           str. fact:       0.02 MB

     Dynamical RAM for           local pot:       0.00 MB

     Dynamical RAM for          nlocal pot:       0.08 MB

     Dynamical RAM for                qrad:       1.70 MB

     Dynamical RAM for          rho,v,vnew:       0.29 MB

     Dynamical RAM for               rhoin:       0.10 MB

     Dynamical RAM for            rho*nmix:       0.58 MB

     Dynamical RAM for           G-vectors:       0.08 MB

     Dynamical RAM for          h,s,v(r/c):       0.08 MB

     Dynamical RAM for          <psi|beta>:       0.01 MB

     Dynamical RAM for                 psi:       0.09 MB

     Dynamical RAM for                hpsi:       0.09 MB

     Dynamical RAM for                spsi:       0.09 MB

     Dynamical RAM for      wfcinit/wfcrot:       0.10 MB

     Dynamical RAM for           addusdens:       3.44 MB

     Estimated static dynamical RAM per process >       9.53 MB

     Estimated max dynamical RAM per process >      13.56 MB

     Estimated total dynamical RAM >     271.14 MB

     Check: negative core charge=   -0.000043
     Generating pointlists ...
     new r_m :   0.4086 (alat units)  1.9369 (a.u.) for type    1

     The initial density is read from file :
     ./out/Co.save/charge-density

     Starting wfcs from file
     Checking if some PAW data can be deallocated... 

     total cpu time spent up to now is        0.6 secs

     Self-consistent Calculation

     iteration #  1     ecut=   110.00 Ry     beta= 0.70
     Davidson diagonalization with overlap

---- Real-time Memory Report at c_bands before calling an iterative solver
            56 MiB given to the printing process from OS
             0 MiB allocation reported by mallinfo(arena+hblkhd)
        314683 MiB available memory on the node where the printing process lives
------------------
     ethr =  1.00E-05,  avg # of iterations =  1.0

     Threshold (ethr) on eigenvalues was too large:
     Diagonalizing with lowered threshold

     Davidson diagonalization with overlap

---- Real-time Memory Report at c_bands before calling an iterative solver
            65 MiB given to the printing process from OS
             0 MiB allocation reported by mallinfo(arena+hblkhd)
        314523 MiB available memory on the node where the printing process lives
------------------
     ethr =  1.12E-09,  avg # of iterations =  2.6
 
     Magnetic moment per site  (integrated on atomic sphere of radius R)
     atom   1 (R=0.409)  charge= 15.5887  magn=  1.7357
     atom   2 (R=0.409)  charge= 15.5887  magn=  1.7357

     total cpu time spent up to now is        3.2 secs

     End of self-consistent calculation

 ------ SPIN UP ------------


          k = 0.0000 0.0000 0.0000 (  2863 PWs)   bands (ev):

   -77.7440 -77.6899 -41.1375 -40.8639 -40.8639 -40.8225 -40.8173 -40.8173
     9.4584  13.2507  15.7661  15.7706  15.7706  16.0820  16.0820  16.3986
    16.3986  17.4998  17.4998  18.1955  24.6119

     occupation numbers 
     1.0000   1.0000   1.0000   1.0000   1.0000   1.0000   1.0000   1.0000
     1.0000   1.0000   1.0000   1.0000   1.0000   1.0000   1.0000   1.0000
     1.0000   1.0000   1.0000   1.0000   0.0000

          k = 0.0000 0.0000 0.1035 (  2863 PWs)   bands (ev):

   -77.7403 -77.6935 -41.1167 -40.8608 -40.8608 -40.8438 -40.8204 -40.8204
     9.7347  13.1827  15.6953  15.7026  15.7026  16.0073  16.0073  16.5647
    16.5647  17.2272  17.4846  17.4846  26.1458

     occupation numbers 
     1.0000   1.0000   1.0000   1.0000   1.0000   1.0000   1.0000   1.0000
     1.0000   1.0000   1.0000   1.0000   1.0000   1.0000   1.0000   1.0000
     1.0000   1.0000   1.0000   1.0000   0.0000

          k = 0.0000 0.0000 0.2070 (  2888 PWs)   bands (ev):

   -77.7305 -77.7034 -41.0596 -40.9020 -40.8523 -40.8523 -40.8290 -40.8290
    10.5272  12.7476  15.5309  15.6454  15.6454  15.8429  15.8429  15.9001
    16.8879  16.8879  17.3989  17.3989  29.3700

     occupation numbers 
     1.0000   1.0000   1.0000   1.0000   1.0000   1.0000   1.0000   1.0000
     1.0000   1.0000   1.0000   1.0000   1.0000   1.0000   1.0000   1.0000
     1.0000   1.0000   1.0000   1.0000   0.0000

          k = 0.0000 0.0000-0.3106 (  2858 PWs)   bands (ev):

   -77.7169 -77.7169 -40.9811 -40.9811 -40.8406 -40.8406 -40.8406 -40.8406
    11.6834  11.6834  15.4502  15.4502  15.6972  15.6972  15.6972  15.6972
    17.1944  17.1944  17.1944  17.1944  33.2112

     occupation numbers 
     1.0000   1.0000   1.0000   1.0000   1.0000   1.0000   1.0000   1.0000
     1.0000   1.0000   1.0000   1.0000   1.0000   1.0000   1.0000   1.0000
     1.0000   1.0000   1.0000   1.0000   0.0000

          k = 0.0000 0.0962 0.0000 (  2861 PWs)   bands (ev):

   -77.7410 -77.6886 -41.1307 -40.8784 -40.8687 -40.8324 -40.8254 -40.8197
     9.6968  13.3921  15.5419  15.8814  15.9567  16.0382  16.1798  16.2518
    16.3290  16.7363  17.5298  19.2719  24.6527

     occupation numbers 
     1.0000   1.0000   1.0000   1.0000   1.0000   1.0000   1.0000   1.0000
     1.0000   1.0000   1.0000   1.0000   1.0000   1.0000   1.0000   1.0000
     1.0000   1.0000   1.0000   0.0000   0.0000

          k = 0.0000 0.0962 0.1035 (  2874 PWs)   bands (ev):

   -77.7375 -77.6921 -41.1111 -40.8748 -40.8654 -40.8535 -40.8281 -40.8230
     9.9689  13.3388  15.5380  15.7796  15.7960  15.8586  16.0989  16.4089
    16.5228  16.6226  17.5073  18.4756  26.2549

     occupation numbers 
     1.0000   1.0000   1.0000   1.0000   1.0000   1.0000   1.0000   1.0000
     1.0000   1.0000   1.0000   1.0000   1.0000   1.0000   1.0000   1.0000
     1.0000   1.0000   1.0000   0.0000   0.0000

          k = 0.0000 0.0962 0.2070 (  2873 PWs)   bands (ev):

   -77.7279 -77.7017 -41.0573 -40.9087 -40.8648 -40.8565 -40.8377 -40.8320
    10.7491  12.9327  15.4366  15.5038  15.5761  15.7323  15.9336  16.0186
    16.8638  16.9101  17.4052  17.6970  29.5219

     occupation numbers 
     1.0000   1.0000   1.0000   1.0000   1.0000   1.0000   1.0000   1.0000
     1.0000   1.0000   1.0000   1.0000   1.0000   1.0000   1.0000   1.0000
     1.0000   1.0000   1.0000   1.0000   0.0000

          k = 0.0000 0.0962-0.3106 (  2876 PWs)   bands (ev):

   -77.7148 -77.7148 -40.9833 -40.9833 -40.8512 -40.8512 -40.8442 -40.8442
    11.8869  11.8869  15.2966  15.2966  15.7211  15.7211  15.7859  15.7859
    17.1840  17.1840  17.2859  17.2859  33.3761

     occupation numbers 
     1.0000   1.0000   1.0000   1.0000   1.0000   1.0000   1.0000   1.0000
     1.0000   1.0000   1.0000   1.0000   1.0000   1.0000   1.0000   1.0000
     1.0000   1.0000   1.0000   1.0000   0.0000

          k = 0.0000 0.1925 0.0000 (  2872 PWs)   bands (ev):

   -77.7328 -77.6852 -41.1115 -40.9183 -40.8816 -40.8733 -40.8342 -40.8265
    10.3867  13.7420  15.2704  15.5596  15.8714  16.1573  16.1944  16.2554
    16.3687  16.4538  17.5940  20.8387  24.7956

     occupation numbers 
     1.0000   1.0000   1.0000   1.0000   1.0000   1.0000   1.0000   1.0000
     1.0000   1.0000   1.0000   1.0000   1.0000   1.0000   1.0000   1.0000
     1.0000   1.0000   1.0000   0.0000   0.0000

          k = 0.0000 0.1925 0.1035 (  2878 PWs)   bands (ev):

   -77.7296 -77.6884 -41.0958 -40.9130 -40.8892 -40.8779 -40.8396 -40.8302
    10.6432  13.7336  15.2864  15.3119  15.7559  15.9936  16.1383  16.3368
    16.5100  16.6121  17.5552  19.6931  26.6087

     occupation numbers 
     1.0000   1.0000   1.0000   1.0000   1.0000   1.0000   1.0000   1.0000
     1.0000   1.0000   1.0000   1.0000   1.0000   1.0000   1.0000   1.0000
     1.0000   1.0000   1.0000   0.0000   0.0000

          k = 0.0000 0.1925 0.2070 (  2882 PWs)   bands (ev):

   -77.7209 -77.6971 -41.0528 -40.9344 -40.8964 -40.8678 -40.8548 -40.8403
    11.3752  13.4130  14.9485  15.3606  15.4821  15.9439  15.9587  16.1853
    16.8397  17.0030  17.4186  18.3380  29.9753

     occupation numbers 
     1.0000   1.0000   1.0000   1.0000   1.0000   1.0000   1.0000   1.0000
     1.0000   1.0000   1.0000   1.0000   1.0000   1.0000   1.0000   1.0000
     1.0000   1.0000   1.0000   0.3929   0.0000

          k = 0.0000 0.1925-0.3106 (  2896 PWs)   bands (ev):

   -77.7090 -77.7090 -40.9937 -40.9937 -40.8757 -40.8757 -40.8541 -40.8541
    12.4357  12.4357  15.0636  15.0636  15.6712  15.6712  16.0225  16.0225
    17.1693  17.1693  17.5317  17.5317  33.8196

     occupation numbers 
     1.0000   1.0000   1.0000   1.0000   1.0000   1.0000   1.0000   1.0000
     1.0000   1.0000   1.0000   1.0000   1.0000   1.0000   1.0000   1.0000
     1.0000   1.0000   1.0000   1.0000   0.0000

          k = 0.0000 0.2887 0.0000 (  2880 PWs)   bands (ev):

   -77.7212 -77.6809 -41.0826 -40.9732 -40.9283 -40.8986 -40.8488 -40.8363
    11.4335  14.0261  14.8518  15.1005  15.7827  15.9507  16.1763  16.6481
    16.6710  16.8476  17.6552  22.6085  25.0699

     occupation numbers 
     1.0000   1.0000   1.0000   1.0000   1.0000   1.0000   1.0000   1.0000
     1.0000   1.0000   1.0000   1.0000   1.0000   1.0000   1.0000   1.0000
     1.0000   1.0000   1.0000   0.0000   0.0000

          k = 0.0000 0.2887 0.1035 (  2887 PWs)   bands (ev):

   -77.7185 -77.6836 -41.0760 -40.9632 -40.9415 -40.8945 -40.8525 -40.8405
    11.6483  14.0715  14.7079  15.1505  15.6322  15.9878  16.1820  16.6931
    16.7873  16.8017  17.6012  20.9602  27.2385

     occupation numbers 
     1.0000   1.0000   1.0000   1.0000   1.0000   1.0000   1.0000   1.0000
     1.0000   1.0000   1.0000   1.0000   1.0000   1.0000   1.0000   1.0000
     1.0000   1.0000   1.0000   0.0000   0.0000

          k = 0.0000 0.2887 0.2070 (  2885 PWs)   bands (ev):

   -77.7111 -77.6910 -41.0551 -40.9810 -40.9297 -40.8831 -40.8676 -40.8519
    12.2466  13.8449  14.6186  15.1907  15.4950  16.0241  16.1072  16.5415
    16.9561  17.1649  17.4437  19.1064  30.5747

     occupation numbers 
     1.0000   1.0000   1.0000   1.0000   1.0000   1.0000   1.0000   1.0000
     1.0000   1.0000   1.0000   1.0000   1.0000   1.0000   1.0000   1.0000
     1.0000   1.0000   1.0000   0.0000   0.0000

          k = 0.0000 0.2887-0.3106 (  2908 PWs)   bands (ev):

   -77.7011 -77.7011 -41.0211 -41.0211 -40.8958 -40.8958 -40.8675 -40.8675
    13.0752  13.0752  14.9129  14.9129  15.7267  15.7267  16.3061  16.3061
    17.2094  17.2094  17.8754  17.8754  32.5444

     occupation numbers 
     1.0000   1.0000   1.0000   1.0000   1.0000   1.0000   1.0000   1.0000
     1.0000   1.0000   1.0000   1.0000   1.0000   1.0000   1.0000   1.0000
     1.0000   1.0000   1.0000   1.0000   0.0000

          k = 0.0000 0.3849 0.0000 (  2880 PWs)   bands (ev):

   -77.7087 -77.6776 -41.0487 -41.0285 -40.9823 -40.9153 -40.8683 -40.8464
    12.5857  13.9663  14.3374  15.1981  15.7646  15.9020  16.0068  17.1310
    17.2749  17.3335  17.6976  24.5392  25.1110

     occupation numbers 
     1.0000   1.0000   1.0000   1.0000   1.0000   1.0000   1.0000   1.0000
     1.0000   1.0000   1.0000   1.0000   1.0000   1.0000   1.0000   1.0000
     1.0000   1.0000   1.0000   0.0000   0.0000

          k = 0.0000 0.3849 0.1035 (  2887 PWs)   bands (ev):

   -77.7066 -77.6797 -41.0684 -41.0051 -40.9860 -40.9107 -40.8684 -40.8510
    12.6900  14.0028  14.3649  15.0692  15.8146  15.8556  16.3409  17.1531
    17.1827  17.2710  17.6425  22.1886  27.1778

     occupation numbers 
     1.0000   1.0000   1.0000   1.0000   1.0000   1.0000   1.0000   1.0000
     1.0000   1.0000   1.0000   1.0000   1.0000   1.0000   1.0000   1.0000
     1.0000   1.0000   1.0000   0.0000   0.0000

          k = 0.0000 0.3849 0.2070 (  2890 PWs)   bands (ev):

   -77.7009 -77.6854 -41.0752 -41.0318 -40.9437 -40.8982 -40.8772 -40.8637
    12.9789  13.8282  14.4987  15.0043  15.8998  16.1124  16.6276  16.8766
    17.2564  17.3891  17.5212  19.9880  28.2317

     occupation numbers 
     1.0000   1.0000   1.0000   1.0000   1.0000   1.0000   1.0000   1.0000
     1.0000   1.0000   1.0000   1.0000   1.0000   1.0000   1.0000   1.0000
     1.0000   1.0000   1.0000   0.0000   0.0000

          k = 0.0000 0.3849-0.3106 (  2900 PWs)   bands (ev):

   -77.6931 -77.6931 -41.0610 -41.0610 -40.9030 -40.9030 -40.8809 -40.8809
    13.3939  13.3939  14.7937  14.7937  16.3048  16.3048  16.4834  16.4834
    17.3834  17.3834  18.3521  18.3521  29.3541

     occupation numbers 
     1.0000   1.0000   1.0000   1.0000   1.0000   1.0000   1.0000   1.0000
     1.0000   1.0000   1.0000   1.0000   1.0000   1.0000   1.0000   1.0000
     1.0000   1.0000   0.0409   0.0409   0.0000

          k = 0.0000 0.4811 0.0000 (  2900 PWs)   bands (ev):

   -77.6984 -77.6762 -41.0694 -41.0213 -41.0173 -40.9273 -40.8893 -40.8540
    13.3611  13.7839  14.0296  15.5423  15.6375  15.8874  16.0988  17.4914
    17.6293  17.7204  18.4142  23.2322  26.5332

     occupation numbers 
     1.0000   1.0000   1.0000   1.0000   1.0000   1.0000   1.0000   1.0000
     1.0000   1.0000   1.0000   1.0000   1.0000   1.0000   1.0000   1.0000
     1.0000   1.0000   0.0000   0.0000   0.0000

          k = 0.0000 0.4811 0.1035 (  2903 PWs)   bands (ev):

   -77.6969 -77.6777 -41.0876 -41.0383 -40.9859 -40.9224 -40.8853 -40.8589
    13.2612  13.7861  14.3310  14.9693  15.7492  16.0924  16.6823  17.4428
    17.5306  17.7073  18.2585  22.4871  25.7826

     occupation numbers 
     1.0000   1.0000   1.0000   1.0000   1.0000   1.0000   1.0000   1.0000
     1.0000   1.0000   1.0000   1.0000   1.0000   1.0000   1.0000   1.0000
     1.0000   1.0000   1.0000   0.0000   0.0000

          k = 0.0000 0.4811 0.2070 (  2894 PWs)   bands (ev):

   -77.6928 -77.6818 -41.1017 -41.0695 -40.9400 -40.9091 -40.8857 -40.8724
    13.2377  13.7155  14.4868  14.8180  16.0662  16.3219  17.0430  17.5583
    17.6195  17.6677  17.9551  20.8029  25.8914

     occupation numbers 
     1.0000   1.0000   1.0000   1.0000   1.0000   1.0000   1.0000   1.0000
     1.0000   1.0000   1.0000   1.0000   1.0000   1.0000   1.0000   1.0000
     1.0000   1.0000   1.0000   0.0000   0.0000

          k = 0.0000 0.4811-0.3106 (  2892 PWs)   bands (ev):

   -77.6873 -77.6873 -41.0947 -41.0947 -40.9037 -40.9037 -40.8907 -40.8907
    13.4242  13.4242  14.6776  14.6776  16.5316  16.5316  17.0157  17.0157
    17.6128  17.6128  19.1680  19.1680  26.6709

     occupation numbers 
     1.0000   1.0000   1.0000   1.0000   1.0000   1.0000   1.0000   1.0000
     1.0000   1.0000   1.0000   1.0000   1.0000   1.0000   1.0000   1.0000
     1.0000   1.0000   0.0000   0.0000   0.0000

          k = 0.0000-0.5774 0.0000 (  2906 PWs)   bands (ev):

   -77.6940 -77.6763 -41.0844 -41.0354 -41.0026 -40.9317 -40.9001 -40.8568
    13.6319  13.6408  13.9274  15.5926  15.7826  15.8443  16.1740  17.6215
    17.7275  17.7727  19.5493  21.5168  27.8253

     occupation numbers 
     1.0000   1.0000   1.0000   1.0000   1.0000   1.0000   1.0000   1.0000
     1.0000   1.0000   1.0000   1.0000   1.0000   1.0000   1.0000   1.0000
     1.0000   1.0000   0.0000   0.0000   0.0000

          k = 0.0000-0.5774 0.1035 (  2896 PWs)   bands (ev):

   -77.6929 -77.6775 -41.0990 -41.0516 -40.9777 -40.9267 -40.8940 -40.8618
    13.3694  13.6915  14.3671  14.9423  15.7102  16.1792  16.8761  17.5096
    17.6750  17.7649  19.3506  21.3504  26.9271

     occupation numbers 
     1.0000   1.0000   1.0000   1.0000   1.0000   1.0000   1.0000   1.0000
     1.0000   1.0000   1.0000   1.0000   1.0000   1.0000   1.0000   1.0000
     1.0000   1.0000   0.0000   0.0000   0.0000

          k = 0.0000-0.5774 0.2070 (  2888 PWs)   bands (ev):

   -77.6896 -77.6807 -41.1131 -41.0832 -40.9358 -40.9130 -40.8899 -40.8756
    13.2620  13.6715  14.5106  14.7332  16.0444  16.4640  17.0796  17.6859
    17.7330  17.7436  19.0475  20.7809  25.8252

     occupation numbers 
     1.0000   1.0000   1.0000   1.0000   1.0000   1.0000   1.0000   1.0000
     1.0000   1.0000   1.0000   1.0000   1.0000   1.0000   1.0000   1.0000
     1.0000   1.0000   0.0000   0.0000   0.0000

          k = 0.0000-0.5774-0.3106 (  2884 PWs)   bands (ev):

   -77.6852 -77.6852 -41.1075 -41.1075 -40.9034 -40.9034 -40.8943 -40.8943
    13.4092  13.4092  14.6316  14.6316  16.5367  16.5367  17.2549  17.2549
    17.7143  17.7143  19.8103  19.8103  25.4280

     occupation numbers 
     1.0000   1.0000   1.0000   1.0000   1.0000   1.0000   1.0000   1.0000
     1.0000   1.0000   1.0000   1.0000   1.0000   1.0000   1.0000   1.0000
     1.0000   1.0000   0.0000   0.0000   0.0000

          k = 0.0833 0.1443 0.0000 (  2862 PWs)   bands (ev):

   -77.7354 -77.6862 -41.1177 -40.9031 -40.8833 -40.8552 -40.8312 -40.8262
    10.1617  13.6432  15.3285  15.7994  15.9354  16.1077  16.1117  16.1326
    16.3960  16.4832  17.5676  20.3990  24.7465

     occupation numbers 
     1.0000   1.0000   1.0000   1.0000   1.0000   1.0000   1.0000   1.0000
     1.0000   1.0000   1.0000   1.0000   1.0000   1.0000   1.0000   1.0000
     1.0000   1.0000   1.0000   0.0000   0.0000

          k = 0.0833 0.1443 0.1035 (  2864 PWs)   bands (ev):

   -77.7321 -77.6895 -41.1006 -40.8983 -40.8845 -40.8686 -40.8354 -40.8297
    10.4241  13.6203  15.3524  15.4715  15.7979  15.9594  16.1121  16.2559
    16.5401  16.5897  17.5367  19.3627  26.4883

     occupation numbers 
     1.0000   1.0000   1.0000   1.0000   1.0000   1.0000   1.0000   1.0000
     1.0000   1.0000   1.0000   1.0000   1.0000   1.0000   1.0000   1.0000
     1.0000   1.0000   1.0000   0.0000   0.0000

          k = 0.0833 0.1443 0.2070 (  2884 PWs)   bands (ev):

   -77.7232 -77.6985 -41.0538 -40.9250 -40.8854 -40.8674 -40.8474 -40.8393
    11.1747  13.2716  15.0705  15.4073  15.4938  15.8846  15.9700  16.1065
    16.8686  16.9471  17.4182  18.1522  29.8274

     occupation numbers 
     1.0000   1.0000   1.0000   1.0000   1.0000   1.0000   1.0000   1.0000
     1.0000   1.0000   1.0000   1.0000   1.0000   1.0000   1.0000   1.0000
     1.0000   1.0000   1.0000   1.0000   0.0000

          k = 0.0833 0.1443-0.3106 (  2888 PWs)   bands (ev):

   -77.7109 -77.7109 -40.9894 -40.9894 -40.8686 -40.8686 -40.8513 -40.8513
    12.2665  12.2665  15.1219  15.1219  15.6710  15.6710  15.9606  15.9606
    17.1746  17.1746  17.4548  17.4548  33.6927

     occupation numbers 
     1.0000   1.0000   1.0000   1.0000   1.0000   1.0000   1.0000   1.0000
     1.0000   1.0000   1.0000   1.0000   1.0000   1.0000   1.0000   1.0000
     1.0000   1.0000   1.0000   1.0000   0.0000

          k = 0.0833 0.2406 0.0000 (  2884 PWs)   bands (ev):

   -77.7255 -77.6824 -41.0936 -40.9469 -40.9192 -40.8830 -40.8430 -40.8374
    11.0381  14.0022  15.0595  15.1122  15.8203  15.9150  16.3329  16.3597
    16.5203  16.8003  17.6145  21.9695  24.9763

     occupation numbers 
     1.0000   1.0000   1.0000   1.0000   1.0000   1.0000   1.0000   1.0000
     1.0000   1.0000   1.0000   1.0000   1.0000   1.0000   1.0000   1.0000
     1.0000   1.0000   1.0000   0.0000   0.0000

          k = 0.0833 0.2406 0.1035 (  2875 PWs)   bands (ev):

   -77.7226 -77.6853 -41.0826 -40.9398 -40.9265 -40.8872 -40.8465 -40.8407
    11.2737  14.0383  14.9028  15.1074  15.6982  15.9526  16.1448  16.4656
    16.7145  16.7856  17.5775  20.5233  27.0023

     occupation numbers 
     1.0000   1.0000   1.0000   1.0000   1.0000   1.0000   1.0000   1.0000
     1.0000   1.0000   1.0000   1.0000   1.0000   1.0000   1.0000   1.0000
     1.0000   1.0000   1.0000   0.0000   0.0000

          k = 0.0833 0.2406 0.2070 (  2887 PWs)   bands (ev):

   -77.7148 -77.6932 -41.0518 -40.9619 -40.9161 -40.8845 -40.8588 -40.8508
    11.9399  13.7832  14.7001  15.2090  15.4430  15.8567  16.0870  16.4155
    16.9566  17.0766  17.4578  18.8390  30.4208

     occupation numbers 
     1.0000   1.0000   1.0000   1.0000   1.0000   1.0000   1.0000   1.0000
     1.0000   1.0000   1.0000   1.0000   1.0000   1.0000   1.0000   1.0000
     1.0000   1.0000   1.0000   0.0000   0.0000

          k = 0.0833 0.2406-0.3106 (  2904 PWs)   bands (ev):

   -77.7040 -77.7040 -41.0080 -41.0080 -40.8908 -40.8908 -40.8634 -40.8634
    12.8891  12.8891  14.9648  14.9648  15.5718  15.5718  16.2318  16.2318
    17.2174  17.2174  17.7520  17.7520  33.9691

     occupation numbers 
     1.0000   1.0000   1.0000   1.0000   1.0000   1.0000   1.0000   1.0000
     1.0000   1.0000   1.0000   1.0000   1.0000   1.0000   1.0000   1.0000
     1.0000   1.0000   1.0000   1.0000   0.0000

          k = 0.0833 0.3368 0.0000 (  2888 PWs)   bands (ev):

   -77.7134 -77.6787 -41.0620 -41.0007 -40.9646 -40.9081 -40.8603 -40.8495
    12.1724  14.1254  14.5485  14.9818  15.7318  15.8328  16.1447  16.7492
    17.0097  17.3492  17.6543  23.7824  25.3178

     occupation numbers 
     1.0000   1.0000   1.0000   1.0000   1.0000   1.0000   1.0000   1.0000
     1.0000   1.0000   1.0000   1.0000   1.0000   1.0000   1.0000   1.0000
     1.0000   1.0000   1.0000   0.0000   0.0000

          k = 0.0833 0.3368 0.1035 (  2889 PWs)   bands (ev):

   -77.7111 -77.6810 -41.0659 -40.9880 -40.9695 -40.9077 -40.8622 -40.8520
    12.3394  14.1940  14.4532  15.0312  15.6141  15.9552  16.1266  16.7683
    17.1003  17.2201  17.6572  21.7751  27.7101

     occupation numbers 
     1.0000   1.0000   1.0000   1.0000   1.0000   1.0000   1.0000   1.0000
     1.0000   1.0000   1.0000   1.0000   1.0000   1.0000   1.0000   1.0000
     1.0000   1.0000   1.0000   0.0000   0.0000

          k = 0.0833 0.3368 0.2070 (  2890 PWs)   bands (ev):

   -77.7047 -77.6874 -41.0621 -41.0101 -40.9391 -40.9007 -40.8729 -40.8608
    12.7909  13.9652  14.5492  15.1146  15.5224  15.9868  16.1652  16.7394
    17.1805  17.3395  17.6196  19.6888  29.8631

     occupation numbers 
     1.0000   1.0000   1.0000   1.0000   1.0000   1.0000   1.0000   1.0000
     1.0000   1.0000   1.0000   1.0000   1.0000   1.0000   1.0000   1.0000
     1.0000   1.0000   1.0000   0.0000   0.0000

          k = 0.0833 0.3368-0.3106 (  2904 PWs)   bands (ev):

   -77.6960 -77.6960 -41.0416 -41.0416 -40.9055 -40.9055 -40.8757 -40.8757
    13.3918  13.3918  14.8904  14.8904  15.7343  15.7343  16.4257  16.4257
    17.4064  17.4064  18.2057  18.2057  31.0511

     occupation numbers 
     1.0000   1.0000   1.0000   1.0000   1.0000   1.0000   1.0000   1.0000
     1.0000   1.0000   1.0000   1.0000   1.0000   1.0000   1.0000   1.0000
     1.0000   1.0000   1.0000   1.0000   0.0000

          k = 0.0833 0.4330 0.0000 (  2900 PWs)   bands (ev):

   -77.7018 -77.6765 -41.0485 -41.0284 -41.0048 -40.9276 -40.8815 -40.8598
    13.1849  13.9593  14.1666  15.1971  15.6125  15.9593  16.0193  17.2370
    17.4280  17.6793  18.1264  24.5715  25.7530

     occupation numbers 
     1.0000   1.0000   1.0000   1.0000   1.0000   1.0000   1.0000   1.0000
     1.0000   1.0000   1.0000   1.0000   1.0000   1.0000   1.0000   1.0000
     1.0000   1.0000   1.0000   0.0000   0.0000

          k = 0.0833 0.4330 0.1035 (  2894 PWs)   bands (ev):

   -77.7001 -77.6782 -41.0727 -41.0236 -40.9876 -40.9241 -40.8801 -40.8624
    13.1862  13.9883  14.3076  14.9764  15.6907  16.0223  16.2970  17.1856
    17.4891  17.4973  18.1290  22.8314  26.2802

     occupation numbers 
     1.0000   1.0000   1.0000   1.0000   1.0000   1.0000   1.0000   1.0000
     1.0000   1.0000   1.0000   1.0000   1.0000   1.0000   1.0000   1.0000
     1.0000   1.0000   1.0000   0.0000   0.0000

          k = 0.0833 0.4330 0.2070 (  2887 PWs)   bands (ev):

   -77.6955 -77.6828 -41.0860 -41.0522 -40.9450 -40.9116 -40.8872 -40.8686
    13.2798  13.8621  14.4890  14.9647  15.7974  16.2142  16.6637  16.9317
    17.3605  17.6527  18.1966  20.6958  26.9778

     occupation numbers 
     1.0000   1.0000   1.0000   1.0000   1.0000   1.0000   1.0000   1.0000
     1.0000   1.0000   1.0000   1.0000   1.0000   1.0000   1.0000   1.0000
     1.0000   1.0000   1.0000   0.0000   0.0000

          k = 0.0833 0.4330-0.3106 (  2886 PWs)   bands (ev):

   -77.6891 -77.6891 -41.0776 -41.0776 -40.9140 -40.9140 -40.8836 -40.8836
    13.5293  13.5293  14.7816  14.7816  16.2293  16.2293  16.6065  16.6065
    17.6049  17.6049  19.0330  19.0330  28.0233

     occupation numbers 
     1.0000   1.0000   1.0000   1.0000   1.0000   1.0000   1.0000   1.0000
     1.0000   1.0000   1.0000   1.0000   1.0000   1.0000   1.0000   1.0000
     1.0000   1.0000   0.0000   0.0000   0.0000

          k = 0.0833 0.5292 0.0000 (  2910 PWs)   bands (ev):

   -77.6941 -77.6763 -41.0763 -41.0280 -41.0028 -40.9383 -40.9000 -40.8658
    13.6509  13.7984  13.9756  15.5481  15.5641  15.8368  16.1708  17.5856
    17.6553  17.6904  19.3769  22.2727  27.6340

     occupation numbers 
     1.0000   1.0000   1.0000   1.0000   1.0000   1.0000   1.0000   1.0000
     1.0000   1.0000   1.0000   1.0000   1.0000   1.0000   1.0000   1.0000
     1.0000   1.0000   0.0000   0.0000   0.0000

          k = 0.0833 0.5292 0.1035 (  2897 PWs)   bands (ev):

   -77.6929 -77.6775 -41.0911 -41.0447 -40.9795 -40.9316 -40.8955 -40.8687
    13.4461  13.8189  14.3938  14.9229  15.6173  16.2153  16.5463  17.4606
    17.6195  17.6882  19.3146  22.0281  26.3330

     occupation numbers 
     1.0000   1.0000   1.0000   1.0000   1.0000   1.0000   1.0000   1.0000
     1.0000   1.0000   1.0000   1.0000   1.0000   1.0000   1.0000   1.0000
     1.0000   1.0000   0.0000   0.0000   0.0000

          k = 0.0833 0.5292 0.2070 (  2901 PWs)   bands (ev):

   -77.6896 -77.6807 -41.1052 -41.0761 -40.9451 -40.9120 -40.8989 -40.8736
    13.3623  13.7948  14.5173  14.8353  15.7892  16.5174  16.9310  17.1664
    17.5768  17.7670  19.3660  21.2046  25.5728

     occupation numbers 
     1.0000   1.0000   1.0000   1.0000   1.0000   1.0000   1.0000   1.0000
     1.0000   1.0000   1.0000   1.0000   1.0000   1.0000   1.0000   1.0000
     1.0000   1.0000   0.0000   0.0000   0.0000

          k = 0.0833 0.5292-0.3106 (  2886 PWs)   bands (ev):

   -77.6852 -77.6852 -41.1000 -41.1000 -40.9190 -40.9190 -40.8864 -40.8864
    13.5195  13.5195  14.7007  14.7007  16.3312  16.3312  17.0288  17.0288
    17.6450  17.6450  20.1003  20.1003  25.8417

     occupation numbers 
     1.0000   1.0000   1.0000   1.0000   1.0000   1.0000   1.0000   1.0000
     1.0000   1.0000   1.0000   1.0000   1.0000   1.0000   1.0000   1.0000
     1.0000   1.0000   0.0000   0.0000   0.0000

          k = 0.1667 0.2887 0.0000 (  2886 PWs)   bands (ev):

   -77.7151 -77.6791 -41.0666 -40.9786 -40.9696 -40.8996 -40.8576 -40.8570
    12.0264  14.2921  14.6595  14.7719  15.6651  15.8300  16.2337  16.5234
    16.9979  17.3688  17.6175  23.5263  25.3605

     occupation numbers 
     1.0000   1.0000   1.0000   1.0000   1.0000   1.0000   1.0000   1.0000
     1.0000   1.0000   1.0000   1.0000   1.0000   1.0000   1.0000   1.0000
     1.0000   1.0000   1.0000   0.0000   0.0000

          k = 0.1667 0.2887 0.1035 (  2896 PWs)   bands (ev):

   -77.7127 -77.6815 -41.0659 -40.9764 -40.9637 -40.9068 -40.8609 -40.8555
    12.2144  14.3877  14.5201  14.8238  15.6403  15.8404  16.1104  16.5973
    17.1159  17.2115  17.6690  21.6375  27.7189

     occupation numbers 
     1.0000   1.0000   1.0000   1.0000   1.0000   1.0000   1.0000   1.0000
     1.0000   1.0000   1.0000   1.0000   1.0000   1.0000   1.0000   1.0000
     1.0000   1.0000   1.0000   0.0000   0.0000

          k = 0.1667 0.2887 0.2070 (  2887 PWs)   bands (ev):

   -77.7061 -77.6881 -41.0562 -41.0006 -40.9317 -40.9092 -40.8706 -40.8610
    12.7296  14.0837  14.6474  14.9744  15.4734  15.7062  16.1031  16.6793
    17.1964  17.3154  17.6943  19.6114  31.0629

     occupation numbers 
     1.0000   1.0000   1.0000   1.0000   1.0000   1.0000   1.0000   1.0000
     1.0000   1.0000   1.0000   1.0000   1.0000   1.0000   1.0000   1.0000
     1.0000   1.0000   1.0000   0.0000   0.0000

          k = 0.1667 0.2887-0.3106 (  2902 PWs)   bands (ev):

   -77.6971 -77.6971 -41.0325 -41.0325 -40.9080 -40.9080 -40.8742 -40.8742
    13.4240  13.4240  14.9676  14.9676  15.4238  15.4238  16.3770  16.3770
    17.4557  17.4557  18.1846  18.1846  32.7667

     occupation numbers 
     1.0000   1.0000   1.0000   1.0000   1.0000   1.0000   1.0000   1.0000
     1.0000   1.0000   1.0000   1.0000   1.0000   1.0000   1.0000   1.0000
     1.0000   1.0000   1.0000   1.0000   0.0000

          k = 0.1667 0.3849 0.0000 (  2898 PWs)   bands (ev):

   -77.7037 -77.6767 -41.0343 -41.0211 -41.0003 -40.9255 -40.8775 -40.8758
    13.1154  14.2846  14.3035  14.7370  15.5139  15.9709  16.0483  16.8224
    17.4295  17.6164  18.1479  25.3608  25.7110

     occupation numbers 
     1.0000   1.0000   1.0000   1.0000   1.0000   1.0000   1.0000   1.0000
     1.0000   1.0000   1.0000   1.0000   1.0000   1.0000   1.0000   1.0000
     1.0000   1.0000   1.0000   0.0000   0.0000

          k = 0.1667 0.3849 0.1035 (  2899 PWs)   bands (ev):

   -77.7019 -77.6785 -41.0574 -41.0171 -40.9777 -40.9316 -40.8820 -40.8687
    13.1988  14.2336  14.3869  14.8192  15.5700  15.9462  16.0042  16.8513
    17.4002  17.5176  18.2381  22.9138  27.7172

     occupation numbers 
     1.0000   1.0000   1.0000   1.0000   1.0000   1.0000   1.0000   1.0000
     1.0000   1.0000   1.0000   1.0000   1.0000   1.0000   1.0000   1.0000
     1.0000   1.0000   1.0000   0.0000   0.0000

          k = 0.1667 0.3849 0.2070 (  2889 PWs)   bands (ev):

   -77.6970 -77.6835 -41.0691 -41.0378 -40.9435 -40.9280 -40.8895 -40.8667
    13.4232  14.0345  14.6311  15.0525  15.4942  15.7798  16.1324  16.8090
    17.3020  17.6681  18.4214  20.7112  28.6637

     occupation numbers 
     1.0000   1.0000   1.0000   1.0000   1.0000   1.0000   1.0000   1.0000
     1.0000   1.0000   1.0000   1.0000   1.0000   1.0000   1.0000   1.0000
     1.0000   1.0000   0.0000   0.0000   0.0000

          k = 0.1667 0.3849-0.3106 (  2886 PWs)   bands (ev):

   -77.6902 -77.6902 -41.0605 -41.0605 -40.9269 -40.9269 -40.8798 -40.8798
    13.7294  13.7294  14.9703  14.9703  15.5668  15.5668  16.3995  16.3995
    17.6598  17.6598  19.1188  19.1188  29.8194

     occupation numbers 
     1.0000   1.0000   1.0000   1.0000   1.0000   1.0000   1.0000   1.0000
     1.0000   1.0000   1.0000   1.0000   1.0000   1.0000   1.0000   1.0000
     1.0000   1.0000   0.0000   0.0000   0.0000

          k = 0.1667 0.4811 0.0000 (  2902 PWs)   bands (ev):

   -77.6941 -77.6762 -41.0552 -41.0148 -41.0031 -40.9503 -40.8996 -40.8885
    13.8167  14.0835  14.0911  15.0310  15.4717  15.8477  16.1675  17.2172
    17.6145  17.6453  19.2964  23.9118  27.3494

     occupation numbers 
     1.0000   1.0000   1.0000   1.0000   1.0000   1.0000   1.0000   1.0000
     1.0000   1.0000   1.0000   1.0000   1.0000   1.0000   1.0000   1.0000
     1.0000   1.0000   0.0000   0.0000   0.0000

          k = 0.1667 0.4811 0.1035 (  2899 PWs)   bands (ev):

   -77.6929 -77.6774 -41.0702 -41.0339 -40.9799 -40.9447 -40.9016 -40.8812
    13.6749  14.1562  14.3308  14.8626  15.5227  15.9754  16.2299  17.2006
    17.4195  17.7075  19.3810  23.3923  26.1144

     occupation numbers 
     1.0000   1.0000   1.0000   1.0000   1.0000   1.0000   1.0000   1.0000
     1.0000   1.0000   1.0000   1.0000   1.0000   1.0000   1.0000   1.0000
     1.0000   1.0000   0.0000   0.0000   0.0000

          k = 0.1667 0.4811 0.2070 (  2903 PWs)   bands (ev):

   -77.6896 -77.6807 -41.0855 -41.0612 -40.9614 -40.9283 -40.9021 -40.8728
    13.6416  14.0783  14.5300  15.0701  15.4177  16.0930  16.4362  16.8971
    17.3846  17.7846  19.6953  21.9010  26.1664

     occupation numbers 
     1.0000   1.0000   1.0000   1.0000   1.0000   1.0000   1.0000   1.0000
     1.0000   1.0000   1.0000   1.0000   1.0000   1.0000   1.0000   1.0000
     1.0000   1.0000   0.0000   0.0000   0.0000

          k = 0.1667 0.4811-0.3106 (  2892 PWs)   bands (ev):

   -77.6852 -77.6852 -41.0823 -41.0823 -40.9423 -40.9423 -40.8810 -40.8810
    13.7990  13.7990  14.8747  14.8747  15.8205  15.8205  16.5847  16.5847
    17.6654  17.6654  20.5028  20.5028  27.0454

     occupation numbers 
     1.0000   1.0000   1.0000   1.0000   1.0000   1.0000   1.0000   1.0000
     1.0000   1.0000   1.0000   1.0000   1.0000   1.0000   1.0000   1.0000
     1.0000   1.0000   0.0000   0.0000   0.0000

          k = 0.1667 0.5774 0.0000 (  2916 PWs)   bands (ev):

   -77.6898 -77.6768 -41.0676 -41.0190 -40.9873 -40.9607 -40.9121 -40.8931
    13.9930  13.9971  14.0096  15.2444  15.4873  15.7438  16.2515  17.4846
    17.6135  17.6255  20.5437  22.0779  28.4277

     occupation numbers 
     1.0000   1.0000   1.0000   1.0000   1.0000   1.0000   1.0000   1.0000
     1.0000   1.0000   1.0000   1.0000   1.0000   1.0000   1.0000   1.0000
     1.0000   1.0000   0.0000   0.0000   0.0000

          k = 0.1667 0.5774 0.1035 (  2904 PWs)   bands (ev):

   -77.6890 -77.6777 -41.0793 -41.0368 -40.9835 -40.9399 -40.9137 -40.8865
    13.7056  14.0725  14.4938  14.8439  15.4469  16.0923  16.3180  17.3906
    17.4809  17.6799  20.6463  22.0345  27.4199

     occupation numbers 
     1.0000   1.0000   1.0000   1.0000   1.0000   1.0000   1.0000   1.0000
     1.0000   1.0000   1.0000   1.0000   1.0000   1.0000   1.0000   1.0000
     1.0000   1.0000   0.0000   0.0000   0.0000

          k = 0.1667 0.5774 0.2070 (  2902 PWs)   bands (ev):

   -77.6866 -77.6801 -41.0933 -41.0684 -40.9691 -40.9275 -40.9052 -40.8760
    13.6419  14.0912  14.5661  15.0294  15.3353  16.2910  16.5535  16.9661
    17.4963  17.7192  20.9589  21.8541  26.1288

     occupation numbers 
     1.0000   1.0000   1.0000   1.0000   1.0000   1.0000   1.0000   1.0000
     1.0000   1.0000   1.0000   1.0000   1.0000   1.0000   1.0000   1.0000
     1.0000   1.0000   0.0000   0.0000   0.0000

          k = 0.1667 0.5774-0.3106 (  2898 PWs)   bands (ev):

   -77.6833 -77.6833 -41.0904 -41.0904 -40.9482 -40.9482 -40.8810 -40.8810
    13.8028  13.8028  14.8357  14.8357  15.8600  15.8600  16.7832  16.7832
    17.6057  17.6057  21.4466  21.4466  25.6348

     occupation numbers 
     1.0000   1.0000   1.0000   1.0000   1.0000   1.0000   1.0000   1.0000
     1.0000   1.0000   1.0000   1.0000   1.0000   1.0000   1.0000   1.0000
     1.0000   1.0000   0.0000   0.0000   0.0000

          k = 0.2500 0.4330 0.0000 (  2902 PWs)   bands (ev):

   -77.6941 -77.6762 -41.0368 -41.0165 -41.0033 -40.9503 -40.9054 -40.8994
    13.9386  14.1453  14.4706  14.5261  15.4101  15.8617  16.1744  16.9977
    17.5755  17.6516  19.3024  25.6661  26.3937

     occupation numbers 
     1.0000   1.0000   1.0000   1.0000   1.0000   1.0000   1.0000   1.0000
     1.0000   1.0000   1.0000   1.0000   1.0000   1.0000   1.0000   1.0000
     1.0000   1.0000   0.0000   0.0000   0.0000

          k = 0.2500 0.4330 0.1035 (  2901 PWs)   bands (ev):

   -77.6929 -77.6774 -41.0491 -41.0406 -40.9654 -40.9632 -40.9082 -40.8853
    13.9485  14.0970  14.5391  14.6508  15.5584  15.7201  16.1639  17.0287
    17.3694  17.7155  19.4287  24.1865  26.6774

     occupation numbers 
     1.0000   1.0000   1.0000   1.0000   1.0000   1.0000   1.0000   1.0000
     1.0000   1.0000   1.0000   1.0000   1.0000   1.0000   1.0000   1.0000
     1.0000   1.0000   0.0000   0.0000   0.0000

          k = 0.2500 0.4330 0.2070 (  2897 PWs)   bands (ev):

   -77.6897 -77.6807 -41.0707 -41.0559 -40.9674 -40.9435 -40.9012 -40.8728
    13.9616  14.0438  14.7031  15.0325  15.4010  15.6696  16.1900  16.8142
    17.3552  17.7914  19.8064  22.1753  27.4615

     occupation numbers 
     1.0000   1.0000   1.0000   1.0000   1.0000   1.0000   1.0000   1.0000
     1.0000   1.0000   1.0000   1.0000   1.0000   1.0000   1.0000   1.0000
     1.0000   1.0000   0.0000   0.0000   0.0000

          k = 0.2500 0.4330-0.3106 (  2886 PWs)   bands (ev):

   -77.6852 -77.6852 -41.0714 -41.0714 -40.9550 -40.9550 -40.8794 -40.8794
    13.9956  13.9956  15.0193  15.0193  15.4559  15.4559  16.3922  16.3922
    17.6845  17.6845  20.6544  20.6544  28.4887

     occupation numbers 
     1.0000   1.0000   1.0000   1.0000   1.0000   1.0000   1.0000   1.0000
     1.0000   1.0000   1.0000   1.0000   1.0000   1.0000   1.0000   1.0000
     1.0000   1.0000   0.0000   0.0000   0.0000

          k = 0.2500 0.5292 0.0000 (  2906 PWs)   bands (ev):

   -77.6869 -77.6777 -41.0491 -41.0078 -40.9777 -40.9755 -40.9243 -40.9220
    14.0705  14.2363  14.3410  14.8228  15.4285  15.6689  16.3383  17.2643
    17.5513  17.6000  20.9308  23.4527  25.7502

     occupation numbers 
     1.0000   1.0000   1.0000   1.0000   1.0000   1.0000   1.0000   1.0000
     1.0000   1.0000   1.0000   1.0000   1.0000   1.0000   1.0000   1.0000
     1.0000   1.0000   0.0000   0.0000   0.0000

          k = 0.2500 0.5292 0.1035 (  2910 PWs)   bands (ev):

   -77.6863 -77.6783 -41.0553 -41.0304 -40.9957 -40.9461 -40.9283 -40.9005
    14.0111  14.3678  14.4640  14.7265  15.4570  15.6680  16.3409  17.2713
    17.3450  17.6434  21.1195  23.4808  25.8035

     occupation numbers 
     1.0000   1.0000   1.0000   1.0000   1.0000   1.0000   1.0000   1.0000
     1.0000   1.0000   1.0000   1.0000   1.0000   1.0000   1.0000   1.0000
     1.0000   1.0000   0.0000   0.0000   0.0000

          k = 0.2500 0.5292 0.2070 (  2906 PWs)   bands (ev):

   -77.6846 -77.6800 -41.0712 -41.0572 -40.9944 -40.9546 -40.8989 -40.8797
    14.0290  14.3735  14.6283  14.9119  15.3286  15.6832  16.3805  16.8441
    17.4205  17.6827  21.6179  23.2142  25.7431

     occupation numbers 
     1.0000   1.0000   1.0000   1.0000   1.0000   1.0000   1.0000   1.0000
     1.0000   1.0000   1.0000   1.0000   1.0000   1.0000   1.0000   1.0000
     1.0000   1.0000   0.0000   0.0000   0.0000

          k = 0.2500 0.5292-0.3106 (  2894 PWs)   bands (ev):

   -77.6823 -77.6823 -41.0739 -41.0739 -40.9757 -40.9757 -40.8783 -40.8783
    14.1646  14.1646  14.9168  14.9168  15.4625  15.4625  16.5060  16.5060
    17.5965  17.5965  22.3862  22.3862  26.2822

     occupation numbers 
     1.0000   1.0000   1.0000   1.0000   1.0000   1.0000   1.0000   1.0000
     1.0000   1.0000   1.0000   1.0000   1.0000   1.0000   1.0000   1.0000
     1.0000   1.0000   0.0000   0.0000   0.0000

          k = 0.3333 0.5774 0.0000 (  2916 PWs)   bands (ev):

   -77.6812 -77.6812 -41.0413 -40.9949 -40.9949 -40.9478 -40.9478 -40.9463
    14.0762  14.4282  14.4282  14.7159  15.5035  15.5035  16.4345  17.4059
    17.4059  17.5261  22.6540  23.4438  23.4438

     occupation numbers 
     1.0000   1.0000   1.0000   1.0000   1.0000   1.0000   1.0000   1.0000
     1.0000   1.0000   1.0000   1.0000   1.0000   1.0000   1.0000   1.0000
     1.0000   1.0000   0.0000   0.0000   0.0000

          k = 0.3333 0.5774 0.1035 (  2910 PWs)   bands (ev):

   -77.6812 -77.6812 -41.0349 -41.0224 -41.0224 -40.9527 -40.9201 -40.9201
    14.1696  14.4535  14.4535  14.7361  15.4774  15.4774  16.4061  17.2926
    17.4439  17.4439  23.0532  23.5223  23.5223

     occupation numbers 
     1.0000   1.0000   1.0000   1.0000   1.0000   1.0000   1.0000   1.0000
     1.0000   1.0000   1.0000   1.0000   1.0000   1.0000   1.0000   1.0000
     1.0000   1.0000   0.0000   0.0000   0.0000

          k = 0.3333 0.5774 0.2070 (  2901 PWs)   bands (ev):

   -77.6812 -77.6812 -41.0533 -41.0533 -41.0176 -40.9701 -40.8891 -40.8891
    14.4083  14.5026  14.5026  14.7536  15.4316  15.4316  16.3672  16.8164
    17.5156  17.5156  23.7183  23.7184  24.0734

     occupation numbers 
     1.0000   1.0000   1.0000   1.0000   1.0000   1.0000   1.0000   1.0000
     1.0000   1.0000   1.0000   1.0000   1.0000   1.0000   1.0000   1.0000
     1.0000   1.0000   0.0000   0.0000   0.0000

          k = 0.3333 0.5774-0.3106 (  2910 PWs)   bands (ev):

   -77.6812 -77.6812 -41.0649 -41.0649 -40.9939 -40.9939 -40.8773 -40.8773
    14.5262  14.5262  14.6548  14.6548  15.4119  15.4119  16.4603  16.4603
    17.5495  17.5495  23.8460  23.8460  25.4761

     occupation numbers 
     1.0000   1.0000   1.0000   1.0000   1.0000   1.0000   1.0000   1.0000
     1.0000   1.0000   1.0000   1.0000   1.0000   1.0000   1.0000   1.0000
     1.0000   1.0000   0.0000   0.0000   0.0000

 ------ SPIN DOWN ----------


          k = 0.0000 0.0000 0.0000 (  2863 PWs)   bands (ev):

   -75.6209 -75.5625 -39.0885 -38.7948 -38.7948 -38.7445 -38.7445 -38.7444
     9.4523  14.2252  17.4629  17.4682  17.4682  17.8368  17.8368  18.1283
    18.2260  18.2260  19.4531  19.4531  25.6685

     occupation numbers 
     1.0000   1.0000   1.0000   1.0000   1.0000   1.0000   1.0000   1.0000
     1.0000   1.0000   1.0000   1.0000   1.0000   1.0000   1.0000   1.0000
     1.0000   1.0000   0.0000   0.0000   0.0000

          k = 0.0000 0.0000 0.1035 (  2863 PWs)   bands (ev):

   -75.6170 -75.5665 -39.0658 -38.7914 -38.7914 -38.7678 -38.7479 -38.7479
     9.7299  13.9902  17.3700  17.3969  17.3969  17.5386  17.7506  17.7506
    18.4090  18.4090  19.4393  19.4393  26.9920

     occupation numbers 
     1.0000   1.0000   1.0000   1.0000   1.0000   1.0000   1.0000   1.0000
     1.0000   1.0000   1.0000   1.0000   1.0000   1.0000   1.0000   1.0000
     0.0000   0.0000   0.0000   0.0000   0.0000

          k = 0.0000 0.0000 0.2070 (  2888 PWs)   bands (ev):

   -75.6063 -75.5772 -39.0035 -38.8314 -38.7822 -38.7822 -38.7571 -38.7571
    10.5332  13.0960  16.9069  17.1338  17.3366  17.3366  17.5623  17.5623
    18.7722  18.7722  19.3479  19.3479  29.9771

     occupation numbers 
     1.0000   1.0000   1.0000   1.0000   1.0000   1.0000   1.0000   1.0000
     1.0000   1.0000   1.0000   1.0000   1.0000   1.0000   1.0000   1.0000
     0.0000   0.0000   0.0000   0.0000   0.0000

          k = 0.0000 0.0000-0.3106 (  2858 PWs)   bands (ev):

   -75.5918 -75.5918 -38.9178 -38.9178 -38.7697 -38.7697 -38.7697 -38.7697
    11.7521  11.7521  16.8889  16.8889  17.3965  17.3965  17.3965  17.3965
    19.1188  19.1188  19.1188  19.1188  33.6367

     occupation numbers 
     1.0000   1.0000   1.0000   1.0000   1.0000   1.0000   1.0000   1.0000
     1.0000   1.0000   1.0000   1.0000   1.0000   1.0000   1.0000   1.0000
     0.0000   0.0000   0.0000   0.0000   0.0000

          k = 0.0000 0.0962 0.0000 (  2861 PWs)   bands (ev):

   -75.6177 -75.5611 -39.0811 -38.8107 -38.8000 -38.7611 -38.7475 -38.7471
     9.6917  14.3875  17.1911  17.5060  17.5909  17.6812  17.7760  17.9450
    18.1439  18.1623  19.4891  20.2893  25.6855

     occupation numbers 
     1.0000   1.0000   1.0000   1.0000   1.0000   1.0000   1.0000   1.0000
     1.0000   1.0000   1.0000   1.0000   1.0000   1.0000   1.0000   1.0000
     1.0000   1.0000   0.0000   0.0000   0.0000

          k = 0.0000 0.0962 0.1035 (  2874 PWs)   bands (ev):

   -75.6139 -75.5649 -39.0597 -38.8068 -38.7965 -38.7803 -38.7542 -38.7507
     9.9657  14.1659  17.0768  17.1876  17.4793  17.5019  17.7919  17.8507
    18.3577  18.3776  19.4663  19.9425  27.0746

     occupation numbers 
     1.0000   1.0000   1.0000   1.0000   1.0000   1.0000   1.0000   1.0000
     1.0000   1.0000   1.0000   1.0000   1.0000   1.0000   1.0000   1.0000
     0.0103   0.0000   0.0000   0.0000   0.0000

          k = 0.0000 0.0962 0.2070 (  2873 PWs)   bands (ev):

   -75.6036 -75.5753 -39.0010 -38.8393 -38.7958 -38.7868 -38.7661 -38.7604
    10.7583  13.2885  16.6812  17.1176  17.2346  17.4333  17.5957  17.6612
    18.7422  18.7789  19.3549  19.5380  30.1128

     occupation numbers 
     1.0000   1.0000   1.0000   1.0000   1.0000   1.0000   1.0000   1.0000
     1.0000   1.0000   1.0000   1.0000   1.0000   1.0000   1.0000   1.0000
     0.0000   0.0000   0.0000   0.0000   0.0000

          k = 0.0000 0.0962-0.3106 (  2876 PWs)   bands (ev):

   -75.5895 -75.5895 -38.9204 -38.9204 -38.7811 -38.7811 -38.7736 -38.7736
    11.9611  11.9611  16.7878  16.7878  17.3692  17.3692  17.4940  17.4940
    19.1055  19.1055  19.1820  19.1820  33.7950

     occupation numbers 
     1.0000   1.0000   1.0000   1.0000   1.0000   1.0000   1.0000   1.0000
     1.0000   1.0000   1.0000   1.0000   1.0000   1.0000   1.0000   1.0000
     0.0000   0.0000   0.0000   0.0000   0.0000

          k = 0.0000 0.1925 0.0000 (  2872 PWs)   bands (ev):

   -75.6089 -75.5575 -39.0600 -38.8543 -38.8140 -38.8058 -38.7570 -38.7544
    10.3891  14.8051  16.6794  16.8362  17.5556  17.9396  17.9427  18.0049
    18.0083  18.2494  19.5653  21.7348  25.7540

     occupation numbers 
     1.0000   1.0000   1.0000   1.0000   1.0000   1.0000   1.0000   1.0000
     1.0000   1.0000   1.0000   1.0000   1.0000   1.0000   1.0000   1.0000
     1.0000   1.0000   0.0000   0.0000   0.0000

          k = 0.0000 0.1925 0.1035 (  2878 PWs)   bands (ev):

   -75.6054 -75.5609 -39.0429 -38.8485 -38.8217 -38.8101 -38.7644 -38.7584
    10.6505  14.6280  16.4225  16.8736  17.4445  17.7320  17.7331  18.1063
    18.3307  18.3952  19.5225  20.9456  27.3523

     occupation numbers 
     1.0000   1.0000   1.0000   1.0000   1.0000   1.0000   1.0000   1.0000
     1.0000   1.0000   1.0000   1.0000   1.0000   1.0000   1.0000   1.0000
     0.6869   0.0000   0.0000   0.0000   0.0000

          k = 0.0000 0.1925 0.2070 (  2882 PWs)   bands (ev):

   -75.5960 -75.5703 -38.9963 -38.8692 -38.8300 -38.7992 -38.7829 -38.7694
    11.4051  13.8069  16.2951  16.9534  17.0896  17.5456  17.6713  17.9360
    18.7076  18.8409  19.3688  20.0022  30.5215

     occupation numbers 
     1.0000   1.0000   1.0000   1.0000   1.0000   1.0000   1.0000   1.0000
     1.0000   1.0000   1.0000   1.0000   1.0000   1.0000   1.0000   1.0000
     0.0000   0.0000   0.0000   0.0000   0.0000

          k = 0.0000 0.1925-0.3106 (  2896 PWs)   bands (ev):

   -75.5832 -75.5832 -38.9326 -38.9326 -38.8069 -38.8069 -38.7843 -38.7843
    12.5463  12.5463  16.5807  16.5807  17.2649  17.2649  17.7551  17.7551
    19.0845  19.0845  19.3598  19.3598  34.2253

     occupation numbers 
     1.0000   1.0000   1.0000   1.0000   1.0000   1.0000   1.0000   1.0000
     1.0000   1.0000   1.0000   1.0000   1.0000   1.0000   1.0000   1.0000
     0.0000   0.0000   0.0000   0.0000   0.0000

          k = 0.0000 0.2887 0.0000 (  2880 PWs)   bands (ev):

   -75.5963 -75.5529 -39.0282 -38.9145 -38.8658 -38.8326 -38.7728 -38.7650
    11.4723  15.2198  16.0180  16.5175  17.4044  17.7025  17.7938  18.4401
    18.4514  18.6889  19.6369  23.4057  25.8972

     occupation numbers 
     1.0000   1.0000   1.0000   1.0000   1.0000   1.0000   1.0000   1.0000
     1.0000   1.0000   1.0000   1.0000   1.0000   1.0000   1.0000   0.0000
     0.0000   0.0000   0.0000   0.0000   0.0000

          k = 0.0000 0.2887 0.1035 (  2887 PWs)   bands (ev):

   -75.5934 -75.5558 -39.0215 -38.9032 -38.8793 -38.8281 -38.7775 -38.7695
    11.7047  15.1148  15.8885  16.5775  17.2640  17.7374  17.7379  18.4964
    18.5972  18.6473  19.5749  22.0500  27.8726

     occupation numbers 
     1.0000   1.0000   1.0000   1.0000   1.0000   1.0000   1.0000   1.0000
     1.0000   1.0000   1.0000   1.0000   1.0000   1.0000   1.0000   0.0000
     0.0000   0.0000   0.0000   0.0000   0.0000

          k = 0.0000 0.2887 0.2070 (  2885 PWs)   bands (ev):

   -75.5855 -75.5638 -38.9999 -38.9216 -38.8653 -38.8158 -38.7953 -38.7819
    12.3690  14.4166  16.0044  16.6641  17.0385  17.5280  17.8596  18.3303
    18.8277  18.9878  19.3934  20.5710  31.0751

     occupation numbers 
     1.0000   1.0000   1.0000   1.0000   1.0000   1.0000   1.0000   1.0000
     1.0000   1.0000   1.0000   1.0000   1.0000   1.0000   1.0000   0.7024
     0.0000   0.0000   0.0000   0.0000   0.0000

          k = 0.0000 0.2887-0.3106 (  2908 PWs)   bands (ev):

   -75.5746 -75.5746 -38.9640 -38.9640 -38.8271 -38.8271 -38.7989 -38.7989
    13.3524  13.3524  16.3802  16.3802  17.2078  17.2078  18.0722  18.0722
    19.1220  19.1220  19.6059  19.6059  32.9968

     occupation numbers 
     1.0000   1.0000   1.0000   1.0000   1.0000   1.0000   1.0000   1.0000
     1.0000   1.0000   1.0000   1.0000   1.0000   1.0000   1.0000   1.0000
     0.0000   0.0000   0.0000   0.0000   0.0000

          k = 0.0000 0.3849 0.0000 (  2880 PWs)   bands (ev):

   -75.5828 -75.5493 -38.9910 -38.9752 -38.9246 -38.8507 -38.7940 -38.7759
    12.7765  15.2647  15.5519  16.3829  17.4873  17.4963  17.5859  19.0070
    19.0744  19.1689  19.6858  25.2319  25.7820

     occupation numbers 
     1.0000   1.0000   1.0000   1.0000   1.0000   1.0000   1.0000   1.0000
     1.0000   1.0000   1.0000   1.0000   1.0000   1.0000   1.0000   0.0000
     0.0000   0.0000   0.0000   0.0000   0.0000

          k = 0.0000 0.3849 0.1035 (  2887 PWs)   bands (ev):

   -75.5806 -75.5515 -39.0153 -38.9486 -38.9264 -38.8458 -38.7947 -38.7809
    12.9435  15.1789  15.5802  16.4035  17.3333  17.5863  17.7637  19.0206
    19.0679  19.0771  19.6190  23.0644  27.8406

     occupation numbers 
     1.0000   1.0000   1.0000   1.0000   1.0000   1.0000   1.0000   1.0000
     1.0000   1.0000   1.0000   1.0000   1.0000   1.0000   1.0000   0.0000
     0.0000   0.0000   0.0000   0.0000   0.0000

          k = 0.0000 0.3849 0.2070 (  2890 PWs)   bands (ev):

   -75.5744 -75.5577 -39.0236 -38.9776 -38.8788 -38.8321 -38.8050 -38.7947
    13.4057  14.7184  15.8472  16.4338  17.2698  17.7907  17.8670  18.7146
    19.1591  19.2313  19.4727  21.1566  28.8898

     occupation numbers 
     1.0000   1.0000   1.0000   1.0000   1.0000   1.0000   1.0000   1.0000
     1.0000   1.0000   1.0000   1.0000   1.0000   1.0000   1.0000   0.0000
     0.0000   0.0000   0.0000   0.0000   0.0000

          k = 0.0000 0.3849-0.3106 (  2900 PWs)   bands (ev):

   -75.5661 -75.5661 -39.0088 -39.0088 -38.8337 -38.8337 -38.8134 -38.8134
    14.0528  14.0528  16.2172  16.2172  17.5140  17.5140  18.2763  18.2763
    19.3086  19.3086  19.8852  19.8852  29.9482

     occupation numbers 
     1.0000   1.0000   1.0000   1.0000   1.0000   1.0000   1.0000   1.0000
     1.0000   1.0000   1.0000   1.0000   1.0000   1.0000   1.0000   1.0000
     0.0000   0.0000   0.0000   0.0000   0.0000

          k = 0.0000 0.4811 0.0000 (  2900 PWs)   bands (ev):

   -75.5717 -75.5479 -39.0200 -38.9670 -38.9565 -38.8638 -38.8168 -38.7841
    13.9561  15.0610  15.2778  16.3850  17.3409  17.4354  17.7157  19.4262
    19.5756  19.7118  19.9880  24.0419  27.0997

     occupation numbers 
     1.0000   1.0000   1.0000   1.0000   1.0000   1.0000   1.0000   1.0000
     1.0000   1.0000   1.0000   1.0000   1.0000   1.0000   1.0000   0.0000
     0.0000   0.0000   0.0000   0.0000   0.0000

          k = 0.0000 0.4811 0.1035 (  2903 PWs)   bands (ev):

   -75.5701 -75.5495 -39.0386 -38.9851 -38.9236 -38.8585 -38.8129 -38.7895
    13.9797  14.9929  15.4909  16.1884  17.4636  17.6429  17.8980  19.3775
    19.4649  19.6817  19.8309  23.2206  26.5934

     occupation numbers 
[...]
    19.5987  19.6762  20.7565  23.2143  28.1317

     occupation numbers 
     1.0000   1.0000   1.0000   1.0000   1.0000   1.0000   1.0000   1.0000
     1.0000   1.0000   1.0000   1.0000   1.0000   1.0000   1.0000   0.0000
     0.0000   0.0000   0.0000   0.0000   0.0000

          k = 0.0833 0.5292 0.1035 (  2897 PWs)   bands (ev):

   -75.5658 -75.5492 -39.0427 -38.9922 -38.9164 -38.8683 -38.8246 -38.7996
    14.3853  15.0229  15.5545  16.0630  17.2791  17.7848  17.8421  19.3971
    19.5577  19.6399  20.6231  22.8921  27.0462

     occupation numbers 
     1.0000   1.0000   1.0000   1.0000   1.0000   1.0000   1.0000   1.0000
     1.0000   1.0000   1.0000   1.0000   1.0000   1.0000   1.0000   0.0000
     0.0000   0.0000   0.0000   0.0000   0.0000

          k = 0.0833 0.5292 0.2070 (  2901 PWs)   bands (ev):

   -75.5623 -75.5527 -39.0576 -39.0259 -38.8804 -38.8456 -38.8305 -38.8033
    14.3754  14.8572  15.8548  16.1718  17.3324  18.0795  18.2788  18.9362
    19.5069  19.7327  20.4098  21.9813  26.4759

     occupation numbers 
     1.0000   1.0000   1.0000   1.0000   1.0000   1.0000   1.0000   1.0000
     1.0000   1.0000   1.0000   1.0000   1.0000   1.0000   1.0000   0.0000
     0.0000   0.0000   0.0000   0.0000   0.0000

          k = 0.0833 0.5292-0.3106 (  2886 PWs)   bands (ev):

   -75.5575 -75.5575 -39.0518 -39.0518 -38.8529 -38.8529 -38.8169 -38.8169
    14.5561  14.5561  16.1280  16.1280  17.8211  17.8211  18.5812  18.5812
    19.5864  19.5864  20.9416  20.9416  26.7268

     occupation numbers 
     1.0000   1.0000   1.0000   1.0000   1.0000   1.0000   1.0000   1.0000
     1.0000   1.0000   1.0000   1.0000   1.0000   1.0000   0.0000   0.0000
     0.0000   0.0000   0.0000   0.0000   0.0000

          k = 0.1667 0.2887 0.0000 (  2886 PWs)   bands (ev):

   -75.5897 -75.5510 -39.0106 -38.9202 -38.9109 -38.8338 -38.7876 -38.7824
    12.0897  15.5019  15.8450  16.1944  17.3353  17.4354  17.8999  18.3198
    18.8276  19.1826  19.5919  24.2911  26.1172

     occupation numbers 
     1.0000   1.0000   1.0000   1.0000   1.0000   1.0000   1.0000   1.0000
     1.0000   1.0000   1.0000   1.0000   1.0000   1.0000   1.0000   0.9475
     0.0000   0.0000   0.0000   0.0000   0.0000

          k = 0.1667 0.2887 0.1035 (  2896 PWs)   bands (ev):

   -75.5871 -75.5536 -39.0107 -38.9180 -38.9031 -38.8409 -38.7919 -38.7812
    12.3040  15.4375  15.7414  16.2597  17.2579  17.4631  17.7869  18.3910
    18.9553  19.0647  19.5984  22.6480  28.3080

     occupation numbers 
     1.0000   1.0000   1.0000   1.0000   1.0000   1.0000   1.0000   1.0000
     1.0000   1.0000   1.0000   1.0000   1.0000   1.0000   1.0000   0.0000
     0.0000   0.0000   0.0000   0.0000   0.0000

          k = 0.1667 0.2887 0.2070 (  2887 PWs)   bands (ev):

   -75.5800 -75.5607 -39.0015 -38.9434 -38.8670 -38.8432 -38.8022 -38.7887
    12.9119  14.7507  15.9879  16.4261  17.0161  17.2945  17.8410  18.4366
    19.0749  19.1811  19.5487  20.9401  31.5403

     occupation numbers 
     1.0000   1.0000   1.0000   1.0000   1.0000   1.0000   1.0000   1.0000
     1.0000   1.0000   1.0000   1.0000   1.0000   1.0000   1.0000   0.0000
     0.0000   0.0000   0.0000   0.0000   0.0000

          k = 0.1667 0.2887-0.3106 (  2902 PWs)   bands (ev):

   -75.5704 -75.5704 -38.9768 -38.9768 -38.8412 -38.8412 -38.8051 -38.8051
    13.7990  13.7990  16.3629  16.3629  16.9798  16.9798  18.1424  18.1424
    19.3722  19.3722  19.7785  19.7785  33.1826

     occupation numbers 
     1.0000   1.0000   1.0000   1.0000   1.0000   1.0000   1.0000   1.0000
     1.0000   1.0000   1.0000   1.0000   1.0000   1.0000   1.0000   1.0000
     0.0000   0.0000   0.0000   0.0000   0.0000

          k = 0.1667 0.3849 0.0000 (  2898 PWs)   bands (ev):

   -75.5775 -75.5484 -38.9752 -38.9671 -38.9441 -38.8621 -38.8080 -38.8040
    13.3328  15.5446  15.5802  15.9960  17.1411  17.5707  17.6753  18.6507
    19.3240  19.5905  19.8831  26.0418  26.3267

     occupation numbers 
     1.0000   1.0000   1.0000   1.0000   1.0000   1.0000   1.0000   1.0000
     1.0000   1.0000   1.0000   1.0000   1.0000   1.0000   1.0000   0.0000
     0.0000   0.0000   0.0000   0.0000   0.0000

          k = 0.1667 0.3849 0.1035 (  2899 PWs)   bands (ev):

   -75.5755 -75.5503 -39.0033 -38.9623 -38.9168 -38.8680 -38.8142 -38.7959
    13.4847  15.4069  15.6843  16.0988  17.1253  17.5243  17.6352  18.6806
    19.3212  19.4255  19.9958  23.7287  28.3310

     occupation numbers 
     1.0000   1.0000   1.0000   1.0000   1.0000   1.0000   1.0000   1.0000
     1.0000   1.0000   1.0000   1.0000   1.0000   1.0000   1.0000   0.0000
     0.0000   0.0000   0.0000   0.0000   0.0000

          k = 0.1667 0.3849 0.2070 (  2889 PWs)   bands (ev):

   -75.5702 -75.5556 -39.0168 -38.9842 -38.8795 -38.8631 -38.8223 -38.7944
    13.9007  15.0222  15.9685  16.3152  16.9994  17.2397  17.8186  18.6197
    19.1837  19.6086  20.0770  21.7458  29.2616

     occupation numbers 
     1.0000   1.0000   1.0000   1.0000   1.0000   1.0000   1.0000   1.0000
     1.0000   1.0000   1.0000   1.0000   1.0000   1.0000   1.0000   0.0000
     0.0000   0.0000   0.0000   0.0000   0.0000

          k = 0.1667 0.3849-0.3106 (  2886 PWs)   bands (ev):

   -75.5629 -75.5629 -39.0082 -39.0082 -38.8622 -38.8622 -38.8099 -38.8099
    14.4674  14.4674  16.3092  16.3092  16.9691  16.9691  18.1748  18.1748
    19.6116  19.6116  20.4291  20.4291  30.3743

     occupation numbers 
     1.0000   1.0000   1.0000   1.0000   1.0000   1.0000   1.0000   1.0000
     1.0000   1.0000   1.0000   1.0000   1.0000   1.0000   1.0000   1.0000
     0.0000   0.0000   0.0000   0.0000   0.0000

          k = 0.1667 0.4811 0.0000 (  2902 PWs)   bands (ev):

   -75.5671 -75.5479 -39.0044 -38.9599 -38.9410 -38.8891 -38.8281 -38.8218
    14.4398  15.3681  15.3683  16.0293  17.0834  17.4242  17.8024  19.0883
    19.5826  19.5879  20.7673  24.6639  27.9267

     occupation numbers 
     1.0000   1.0000   1.0000   1.0000   1.0000   1.0000   1.0000   1.0000
     1.0000   1.0000   1.0000   1.0000   1.0000   1.0000   1.0000   0.0000
     0.0000   0.0000   0.0000   0.0000   0.0000

          k = 0.1667 0.4811 0.1035 (  2899 PWs)   bands (ev):

   -75.5658 -75.5491 -39.0195 -38.9801 -38.9181 -38.8817 -38.8342 -38.8106
    14.4656  15.3181  15.5306  16.0748  17.1000  17.4050  17.8521  19.0743
    19.3522  19.6576  20.8200  24.0831  26.8690

     occupation numbers 
     1.0000   1.0000   1.0000   1.0000   1.0000   1.0000   1.0000   1.0000
     1.0000   1.0000   1.0000   1.0000   1.0000   1.0000   1.0000   0.0000
     0.0000   0.0000   0.0000   0.0000   0.0000

          k = 0.1667 0.4811 0.2070 (  2903 PWs)   bands (ev):

   -75.5623 -75.5527 -39.0357 -39.0096 -38.8997 -38.8632 -38.8346 -38.8011
    14.5833  15.1141  15.8631  16.3586  16.9397  17.3743  18.0469  18.7458
    19.2854  19.7541  20.9713  22.6673  26.9712

     occupation numbers 
     1.0000   1.0000   1.0000   1.0000   1.0000   1.0000   1.0000   1.0000
     1.0000   1.0000   1.0000   1.0000   1.0000   1.0000   1.0000   0.0000
     0.0000   0.0000   0.0000   0.0000   0.0000

          k = 0.1667 0.4811-0.3106 (  2892 PWs)   bands (ev):

   -75.5575 -75.5575 -39.0322 -39.0322 -38.8793 -38.8793 -38.8104 -38.8104
    14.8182  14.8182  16.2755  16.2755  17.1084  17.1084  18.3165  18.3165
    19.6045  19.6045  21.4977  21.4977  27.7780

     occupation numbers 
     1.0000   1.0000   1.0000   1.0000   1.0000   1.0000   1.0000   1.0000
     1.0000   1.0000   1.0000   1.0000   1.0000   1.0000   0.9753   0.9753
     0.0000   0.0000   0.0000   0.0000   0.0000

          k = 0.1667 0.5774 0.0000 (  2916 PWs)   bands (ev):

   -75.5625 -75.5485 -39.0180 -38.9645 -38.9237 -38.9004 -38.8417 -38.8267
    14.9146  15.2339  15.3107  16.0784  17.1189  17.2754  17.9062  19.3948
    19.5670  19.5866  21.6549  23.1072  28.8403

     occupation numbers 
     1.0000   1.0000   1.0000   1.0000   1.0000   1.0000   1.0000   1.0000
     1.0000   1.0000   1.0000   1.0000   1.0000   1.0000   1.0000   0.0000
     0.0000   0.0000   0.0000   0.0000   0.0000

          k = 0.1667 0.5774 0.1035 (  2904 PWs)   bands (ev):

   -75.5616 -75.5494 -39.0299 -38.9833 -38.9225 -38.8756 -38.8465 -38.8171
    14.7785  15.2785  15.6685  15.9170  17.0565  17.4402  17.9649  19.3213
    19.3920  19.6310  21.6876  23.0151  28.0144

     occupation numbers 
     1.0000   1.0000   1.0000   1.0000   1.0000   1.0000   1.0000   1.0000
     1.0000   1.0000   1.0000   1.0000   1.0000   1.0000   1.0000   0.0000
     0.0000   0.0000   0.0000   0.0000   0.0000

          k = 0.1667 0.5774 0.2070 (  2902 PWs)   bands (ev):

   -75.5590 -75.5520 -39.0445 -39.0174 -38.9082 -38.8629 -38.8368 -38.8047
    14.7452  15.1721  15.9260  16.2738  16.8514  17.5447  18.1911  18.8183
    19.4147  19.6749  21.8203  22.7059  26.9150

     occupation numbers 
     1.0000   1.0000   1.0000   1.0000   1.0000   1.0000   1.0000   1.0000
     1.0000   1.0000   1.0000   1.0000   1.0000   1.0000   1.0000   0.0000
     0.0000   0.0000   0.0000   0.0000   0.0000

          k = 0.1667 0.5774-0.3106 (  2898 PWs)   bands (ev):

   -75.5555 -75.5555 -39.0412 -39.0412 -38.8858 -38.8858 -38.8101 -38.8101
    14.9023  14.9023  16.2679  16.2679  17.1583  17.1583  18.4777  18.4777
    19.5409  19.5409  22.2115  22.2115  26.5301

     occupation numbers 
     1.0000   1.0000   1.0000   1.0000   1.0000   1.0000   1.0000   1.0000
     1.0000   1.0000   1.0000   1.0000   1.0000   1.0000   0.0000   0.0000
     0.0000   0.0000   0.0000   0.0000   0.0000

          k = 0.2500 0.4330 0.0000 (  2902 PWs)   bands (ev):

   -75.5671 -75.5478 -38.9843 -38.9617 -38.9412 -38.8892 -38.8403 -38.8279
    14.4405  15.4399  15.7032  15.7181  16.9952  17.4481  17.8052  18.8560
    19.5430  19.5877  20.8032  26.2249  27.0029

     occupation numbers 
     1.0000   1.0000   1.0000   1.0000   1.0000   1.0000   1.0000   1.0000
     1.0000   1.0000   1.0000   1.0000   1.0000   1.0000   1.0000   0.0000
     0.0000   0.0000   0.0000   0.0000   0.0000

          k = 0.2500 0.4330 0.1035 (  2901 PWs)   bands (ev):

   -75.5658 -75.5491 -38.9952 -38.9882 -38.9024 -38.9021 -38.8431 -38.8136
    14.5254  15.3574  15.7717  15.9048  17.0401  17.2754  17.8017  18.8872
    19.2974  19.6666  20.9088  24.8290  27.2922

     occupation numbers 
     1.0000   1.0000   1.0000   1.0000   1.0000   1.0000   1.0000   1.0000
     1.0000   1.0000   1.0000   1.0000   1.0000   1.0000   1.0000   0.0000
     0.0000   0.0000   0.0000   0.0000   0.0000

          k = 0.2500 0.4330 0.2070 (  2897 PWs)   bands (ev):

   -75.5623 -75.5527 -39.0189 -39.0039 -38.9070 -38.8801 -38.8336 -38.8007
    14.7421  15.2154  15.9924  16.2636  16.8976  17.0183  17.8707  18.6518
    19.2462  19.7622  21.1445  22.9819  28.0752

     occupation numbers 
     1.0000   1.0000   1.0000   1.0000   1.0000   1.0000   1.0000   1.0000
     1.0000   1.0000   1.0000   1.0000   1.0000   1.0000   1.0000   0.0000
     0.0000   0.0000   0.0000   0.0000   0.0000

          k = 0.2500 0.4330-0.3106 (  2886 PWs)   bands (ev):

   -75.5575 -75.5575 -39.0201 -39.0201 -38.8936 -38.8936 -38.8084 -38.8084
    15.0017  15.0017  16.3297  16.3297  16.7908  16.7908  18.1576  18.1576
    19.6276  19.6276  21.7082  21.7082  29.0885

     occupation numbers 
     1.0000   1.0000   1.0000   1.0000   1.0000   1.0000   1.0000   1.0000
     1.0000   1.0000   1.0000   1.0000   1.0000   1.0000   1.0000   1.0000
     0.0000   0.0000   0.0000   0.0000   0.0000

          k = 0.2500 0.5292 0.0000 (  2906 PWs)   bands (ev):

   -75.5593 -75.5494 -38.9976 -38.9522 -38.9193 -38.9108 -38.8609 -38.8524
    15.1664  15.4040  15.5421  15.7928  16.9974  17.2138  18.0020  19.1536
    19.5149  19.5355  22.0547  24.2581  26.3240

     occupation numbers 
     1.0000   1.0000   1.0000   1.0000   1.0000   1.0000   1.0000   1.0000
     1.0000   1.0000   1.0000   1.0000   1.0000   1.0000   1.0000   0.0000
     0.0000   0.0000   0.0000   0.0000   0.0000

          k = 0.2500 0.5292 0.1035 (  2910 PWs)   bands (ev):

   -75.5586 -75.5500 -39.0036 -38.9758 -38.9377 -38.8818 -38.8635 -38.8305
    15.1405  15.5093  15.6279  15.8635  16.9764  17.1161  18.0055  19.1666
    19.2651  19.5878  22.2178  24.2432  26.4044

     occupation numbers 
     1.0000   1.0000   1.0000   1.0000   1.0000   1.0000   1.0000   1.0000
     1.0000   1.0000   1.0000   1.0000   1.0000   1.0000   1.0000   0.0000
     0.0000   0.0000   0.0000   0.0000   0.0000

          k = 0.2500 0.5292 0.2070 (  2906 PWs)   bands (ev):

   -75.5568 -75.5518 -39.0199 -39.0048 -38.9367 -38.8934 -38.8296 -38.8082
    15.1865  15.4740  15.9033  16.2097  16.7362  16.9731  18.0632  18.6925
    19.3300  19.6323  22.6006  23.9058  26.4904

     occupation numbers 
     1.0000   1.0000   1.0000   1.0000   1.0000   1.0000   1.0000   1.0000
     1.0000   1.0000   1.0000   1.0000   1.0000   1.0000   1.0000   0.0000
     0.0000   0.0000   0.0000   0.0000   0.0000

          k = 0.2500 0.5292-0.3106 (  2894 PWs)   bands (ev):

   -75.5543 -75.5543 -39.0227 -39.0227 -38.9166 -38.9166 -38.8069 -38.8069
    15.3212  15.3212  16.2969  16.2969  16.6898  16.6898  18.2630  18.2630
    19.5280  19.5280  23.1895  23.1895  27.0315

     occupation numbers 
     1.0000   1.0000   1.0000   1.0000   1.0000   1.0000   1.0000   1.0000
     1.0000   1.0000   1.0000   1.0000   1.0000   1.0000   1.0000   1.0000
     0.0000   0.0000   0.0000   0.0000   0.0000

          k = 0.3333 0.5774 0.0000 (  2916 PWs)   bands (ev):

   -75.5532 -75.5532 -38.9888 -38.9382 -38.9382 -38.8847 -38.8805 -38.8805
    15.4340  15.5209  15.5209  15.7289  17.0430  17.0430  18.1080  19.3174
    19.3174  19.4859  23.4811  24.2443  24.2443

     occupation numbers 
     1.0000   1.0000   1.0000   1.0000   1.0000   1.0000   1.0000   1.0000
     1.0000   1.0000   1.0000   1.0000   1.0000   1.0000   1.0000   0.0000
     0.0000   0.0000   0.0000   0.0000   0.0000

          k = 0.3333 0.5774 0.1035 (  2910 PWs)   bands (ev):

   -75.5532 -75.5532 -38.9819 -38.9667 -38.9667 -38.8917 -38.8519 -38.8519
    15.5071  15.5973  15.5973  15.7621  16.9588  16.9588  18.0848  19.2104
    19.3609  19.3609  23.8965  24.2976  24.2976

     occupation numbers 
     1.0000   1.0000   1.0000   1.0000   1.0000   1.0000   1.0000   1.0000
     1.0000   1.0000   1.0000   1.0000   1.0000   1.0000   1.0000   0.0000
     0.0000   0.0000   0.0000   0.0000   0.0000

          k = 0.3333 0.5774 0.2070 (  2901 PWs)   bands (ev):

   -75.5532 -75.5532 -38.9999 -38.9999 -38.9629 -38.9109 -38.8184 -38.8184
    15.6783  15.7794  15.7794  15.8241  16.7692  16.7692  18.0761  18.6669
    19.4393  19.4393  24.4299  24.4299  24.9023

     occupation numbers 
     1.0000   1.0000   1.0000   1.0000   1.0000   1.0000   1.0000   1.0000
     1.0000   1.0000   1.0000   1.0000   1.0000   1.0000   1.0000   0.0000
     0.0000   0.0000   0.0000   0.0000   0.0000

          k = 0.3333 0.5774-0.3106 (  2910 PWs)   bands (ev):

   -75.5532 -75.5532 -39.0125 -39.0125 -38.9369 -38.9369 -38.8057 -38.8057
    15.8159  15.8159  15.8984  15.8984  16.6500  16.6500  18.2380  18.2380
    19.4747  19.4747  24.5144  24.5144  26.2266

     occupation numbers 
     1.0000   1.0000   1.0000   1.0000   1.0000   1.0000   1.0000   1.0000
     1.0000   1.0000   1.0000   1.0000   1.0000   1.0000   1.0000   1.0000
     0.0000   0.0000   0.0000   0.0000   0.0000

     the Fermi energy is    18.3354 ev

!    total energy              =    -753.45489483 Ry
     total all-electron energy =     -5573.811586 Ry
     estimated scf accuracy    <       0.00000055 Ry
     smearing contrib. (-TS)   =      -0.00002588 Ry
     internal energy E=F+TS    =    -753.45486895 Ry

     The total energy is F=E-TS. E is the sum of the following terms:
     one-electron contribution =    -285.92731966 Ry
     hartree contribution      =     166.20124360 Ry
     xc contribution           =     -61.38032901 Ry
     ewald contribution        =    -397.17467308 Ry
     one-center paw contrib.   =    -175.17379080 Ry
      -> PAW hartree energy AE =     221.92547948 Ry
      -> PAW hartree energy PS =    -220.87008532 Ry
      -> PAW xc energy AE      =    -117.66614431 Ry
      -> PAW xc energy PS      =      29.02385474 Ry
      -> total E_H with PAW    =     167.25663776 Ry
      -> total E_XC with PAW   =    -150.02261857 Ry

     total magnetization       =     3.32 Bohr mag/cell
     absolute magnetization    =     3.65 Bohr mag/cell

     convergence has been achieved in   1 iterations

     Writing all to output data dir ./out/Co.save/
 
     init_run     :      0.36s CPU      0.52s WALL (       1 calls)
     electrons    :      2.40s CPU      2.64s WALL (       1 calls)

     Called by init_run:
     wfcinit      :      0.22s CPU      0.34s WALL (       1 calls)
     potinit      :      0.10s CPU      0.12s WALL (       1 calls)
     hinit0       :      0.03s CPU      0.03s WALL (       1 calls)

     Called by electrons:
     c_bands      :      1.92s CPU      2.10s WALL (       2 calls)
     sum_band     :      0.38s CPU      0.39s WALL (       2 calls)
     v_of_rho     :      0.01s CPU      0.01s WALL (       2 calls)
     v_h          :      0.00s CPU      0.00s WALL (       2 calls)
     v_xc         :      0.01s CPU      0.01s WALL (       2 calls)
     newd         :      0.01s CPU      0.01s WALL (       2 calls)
     PAW_pot      :      0.18s CPU      0.23s WALL (       2 calls)
     mix_rho      :      0.00s CPU      0.00s WALL (       2 calls)

     Called by c_bands:
     init_us_2    :      0.02s CPU      0.03s WALL (     608 calls)
     init_us_2:cp :      0.02s CPU      0.03s WALL (     608 calls)
     cegterg      :      1.77s CPU      1.88s WALL (     304 calls)

     Called by sum_band:
     sum_band:wei :      0.00s CPU      0.00s WALL (       2 calls)
     sum_band:loo :      0.36s CPU      0.37s WALL (       2 calls)
     sum_band:buf :      0.00s CPU      0.00s WALL (     304 calls)
     sum_band:ini :      0.01s CPU      0.01s WALL (     304 calls)
     sum_band:cal :      0.04s CPU      0.03s WALL (     304 calls)
     sum_band:bec :      0.00s CPU      0.00s WALL (     304 calls)
     addusdens    :      0.01s CPU      0.02s WALL (       2 calls)
                                        0.00s GPU  (       2 calls)
     addusd:skk   :      0.00s CPU      0.00s WALL (       2 calls)
                                        0.00s GPU  (       2 calls)

     Called by *egterg:
     cdiaghg      :      0.34s CPU      0.35s WALL (     543 calls)
     cegterg:over :      0.06s CPU      0.05s WALL (     543 calls)
     cegterg:upda :      0.01s CPU      0.01s WALL (     543 calls)
     cegterg:last :      0.01s CPU      0.02s WALL (     457 calls)
     h_psi        :      1.27s CPU      1.36s WALL (     847 calls)
     s_psi        :      0.02s CPU      0.02s WALL (     847 calls)
     g_psi        :      0.00s CPU      0.00s WALL (     543 calls)

     Called by h_psi:
     h_psi:calbec :      0.08s CPU      0.07s WALL (     847 calls)
     vloc_psi     :      1.17s CPU      1.26s WALL (     847 calls)
     add_vuspsi   :      0.02s CPU      0.03s WALL (     847 calls)

     General routines
     calbec       :      0.12s CPU      0.10s WALL (    1151 calls)
     fft          :      0.01s CPU      0.01s WALL (      46 calls)
     ffts         :      0.00s CPU      0.00s WALL (       8 calls)
     fftw         :      1.36s CPU      1.44s WALL (   33916 calls)
     interpolate  :      0.00s CPU      0.00s WALL (       4 calls)
 
     Parallel routines

     PAW routines
     PAW_pot      :      0.18s CPU      0.23s WALL (       2 calls)
     PAW_symme    :      0.00s CPU      0.00s WALL (       3 calls)
 
     PWSCF        :      3.07s CPU      4.01s WALL

 
   This run was terminated on:  16:53:24  18Mar2024            

=------------------------------------------------------------------------------=
   JOB DONE.
=------------------------------------------------------------------------------=
