
     Program PWSCF v.7.2 starts on 18Mar2024 at 16:47:54 

     This program is part of the open-source Quantum ESPRESSO suite
     for quantum simulation of materials; please cite
         "P. Giannozzi et al., J. Phys.:Condens. Matter 21 395502 (2009);
         "P. Giannozzi et al., J. Phys.:Condens. Matter 29 465901 (2017);
         "P. Giannozzi et al., J. Chem. Phys. 152 154105 (2020);
          URL http://www.quantum-espresso.org", 
     in publications or presentations arising from this work. More details at
     http://www.quantum-espresso.org/quote

     Parallel version (MPI), running on    20 processors

     MPI processes distributed on     1 nodes
     315466 MiB available memory on the printing compute node when the environment starts
 
     Waiting for input...
     Reading input from standard input

     Current dimensions of program PWSCF are:
     Max number of different atomic species (ntypx) = 10
     Max number of k-points (npk) = 120000
     Max angular momentum in pseudopotentials (lmaxx) =  4
     file Co.pbe-spn-kjpaw_psl.0.3.1.UPF: wavefunction(s)  3P 3D renormalized
 
     R & G space division:  proc/nbgrp/npool/nimage =      20
     Subspace diagonalization in iterative solution of the eigenvalue problem:
     a serial algorithm will be used

 
     Parallelization info
     --------------------
     sticks:   dense  smooth     PW     G-vecs:    dense   smooth      PW
     Min          33      33      9                 1182     1148     185
     Max          36      35     10                 1211     1153     192
     Sum         685     673    199                23787    22995    3791
 
     Using Slab Decomposition
 


     bravais-lattice index     =            4
     lattice parameter (alat)  =       4.7100  a.u.
     unit-cell volume          =     147.4962 (a.u.)^3
     number of atoms/cell      =            2
     number of atomic types    =            1
     number of electrons       =        34.00
     number of Kohn-Sham states=           21
     kinetic-energy cutoff     =     110.0000  Ry
     charge density cutoff     =     450.0000  Ry
     scf convergence threshold =      1.0E-06
     mixing beta               =       0.7000
     number of iterations used =            8  plain     mixing
     Exchange-correlation= SLA  PW   PBX  PBC
                           (   1   4   3   4   0   0   0)

     celldm(1)=   4.710000  celldm(2)=   0.000000  celldm(3)=   1.630000
     celldm(4)=   0.000000  celldm(5)=   0.000000  celldm(6)=   0.000000

     crystal axes: (cart. coord. in units of alat)
               a(1) = (   1.000000   0.000000   0.000000 )  
               a(2) = (  -0.500000   0.866025   0.000000 )  
               a(3) = (   0.000000   0.000000   1.630000 )  

     reciprocal axes: (cart. coord. in units 2 pi/alat)
               b(1) = (  1.000000  0.577350  0.000000 )  
               b(2) = (  0.000000  1.154701  0.000000 )  
               b(3) = (  0.000000  0.000000  0.613497 )  


     PseudoPot. # 1 for Co read from file:
     /truba/home/amuhaymin/ZnS/pseudo/QE/Co.pbe-spn-kjpaw_psl.0.3.1.UPF
     MD5 check sum: b0a1ad65bf214e88c1f3d33b20c7d919
     Pseudo is Projector augmented-wave + core cor, Zval = 17.0
     Generated using &quot;atomic&quot; code by A. Dal Corso  v.6.2.2
     Shape of augmentation charge: PSQ
     Using radial grid of 1193 points,  6 beta functions with: 
                l(1) =   0
                l(2) =   0
                l(3) =   1
                l(4) =   1
                l(5) =   2
                l(6) =   2
     Q(r) pseudized with 0 coefficients 


     atomic species   valence    mass     pseudopotential
        Co            17.00    58.93300     Co( 1.00)

     Starting magnetic structure 
     atomic species   magnetization
        Co           0.294

     24 Sym. Ops., with inversion, found (12 have fractional translation)


                                    s                        frac. trans.

      isym =  1     identity                                     

 cryst.   s( 1) = (     1          0          0      )
                  (     0          1          0      )
                  (     0          0          1      )

 cart.    s( 1) = (  1.0000000  0.0000000  0.0000000 )
                  (  0.0000000  1.0000000  0.0000000 )
                  (  0.0000000  0.0000000  1.0000000 )


      isym =  2     180 deg rotation - cart. axis [0,0,1]        

 cryst.   s( 2) = (    -1          0          0      )    f =(  0.0000000 )
                  (     0         -1          0      )       (  0.0000000 )
                  (     0          0          1      )       ( -0.5000000 )

 cart.    s( 2) = ( -1.0000000  0.0000000  0.0000000 )    f =(  0.0000000 )
                  (  0.0000000 -1.0000000  0.0000000 )       (  0.0000000 )
                  (  0.0000000  0.0000000  1.0000000 )       ( -0.8150000 )


      isym =  3     180 deg rotation - cart. axis [0,1,0]        

 cryst.   s( 3) = (    -1          0          0      )    f =(  0.0000000 )
                  (     1          1          0      )       (  0.0000000 )
                  (     0          0         -1      )       (  0.5000000 )

 cart.    s( 3) = ( -1.0000000  0.0000000  0.0000000 )    f =(  0.0000000 )
                  (  0.0000000  1.0000000  0.0000000 )       (  0.0000000 )
                  (  0.0000000  0.0000000 -1.0000000 )       (  0.8150000 )


      isym =  4     180 deg rotation - cart. axis [1,0,0]        

 cryst.   s( 4) = (     1          0          0      )
                  (    -1         -1          0      )
                  (     0          0         -1      )

 cart.    s( 4) = (  1.0000000  0.0000000  0.0000000 )
                  (  0.0000000 -1.0000000  0.0000000 )
                  (  0.0000000  0.0000000 -1.0000000 )


      isym =  5      60 deg rotation - cryst. axis [0,0,1]       

 cryst.   s( 5) = (     1          1          0      )    f =(  0.0000000 )
                  (    -1          0          0      )       ( -0.0000000 )
                  (     0          0          1      )       ( -0.5000000 )

 cart.    s( 5) = (  0.5000000 -0.8660254  0.0000000 )    f =(  0.0000000 )
                  (  0.8660254  0.5000000  0.0000000 )       ( -0.0000000 )
                  (  0.0000000  0.0000000  1.0000000 )       ( -0.8150000 )


      isym =  6      60 deg rotation - cryst. axis [0,0,-1]      

 cryst.   s( 6) = (     0         -1          0      )    f =(  0.0000000 )
                  (     1          1          0      )       ( -0.0000000 )
                  (     0          0          1      )       ( -0.5000000 )

 cart.    s( 6) = (  0.5000000  0.8660254  0.0000000 )    f =(  0.0000000 )
                  ( -0.8660254  0.5000000  0.0000000 )       ( -0.0000000 )
                  (  0.0000000  0.0000000  1.0000000 )       ( -0.8150000 )


      isym =  7     120 deg rotation - cryst. axis [0,0,1]       

 cryst.   s( 7) = (     0          1          0      )
                  (    -1         -1          0      )
                  (     0          0          1      )

 cart.    s( 7) = ( -0.5000000 -0.8660254  0.0000000 )
                  (  0.8660254 -0.5000000  0.0000000 )
                  (  0.0000000  0.0000000  1.0000000 )


      isym =  8     120 deg rotation - cryst. axis [0,0,-1]      

 cryst.   s( 8) = (    -1         -1          0      )
                  (     1          0          0      )
                  (     0          0          1      )

 cart.    s( 8) = ( -0.5000000  0.8660254  0.0000000 )
                  ( -0.8660254 -0.5000000  0.0000000 )
                  (  0.0000000  0.0000000  1.0000000 )


      isym =  9     180 deg rotation - cryst. axis [1,-1,0]      

 cryst.   s( 9) = (     0         -1          0      )    f =(  0.0000000 )
                  (    -1          0          0      )       (  0.0000000 )
                  (     0          0         -1      )       (  0.5000000 )

 cart.    s( 9) = (  0.5000000 -0.8660254  0.0000000 )    f =(  0.0000000 )
                  ( -0.8660254 -0.5000000  0.0000000 )       (  0.0000000 )
                  (  0.0000000  0.0000000 -1.0000000 )       (  0.8150000 )


      isym = 10     180 deg rotation - cryst. axis [2,1,0]       

 cryst.   s(10) = (     1          1          0      )    f =(  0.0000000 )
                  (     0         -1          0      )       ( -0.0000000 )
                  (     0          0         -1      )       (  0.5000000 )

 cart.    s(10) = (  0.5000000  0.8660254  0.0000000 )    f =(  0.0000000 )
                  (  0.8660254 -0.5000000  0.0000000 )       ( -0.0000000 )
                  (  0.0000000  0.0000000 -1.0000000 )       (  0.8150000 )


      isym = 11     180 deg rotation - cryst. axis [0,1,0]       

 cryst.   s(11) = (    -1         -1          0      )
                  (     0          1          0      )
                  (     0          0         -1      )

 cart.    s(11) = ( -0.5000000 -0.8660254  0.0000000 )
                  ( -0.8660254  0.5000000  0.0000000 )
                  (  0.0000000  0.0000000 -1.0000000 )


      isym = 12     180 deg rotation - cryst. axis [1,1,0]       

 cryst.   s(12) = (     0          1          0      )
                  (     1          0          0      )
                  (     0          0         -1      )

 cart.    s(12) = ( -0.5000000  0.8660254  0.0000000 )
                  (  0.8660254  0.5000000  0.0000000 )
                  (  0.0000000  0.0000000 -1.0000000 )


      isym = 13     inversion                                    

 cryst.   s(13) = (    -1          0          0      )
                  (     0         -1          0      )
                  (     0          0         -1      )

 cart.    s(13) = ( -1.0000000  0.0000000  0.0000000 )
                  (  0.0000000 -1.0000000  0.0000000 )
                  (  0.0000000  0.0000000 -1.0000000 )


      isym = 14     inv. 180 deg rotation - cart. axis [0,0,1]   

 cryst.   s(14) = (     1          0          0      )    f =(  0.0000000 )
                  (     0          1          0      )       (  0.0000000 )
                  (     0          0         -1      )       (  0.5000000 )

 cart.    s(14) = (  1.0000000  0.0000000  0.0000000 )    f =(  0.0000000 )
                  (  0.0000000  1.0000000  0.0000000 )       (  0.0000000 )
                  (  0.0000000  0.0000000 -1.0000000 )       (  0.8150000 )


      isym = 15     inv. 180 deg rotation - cart. axis [0,1,0]   

 cryst.   s(15) = (     1          0          0      )    f =(  0.0000000 )
                  (    -1         -1          0      )       (  0.0000000 )
                  (     0          0          1      )       ( -0.5000000 )

 cart.    s(15) = (  1.0000000  0.0000000  0.0000000 )    f =(  0.0000000 )
                  (  0.0000000 -1.0000000  0.0000000 )       (  0.0000000 )
                  (  0.0000000  0.0000000  1.0000000 )       ( -0.8150000 )


      isym = 16     inv. 180 deg rotation - cart. axis [1,0,0]   

 cryst.   s(16) = (    -1          0          0      )
                  (     1          1          0      )
                  (     0          0          1      )

 cart.    s(16) = ( -1.0000000  0.0000000  0.0000000 )
                  (  0.0000000  1.0000000  0.0000000 )
                  (  0.0000000  0.0000000  1.0000000 )


      isym = 17     inv.  60 deg rotation - cryst. axis [0,0,1]  

 cryst.   s(17) = (    -1         -1          0      )    f =(  0.0000000 )
                  (     1          0          0      )       (  0.0000000 )
                  (     0          0         -1      )       (  0.5000000 )

 cart.    s(17) = ( -0.5000000  0.8660254  0.0000000 )    f =(  0.0000000 )
                  ( -0.8660254 -0.5000000  0.0000000 )       (  0.0000000 )
                  (  0.0000000  0.0000000 -1.0000000 )       (  0.8150000 )


      isym = 18     inv.  60 deg rotation - cryst. axis [0,0,-1] 

 cryst.   s(18) = (     0          1          0      )    f =(  0.0000000 )
                  (    -1         -1          0      )       ( -0.0000000 )
                  (     0          0         -1      )       (  0.5000000 )

 cart.    s(18) = ( -0.5000000 -0.8660254  0.0000000 )    f =(  0.0000000 )
                  (  0.8660254 -0.5000000  0.0000000 )       ( -0.0000000 )
                  (  0.0000000  0.0000000 -1.0000000 )       (  0.8150000 )


      isym = 19     inv. 120 deg rotation - cryst. axis [0,0,1]  

 cryst.   s(19) = (     0         -1          0      )
                  (     1          1          0      )
                  (     0          0         -1      )

 cart.    s(19) = (  0.5000000  0.8660254  0.0000000 )
                  ( -0.8660254  0.5000000  0.0000000 )
                  (  0.0000000  0.0000000 -1.0000000 )


      isym = 20     inv. 120 deg rotation - cryst. axis [0,0,-1] 

 cryst.   s(20) = (     1          1          0      )
                  (    -1          0          0      )
                  (     0          0         -1      )

 cart.    s(20) = (  0.5000000 -0.8660254  0.0000000 )
                  (  0.8660254  0.5000000  0.0000000 )
                  (  0.0000000  0.0000000 -1.0000000 )


      isym = 21     inv. 180 deg rotation - cryst. axis [1,-1,0] 

 cryst.   s(21) = (     0          1          0      )    f =(  0.0000000 )
                  (     1          0          0      )       ( -0.0000000 )
                  (     0          0          1      )       ( -0.5000000 )

 cart.    s(21) = ( -0.5000000  0.8660254  0.0000000 )    f =(  0.0000000 )
                  (  0.8660254  0.5000000  0.0000000 )       ( -0.0000000 )
                  (  0.0000000  0.0000000  1.0000000 )       ( -0.8150000 )


      isym = 22     inv. 180 deg rotation - cryst. axis [2,1,0]  

 cryst.   s(22) = (    -1         -1          0      )    f =(  0.0000000 )
                  (     0          1          0      )       ( -0.0000000 )
                  (     0          0          1      )       ( -0.5000000 )

 cart.    s(22) = ( -0.5000000 -0.8660254  0.0000000 )    f =(  0.0000000 )
                  ( -0.8660254  0.5000000  0.0000000 )       ( -0.0000000 )
                  (  0.0000000  0.0000000  1.0000000 )       ( -0.8150000 )


      isym = 23     inv. 180 deg rotation - cryst. axis [0,1,0]  

 cryst.   s(23) = (     1          1          0      )
                  (     0         -1          0      )
                  (     0          0          1      )

 cart.    s(23) = (  0.5000000  0.8660254  0.0000000 )
                  (  0.8660254 -0.5000000  0.0000000 )
                  (  0.0000000  0.0000000  1.0000000 )


      isym = 24     inv. 180 deg rotation - cryst. axis [1,1,0]  

 cryst.   s(24) = (     0         -1          0      )
                  (    -1          0          0      )
                  (     0          0          1      )

 cart.    s(24) = (  0.5000000 -0.8660254  0.0000000 )
                  ( -0.8660254 -0.5000000  0.0000000 )
                  (  0.0000000  0.0000000  1.0000000 )


     point group D_6h(6/mmm)
     there are 12 classes
     the character table:

       E     2C6   2C3   C2    3C2'  3C2'' i     2S3   2S6   s_h   3s_d  3s_v 
A_1g   1.00  1.00  1.00  1.00  1.00  1.00  1.00  1.00  1.00  1.00  1.00  1.00
A_2g   1.00  1.00  1.00  1.00 -1.00 -1.00  1.00  1.00  1.00  1.00 -1.00 -1.00
B_1g   1.00 -1.00  1.00 -1.00  1.00 -1.00  1.00 -1.00  1.00 -1.00  1.00 -1.00
B_2g   1.00 -1.00  1.00 -1.00 -1.00  1.00  1.00 -1.00  1.00 -1.00 -1.00  1.00
E_1g   2.00  1.00 -1.00 -2.00  0.00  0.00  2.00  1.00 -1.00 -2.00  0.00  0.00
E_2g   2.00 -1.00 -1.00  2.00  0.00  0.00  2.00 -1.00 -1.00  2.00  0.00  0.00
A_1u   1.00  1.00  1.00  1.00  1.00  1.00 -1.00 -1.00 -1.00 -1.00 -1.00 -1.00
A_2u   1.00  1.00  1.00  1.00 -1.00 -1.00 -1.00 -1.00 -1.00 -1.00  1.00  1.00
B_1u   1.00 -1.00  1.00 -1.00  1.00 -1.00 -1.00  1.00 -1.00  1.00 -1.00  1.00
B_2u   1.00 -1.00  1.00 -1.00 -1.00  1.00 -1.00  1.00 -1.00  1.00  1.00 -1.00
E_1u   2.00  1.00 -1.00 -2.00  0.00  0.00 -2.00 -1.00  1.00  2.00  0.00  0.00
E_2u   2.00 -1.00 -1.00  2.00  0.00  0.00 -2.00  1.00  1.00 -2.00  0.00  0.00

     the symmetry operations in each class and the name of the first element:

     E        1
          identity                                               
     2C6      5    6
           60 deg rotation - cryst. axis [0,0,1]                 
     2C3      7    8
          120 deg rotation - cryst. axis [0,0,1]                 
     C2       2
          180 deg rotation - cart. axis [0,0,1]                  
     3C2'     4   12   11
          180 deg rotation - cart. axis [1,0,0]                  
     3C2''    3    9   10
          180 deg rotation - cart. axis [0,1,0]                  
     i       13
          inversion                                              
     2S3     17   18
          inv.  60 deg rotation - cryst. axis [0,0,1]            
     2S6     19   20
          inv. 120 deg rotation - cryst. axis [0,0,1]            
     s_h     14
          inv. 180 deg rotation - cart. axis [0,0,1]             
     3s_d    16   24   23
          inv. 180 deg rotation - cart. axis [1,0,0]             
     3s_v    15   21   22
          inv. 180 deg rotation - cart. axis [0,1,0]             

   Cartesian axes

     site n.     atom                  positions (alat units)
         1           Co  tau(   1) = (  -0.0000000   0.5773503   0.4075000  )
         2           Co  tau(   2) = (   0.5000000   0.2886751   1.2225000  )

   Crystallographic axes

     site n.     atom                  positions (cryst. coord.)
         1           Co  tau(   1) = (  0.3333333  0.6666667  0.2500000  )
         2           Co  tau(   2) = (  0.6666667  0.3333333  0.7500000  )

     number of k points=    76  Gaussian smearing, width (Ry)=  0.0010
                       cart. coord. in units 2pi/alat
        k(    1) = (   0.0000000   0.0000000   0.0000000), wk =   0.0011574
        k(    2) = (   0.0000000   0.0000000   0.1022495), wk =   0.0023148
        k(    3) = (   0.0000000   0.0000000   0.2044990), wk =   0.0023148
        k(    4) = (   0.0000000   0.0000000  -0.3067485), wk =   0.0011574
        k(    5) = (   0.0000000   0.0962250   0.0000000), wk =   0.0069444
        k(    6) = (   0.0000000   0.0962250   0.1022495), wk =   0.0138889
        k(    7) = (   0.0000000   0.0962250   0.2044990), wk =   0.0138889
        k(    8) = (   0.0000000   0.0962250  -0.3067485), wk =   0.0069444
        k(    9) = (   0.0000000   0.1924501   0.0000000), wk =   0.0069444
        k(   10) = (   0.0000000   0.1924501   0.1022495), wk =   0.0138889
        k(   11) = (   0.0000000   0.1924501   0.2044990), wk =   0.0138889
        k(   12) = (   0.0000000   0.1924501  -0.3067485), wk =   0.0069444
        k(   13) = (   0.0000000   0.2886751   0.0000000), wk =   0.0069444
        k(   14) = (   0.0000000   0.2886751   0.1022495), wk =   0.0138889
        k(   15) = (   0.0000000   0.2886751   0.2044990), wk =   0.0138889
        k(   16) = (   0.0000000   0.2886751  -0.3067485), wk =   0.0069444
        k(   17) = (   0.0000000   0.3849002   0.0000000), wk =   0.0069444
        k(   18) = (   0.0000000   0.3849002   0.1022495), wk =   0.0138889
        k(   19) = (   0.0000000   0.3849002   0.2044990), wk =   0.0138889
        k(   20) = (   0.0000000   0.3849002  -0.3067485), wk =   0.0069444
        k(   21) = (   0.0000000   0.4811252   0.0000000), wk =   0.0069444
        k(   22) = (   0.0000000   0.4811252   0.1022495), wk =   0.0138889
        k(   23) = (   0.0000000   0.4811252   0.2044990), wk =   0.0138889
        k(   24) = (   0.0000000   0.4811252  -0.3067485), wk =   0.0069444
        k(   25) = (   0.0000000  -0.5773503   0.0000000), wk =   0.0034722
        k(   26) = (   0.0000000  -0.5773503   0.1022495), wk =   0.0069444
        k(   27) = (   0.0000000  -0.5773503   0.2044990), wk =   0.0069444
        k(   28) = (   0.0000000  -0.5773503  -0.3067485), wk =   0.0034722
        k(   29) = (   0.0833333   0.1443376   0.0000000), wk =   0.0069444
        k(   30) = (   0.0833333   0.1443376   0.1022495), wk =   0.0138889
        k(   31) = (   0.0833333   0.1443376   0.2044990), wk =   0.0138889
        k(   32) = (   0.0833333   0.1443376  -0.3067485), wk =   0.0069444
        k(   33) = (   0.0833333   0.2405626   0.0000000), wk =   0.0138889
        k(   34) = (   0.0833333   0.2405626   0.1022495), wk =   0.0277778
        k(   35) = (   0.0833333   0.2405626   0.2044990), wk =   0.0277778
        k(   36) = (   0.0833333   0.2405626  -0.3067485), wk =   0.0138889
        k(   37) = (   0.0833333   0.3367877   0.0000000), wk =   0.0138889
        k(   38) = (   0.0833333   0.3367877   0.1022495), wk =   0.0277778
        k(   39) = (   0.0833333   0.3367877   0.2044990), wk =   0.0277778
        k(   40) = (   0.0833333   0.3367877  -0.3067485), wk =   0.0138889
        k(   41) = (   0.0833333   0.4330127   0.0000000), wk =   0.0138889
        k(   42) = (   0.0833333   0.4330127   0.1022495), wk =   0.0277778
        k(   43) = (   0.0833333   0.4330127   0.2044990), wk =   0.0277778
        k(   44) = (   0.0833333   0.4330127  -0.3067485), wk =   0.0138889
        k(   45) = (   0.0833333   0.5292377   0.0000000), wk =   0.0138889
        k(   46) = (   0.0833333   0.5292377   0.1022495), wk =   0.0277778
        k(   47) = (   0.0833333   0.5292377   0.2044990), wk =   0.0277778
        k(   48) = (   0.0833333   0.5292377  -0.3067485), wk =   0.0138889
        k(   49) = (   0.1666667   0.2886751   0.0000000), wk =   0.0069444
        k(   50) = (   0.1666667   0.2886751   0.1022495), wk =   0.0138889
        k(   51) = (   0.1666667   0.2886751   0.2044990), wk =   0.0138889
        k(   52) = (   0.1666667   0.2886751  -0.3067485), wk =   0.0069444
        k(   53) = (   0.1666667   0.3849002   0.0000000), wk =   0.0138889
        k(   54) = (   0.1666667   0.3849002   0.1022495), wk =   0.0277778
        k(   55) = (   0.1666667   0.3849002   0.2044990), wk =   0.0277778
        k(   56) = (   0.1666667   0.3849002  -0.3067485), wk =   0.0138889
        k(   57) = (   0.1666667   0.4811252   0.0000000), wk =   0.0138889
        k(   58) = (   0.1666667   0.4811252   0.1022495), wk =   0.0277778
        k(   59) = (   0.1666667   0.4811252   0.2044990), wk =   0.0277778
        k(   60) = (   0.1666667   0.4811252  -0.3067485), wk =   0.0138889
        k(   61) = (   0.1666667   0.5773503   0.0000000), wk =   0.0069444
        k(   62) = (   0.1666667   0.5773503   0.1022495), wk =   0.0138889
        k(   63) = (   0.1666667   0.5773503   0.2044990), wk =   0.0138889
        k(   64) = (   0.1666667   0.5773503  -0.3067485), wk =   0.0069444
        k(   65) = (   0.2500000   0.4330127   0.0000000), wk =   0.0069444
        k(   66) = (   0.2500000   0.4330127   0.1022495), wk =   0.0138889
        k(   67) = (   0.2500000   0.4330127   0.2044990), wk =   0.0138889
        k(   68) = (   0.2500000   0.4330127  -0.3067485), wk =   0.0069444
        k(   69) = (   0.2500000   0.5292377   0.0000000), wk =   0.0138889
        k(   70) = (   0.2500000   0.5292377   0.1022495), wk =   0.0277778
        k(   71) = (   0.2500000   0.5292377   0.2044990), wk =   0.0277778
        k(   72) = (   0.2500000   0.5292377  -0.3067485), wk =   0.0138889
        k(   73) = (   0.3333333   0.5773503   0.0000000), wk =   0.0023148
        k(   74) = (   0.3333333   0.5773503   0.1022495), wk =   0.0046296
        k(   75) = (   0.3333333   0.5773503   0.2044990), wk =   0.0046296
        k(   76) = (   0.3333333   0.5773503  -0.3067485), wk =   0.0023148

                       cryst. coord.
        k(    1) = (   0.0000000   0.0000000   0.0000000), wk =   0.0011574
        k(    2) = (   0.0000000   0.0000000   0.1666667), wk =   0.0023148
        k(    3) = (   0.0000000   0.0000000   0.3333333), wk =   0.0023148
        k(    4) = (   0.0000000   0.0000000  -0.5000000), wk =   0.0011574
        k(    5) = (   0.0000000   0.0833333   0.0000000), wk =   0.0069444
        k(    6) = (   0.0000000   0.0833333   0.1666667), wk =   0.0138889
        k(    7) = (   0.0000000   0.0833333   0.3333333), wk =   0.0138889
        k(    8) = (   0.0000000   0.0833333  -0.5000000), wk =   0.0069444
        k(    9) = (   0.0000000   0.1666667   0.0000000), wk =   0.0069444
        k(   10) = (   0.0000000   0.1666667   0.1666667), wk =   0.0138889
        k(   11) = (   0.0000000   0.1666667   0.3333333), wk =   0.0138889
        k(   12) = (   0.0000000   0.1666667  -0.5000000), wk =   0.0069444
        k(   13) = (   0.0000000   0.2500000   0.0000000), wk =   0.0069444
        k(   14) = (   0.0000000   0.2500000   0.1666667), wk =   0.0138889
        k(   15) = (   0.0000000   0.2500000   0.3333333), wk =   0.0138889
        k(   16) = (   0.0000000   0.2500000  -0.5000000), wk =   0.0069444
        k(   17) = (   0.0000000   0.3333333   0.0000000), wk =   0.0069444
        k(   18) = (   0.0000000   0.3333333   0.1666667), wk =   0.0138889
        k(   19) = (   0.0000000   0.3333333   0.3333333), wk =   0.0138889
        k(   20) = (   0.0000000   0.3333333  -0.5000000), wk =   0.0069444
        k(   21) = (   0.0000000   0.4166667   0.0000000), wk =   0.0069444
        k(   22) = (   0.0000000   0.4166667   0.1666667), wk =   0.0138889
        k(   23) = (   0.0000000   0.4166667   0.3333333), wk =   0.0138889
        k(   24) = (   0.0000000   0.4166667  -0.5000000), wk =   0.0069444
        k(   25) = (   0.0000000  -0.5000000   0.0000000), wk =   0.0034722
        k(   26) = (   0.0000000  -0.5000000   0.1666667), wk =   0.0069444
        k(   27) = (   0.0000000  -0.5000000   0.3333333), wk =   0.0069444
        k(   28) = (   0.0000000  -0.5000000  -0.5000000), wk =   0.0034722
        k(   29) = (   0.0833333   0.0833333   0.0000000), wk =   0.0069444
        k(   30) = (   0.0833333   0.0833333   0.1666667), wk =   0.0138889
        k(   31) = (   0.0833333   0.0833333   0.3333333), wk =   0.0138889
        k(   32) = (   0.0833333   0.0833333  -0.5000000), wk =   0.0069444
        k(   33) = (   0.0833333   0.1666667   0.0000000), wk =   0.0138889
        k(   34) = (   0.0833333   0.1666667   0.1666667), wk =   0.0277778
        k(   35) = (   0.0833333   0.1666667   0.3333333), wk =   0.0277778
        k(   36) = (   0.0833333   0.1666667  -0.5000000), wk =   0.0138889
        k(   37) = (   0.0833333   0.2500000   0.0000000), wk =   0.0138889
        k(   38) = (   0.0833333   0.2500000   0.1666667), wk =   0.0277778
        k(   39) = (   0.0833333   0.2500000   0.3333333), wk =   0.0277778
        k(   40) = (   0.0833333   0.2500000  -0.5000000), wk =   0.0138889
        k(   41) = (   0.0833333   0.3333333   0.0000000), wk =   0.0138889
        k(   42) = (   0.0833333   0.3333333   0.1666667), wk =   0.0277778
        k(   43) = (   0.0833333   0.3333333   0.3333333), wk =   0.0277778
        k(   44) = (   0.0833333   0.3333333  -0.5000000), wk =   0.0138889
        k(   45) = (   0.0833333   0.4166667   0.0000000), wk =   0.0138889
        k(   46) = (   0.0833333   0.4166667   0.1666667), wk =   0.0277778
        k(   47) = (   0.0833333   0.4166667   0.3333333), wk =   0.0277778
        k(   48) = (   0.0833333   0.4166667  -0.5000000), wk =   0.0138889
        k(   49) = (   0.1666667   0.1666667   0.0000000), wk =   0.0069444
        k(   50) = (   0.1666667   0.1666667   0.1666667), wk =   0.0138889
        k(   51) = (   0.1666667   0.1666667   0.3333333), wk =   0.0138889
        k(   52) = (   0.1666667   0.1666667  -0.5000000), wk =   0.0069444
        k(   53) = (   0.1666667   0.2500000   0.0000000), wk =   0.0138889
        k(   54) = (   0.1666667   0.2500000   0.1666667), wk =   0.0277778
        k(   55) = (   0.1666667   0.2500000   0.3333333), wk =   0.0277778
        k(   56) = (   0.1666667   0.2500000  -0.5000000), wk =   0.0138889
        k(   57) = (   0.1666667   0.3333333   0.0000000), wk =   0.0138889
        k(   58) = (   0.1666667   0.3333333   0.1666667), wk =   0.0277778
        k(   59) = (   0.1666667   0.3333333   0.3333333), wk =   0.0277778
        k(   60) = (   0.1666667   0.3333333  -0.5000000), wk =   0.0138889
        k(   61) = (   0.1666667   0.4166667   0.0000000), wk =   0.0069444
        k(   62) = (   0.1666667   0.4166667   0.1666667), wk =   0.0138889
        k(   63) = (   0.1666667   0.4166667   0.3333333), wk =   0.0138889
        k(   64) = (   0.1666667   0.4166667  -0.5000000), wk =   0.0069444
        k(   65) = (   0.2500000   0.2500000   0.0000000), wk =   0.0069444
        k(   66) = (   0.2500000   0.2500000   0.1666667), wk =   0.0138889
        k(   67) = (   0.2500000   0.2500000   0.3333333), wk =   0.0138889
        k(   68) = (   0.2500000   0.2500000  -0.5000000), wk =   0.0069444
        k(   69) = (   0.2500000   0.3333333   0.0000000), wk =   0.0138889
        k(   70) = (   0.2500000   0.3333333   0.1666667), wk =   0.0277778
        k(   71) = (   0.2500000   0.3333333   0.3333333), wk =   0.0277778
        k(   72) = (   0.2500000   0.3333333  -0.5000000), wk =   0.0138889
        k(   73) = (   0.3333333   0.3333333   0.0000000), wk =   0.0023148
        k(   74) = (   0.3333333   0.3333333   0.1666667), wk =   0.0046296
        k(   75) = (   0.3333333   0.3333333   0.3333333), wk =   0.0046296
        k(   76) = (   0.3333333   0.3333333  -0.5000000), wk =   0.0023148

     Dense  grid:    23787 G-vectors     FFT dimensions: (  32,  32,  54)

     Smooth grid:    22995 G-vectors     FFT dimensions: (  32,  32,  54)

     Dynamical RAM for                 wfc:       0.05 MB

     Dynamical RAM for     wfc (w. buffer):       7.01 MB

     Dynamical RAM for           str. fact:       0.02 MB

     Dynamical RAM for           local pot:       0.00 MB

     Dynamical RAM for          nlocal pot:       0.08 MB

     Dynamical RAM for                qrad:       1.70 MB

     Dynamical RAM for          rho,v,vnew:       0.25 MB

     Dynamical RAM for               rhoin:       0.08 MB

     Dynamical RAM for            rho*nmix:       0.58 MB

     Dynamical RAM for           G-vectors:       0.08 MB

     Dynamical RAM for          h,s,v(r/c):       0.08 MB

     Dynamical RAM for          <psi|beta>:       0.01 MB

     Dynamical RAM for                 psi:       0.09 MB

     Dynamical RAM for                hpsi:       0.09 MB

     Dynamical RAM for                spsi:       0.09 MB

     Dynamical RAM for      wfcinit/wfcrot:       0.10 MB

     Dynamical RAM for           addusdens:       3.44 MB

     Estimated static dynamical RAM per process >       9.40 MB

     Estimated max dynamical RAM per process >      13.42 MB

     Estimated total dynamical RAM >     268.47 MB

     Check: negative core charge=   -0.000042
     Generating pointlists ...
     new r_m :   0.4120 (alat units)  1.9405 (a.u.) for type    1

     The initial density is read from file :
     ./out/Co.save/charge-density

     Starting wfcs from file
     Checking if some PAW data can be deallocated... 

     total cpu time spent up to now is        0.6 secs

     Self-consistent Calculation

     iteration #  1     ecut=   110.00 Ry     beta= 0.70
     Davidson diagonalization with overlap

---- Real-time Memory Report at c_bands before calling an iterative solver
            57 MiB given to the printing process from OS
             0 MiB allocation reported by mallinfo(arena+hblkhd)
        314742 MiB available memory on the node where the printing process lives
------------------
     ethr =  1.00E-05,  avg # of iterations =  1.0

     Threshold (ethr) on eigenvalues was too large:
     Diagonalizing with lowered threshold

     Davidson diagonalization with overlap

---- Real-time Memory Report at c_bands before calling an iterative solver
            63 MiB given to the printing process from OS
             0 MiB allocation reported by mallinfo(arena+hblkhd)
        314609 MiB available memory on the node where the printing process lives
------------------
     ethr =  1.16E-10,  avg # of iterations = 14.1
 
     Magnetic moment per site  (integrated on atomic sphere of radius R)
     atom   1 (R=0.412)  charge= 15.6075  magn=  1.7543
     atom   2 (R=0.412)  charge= 15.6075  magn=  1.7543

     total cpu time spent up to now is        6.0 secs

     End of self-consistent calculation

 ------ SPIN UP ------------


          k = 0.0000 0.0000 0.0000 (  2875 PWs)   bands (ev):

   -77.6184 -77.5655 -41.0164 -40.7255 -40.7255 -40.7043 -40.6811 -40.6811
     9.5627  13.3459  15.8320  15.9047  15.9047  16.2057  16.2057  16.5634
    16.5634  17.6283  17.6283  18.1993  24.6310

     occupation numbers 
     1.0000   1.0000   1.0000   1.0000   1.0000   1.0000   1.0000   1.0000
     1.0000   1.0000   1.0000   1.0000   1.0000   1.0000   1.0000   1.0000
     1.0000   1.0000   1.0000   1.0000   0.0000

          k = 0.0000 0.0000 0.1022 (  2863 PWs)   bands (ev):

   -77.6148 -77.5691 -40.9958 -40.7255 -40.7225 -40.7225 -40.6841 -40.6841
     9.8354  13.2715  15.7640  15.8446  15.8446  16.1358  16.1358  16.7183
    16.7183  17.2598  17.6110  17.6110  26.1351

     occupation numbers 
     1.0000   1.0000   1.0000   1.0000   1.0000   1.0000   1.0000   1.0000
     1.0000   1.0000   1.0000   1.0000   1.0000   1.0000   1.0000   1.0000
     1.0000   1.0000   1.0000   1.0000   0.0000

          k = 0.0000 0.0000 0.2045 (  2888 PWs)   bands (ev):

   -77.6052 -77.5788 -40.9392 -40.7831 -40.7144 -40.7144 -40.6922 -40.6922
    10.6179  12.8222  15.6072  15.7932  15.7932  15.9719  15.9812  15.9812
    17.0267  17.0267  17.5236  17.5236  29.3132

     occupation numbers 
     1.0000   1.0000   1.0000   1.0000   1.0000   1.0000   1.0000   1.0000
     1.0000   1.0000   1.0000   1.0000   1.0000   1.0000   1.0000   1.0000
     1.0000   1.0000   1.0000   1.0000   0.0000

          k = 0.0000 0.0000-0.3067 (  2846 PWs)   bands (ev):

   -77.5920 -77.5920 -40.8614 -40.8614 -40.7033 -40.7033 -40.7033 -40.7033
    11.7606  11.7606  15.5334  15.5334  15.8431  15.8431  15.8431  15.8431
    17.3230  17.3230  17.3230  17.3230  33.1108

     occupation numbers 
     1.0000   1.0000   1.0000   1.0000   1.0000   1.0000   1.0000   1.0000
     1.0000   1.0000   1.0000   1.0000   1.0000   1.0000   1.0000   1.0000
     1.0000   1.0000   1.0000   1.0000   0.0000

          k = 0.0000 0.0962 0.0000 (  2853 PWs)   bands (ev):

   -77.6153 -77.5640 -41.0095 -40.7411 -40.7306 -40.7070 -40.6972 -40.6838
     9.8044  13.4924  15.6557  16.0181  16.0463  16.1563  16.3065  16.4014
    16.4935  16.8257  17.6571  19.3271  24.6716

     occupation numbers 
     1.0000   1.0000   1.0000   1.0000   1.0000   1.0000   1.0000   1.0000
     1.0000   1.0000   1.0000   1.0000   1.0000   1.0000   1.0000   1.0000
     1.0000   1.0000   1.0000   0.0000   0.0000

          k = 0.0000 0.0962 0.1022 (  2866 PWs)   bands (ev):

   -77.6118 -77.5675 -40.9900 -40.7378 -40.7315 -40.7274 -40.6961 -40.6869
    10.0729  13.4325  15.6549  15.8799  15.9422  15.9785  16.2308  16.5039
    16.6740  16.7457  17.6327  18.5668  26.2452

     occupation numbers 
     1.0000   1.0000   1.0000   1.0000   1.0000   1.0000   1.0000   1.0000
     1.0000   1.0000   1.0000   1.0000   1.0000   1.0000   1.0000   1.0000
     1.0000   1.0000   1.0000   0.0000   0.0000

          k = 0.0000 0.0962 0.2045 (  2874 PWs)   bands (ev):

   -77.6025 -77.5769 -40.9365 -40.7882 -40.7283 -40.7189 -40.7034 -40.6955
    10.8431  13.0111  15.5435  15.5912  15.7145  15.8837  16.0748  16.1233
    17.0012  17.0441  17.5293  17.8178  29.4680

     occupation numbers 
     1.0000   1.0000   1.0000   1.0000   1.0000   1.0000   1.0000   1.0000
     1.0000   1.0000   1.0000   1.0000   1.0000   1.0000   1.0000   1.0000
     1.0000   1.0000   1.0000   1.0000   0.0000

          k = 0.0000 0.0962-0.3067 (  2864 PWs)   bands (ev):

   -77.5897 -77.5897 -40.8628 -40.8628 -40.7156 -40.7156 -40.7072 -40.7072
    11.9676  11.9676  15.3972  15.3972  15.8488  15.8488  15.9349  15.9349
    17.3119  17.3119  17.4126  17.4126  33.2804

     occupation numbers 
     1.0000   1.0000   1.0000   1.0000   1.0000   1.0000   1.0000   1.0000
     1.0000   1.0000   1.0000   1.0000   1.0000   1.0000   1.0000   1.0000
     1.0000   1.0000   1.0000   1.0000   0.0000

          k = 0.0000 0.1925 0.0000 (  2861 PWs)   bands (ev):

   -77.6066 -77.5601 -40.9900 -40.7838 -40.7440 -40.7409 -40.7153 -40.6913
    10.5035  13.8555  15.3949  15.6568  15.9751  16.3209  16.3381  16.3452
    16.4909  16.5890  17.7179  20.9069  24.8149

     occupation numbers 
     1.0000   1.0000   1.0000   1.0000   1.0000   1.0000   1.0000   1.0000
     1.0000   1.0000   1.0000   1.0000   1.0000   1.0000   1.0000   1.0000
     1.0000   1.0000   1.0000   0.0000   0.0000

          k = 0.0000 0.1925 0.1022 (  2860 PWs)   bands (ev):

   -77.6035 -77.5632 -40.9742 -40.7791 -40.7603 -40.7405 -40.7166 -40.6948
    10.7564  13.8398  15.3893  15.4351  15.8563  16.1539  16.2347  16.4775
    16.6529  16.7322  17.6780  19.7841  26.6033

     occupation numbers 
     1.0000   1.0000   1.0000   1.0000   1.0000   1.0000   1.0000   1.0000
     1.0000   1.0000   1.0000   1.0000   1.0000   1.0000   1.0000   1.0000
     1.0000   1.0000   1.0000   0.0000   0.0000

          k = 0.0000 0.1925 0.2045 (  2870 PWs)   bands (ev):

   -77.5950 -77.5717 -40.9308 -40.8095 -40.7636 -40.7309 -40.7272 -40.7045
    11.4783  13.5005  15.0578  15.4921  15.5796  16.0626  16.1049  16.3338
    16.9746  17.1268  17.5413  18.4534  29.9312

     occupation numbers 
     1.0000   1.0000   1.0000   1.0000   1.0000   1.0000   1.0000   1.0000
     1.0000   1.0000   1.0000   1.0000   1.0000   1.0000   1.0000   1.0000
     1.0000   1.0000   1.0000   1.0000   0.0000

          k = 0.0000 0.1925-0.3067 (  2876 PWs)   bands (ev):

   -77.5834 -77.5834 -40.8708 -40.8708 -40.7449 -40.7449 -40.7177 -40.7177
    12.5256  12.5256  15.1750  15.1750  15.7867  15.7867  16.1793  16.1793
    17.2961  17.2961  17.6542  17.6542  33.7462

     occupation numbers 
     1.0000   1.0000   1.0000   1.0000   1.0000   1.0000   1.0000   1.0000
     1.0000   1.0000   1.0000   1.0000   1.0000   1.0000   1.0000   1.0000
     1.0000   1.0000   1.0000   1.0000   0.0000

          k = 0.0000 0.2887 0.0000 (  2860 PWs)   bands (ev):

   -77.5944 -77.5551 -40.9608 -40.8426 -40.7995 -40.7619 -40.7291 -40.7021
    11.5621  14.1479  14.9417  15.2367  15.8731  16.1134  16.2888  16.7731
    16.8024  16.9950  17.7744  22.6863  25.0953

     occupation numbers 
     1.0000   1.0000   1.0000   1.0000   1.0000   1.0000   1.0000   1.0000
     1.0000   1.0000   1.0000   1.0000   1.0000   1.0000   1.0000   1.0000
     1.0000   1.0000   1.0000   0.0000   0.0000

          k = 0.0000 0.2887 0.1022 (  2859 PWs)   bands (ev):

   -77.5917 -77.5577 -40.9533 -40.8338 -40.8132 -40.7579 -40.7319 -40.7061
    11.7729  14.1855  14.8020  15.2876  15.7257  16.1518  16.2897  16.8430
    16.8960  16.9524  17.7211  21.0521  27.2477

     occupation numbers 
     1.0000   1.0000   1.0000   1.0000   1.0000   1.0000   1.0000   1.0000
     1.0000   1.0000   1.0000   1.0000   1.0000   1.0000   1.0000   1.0000
     1.0000   1.0000   1.0000   0.0000   0.0000

          k = 0.0000 0.2887 0.2045 (  2872 PWs)   bands (ev):

   -77.5846 -77.5649 -40.9308 -40.8540 -40.8026 -40.7470 -40.7452 -40.7170
    12.3601  13.9366  14.7319  15.3102  15.6062  16.1349  16.2724  16.6979
    17.0975  17.2818  17.5672  19.2182  30.5847

     occupation numbers 
     1.0000   1.0000   1.0000   1.0000   1.0000   1.0000   1.0000   1.0000
     1.0000   1.0000   1.0000   1.0000   1.0000   1.0000   1.0000   1.0000
     1.0000   1.0000   1.0000   0.0000   0.0000

          k = 0.0000 0.2887-0.3067 (  2876 PWs)   bands (ev):

   -77.5747 -77.5747 -40.8952 -40.8952 -40.7712 -40.7712 -40.7320 -40.7320
    13.1744  13.1744  15.0222  15.0222  15.8465  15.8465  16.4689  16.4689
    17.3403  17.3403  17.9946  17.9946  32.8245

     occupation numbers 
     1.0000   1.0000   1.0000   1.0000   1.0000   1.0000   1.0000   1.0000
     1.0000   1.0000   1.0000   1.0000   1.0000   1.0000   1.0000   1.0000
     1.0000   1.0000   1.0000   1.0000   0.0000

          k = 0.0000 0.3849 0.0000 (  2876 PWs)   bands (ev):

   -77.5813 -77.5509 -40.9266 -40.9018 -40.8572 -40.7793 -40.7479 -40.7132
    12.7200  14.0819  14.4274  15.3461  15.9262  15.9935  16.1046  17.2976
    17.4346  17.4608  17.8123  24.6276  25.2017

     occupation numbers 
     1.0000   1.0000   1.0000   1.0000   1.0000   1.0000   1.0000   1.0000
     1.0000   1.0000   1.0000   1.0000   1.0000   1.0000   1.0000   1.0000
     1.0000   1.0000   1.0000   0.0000   0.0000

          k = 0.0000 0.3849 0.1022 (  2874 PWs)   bands (ev):

   -77.5792 -77.5530 -40.9437 -40.8803 -40.8616 -40.7749 -40.7480 -40.7176
    12.8183  14.1074  14.4634  15.1969  15.9241  16.0165  16.4496  17.3122
    17.3452  17.3976  17.7645  22.2884  27.3943

     occupation numbers 
     1.0000   1.0000   1.0000   1.0000   1.0000   1.0000   1.0000   1.0000
     1.0000   1.0000   1.0000   1.0000   1.0000   1.0000   1.0000   1.0000
     1.0000   1.0000   1.0000   0.0000   0.0000

          k = 0.0000 0.3849 0.2045 (  2871 PWs)   bands (ev):

   -77.5737 -77.5585 -40.9496 -40.9062 -40.8213 -40.7629 -40.7565 -40.7298
    13.0940  13.9221  14.6068  15.1032  16.0340  16.2713  16.7607  17.0308
    17.4152  17.5087  17.6577  20.1041  28.5246

     occupation numbers 
     1.0000   1.0000   1.0000   1.0000   1.0000   1.0000   1.0000   1.0000
     1.0000   1.0000   1.0000   1.0000   1.0000   1.0000   1.0000   1.0000
     1.0000   1.0000   1.0000   0.0000   0.0000

          k = 0.0000 0.3849-0.3067 (  2878 PWs)   bands (ev):

   -77.5661 -77.5661 -40.9352 -40.9352 -40.7816 -40.7816 -40.7463 -40.7463
    13.4963  13.4963  14.8913  14.8913  16.4451  16.4451  16.6393  16.6393
    17.5326  17.5326  18.4746  18.4746  29.6302

     occupation numbers 
     1.0000   1.0000   1.0000   1.0000   1.0000   1.0000   1.0000   1.0000
     1.0000   1.0000   1.0000   1.0000   1.0000   1.0000   1.0000   1.0000
     1.0000   1.0000   0.9989   0.9989   0.0000

          k = 0.0000 0.4811 0.0000 (  2882 PWs)   bands (ev):

   -77.5706 -77.5490 -40.9455 -40.8988 -40.8950 -40.7919 -40.7682 -40.7215
    13.4845  13.8947  14.1211  15.7007  15.7983  15.9739  16.1985  17.6684
    17.7978  17.8320  18.5751  23.4489  26.6346

     occupation numbers 
     1.0000   1.0000   1.0000   1.0000   1.0000   1.0000   1.0000   1.0000
     1.0000   1.0000   1.0000   1.0000   1.0000   1.0000   1.0000   1.0000
     1.0000   1.0000   0.0000   0.0000   0.0000

          k = 0.0000 0.4811 0.1022 (  2880 PWs)   bands (ev):

   -77.5691 -77.5504 -40.9634 -40.9153 -40.8641 -40.7872 -40.7646 -40.7262
    13.3773  13.8877  14.4285  15.0891  15.9084  16.2040  16.8054  17.5889
    17.6975  17.8559  18.4181  22.6546  25.9901

     occupation numbers 
     1.0000   1.0000   1.0000   1.0000   1.0000   1.0000   1.0000   1.0000
     1.0000   1.0000   1.0000   1.0000   1.0000   1.0000   1.0000   1.0000
     1.0000   1.0000   1.0000   0.0000   0.0000

          k = 0.0000 0.4811 0.2045 (  2874 PWs)   bands (ev):

   -77.5652 -77.5544 -40.9771 -40.9456 -40.8191 -40.7744 -40.7654 -40.7391
    13.3455  13.8131  14.5916  14.9059  16.2205  16.4588  17.1819  17.7297
    17.7520  17.8293  18.1124  20.9471  26.1435

     occupation numbers 
     1.0000   1.0000   1.0000   1.0000   1.0000   1.0000   1.0000   1.0000
     1.0000   1.0000   1.0000   1.0000   1.0000   1.0000   1.0000   1.0000
     1.0000   1.0000   1.0000   0.0000   0.0000

          k = 0.0000 0.4811-0.3067 (  2872 PWs)   bands (ev):

   -77.5598 -77.5598 -40.9702 -40.9702 -40.7833 -40.7833 -40.7568 -40.7568
    13.5263  13.5263  14.7685  14.7685  16.6784  16.6784  17.1611  17.1611
    17.7804  17.7804  19.3128  19.3128  26.9169

     occupation numbers 
     1.0000   1.0000   1.0000   1.0000   1.0000   1.0000   1.0000   1.0000
     1.0000   1.0000   1.0000   1.0000   1.0000   1.0000   1.0000   1.0000
     1.0000   1.0000   0.0000   0.0000   0.0000

          k = 0.0000-0.5774 0.0000 (  2878 PWs)   bands (ev):

   -77.5661 -77.5488 -40.9615 -40.9139 -40.8802 -40.7965 -40.7788 -40.7246
    13.7465  13.7515  14.0196  15.7531  15.9266  15.9496  16.2722  17.8026
    17.8379  17.9446  19.7340  21.7347  27.9381

     occupation numbers 
     1.0000   1.0000   1.0000   1.0000   1.0000   1.0000   1.0000   1.0000
     1.0000   1.0000   1.0000   1.0000   1.0000   1.0000   1.0000   1.0000
     1.0000   1.0000   0.0000   0.0000   0.0000

          k = 0.0000-0.5774 0.1022 (  2872 PWs)   bands (ev):

   -77.5649 -77.5500 -40.9756 -40.9295 -40.8561 -40.7917 -40.7731 -40.7294
    13.4782  13.7938  14.4615  15.0608  15.8688  16.2888  17.0067  17.6411
    17.8397  17.9372  19.5291  21.5583  27.0894

     occupation numbers 
     1.0000   1.0000   1.0000   1.0000   1.0000   1.0000   1.0000   1.0000
     1.0000   1.0000   1.0000   1.0000   1.0000   1.0000   1.0000   1.0000
     1.0000   1.0000   0.0000   0.0000   0.0000

          k = 0.0000-0.5774 0.2045 (  2886 PWs)   bands (ev):

   -77.5618 -77.5531 -40.9892 -40.9601 -40.8151 -40.7786 -40.7697 -40.7426
    13.3664  13.7701  14.6179  14.8145  16.1974  16.5990  17.2124  17.8601
    17.8687  17.9168  19.2150  20.9643  26.0589

     occupation numbers 
     1.0000   1.0000   1.0000   1.0000   1.0000   1.0000   1.0000   1.0000
     1.0000   1.0000   1.0000   1.0000   1.0000   1.0000   1.0000   1.0000
     1.0000   1.0000   0.0000   0.0000   0.0000

          k = 0.0000-0.5774-0.3067 (  2880 PWs)   bands (ev):

   -77.5575 -77.5575 -40.9838 -40.9838 -40.7832 -40.7832 -40.7606 -40.7606
    13.5109  13.5109  14.7207  14.7207  16.6804  16.6804  17.3969  17.3969
    17.8885  17.8885  19.9746  19.9746  25.6566

     occupation numbers 
     1.0000   1.0000   1.0000   1.0000   1.0000   1.0000   1.0000   1.0000
     1.0000   1.0000   1.0000   1.0000   1.0000   1.0000   1.0000   1.0000
     1.0000   1.0000   0.0000   0.0000   0.0000

          k = 0.0833 0.1443 0.0000 (  2858 PWs)   bands (ev):

   -77.6094 -77.5613 -40.9964 -40.7676 -40.7466 -40.7208 -40.7125 -40.6909
    10.2757  13.7531  15.4506  15.9011  16.0500  16.1942  16.2494  16.2872
    16.5274  16.6157  17.6916  20.4646  24.7655

     occupation numbers 
     1.0000   1.0000   1.0000   1.0000   1.0000   1.0000   1.0000   1.0000
     1.0000   1.0000   1.0000   1.0000   1.0000   1.0000   1.0000   1.0000
     1.0000   1.0000   1.0000   0.0000   0.0000

          k = 0.0833 0.1443 0.1022 (  2867 PWs)   bands (ev):

   -77.6062 -77.5645 -40.9792 -40.7632 -40.7531 -40.7361 -40.7095 -40.6942
    10.5345  13.7231  15.4778  15.5741  15.9010  16.1072  16.2140  16.3937
    16.6687  16.7286  17.6593  19.4538  26.4813

     occupation numbers 
     1.0000   1.0000   1.0000   1.0000   1.0000   1.0000   1.0000   1.0000
     1.0000   1.0000   1.0000   1.0000   1.0000   1.0000   1.0000   1.0000
     1.0000   1.0000   1.0000   0.0000   0.0000

          k = 0.0833 0.1443 0.2045 (  2868 PWs)   bands (ev):

   -77.5974 -77.5733 -40.9322 -40.8013 -40.7512 -40.7320 -40.7160 -40.7033
    11.2751  13.3567  15.1792  15.5377  15.5914  16.0312  16.0844  16.2539
    17.0033  17.0747  17.5403  18.2692  29.7797

     occupation numbers 
     1.0000   1.0000   1.0000   1.0000   1.0000   1.0000   1.0000   1.0000
     1.0000   1.0000   1.0000   1.0000   1.0000   1.0000   1.0000   1.0000
     1.0000   1.0000   1.0000   1.0000   0.0000

          k = 0.0833 0.1443-0.3067 (  2870 PWs)   bands (ev):

   -77.5854 -77.5854 -40.8674 -40.8674 -40.7360 -40.7360 -40.7149 -40.7149
    12.3536  12.3536  15.2319  15.2319  15.7882  15.7882  16.1150  16.1150
    17.3012  17.3012  17.5788  17.5788  33.6076

     occupation numbers 
     1.0000   1.0000   1.0000   1.0000   1.0000   1.0000   1.0000   1.0000
     1.0000   1.0000   1.0000   1.0000   1.0000   1.0000   1.0000   1.0000
     1.0000   1.0000   1.0000   1.0000   0.0000

          k = 0.0833 0.2406 0.0000 (  2860 PWs)   bands (ev):

   -77.5989 -77.5568 -40.9719 -40.8147 -40.7871 -40.7479 -40.7236 -40.7031
    11.1630  14.1260  15.1862  15.2033  15.9213  16.0619  16.4501  16.4677
    16.6712  16.9423  17.7332  22.0444  24.9981

     occupation numbers 
     1.0000   1.0000   1.0000   1.0000   1.0000   1.0000   1.0000   1.0000
     1.0000   1.0000   1.0000   1.0000   1.0000   1.0000   1.0000   1.0000
     1.0000   1.0000   1.0000   0.0000   0.0000

          k = 0.0833 0.2406 0.1022 (  2863 PWs)   bands (ev):

   -77.5961 -77.5597 -40.9605 -40.8085 -40.7965 -40.7527 -40.7238 -40.7066
    11.3949  14.1547  14.9970  15.2356  15.8054  16.0706  16.2889  16.5903
    16.8561  16.9205  17.6962  20.6154  27.0037

     occupation numbers 
     1.0000   1.0000   1.0000   1.0000   1.0000   1.0000   1.0000   1.0000
     1.0000   1.0000   1.0000   1.0000   1.0000   1.0000   1.0000   1.0000
     1.0000   1.0000   1.0000   0.0000   0.0000

          k = 0.0833 0.2406 0.2045 (  2866 PWs)   bands (ev):

   -77.5884 -77.5674 -40.9285 -40.8350 -40.7866 -40.7523 -40.7305 -40.7163
    12.0506  13.8755  14.8143  15.3405  15.5408  15.9600  16.2495  16.5706
    17.0929  17.1991  17.5784  18.9526  30.3897

     occupation numbers 
     1.0000   1.0000   1.0000   1.0000   1.0000   1.0000   1.0000   1.0000
     1.0000   1.0000   1.0000   1.0000   1.0000   1.0000   1.0000   1.0000
     1.0000   1.0000   1.0000   0.0000   0.0000

          k = 0.0833 0.2406-0.3067 (  2882 PWs)   bands (ev):

   -77.5779 -77.5779 -40.8830 -40.8830 -40.7634 -40.7634 -40.7283 -40.7283
    12.9861  12.9861  15.0798  15.0798  15.6828  15.6828  16.3928  16.3928
    17.3461  17.3461  17.8727  17.8727  34.0227

     occupation numbers 
     1.0000   1.0000   1.0000   1.0000   1.0000   1.0000   1.0000   1.0000
     1.0000   1.0000   1.0000   1.0000   1.0000   1.0000   1.0000   1.0000
     1.0000   1.0000   1.0000   1.0000   0.0000

          k = 0.0833 0.3368 0.0000 (  2868 PWs)   bands (ev):

   -77.5862 -77.5523 -40.9399 -40.8722 -40.8371 -40.7729 -40.7402 -40.7162
    12.3080  14.2490  14.6398  15.1211  15.8742  15.9238  16.2679  16.8588
    17.1715  17.5054  17.7676  23.8673  25.3596

     occupation numbers 
     1.0000   1.0000   1.0000   1.0000   1.0000   1.0000   1.0000   1.0000
     1.0000   1.0000   1.0000   1.0000   1.0000   1.0000   1.0000   1.0000
     1.0000   1.0000   1.0000   0.0000   0.0000

          k = 0.0833 0.3368 0.1022 (  2864 PWs)   bands (ev):

   -77.5839 -77.5546 -40.9422 -40.8611 -40.8428 -40.7730 -40.7399 -40.7196
    12.4701  14.3083  14.5509  15.1667  15.7192  16.0995  16.2415  16.8877
    17.2563  17.3664  17.7809  21.8710  27.7555

     occupation numbers 
     1.0000   1.0000   1.0000   1.0000   1.0000   1.0000   1.0000   1.0000
     1.0000   1.0000   1.0000   1.0000   1.0000   1.0000   1.0000   1.0000
     1.0000   1.0000   1.0000   0.0000   0.0000

          k = 0.0833 0.3368 0.2045 (  2876 PWs)   bands (ev):

   -77.5777 -77.5608 -40.9366 -40.8835 -40.8147 -40.7690 -40.7460 -40.7292
    12.9090  14.0585  14.6645  15.2294  15.6390  16.1118  16.3127  16.8915
    17.3154  17.4781  17.7527  19.8039  30.1528

     occupation numbers 
     1.0000   1.0000   1.0000   1.0000   1.0000   1.0000   1.0000   1.0000
     1.0000   1.0000   1.0000   1.0000   1.0000   1.0000   1.0000   1.0000
     1.0000   1.0000   1.0000   0.0000   0.0000

          k = 0.0833 0.3368-0.3067 (  2880 PWs)   bands (ev):

   -77.5693 -77.5693 -40.9153 -40.9153 -40.7814 -40.7814 -40.7428 -40.7428
    13.4953  13.4953  14.9970  14.9970  15.8589  15.8589  16.5805  16.5805
    17.5494  17.5494  18.3294  18.3294  31.3416

     occupation numbers 
     1.0000   1.0000   1.0000   1.0000   1.0000   1.0000   1.0000   1.0000
     1.0000   1.0000   1.0000   1.0000   1.0000   1.0000   1.0000   1.0000
     1.0000   1.0000   1.0000   1.0000   0.0000

          k = 0.0833 0.4330 0.0000 (  2874 PWs)   bands (ev):

   -77.5741 -77.5494 -40.9232 -40.9061 -40.8807 -40.7927 -40.7607 -40.7276
    13.3188  14.0752  14.2602  15.3483  15.7562  16.0660  16.1150  17.3744
    17.5972  17.7883  18.2978  24.7599  25.8499

     occupation numbers 
     1.0000   1.0000   1.0000   1.0000   1.0000   1.0000   1.0000   1.0000
     1.0000   1.0000   1.0000   1.0000   1.0000   1.0000   1.0000   1.0000
     1.0000   1.0000   1.0000   0.0000   0.0000

          k = 0.0833 0.4330 0.1022 (  2876 PWs)   bands (ev):

   -77.5725 -77.5511 -40.9477 -40.8995 -40.8650 -40.7899 -40.7581 -40.7308
    13.3121  14.0927  14.4119  15.1018  15.8326  16.1493  16.4089  17.3244
    17.6133  17.6555  18.2964  22.9565  26.5382

     occupation numbers 
     1.0000   1.0000   1.0000   1.0000   1.0000   1.0000   1.0000   1.0000
     1.0000   1.0000   1.0000   1.0000   1.0000   1.0000   1.0000   1.0000
     1.0000   1.0000   1.0000   0.0000   0.0000

          k = 0.0833 0.4330 0.2045 (  2875 PWs)   bands (ev):

   -77.5680 -77.5556 -40.9606 -40.9273 -40.8223 -40.7805 -40.7609 -40.7393
    13.3934  13.9604  14.5978  15.0600  15.9386  16.3614  16.7983  17.0733
    17.4938  17.8054  18.3607  20.8285  27.2551

     occupation numbers 
     1.0000   1.0000   1.0000   1.0000   1.0000   1.0000   1.0000   1.0000
     1.0000   1.0000   1.0000   1.0000   1.0000   1.0000   1.0000   1.0000
     1.0000   1.0000   1.0000   0.0000   0.0000

          k = 0.0833 0.4330-0.3067 (  2874 PWs)   bands (ev):

   -77.5618 -77.5618 -40.9522 -40.9522 -40.7895 -40.7895 -40.7537 -40.7537
    13.6337  13.6337  14.8777  14.8777  16.3704  16.3704  16.7538  16.7538
    17.7554  17.7554  19.1787  19.1787  28.2857

     occupation numbers 
     1.0000   1.0000   1.0000   1.0000   1.0000   1.0000   1.0000   1.0000
     1.0000   1.0000   1.0000   1.0000   1.0000   1.0000   1.0000   1.0000
     1.0000   1.0000   0.0000   0.0000   0.0000

          k = 0.0833 0.5292 0.0000 (  2885 PWs)   bands (ev):

   -77.5661 -77.5488 -40.9528 -40.9059 -40.8804 -40.8038 -40.7787 -40.7341
    13.7714  13.9126  14.0709  15.7111  15.7163  15.9260  16.2701  17.7472
    17.7970  17.8223  19.5696  22.5021  27.7461

     occupation numbers 
     1.0000   1.0000   1.0000   1.0000   1.0000   1.0000   1.0000   1.0000
     1.0000   1.0000   1.0000   1.0000   1.0000   1.0000   1.0000   1.0000
     1.0000   1.0000   0.0000   0.0000   0.0000

          k = 0.0833 0.5292 0.1022 (  2875 PWs)   bands (ev):

   -77.5650 -77.5499 -40.9672 -40.9221 -40.8571 -40.7980 -40.7739 -40.7374
    13.5586  13.9241  14.4955  15.0446  15.7637  16.3329  16.6761  17.5867
    17.7663  17.8512  19.5043  22.2389  26.5053

     occupation numbers 
     1.0000   1.0000   1.0000   1.0000   1.0000   1.0000   1.0000   1.0000
     1.0000   1.0000   1.0000   1.0000   1.0000   1.0000   1.0000   1.0000
     1.0000   1.0000   0.0000   0.0000   0.0000

          k = 0.0833 0.5292 0.2045 (  2873 PWs)   bands (ev):

   -77.5618 -77.5531 -40.9809 -40.9525 -40.8211 -40.7824 -40.7736 -40.7450
    13.4693  13.8958  14.6261  14.9217  15.9336  16.6607  17.0587  17.3229
    17.7268  17.9161  19.5479  21.3845  25.7990

     occupation numbers 
     1.0000   1.0000   1.0000   1.0000   1.0000   1.0000   1.0000   1.0000
     1.0000   1.0000   1.0000   1.0000   1.0000   1.0000   1.0000   1.0000
     1.0000   1.0000   0.0000   0.0000   0.0000

          k = 0.0833 0.5292-0.3067 (  2880 PWs)   bands (ev):

   -77.5575 -77.5575 -40.9758 -40.9758 -40.7933 -40.7933 -40.7586 -40.7586
    13.6232  13.6232  14.7931  14.7931  16.4691  16.4691  17.1835  17.1835
    17.7959  17.7959  20.2730  20.2730  26.0762

     occupation numbers 
     1.0000   1.0000   1.0000   1.0000   1.0000   1.0000   1.0000   1.0000
     1.0000   1.0000   1.0000   1.0000   1.0000   1.0000   1.0000   1.0000
     1.0000   1.0000   0.0000   0.0000   0.0000

          k = 0.1667 0.2887 0.0000 (  2868 PWs)   bands (ev):

   -77.5880 -77.5528 -40.9446 -40.8491 -40.8403 -40.7655 -40.7376 -40.7241
    12.1626  14.4289  14.7523  14.8962  15.8003  15.9279  16.3669  16.6150
    17.1584  17.5288  17.7280  23.6106  25.3935

     occupation numbers 
     1.0000   1.0000   1.0000   1.0000   1.0000   1.0000   1.0000   1.0000
     1.0000   1.0000   1.0000   1.0000   1.0000   1.0000   1.0000   1.0000
     1.0000   1.0000   1.0000   0.0000   0.0000

          k = 0.1667 0.2887 0.1022 (  2866 PWs)   bands (ev):

   -77.5856 -77.5552 -40.9426 -40.8480 -40.8358 -40.7740 -40.7332 -40.7278
    12.3462  14.5214  14.6106  14.9482  15.7623  15.9377  16.2544  16.7076
    17.2714  17.3560  17.7944  21.7336  27.7386

     occupation numbers 
     1.0000   1.0000   1.0000   1.0000   1.0000   1.0000   1.0000   1.0000
     1.0000   1.0000   1.0000   1.0000   1.0000   1.0000   1.0000   1.0000
     1.0000   1.0000   1.0000   0.0000   0.0000

          k = 0.1667 0.2887 0.2045 (  2867 PWs)   bands (ev):

   -77.5792 -77.5616 -40.9311 -40.8735 -40.8063 -40.7781 -40.7370 -40.7356
    12.8495  14.1770  14.7736  15.0974  15.5806  15.8055  16.2570  16.8296
    17.3202  17.4648  17.8280  19.7277  31.0817

     occupation numbers 
     1.0000   1.0000   1.0000   1.0000   1.0000   1.0000   1.0000   1.0000
     1.0000   1.0000   1.0000   1.0000   1.0000   1.0000   1.0000   1.0000
     1.0000   1.0000   1.0000   0.0000   0.0000

          k = 0.1667 0.2887-0.3067 (  2880 PWs)   bands (ev):

   -77.5704 -77.5704 -40.9062 -40.9062 -40.7819 -40.7819 -40.7429 -40.7429
    13.5288  13.5288  15.0874  15.0874  15.5306  15.5306  16.5297  16.5297
    17.5979  17.5979  18.3103  18.3103  33.0663

     occupation numbers 
     1.0000   1.0000   1.0000   1.0000   1.0000   1.0000   1.0000   1.0000
     1.0000   1.0000   1.0000   1.0000   1.0000   1.0000   1.0000   1.0000
     1.0000   1.0000   1.0000   1.0000   0.0000

          k = 0.1667 0.3849 0.0000 (  2869 PWs)   bands (ev):

   -77.5761 -77.5497 -40.9121 -40.8943 -40.8737 -40.7926 -40.7568 -40.7444
    13.2597  14.4017  14.4131  14.8736  15.6422  16.0677  16.1713  16.9275
    17.5940  17.7198  18.3305  25.4569  25.8126

     occupation numbers 
     1.0000   1.0000   1.0000   1.0000   1.0000   1.0000   1.0000   1.0000
     1.0000   1.0000   1.0000   1.0000   1.0000   1.0000   1.0000   1.0000
     1.0000   1.0000   1.0000   0.0000   0.0000

          k = 0.1667 0.3849 0.1022 (  2874 PWs)   bands (ev):

   -77.5744 -77.5515 -40.9325 -40.8910 -40.8538 -40.7996 -40.7535 -40.7437
    13.3364  14.3352  14.5089  14.9523  15.6890  16.0582  16.1286  16.9655
    17.5150  17.6791  18.4111  23.0252  27.9750

     occupation numbers 
     1.0000   1.0000   1.0000   1.0000   1.0000   1.0000   1.0000   1.0000
     1.0000   1.0000   1.0000   1.0000   1.0000   1.0000   1.0000   1.0000
     1.0000   1.0000   1.0000   0.0000   0.0000

          k = 0.1667 0.3849 0.2045 (  2868 PWs)   bands (ev):

   -77.5695 -77.5563 -40.9432 -40.9119 -40.8186 -40.7991 -40.7587 -40.7424
    13.5456  14.1350  14.7484  15.1737  15.6073  15.9021  16.2675  16.9444
    17.4260  17.8239  18.5886  20.8436  28.9645

     occupation numbers 
     1.0000   1.0000   1.0000   1.0000   1.0000   1.0000   1.0000   1.0000
     1.0000   1.0000   1.0000   1.0000   1.0000   1.0000   1.0000   1.0000
     1.0000   1.0000   0.0000   0.0000   0.0000

          k = 0.1667 0.3849-0.3067 (  2868 PWs)   bands (ev):

   -77.5629 -77.5629 -40.9344 -40.9344 -40.7996 -40.7996 -40.7529 -40.7529
    13.8375  13.8375  15.0792  15.0792  15.6909  15.6909  16.5392  16.5392
    17.8052  17.8052  19.2703  19.2703  30.1012

     occupation numbers 
     1.0000   1.0000   1.0000   1.0000   1.0000   1.0000   1.0000   1.0000
     1.0000   1.0000   1.0000   1.0000   1.0000   1.0000   1.0000   1.0000
     1.0000   1.0000   0.0000   0.0000   0.0000

          k = 0.1667 0.4811 0.0000 (  2881 PWs)   bands (ev):

   -77.5662 -77.5487 -40.9302 -40.8908 -40.8808 -40.8179 -40.7783 -40.7583
    13.9545  14.1866  14.2128  15.1821  15.6015  15.9554  16.2674  17.3434
    17.7131  17.8047  19.5034  24.1609  27.4608

     occupation numbers 
     1.0000   1.0000   1.0000   1.0000   1.0000   1.0000   1.0000   1.0000
     1.0000   1.0000   1.0000   1.0000   1.0000   1.0000   1.0000   1.0000
     1.0000   1.0000   0.0000   0.0000   0.0000

          k = 0.1667 0.4811 0.1022 (  2879 PWs)   bands (ev):

   -77.5650 -77.5499 -40.9452 -40.9096 -40.8559 -40.8147 -40.7759 -40.7548
    13.7968  14.2695  14.4501  14.9931  15.6514  16.0952  16.3456  17.3294
    17.5262  17.8637  19.5836  23.5905  26.3259

     occupation numbers 
     1.0000   1.0000   1.0000   1.0000   1.0000   1.0000   1.0000   1.0000
     1.0000   1.0000   1.0000   1.0000   1.0000   1.0000   1.0000   1.0000
     1.0000   1.0000   0.0000   0.0000   0.0000

          k = 0.1667 0.4811 0.2045 (  2873 PWs)   bands (ev):

   -77.5618 -77.5531 -40.9603 -40.9364 -40.8337 -40.8022 -40.7747 -40.7488
    13.7547  14.1860  14.6450  15.1731  15.5495  16.2254  16.5712  17.0263
    17.5157  17.9359  19.8891  22.0707  26.4243

     occupation numbers 
     1.0000   1.0000   1.0000   1.0000   1.0000   1.0000   1.0000   1.0000
     1.0000   1.0000   1.0000   1.0000   1.0000   1.0000   1.0000   1.0000
     1.0000   1.0000   0.0000   0.0000   0.0000

          k = 0.1667 0.4811-0.3067 (  2870 PWs)   bands (ev):

   -77.5575 -77.5575 -40.9570 -40.9570 -40.8143 -40.8143 -40.7565 -40.7565
    13.9074  13.9074  14.9771  14.9771  15.9522  15.9522  16.7249  16.7249
    17.8096  17.8096  20.6833  20.6833  27.2958

     occupation numbers 
     1.0000   1.0000   1.0000   1.0000   1.0000   1.0000   1.0000   1.0000
     1.0000   1.0000   1.0000   1.0000   1.0000   1.0000   1.0000   1.0000
     1.0000   1.0000   0.0000   0.0000   0.0000

          k = 0.1667 0.5774 0.0000 (  2880 PWs)   bands (ev):

   -77.5618 -77.5491 -40.9432 -40.8961 -40.8649 -40.8283 -40.7906 -40.7632
    14.1148  14.1151  14.1265  15.4023  15.6267  15.8367  16.3530  17.6264
    17.7105  17.7754  20.7672  22.3251  28.7621

     occupation numbers 
     1.0000   1.0000   1.0000   1.0000   1.0000   1.0000   1.0000   1.0000
     1.0000   1.0000   1.0000   1.0000   1.0000   1.0000   1.0000   1.0000
     1.0000   1.0000   0.0000   0.0000   0.0000

          k = 0.1667 0.5774 0.1022 (  2884 PWs)   bands (ev):

   -77.5609 -77.5500 -40.9549 -40.9132 -40.8574 -40.8117 -40.7896 -40.7595
    13.8205  14.1867  14.6139  14.9727  15.5738  16.2170  16.4366  17.4989
    17.6231  17.8240  20.8622  22.2744  27.6103

     occupation numbers 
     1.0000   1.0000   1.0000   1.0000   1.0000   1.0000   1.0000   1.0000
     1.0000   1.0000   1.0000   1.0000   1.0000   1.0000   1.0000   1.0000
     1.0000   1.0000   0.0000   0.0000   0.0000

          k = 0.1667 0.5774 0.2045 (  2886 PWs)   bands (ev):

   -77.5586 -77.5523 -40.9685 -40.9440 -40.8409 -40.8005 -40.7802 -40.7518
    13.7523  14.1989  14.6818  15.1282  15.4678  16.4226  16.6946  17.0953
    17.6390  17.8613  21.1602  22.0730  26.3429

     occupation numbers 
     1.0000   1.0000   1.0000   1.0000   1.0000   1.0000   1.0000   1.0000
     1.0000   1.0000   1.0000   1.0000   1.0000   1.0000   1.0000   1.0000
     1.0000   1.0000   0.0000   0.0000   0.0000

          k = 0.1667 0.5774-0.3067 (  2874 PWs)   bands (ev):

   -77.5554 -77.5554 -40.9655 -40.9655 -40.8202 -40.8202 -40.7572 -40.7572
    13.9109  13.9109  14.9371  14.9371  15.9896  15.9896  16.9295  16.9295
    17.7482  17.7482  21.6454  21.6454  25.8652

     occupation numbers 
     1.0000   1.0000   1.0000   1.0000   1.0000   1.0000   1.0000   1.0000
     1.0000   1.0000   1.0000   1.0000   1.0000   1.0000   1.0000   1.0000
     1.0000   1.0000   0.0000   0.0000   0.0000

          k = 0.2500 0.4330 0.0000 (  2882 PWs)   bands (ev):

   -77.5662 -77.5487 -40.9105 -40.8909 -40.8810 -40.8197 -40.7781 -40.7763
    14.0887  14.2537  14.6127  14.6518  15.5291  15.9775  16.2763  17.1063
    17.6698  17.8078  19.5144  25.8967  26.7027

     occupation numbers 
     1.0000   1.0000   1.0000   1.0000   1.0000   1.0000   1.0000   1.0000
     1.0000   1.0000   1.0000   1.0000   1.0000   1.0000   1.0000   1.0000
     1.0000   1.0000   0.0000   0.0000   0.0000

          k = 0.2500 0.4330 0.1022 (  2879 PWs)   bands (ev):

   -77.5650 -77.5499 -40.9238 -40.9149 -40.8428 -40.8330 -40.7788 -40.7631
    14.0905  14.2061  14.6620  14.7876  15.6786  15.8338  16.2746  17.1456
    17.4719  17.8705  19.6350  24.3441  26.9798

     occupation numbers 
     1.0000   1.0000   1.0000   1.0000   1.0000   1.0000   1.0000   1.0000
     1.0000   1.0000   1.0000   1.0000   1.0000   1.0000   1.0000   1.0000
     1.0000   1.0000   0.0000   0.0000   0.0000

          k = 0.2500 0.4330 0.2045 (  2883 PWs)   bands (ev):

   -77.5618 -77.5531 -40.9448 -40.9303 -40.8376 -40.8187 -40.7746 -40.7503
    14.0861  14.1508  14.8225  15.1612  15.5150  15.7889  16.3143  16.9371
    17.4834  17.9435  20.0035  22.3397  27.7476

     occupation numbers 
     1.0000   1.0000   1.0000   1.0000   1.0000   1.0000   1.0000   1.0000
     1.0000   1.0000   1.0000   1.0000   1.0000   1.0000   1.0000   1.0000
     1.0000   1.0000   0.0000   0.0000   0.0000

          k = 0.2500 0.4330-0.3067 (  2872 PWs)   bands (ev):

   -77.5575 -77.5575 -40.9454 -40.9454 -40.8267 -40.8267 -40.7559 -40.7559
    14.1068  14.1068  15.1329  15.1329  15.5799  15.5799  16.5212  16.5212
    17.8288  17.8288  20.8370  20.8370  28.7562

     occupation numbers 
     1.0000   1.0000   1.0000   1.0000   1.0000   1.0000   1.0000   1.0000
     1.0000   1.0000   1.0000   1.0000   1.0000   1.0000   1.0000   1.0000
     1.0000   1.0000   0.0000   0.0000   0.0000

          k = 0.2500 0.5292 0.0000 (  2887 PWs)   bands (ev):

   -77.5588 -77.5498 -40.9228 -40.8825 -40.8532 -40.8487 -40.8003 -40.7968
    14.1865  14.3797  14.4751  14.9672  15.5462  15.7743  16.4422  17.3855
    17.6405  17.7413  21.1699  23.7243  26.0519

     occupation numbers 
     1.0000   1.0000   1.0000   1.0000   1.0000   1.0000   1.0000   1.0000
     1.0000   1.0000   1.0000   1.0000   1.0000   1.0000   1.0000   1.0000
     1.0000   1.0000   0.0000   0.0000   0.0000

          k = 0.2500 0.5292 0.1022 (  2888 PWs)   bands (ev):

   -77.5582 -77.5504 -40.9296 -40.9049 -40.8675 -40.8223 -40.8022 -40.7776
    14.1302  14.5017  14.5944  14.8609  15.5726  15.7817  16.4527  17.3889
    17.4517  17.7852  21.3525  23.7391  26.0790

     occupation numbers 
     1.0000   1.0000   1.0000   1.0000   1.0000   1.0000   1.0000   1.0000
     1.0000   1.0000   1.0000   1.0000   1.0000   1.0000   1.0000   1.0000
     1.0000   1.0000   0.0000   0.0000   0.0000

          k = 0.2500 0.5292 0.2045 (  2881 PWs)   bands (ev):

   -77.5565 -77.5520 -40.9453 -40.9314 -40.8657 -40.8280 -40.7758 -40.7574
    14.1441  14.4921  14.7492  15.0435  15.4373  15.8065  16.5047  16.9602
    17.5561  17.8271  21.8399  23.4356  25.9850

     occupation numbers 
     1.0000   1.0000   1.0000   1.0000   1.0000   1.0000   1.0000   1.0000
     1.0000   1.0000   1.0000   1.0000   1.0000   1.0000   1.0000   1.0000
     1.0000   1.0000   0.0000   0.0000   0.0000

          k = 0.2500 0.5292-0.3067 (  2886 PWs)   bands (ev):

   -77.5543 -77.5543 -40.9478 -40.9478 -40.8480 -40.8480 -40.7560 -40.7560
    14.2777  14.2777  15.0324  15.0324  15.5852  15.5852  16.6326  16.6326
    17.7406  17.7406  22.5984  22.5984  26.5213

     occupation numbers 
     1.0000   1.0000   1.0000   1.0000   1.0000   1.0000   1.0000   1.0000
     1.0000   1.0000   1.0000   1.0000   1.0000   1.0000   1.0000   1.0000
     1.0000   1.0000   0.0000   0.0000   0.0000

          k = 0.3333 0.5774 0.0000 (  2874 PWs)   bands (ev):

   -77.5531 -77.5531 -40.9129 -40.8681 -40.8681 -40.8257 -40.8257 -40.8211
    14.1988  14.5759  14.5759  14.8481  15.6115  15.6115  16.5402  17.5321
    17.5321  17.6115  22.9132  23.7243  23.7243

     occupation numbers 
     1.0000   1.0000   1.0000   1.0000   1.0000   1.0000   1.0000   1.0000
     1.0000   1.0000   1.0000   1.0000   1.0000   1.0000   1.0000   1.0000
     1.0000   1.0000   0.0000   0.0000   0.0000

          k = 0.3333 0.5774 0.1022 (  2877 PWs)   bands (ev):

   -77.5531 -77.5531 -40.9068 -40.8960 -40.8960 -40.8273 -40.7977 -40.7977
    14.2911  14.5939  14.5939  14.8656  15.5890  15.5890  16.5143  17.3874
    17.5744  17.5744  23.3029  23.7963  23.7963

     occupation numbers 
     1.0000   1.0000   1.0000   1.0000   1.0000   1.0000   1.0000   1.0000
     1.0000   1.0000   1.0000   1.0000   1.0000   1.0000   1.0000   1.0000
     1.0000   1.0000   0.0000   0.0000   0.0000

          k = 0.3333 0.5774 0.2045 (  2868 PWs)   bands (ev):

   -77.5531 -77.5531 -40.9264 -40.9264 -40.8901 -40.8441 -40.7671 -40.7671
    14.5271  14.6278  14.6278  14.8766  15.5508  15.5508  16.4815  16.9267
    17.6555  17.6555  23.9752  23.9752  24.3061

     occupation numbers 
     1.0000   1.0000   1.0000   1.0000   1.0000   1.0000   1.0000   1.0000
     1.0000   1.0000   1.0000   1.0000   1.0000   1.0000   1.0000   1.0000
     1.0000   1.0000   0.0000   0.0000   0.0000

          k = 0.3333 0.5774-0.3067 (  2898 PWs)   bands (ev):

   -77.5531 -77.5531 -40.9379 -40.9379 -40.8672 -40.8672 -40.7555 -40.7555
    14.6435  14.6435  14.7727  14.7727  15.5350  15.5350  16.5779  16.5779
    17.6945  17.6945  24.0909  24.0909  25.6933

     occupation numbers 
     1.0000   1.0000   1.0000   1.0000   1.0000   1.0000   1.0000   1.0000
     1.0000   1.0000   1.0000   1.0000   1.0000   1.0000   1.0000   1.0000
     1.0000   1.0000   0.0000   0.0000   0.0000

 ------ SPIN DOWN ----------


          k = 0.0000 0.0000 0.0000 (  2875 PWs)   bands (ev):

   -75.4732 -75.4162 -38.9358 -38.6396 -38.6396 -38.5944 -38.5918 -38.5918
     9.5672  14.3185  17.5290  17.6141  17.6141  17.9700  17.9700  18.1444
    18.4333  18.4333  19.6215  19.6215  25.7109

     occupation numbers 
     1.0000   1.0000   1.0000   1.0000   1.0000   1.0000   1.0000   1.0000
     1.0000   1.0000   1.0000   1.0000   1.0000   1.0000   1.0000   1.0000
     1.0000   1.0000   0.0000   0.0000   0.0000

          k = 0.0000 0.0000 0.1022 (  2863 PWs)   bands (ev):

   -75.4694 -75.4200 -38.9132 -38.6364 -38.6364 -38.6176 -38.5950 -38.5950
     9.8414  14.0747  17.4390  17.5534  17.5534  17.5845  17.8904  17.8904
    18.6019  18.6019  19.6041  19.6041  27.0056

     occupation numbers 
     1.0000   1.0000   1.0000   1.0000   1.0000   1.0000   1.0000   1.0000
     1.0000   1.0000   1.0000   1.0000   1.0000   1.0000   1.0000   1.0000
     0.0000   0.0000   0.0000   0.0000   0.0000

          k = 0.0000 0.0000 0.2045 (  2888 PWs)   bands (ev):

   -75.4590 -75.4305 -38.8514 -38.6808 -38.6277 -38.6277 -38.6037 -38.6037
    10.6346  13.1721  16.9875  17.2104  17.5012  17.5012  17.7151  17.7151
    18.9469  18.9469  19.5083  19.5083  29.9425

     occupation numbers 
     1.0000   1.0000   1.0000   1.0000   1.0000   1.0000   1.0000   1.0000
     1.0000   1.0000   1.0000   1.0000   1.0000   1.0000   1.0000   1.0000
     0.0000   0.0000   0.0000   0.0000   0.0000

          k = 0.0000 0.0000-0.3067 (  2846 PWs)   bands (ev):

   -75.4447 -75.4447 -38.7664 -38.7664 -38.6157 -38.6157 -38.6157 -38.6157
    11.8390  11.8390  16.9735  16.9735  17.5590  17.5590  17.5590  17.5590
    19.2821  19.2821  19.2821  19.2821  33.5579

     occupation numbers 
     1.0000   1.0000   1.0000   1.0000   1.0000   1.0000   1.0000   1.0000
     1.0000   1.0000   1.0000   1.0000   1.0000   1.0000   1.0000   1.0000
     0.0000   0.0000   0.0000   0.0000   0.0000

          k = 0.0000 0.0962 0.0000 (  2853 PWs)   bands (ev):

   -75.4698 -75.4146 -38.9282 -38.6566 -38.6451 -38.6094 -38.5974 -38.5946
     9.8101  14.4864  17.3140  17.5675  17.7394  17.7742  17.9027  18.0815
    18.3506  18.3557  19.6563  20.4224  25.7274

     occupation numbers 
     1.0000   1.0000   1.0000   1.0000   1.0000   1.0000   1.0000   1.0000
     1.0000   1.0000   1.0000   1.0000   1.0000   1.0000   1.0000   1.0000
     1.0000   1.0000   0.0000   0.0000   0.0000

          k = 0.0000 0.0962 0.1022 (  2866 PWs)   bands (ev):

   -75.4661 -75.4183 -38.9070 -38.6529 -38.6417 -38.6291 -38.6032 -38.5980
    10.0806  14.2552  17.1578  17.3118  17.5873  17.6635  17.9104  17.9947
    18.5466  18.5580  19.6300  20.0929  27.0888

     occupation numbers 
     1.0000   1.0000   1.0000   1.0000   1.0000   1.0000   1.0000   1.0000
     1.0000   1.0000   1.0000   1.0000   1.0000   1.0000   1.0000   1.0000
     0.0000   0.0000   0.0000   0.0000   0.0000

          k = 0.0000 0.0962 0.2045 (  2874 PWs)   bands (ev):

   -75.4560 -75.4284 -38.8487 -38.6880 -38.6425 -38.6325 -38.6143 -38.6072
    10.8632  13.3683  16.7801  17.2034  17.3927  17.6026  17.7299  17.8176
    18.9142  18.9472  19.5144  19.6962  30.0809

     occupation numbers 
     1.0000   1.0000   1.0000   1.0000   1.0000   1.0000   1.0000   1.0000
     1.0000   1.0000   1.0000   1.0000   1.0000   1.0000   1.0000   1.0000
     0.0000   0.0000   0.0000   0.0000   0.0000

          k = 0.0000 0.0962-0.3067 (  2864 PWs)   bands (ev):

   -75.4422 -75.4422 -38.7686 -38.7686 -38.6285 -38.6285 -38.6199 -38.6199
    12.0514  12.0514  16.8872  16.8872  17.5164  17.5164  17.6603  17.6603
    19.2674  19.2674  19.3427  19.3427  33.7208

     occupation numbers 
     1.0000   1.0000   1.0000   1.0000   1.0000   1.0000   1.0000   1.0000
     1.0000   1.0000   1.0000   1.0000   1.0000   1.0000   1.0000   1.0000
     0.0000   0.0000   0.0000   0.0000   0.0000

          k = 0.0000 0.1925 0.0000 (  2861 PWs)   bands (ev):

   -75.4605 -75.4103 -38.9067 -38.7034 -38.6597 -38.6571 -38.6063 -38.6027
    10.5169  14.9189  16.7633  16.9717  17.6669  18.0953  18.0994  18.1482
    18.1803  18.3949  19.7287  21.8540  25.7949

     occupation numbers 
     1.0000   1.0000   1.0000   1.0000   1.0000   1.0000   1.0000   1.0000
     1.0000   1.0000   1.0000   1.0000   1.0000   1.0000   1.0000   1.0000
     1.0000   1.0000   0.0000   0.0000   0.0000

          k = 0.0000 0.1925 0.1022 (  2860 PWs)   bands (ev):

   -75.4571 -75.4137 -38.8898 -38.6978 -38.6720 -38.6559 -38.6143 -38.6066
    10.7747  14.7296  16.5207  17.0125  17.5550  17.8488  17.9173  18.2635
    18.4991  18.5424  19.6830  21.0823  27.3696

     occupation numbers 
     1.0000   1.0000   1.0000   1.0000   1.0000   1.0000   1.0000   1.0000
     1.0000   1.0000   1.0000   1.0000   1.0000   1.0000   1.0000   1.0000
     0.7015   0.0000   0.0000   0.0000   0.0000

          k = 0.0000 0.1925 0.2045 (  2870 PWs)   bands (ev):

   -75.4480 -75.4229 -38.8435 -38.7179 -38.6799 -38.6455 -38.6337 -38.6170
    11.5193  13.8964  16.4122  17.1042  17.1884  17.6638  17.8553  18.1017
    18.8717  18.9938  19.5255  20.1536  30.4987

     occupation numbers 
     1.0000   1.0000   1.0000   1.0000   1.0000   1.0000   1.0000   1.0000
     1.0000   1.0000   1.0000   1.0000   1.0000   1.0000   1.0000   1.0000
     0.0000   0.0000   0.0000   0.0000   0.0000

          k = 0.0000 0.1925-0.3067 (  2876 PWs)   bands (ev):

   -75.4354 -75.4354 -38.7802 -38.7802 -38.6575 -38.6575 -38.6313 -38.6313
    12.6463  12.6463  16.7002  16.7002  17.3916  17.3916  17.9324  17.9324
    19.2425  19.2425  19.5136  19.5136  34.1717

     occupation numbers 
     1.0000   1.0000   1.0000   1.0000   1.0000   1.0000   1.0000   1.0000
     1.0000   1.0000   1.0000   1.0000   1.0000   1.0000   1.0000   1.0000
     0.0000   0.0000   0.0000   0.0000   0.0000

          k = 0.0000 0.2887 0.0000 (  2860 PWs)   bands (ev):

   -75.4473 -75.4049 -38.8746 -38.7678 -38.7211 -38.6792 -38.6213 -38.6143
    11.6130  15.3476  16.1150  16.6633  17.5004  17.9064  17.9472  18.5424
    18.6179  18.8475  19.7950  23.5224  25.9414

     occupation numbers 
     1.0000   1.0000   1.0000   1.0000   1.0000   1.0000   1.0000   1.0000
     1.0000   1.0000   1.0000   1.0000   1.0000   1.0000   1.0000   0.0000
     0.0000   0.0000   0.0000   0.0000   0.0000

          k = 0.0000 0.2887 0.1022 (  2859 PWs)   bands (ev):

   -75.4444 -75.4078 -38.8682 -38.7565 -38.7333 -38.6749 -38.6271 -38.6187
    11.8417  15.2259  16.0008  16.7252  17.3679  17.8664  17.9410  18.6610
    18.7183  18.8118  19.7311  22.1776  27.9025

     occupation numbers 
     1.0000   1.0000   1.0000   1.0000   1.0000   1.0000   1.0000   1.0000
     1.0000   1.0000   1.0000   1.0000   1.0000   1.0000   1.0000   0.0000
     0.0000   0.0000   0.0000   0.0000   0.0000

          k = 0.0000 0.2887 0.2045 (  2872 PWs)   bands (ev):

   -75.4367 -75.4155 -38.8475 -38.7730 -38.7183 -38.6630 -38.6466 -38.6306
    12.4956  14.5163  16.1307  16.8084  17.1466  17.6476  18.0589  18.5076
    18.9879  19.1272  19.5472  20.7146  31.0993

     occupation numbers 
     1.0000   1.0000   1.0000   1.0000   1.0000   1.0000   1.0000   1.0000
     1.0000   1.0000   1.0000   1.0000   1.0000   1.0000   1.0000   0.3612
     0.0000   0.0000   0.0000   0.0000   0.0000

          k = 0.0000 0.2887-0.3067 (  2876 PWs)   bands (ev):

   -75.4261 -75.4261 -38.8132 -38.8132 -38.6796 -38.6796 -38.6468 -38.6468
    13.4643  13.4643  16.5055  16.5055  17.3314  17.3314  18.2628  18.2628
    19.2772  19.2772  19.7525  19.7525  33.2915

     occupation numbers 
     1.0000   1.0000   1.0000   1.0000   1.0000   1.0000   1.0000   1.0000
     1.0000   1.0000   1.0000   1.0000   1.0000   1.0000   1.0000   1.0000
     0.0000   0.0000   0.0000   0.0000   0.0000

          k = 0.0000 0.3849 0.0000 (  2876 PWs)   bands (ev):

   -75.4332 -75.4004 -38.8370 -38.8327 -38.7839 -38.6982 -38.6417 -38.6263
    12.9278  15.3887  15.6590  16.5426  17.5896  17.6897  17.7179  19.1861
    19.2010  19.3409  19.8388  25.3512  25.8829

     occupation numbers 
     1.0000   1.0000   1.0000   1.0000   1.0000   1.0000   1.0000   1.0000
     1.0000   1.0000   1.0000   1.0000   1.0000   1.0000   1.0000   0.0000
     0.0000   0.0000   0.0000   0.0000   0.0000

          k = 0.0000 0.3849 0.1022 (  2874 PWs)   bands (ev):

   -75.4310 -75.4026 -38.8662 -38.8048 -38.7808 -38.6934 -38.6436 -38.6311
    13.0901  15.2869  15.7024  16.5551  17.4435  17.7878  17.8891  19.1956
    19.1980  19.2555  19.7731  23.1896  28.0591

     occupation numbers 
     1.0000   1.0000   1.0000   1.0000   1.0000   1.0000   1.0000   1.0000
     1.0000   1.0000   1.0000   1.0000   1.0000   1.0000   1.0000   0.0000
     0.0000   0.0000   0.0000   0.0000   0.0000

          k = 0.0000 0.3849 0.2045 (  2871 PWs)   bands (ev):

   -75.4250 -75.4086 -38.8753 -38.8326 -38.7315 -38.6803 -38.6559 -38.6443
    13.5401  14.8260  15.9693  16.5605  17.4014  17.9259  18.0656  18.8989
    19.3318  19.3695  19.6309  21.2971  29.1947

     occupation numbers 
     1.0000   1.0000   1.0000   1.0000   1.0000   1.0000   1.0000   1.0000
     1.0000   1.0000   1.0000   1.0000   1.0000   1.0000   1.0000   0.0000
     0.0000   0.0000   0.0000   0.0000   0.0000

          k = 0.0000 0.3849-0.3067 (  2878 PWs)   bands (ev):

   -75.4168 -75.4168 -38.8618 -38.8618 -38.6859 -38.6859 -38.6623 -38.6623
    14.1722  14.1722  16.3320  16.3320  17.6570  17.6570  18.4691  18.4691
    19.4737  19.4737  20.0294  20.0294  30.2369

     occupation numbers 
     1.0000   1.0000   1.0000   1.0000   1.0000   1.0000   1.0000   1.0000
     1.0000   1.0000   1.0000   1.0000   1.0000   1.0000   0.9999   0.9999
     0.0000   0.0000   0.0000   0.0000   0.0000

          k = 0.0000 0.4811 0.0000 (  2882 PWs)   bands (ev):

   -75.4216 -75.3983 -38.8806 -38.8291 -38.8023 -38.7118 -38.6638 -38.6353
    14.1044  15.1788  15.3921  16.5597  17.5421  17.5517  17.8142  19.6168
    19.7568  19.8613  20.1461  24.2544  27.2256

     occupation numbers 
     1.0000   1.0000   1.0000   1.0000   1.0000   1.0000   1.0000   1.0000
     1.0000   1.0000   1.0000   1.0000   1.0000   1.0000   1.0000   0.0000
     0.0000   0.0000   0.0000   0.0000   0.0000

          k = 0.0000 0.4811 0.1022 (  2880 PWs)   bands (ev):

   -75.4200 -75.3999 -38.8960 -38.8453 -38.7730 -38.7067 -38.6614 -38.6404
    14.1213  15.1042  15.6131  16.3372  17.6633  17.7571  18.0304  19.5540
    19.6483  19.8483  19.9873  23.3925  26.8208

     occupation numbers 
[...]
    19.7785  19.8200  20.9501  23.4420  28.2646

     occupation numbers 
     1.0000   1.0000   1.0000   1.0000   1.0000   1.0000   1.0000   1.0000
     1.0000   1.0000   1.0000   1.0000   1.0000   1.0000   1.0000   0.0000
     0.0000   0.0000   0.0000   0.0000   0.0000

          k = 0.0833 0.5292 0.1022 (  2875 PWs)   bands (ev):

   -75.4156 -75.3994 -38.9012 -38.8528 -38.7648 -38.7176 -38.6734 -38.6510
    14.5223  15.1387  15.6808  16.2170  17.4527  17.9266  17.9681  19.5591
    19.7154  19.8161  20.8153  23.1027  27.2414

     occupation numbers 
     1.0000   1.0000   1.0000   1.0000   1.0000   1.0000   1.0000   1.0000
     1.0000   1.0000   1.0000   1.0000   1.0000   1.0000   1.0000   0.0000
     0.0000   0.0000   0.0000   0.0000   0.0000

          k = 0.0833 0.5292 0.2045 (  2873 PWs)   bands (ev):

   -75.4121 -75.4028 -38.9142 -38.8840 -38.7307 -38.6960 -38.6814 -38.6542
    14.5032  14.9769  15.9795  16.2838  17.4932  18.2479  18.4363  19.1062
    19.6685  19.8978  20.6043  22.1704  26.7189

     occupation numbers 
     1.0000   1.0000   1.0000   1.0000   1.0000   1.0000   1.0000   1.0000
     1.0000   1.0000   1.0000   1.0000   1.0000   1.0000   1.0000   0.0000
     0.0000   0.0000   0.0000   0.0000   0.0000

          k = 0.0833 0.5292-0.3067 (  2880 PWs)   bands (ev):

   -75.4075 -75.4075 -38.9085 -38.9085 -38.7037 -38.7037 -38.6680 -38.6680
    14.6792  14.6792  16.2345  16.2345  17.9874  17.9874  18.7566  18.7566
    19.7521  19.7521  21.1277  21.1277  26.9762

     occupation numbers 
     1.0000   1.0000   1.0000   1.0000   1.0000   1.0000   1.0000   1.0000
     1.0000   1.0000   1.0000   1.0000   1.0000   1.0000   0.0000   0.0000
     0.0000   0.0000   0.0000   0.0000   0.0000

          k = 0.1667 0.2887 0.0000 (  2868 PWs)   bands (ev):

   -75.4404 -75.4025 -38.8568 -38.7747 -38.7657 -38.6833 -38.6384 -38.6305
    12.2380  15.6454  15.9483  16.3303  17.5071  17.5373  18.0767  18.4141
    19.0005  19.3522  19.7398  24.4114  26.1676

     occupation numbers 
     1.0000   1.0000   1.0000   1.0000   1.0000   1.0000   1.0000   1.0000
     1.0000   1.0000   1.0000   1.0000   1.0000   1.0000   1.0000   1.0000
     0.0000   0.0000   0.0000   0.0000   0.0000

          k = 0.1667 0.2887 0.1022 (  2866 PWs)   bands (ev):

   -75.4378 -75.4050 -38.8576 -38.7725 -38.7571 -38.6892 -38.6424 -38.6307
    12.4485  15.5512  15.8705  16.3957  17.4079  17.5632  17.9727  18.5148
    19.1258  19.2290  19.7486  22.7762  28.3477

     occupation numbers 
     1.0000   1.0000   1.0000   1.0000   1.0000   1.0000   1.0000   1.0000
     1.0000   1.0000   1.0000   1.0000   1.0000   1.0000   1.0000   0.1349
     0.0000   0.0000   0.0000   0.0000   0.0000

          k = 0.1667 0.2887 0.2045 (  2867 PWs)   bands (ev):

   -75.4309 -75.4120 -38.8498 -38.7959 -38.7205 -38.6919 -38.6521 -38.6396
    13.0457  14.8570  16.1237  16.5622  17.1387  17.4032  18.0277  18.6152
    19.2188  19.3474  19.7027  21.0856  31.5730

     occupation numbers 
     1.0000   1.0000   1.0000   1.0000   1.0000   1.0000   1.0000   1.0000
     1.0000   1.0000   1.0000   1.0000   1.0000   1.0000   1.0000   0.0000
     0.0000   0.0000   0.0000   0.0000   0.0000

          k = 0.1667 0.2887-0.3067 (  2880 PWs)   bands (ev):

   -75.4215 -75.4215 -38.8269 -38.8269 -38.6928 -38.6928 -38.6553 -38.6553
    13.9180  13.9180  16.4963  16.4963  17.0954  17.0954  18.3282  18.3282
    19.5334  19.5334  19.9271  19.9271  33.4949

     occupation numbers 
     1.0000   1.0000   1.0000   1.0000   1.0000   1.0000   1.0000   1.0000
     1.0000   1.0000   1.0000   1.0000   1.0000   1.0000   1.0000   1.0000
     0.0000   0.0000   0.0000   0.0000   0.0000

          k = 0.1667 0.3849 0.0000 (  2869 PWs)   bands (ev):

   -75.4276 -75.3992 -38.8245 -38.8211 -38.8018 -38.7129 -38.6604 -38.6513
    13.4923  15.6605  15.7205  16.1435  17.3030  17.6693  17.8387  18.7591
    19.5009  19.7303  20.0742  26.1683  26.4408

     occupation numbers 
     1.0000   1.0000   1.0000   1.0000   1.0000   1.0000   1.0000   1.0000
     1.0000   1.0000   1.0000   1.0000   1.0000   1.0000   1.0000   0.0000
     0.0000   0.0000   0.0000   0.0000   0.0000

          k = 0.1667 0.3849 0.1022 (  2874 PWs)   bands (ev):

   -75.4257 -75.4011 -38.8542 -38.8188 -38.7701 -38.7175 -38.6661 -38.6453
    13.6395  15.5213  15.8215  16.2447  17.2689  17.6462  17.7927  18.8056
    19.4711  19.6013  20.1763  23.8650  28.5984

     occupation numbers 
     1.0000   1.0000   1.0000   1.0000   1.0000   1.0000   1.0000   1.0000
     1.0000   1.0000   1.0000   1.0000   1.0000   1.0000   1.0000   0.0000
     0.0000   0.0000   0.0000   0.0000   0.0000

          k = 0.1667 0.3849 0.2045 (  2868 PWs)   bands (ev):

   -75.4205 -75.4063 -38.8683 -38.8391 -38.7314 -38.7141 -38.6737 -38.6455
    14.0430  15.1384  16.0987  16.4539  17.1245  17.3738  17.9823  18.7888
    19.3240  19.7817  20.2563  21.9014  29.5737

     occupation numbers 
     1.0000   1.0000   1.0000   1.0000   1.0000   1.0000   1.0000   1.0000
     1.0000   1.0000   1.0000   1.0000   1.0000   1.0000   1.0000   0.0000
     0.0000   0.0000   0.0000   0.0000   0.0000

          k = 0.1667 0.3849-0.3067 (  2868 PWs)   bands (ev):

   -75.4134 -75.4134 -38.8609 -38.8609 -38.7137 -38.7137 -38.6614 -38.6614
    14.5947  14.5947  16.4346  16.4346  17.1013  17.1013  18.3459  18.3459
    19.7743  19.7743  20.5993  20.5993  30.6682

     occupation numbers 
     1.0000   1.0000   1.0000   1.0000   1.0000   1.0000   1.0000   1.0000
     1.0000   1.0000   1.0000   1.0000   1.0000   1.0000   1.0000   1.0000
     0.0000   0.0000   0.0000   0.0000   0.0000

          k = 0.1667 0.4811 0.0000 (  2881 PWs)   bands (ev):

   -75.4169 -75.3981 -38.8638 -38.8204 -38.7867 -38.7404 -38.6755 -38.6748
    14.5992  15.4947  15.4990  16.1935  17.2430  17.5707  17.9036  19.2186
    19.7223  19.7532  20.9805  24.9164  28.0637

     occupation numbers 
     1.0000   1.0000   1.0000   1.0000   1.0000   1.0000   1.0000   1.0000
     1.0000   1.0000   1.0000   1.0000   1.0000   1.0000   1.0000   0.0000
     0.0000   0.0000   0.0000   0.0000   0.0000

          k = 0.1667 0.4811 0.1022 (  2879 PWs)   bands (ev):

   -75.4156 -75.3993 -38.8761 -38.8381 -38.7679 -38.7324 -38.6863 -38.6606
    14.6170  15.4428  15.6651  16.2285  17.2531  17.5446  17.9779  19.2138
    19.4915  19.8266  21.0292  24.2913  27.1009

     occupation numbers 
     1.0000   1.0000   1.0000   1.0000   1.0000   1.0000   1.0000   1.0000
     1.0000   1.0000   1.0000   1.0000   1.0000   1.0000   1.0000   0.0000
     0.0000   0.0000   0.0000   0.0000   0.0000

          k = 0.1667 0.4811 0.2045 (  2873 PWs)   bands (ev):

   -75.4122 -75.4028 -38.8905 -38.8658 -38.7507 -38.7155 -38.6864 -38.6523
    14.7214  15.2402  15.9906  16.4906  17.0828  17.5200  18.2010  18.9052
    19.4310  19.9215  21.1758  22.8560  27.2413

     occupation numbers 
     1.0000   1.0000   1.0000   1.0000   1.0000   1.0000   1.0000   1.0000
     1.0000   1.0000   1.0000   1.0000   1.0000   1.0000   1.0000   0.0000
     0.0000   0.0000   0.0000   0.0000   0.0000

          k = 0.1667 0.4811-0.3067 (  2870 PWs)   bands (ev):

   -75.4075 -75.4075 -38.8871 -38.8871 -38.7313 -38.7313 -38.6621 -38.6621
    14.9474  14.9474  16.3916  16.3916  17.2608  17.2608  18.4782  18.4782
    19.7660  19.7660  21.6947  21.6947  28.0420

     occupation numbers 
     1.0000   1.0000   1.0000   1.0000   1.0000   1.0000   1.0000   1.0000
     1.0000   1.0000   1.0000   1.0000   1.0000   1.0000   0.9965   0.9965
     0.0000   0.0000   0.0000   0.0000   0.0000

          k = 0.1667 0.5774 0.0000 (  2880 PWs)   bands (ev):

   -75.4121 -75.3985 -38.8780 -38.8261 -38.7693 -38.7517 -38.6881 -38.6808
    15.0668  15.3609  15.4415  16.2555  17.2956  17.3973  18.0083  19.5425
    19.7191  19.7267  21.8834  23.3585  29.1884

     occupation numbers 
     1.0000   1.0000   1.0000   1.0000   1.0000   1.0000   1.0000   1.0000
     1.0000   1.0000   1.0000   1.0000   1.0000   1.0000   1.0000   0.0000
     0.0000   0.0000   0.0000   0.0000   0.0000

          k = 0.1667 0.5774 0.1022 (  2884 PWs)   bands (ev):

   -75.4112 -75.3994 -38.8880 -38.8428 -38.7713 -38.7261 -38.6981 -38.6678
    14.9183  15.4034  15.8084  16.0775  17.2126  17.5766  18.0914  19.4650
    19.5417  19.7866  21.9105  23.2597  28.2232

     occupation numbers 
     1.0000   1.0000   1.0000   1.0000   1.0000   1.0000   1.0000   1.0000
     1.0000   1.0000   1.0000   1.0000   1.0000   1.0000   1.0000   0.0000
     0.0000   0.0000   0.0000   0.0000   0.0000

          k = 0.1667 0.5774 0.2045 (  2886 PWs)   bands (ev):

   -75.4087 -75.4019 -38.9005 -38.8742 -38.7592 -38.7158 -38.6882 -38.6559
    14.8768  15.3004  16.0586  16.4035  16.9959  17.6935  18.3476  18.9738
    19.5700  19.8337  22.0342  22.9331  27.1555

     occupation numbers 
     1.0000   1.0000   1.0000   1.0000   1.0000   1.0000   1.0000   1.0000
     1.0000   1.0000   1.0000   1.0000   1.0000   1.0000   1.0000   0.0000
     0.0000   0.0000   0.0000   0.0000   0.0000

          k = 0.1667 0.5774-0.3067 (  2874 PWs)   bands (ev):

   -75.4053 -75.4053 -38.8968 -38.8968 -38.7381 -38.7381 -38.6619 -38.6619
    15.0311  15.0311  16.3827  16.3827  17.3148  17.3148  18.6396  18.6396
    19.7019  19.7019  22.4245  22.4245  26.7759

     occupation numbers 
     1.0000   1.0000   1.0000   1.0000   1.0000   1.0000   1.0000   1.0000
     1.0000   1.0000   1.0000   1.0000   1.0000   1.0000   0.0000   0.0000
     0.0000   0.0000   0.0000   0.0000   0.0000

          k = 0.2500 0.4330 0.0000 (  2882 PWs)   bands (ev):

   -75.4169 -75.3980 -38.8422 -38.8204 -38.7869 -38.7426 -38.6951 -38.6746
    14.6079  15.5709  15.8406  15.8730  17.1475  17.5993  17.9084  18.9693
    19.6724  19.7541  21.0224  26.4652  27.3220

     occupation numbers 
     1.0000   1.0000   1.0000   1.0000   1.0000   1.0000   1.0000   1.0000
     1.0000   1.0000   1.0000   1.0000   1.0000   1.0000   1.0000   0.0000
     0.0000   0.0000   0.0000   0.0000   0.0000

          k = 0.2500 0.4330 0.1022 (  2879 PWs)   bands (ev):

   -75.4156 -75.3993 -38.8486 -38.8459 -38.7537 -38.7536 -38.6972 -38.6627
    14.6872  15.4874  15.9076  16.0552  17.1867  17.4201  17.9182  19.0152
    19.4327  19.8341  21.1223  25.0086  27.6045

     occupation numbers 
     1.0000   1.0000   1.0000   1.0000   1.0000   1.0000   1.0000   1.0000
     1.0000   1.0000   1.0000   1.0000   1.0000   1.0000   1.0000   0.0000
     0.0000   0.0000   0.0000   0.0000   0.0000

          k = 0.2500 0.4330 0.2045 (  2883 PWs)   bands (ev):

   -75.4122 -75.4028 -38.8716 -38.8596 -38.7584 -38.7342 -38.6857 -38.6519
    14.8902  15.3429  16.1242  16.4039  17.0366  17.1549  18.0093  18.8060
    19.3899  19.9306  21.3524  23.1677  28.3721

     occupation numbers 
     1.0000   1.0000   1.0000   1.0000   1.0000   1.0000   1.0000   1.0000
     1.0000   1.0000   1.0000   1.0000   1.0000   1.0000   1.0000   0.0000
     0.0000   0.0000   0.0000   0.0000   0.0000

          k = 0.2500 0.4330-0.3067 (  2872 PWs)   bands (ev):

   -75.4075 -75.4075 -38.8736 -38.8736 -38.7466 -38.7466 -38.6604 -38.6604
    15.1356  15.1356  16.4566  16.4566  16.9309  16.9309  18.3103  18.3103
    19.7898  19.7898  21.9079  21.9079  29.3679

     occupation numbers 
     1.0000   1.0000   1.0000   1.0000   1.0000   1.0000   1.0000   1.0000
     1.0000   1.0000   1.0000   1.0000   1.0000   1.0000   1.0000   1.0000
     0.0000   0.0000   0.0000   0.0000   0.0000

          k = 0.2500 0.5292 0.0000 (  2887 PWs)   bands (ev):

   -75.4089 -75.3992 -38.8555 -38.8113 -38.7742 -38.7565 -38.7174 -38.6987
    15.3298  15.5467  15.6835  15.9538  17.1472  17.3514  18.1071  19.2801
    19.6384  19.6846  22.3013  24.5380  26.6367

     occupation numbers 
     1.0000   1.0000   1.0000   1.0000   1.0000   1.0000   1.0000   1.0000
     1.0000   1.0000   1.0000   1.0000   1.0000   1.0000   1.0000   0.0000
     0.0000   0.0000   0.0000   0.0000   0.0000

          k = 0.2500 0.5292 0.1022 (  2888 PWs)   bands (ev):

   -75.4083 -75.3999 -38.8604 -38.8318 -38.7899 -38.7351 -38.7163 -38.6800
    15.2914  15.6592  15.7654  16.0209  17.1207  17.2513  18.1215  19.3036
    19.3952  19.7403  22.4586  24.5102  26.6936

     occupation numbers 
     1.0000   1.0000   1.0000   1.0000   1.0000   1.0000   1.0000   1.0000
     1.0000   1.0000   1.0000   1.0000   1.0000   1.0000   1.0000   0.0000
     0.0000   0.0000   0.0000   0.0000   0.0000

          k = 0.2500 0.5292 0.2045 (  2881 PWs)   bands (ev):

   -75.4065 -75.4016 -38.8740 -38.8593 -38.7899 -38.7491 -38.6813 -38.6596
    15.3265  15.6142  16.0397  16.3624  16.8645  17.1117  18.1972  18.8366
    19.4816  19.7933  22.8332  24.1413  26.7481

     occupation numbers 
     1.0000   1.0000   1.0000   1.0000   1.0000   1.0000   1.0000   1.0000
     1.0000   1.0000   1.0000   1.0000   1.0000   1.0000   1.0000   0.0000
     0.0000   0.0000   0.0000   0.0000   0.0000

          k = 0.2500 0.5292-0.3067 (  2886 PWs)   bands (ev):

   -75.4041 -75.4041 -38.8762 -38.8762 -38.7714 -38.7714 -38.6589 -38.6589
    15.4570  15.4570  16.4301  16.4301  16.8300  16.8300  18.4070  18.4070
    19.6917  19.6917  23.4164  23.4164  27.2842

     occupation numbers 
     1.0000   1.0000   1.0000   1.0000   1.0000   1.0000   1.0000   1.0000
     1.0000   1.0000   1.0000   1.0000   1.0000   1.0000   1.0000   1.0000
     0.0000   0.0000   0.0000   0.0000   0.0000

          k = 0.3333 0.5774 0.0000 (  2874 PWs)   bands (ev):

   -75.4028 -75.4028 -38.8446 -38.7957 -38.7957 -38.7439 -38.7264 -38.7264
    15.5855  15.6831  15.6831  15.8751  17.1819  17.1819  18.2145  19.4499
    19.4499  19.6052  23.7499  24.5342  24.5342

     occupation numbers 
     1.0000   1.0000   1.0000   1.0000   1.0000   1.0000   1.0000   1.0000
     1.0000   1.0000   1.0000   1.0000   1.0000   1.0000   1.0000   0.0000
     0.0000   0.0000   0.0000   0.0000   0.0000

          k = 0.3333 0.5774 0.1022 (  2877 PWs)   bands (ev):

   -75.4028 -75.4028 -38.8379 -38.8206 -38.8206 -38.7507 -38.7014 -38.7014
    15.6568  15.7552  15.7552  15.9065  17.0955  17.0955  18.1959  19.3385
    19.5014  19.5014  24.1555  24.5811  24.5811

     occupation numbers 
     1.0000   1.0000   1.0000   1.0000   1.0000   1.0000   1.0000   1.0000
     1.0000   1.0000   1.0000   1.0000   1.0000   1.0000   1.0000   0.0000
     0.0000   0.0000   0.0000   0.0000   0.0000

          k = 0.3333 0.5774 0.2045 (  2868 PWs)   bands (ev):

   -75.4028 -75.4028 -38.8518 -38.8518 -38.8195 -38.7692 -38.6699 -38.6699
    15.8231  15.9275  15.9275  15.9647  16.9029  16.9029  18.1990  18.8045
    19.5963  19.5963  24.6971  24.6971  25.1466

     occupation numbers 
     1.0000   1.0000   1.0000   1.0000   1.0000   1.0000   1.0000   1.0000
     1.0000   1.0000   1.0000   1.0000   1.0000   1.0000   1.0000   0.0000
     0.0000   0.0000   0.0000   0.0000   0.0000

          k = 0.3333 0.5774-0.3067 (  2898 PWs)   bands (ev):

   -75.4028 -75.4028 -38.8639 -38.8639 -38.7944 -38.7944 -38.6577 -38.6577
    15.9559  15.9559  16.0403  16.0403  16.7834  16.7834  18.3732  18.3732
    19.6402  19.6402  24.7708  24.7708  26.4593

     occupation numbers 
     1.0000   1.0000   1.0000   1.0000   1.0000   1.0000   1.0000   1.0000
     1.0000   1.0000   1.0000   1.0000   1.0000   1.0000   1.0000   1.0000
     0.0000   0.0000   0.0000   0.0000   0.0000

     the Fermi energy is    18.5041 ev

!    total energy              =    -753.45503327 Ry
     total all-electron energy =     -5573.811724 Ry
     estimated scf accuracy    <       0.00000003 Ry
     smearing contrib. (-TS)   =      -0.00001903 Ry
     internal energy E=F+TS    =    -753.45501424 Ry

     The total energy is F=E-TS. E is the sum of the following terms:
     one-electron contribution =    -284.46475852 Ry
     hartree contribution      =     165.65393438 Ry
     xc contribution           =     -61.39291031 Ry
     ewald contribution        =    -398.07602430 Ry
     one-center paw contrib.   =    -175.17525549 Ry
      -> PAW hartree energy AE =     221.94189819 Ry
      -> PAW hartree energy PS =    -220.88679978 Ry
      -> PAW xc energy AE      =    -117.66906075 Ry
      -> PAW xc energy PS      =      29.02633459 Ry
      -> total E_H with PAW    =     166.70903279 Ry
      -> total E_XC with PAW   =    -150.03563647 Ry

     total magnetization       =     3.36 Bohr mag/cell
     absolute magnetization    =     3.68 Bohr mag/cell

     convergence has been achieved in   1 iterations

     Writing all to output data dir ./out/Co.save/
 
     init_run     :      0.36s CPU      0.51s WALL (       1 calls)
     electrons    :      5.09s CPU      5.41s WALL (       1 calls)

     Called by init_run:
     wfcinit      :      0.22s CPU      0.33s WALL (       1 calls)
     potinit      :      0.10s CPU      0.12s WALL (       1 calls)
     hinit0       :      0.03s CPU      0.03s WALL (       1 calls)

     Called by electrons:
     c_bands      :      4.60s CPU      4.85s WALL (       2 calls)
     sum_band     :      0.39s CPU      0.41s WALL (       2 calls)
     v_of_rho     :      0.01s CPU      0.01s WALL (       2 calls)
     v_h          :      0.00s CPU      0.00s WALL (       2 calls)
     v_xc         :      0.01s CPU      0.01s WALL (       2 calls)
     newd         :      0.01s CPU      0.01s WALL (       2 calls)
     PAW_pot      :      0.18s CPU      0.23s WALL (       2 calls)
     mix_rho      :      0.00s CPU      0.00s WALL (       2 calls)

     Called by c_bands:
     init_us_2    :      0.02s CPU      0.03s WALL (     608 calls)
     init_us_2:cp :      0.02s CPU      0.03s WALL (     608 calls)
     cegterg      :      4.45s CPU      4.65s WALL (     304 calls)

     Called by sum_band:
     sum_band:wei :      0.00s CPU      0.00s WALL (       2 calls)
     sum_band:loo :      0.36s CPU      0.39s WALL (       2 calls)
     sum_band:buf :      0.00s CPU      0.00s WALL (     304 calls)
     sum_band:ini :      0.01s CPU      0.01s WALL (     304 calls)
     sum_band:cal :      0.03s CPU      0.03s WALL (     304 calls)
     sum_band:bec :      0.00s CPU      0.00s WALL (     304 calls)
     addusdens    :      0.02s CPU      0.02s WALL (       2 calls)
                                        0.00s GPU  (       2 calls)
     addusd:skk   :      0.00s CPU      0.00s WALL (       2 calls)
                                        0.00s GPU  (       2 calls)

     Called by *egterg:
     cdiaghg      :      1.39s CPU      1.42s WALL (    2303 calls)
     cegterg:over :      0.18s CPU      0.16s WALL (    2303 calls)
     cegterg:upda :      0.02s CPU      0.05s WALL (    2303 calls)
     cegterg:last :      0.06s CPU      0.07s WALL (    1164 calls)
     h_psi        :      2.61s CPU      2.75s WALL (    2607 calls)
     s_psi        :      0.06s CPU      0.05s WALL (    2607 calls)
     g_psi        :      0.01s CPU      0.01s WALL (    2303 calls)

     Called by h_psi:
     h_psi:calbec :      0.15s CPU      0.14s WALL (    2607 calls)
     vloc_psi     :      2.41s CPU      2.54s WALL (    2607 calls)
     add_vuspsi   :      0.04s CPU      0.06s WALL (    2607 calls)

     General routines
     calbec       :      0.18s CPU      0.17s WALL (    2911 calls)
     fft          :      0.00s CPU      0.00s WALL (      46 calls)
     ffts         :      0.00s CPU      0.00s WALL (       8 calls)
     fftw         :      2.53s CPU      2.64s WALL (   59106 calls)
     interpolate  :      0.00s CPU      0.00s WALL (       4 calls)
 
     Parallel routines

     PAW routines
     PAW_pot      :      0.18s CPU      0.23s WALL (       2 calls)
     PAW_symme    :      0.00s CPU      0.00s WALL (       3 calls)
 
     PWSCF        :      5.74s CPU      6.73s WALL

 
   This run was terminated on:  16:48: 0  18Mar2024            

=------------------------------------------------------------------------------=
   JOB DONE.
=------------------------------------------------------------------------------=
