
     Program PWSCF v.7.2 starts on 18Mar2024 at 16:53:51 

     This program is part of the open-source Quantum ESPRESSO suite
     for quantum simulation of materials; please cite
         "P. Giannozzi et al., J. Phys.:Condens. Matter 21 395502 (2009);
         "P. Giannozzi et al., J. Phys.:Condens. Matter 29 465901 (2017);
         "P. Giannozzi et al., J. Chem. Phys. 152 154105 (2020);
          URL http://www.quantum-espresso.org", 
     in publications or presentations arising from this work. More details at
     http://www.quantum-espresso.org/quote

     Parallel version (MPI), running on    20 processors

     MPI processes distributed on     1 nodes
     316846 MiB available memory on the printing compute node when the environment starts
 
     Waiting for input...
     Reading input from standard input

     Current dimensions of program PWSCF are:
     Max number of different atomic species (ntypx) = 10
     Max number of k-points (npk) = 120000
     Max angular momentum in pseudopotentials (lmaxx) =  4
     file Co.pbe-spn-kjpaw_psl.0.3.1.UPF: wavefunction(s)  3P 3D renormalized
 
     R & G space division:  proc/nbgrp/npool/nimage =      20
     Subspace diagonalization in iterative solution of the eigenvalue problem:
     a serial algorithm will be used

 
     Parallelization info
     --------------------
     sticks:   dense  smooth     PW     G-vecs:    dense   smooth      PW
     Min          34      33      9                 1200     1159     185
     Max          36      34     10                 1204     1168     192
     Sum         691     673    199                24033    23283    3791
 
     Using Slab Decomposition
 


     bravais-lattice index     =            4
     lattice parameter (alat)  =       4.7400  a.u.
     unit-cell volume          =     149.4103 (a.u.)^3
     number of atoms/cell      =            2
     number of atomic types    =            1
     number of electrons       =        34.00
     number of Kohn-Sham states=           21
     kinetic-energy cutoff     =     110.0000  Ry
     charge density cutoff     =     450.0000  Ry
     scf convergence threshold =      1.0E-06
     mixing beta               =       0.7000
     number of iterations used =            8  plain     mixing
     Exchange-correlation= SLA  PW   PBX  PBC
                           (   1   4   3   4   0   0   0)

     celldm(1)=   4.740000  celldm(2)=   0.000000  celldm(3)=   1.620000
     celldm(4)=   0.000000  celldm(5)=   0.000000  celldm(6)=   0.000000

     crystal axes: (cart. coord. in units of alat)
               a(1) = (   1.000000   0.000000   0.000000 )  
               a(2) = (  -0.500000   0.866025   0.000000 )  
               a(3) = (   0.000000   0.000000   1.620000 )  

     reciprocal axes: (cart. coord. in units 2 pi/alat)
               b(1) = (  1.000000  0.577350  0.000000 )  
               b(2) = (  0.000000  1.154701  0.000000 )  
               b(3) = (  0.000000  0.000000  0.617284 )  


     PseudoPot. # 1 for Co read from file:
     /truba/home/amuhaymin/ZnS/pseudo/QE/Co.pbe-spn-kjpaw_psl.0.3.1.UPF
     MD5 check sum: b0a1ad65bf214e88c1f3d33b20c7d919
     Pseudo is Projector augmented-wave + core cor, Zval = 17.0
     Generated using &quot;atomic&quot; code by A. Dal Corso  v.6.2.2
     Shape of augmentation charge: PSQ
     Using radial grid of 1193 points,  6 beta functions with: 
                l(1) =   0
                l(2) =   0
                l(3) =   1
                l(4) =   1
                l(5) =   2
                l(6) =   2
     Q(r) pseudized with 0 coefficients 


     atomic species   valence    mass     pseudopotential
        Co            17.00    58.93300     Co( 1.00)

     Starting magnetic structure 
     atomic species   magnetization
        Co           0.294

     24 Sym. Ops., with inversion, found (12 have fractional translation)


                                    s                        frac. trans.

      isym =  1     identity                                     

 cryst.   s( 1) = (     1          0          0      )
                  (     0          1          0      )
                  (     0          0          1      )

 cart.    s( 1) = (  1.0000000  0.0000000  0.0000000 )
                  (  0.0000000  1.0000000  0.0000000 )
                  (  0.0000000  0.0000000  1.0000000 )


      isym =  2     180 deg rotation - cart. axis [0,0,1]        

 cryst.   s( 2) = (    -1          0          0      )    f =(  0.0000000 )
                  (     0         -1          0      )       (  0.0000000 )
                  (     0          0          1      )       ( -0.5000000 )

 cart.    s( 2) = ( -1.0000000  0.0000000  0.0000000 )    f =(  0.0000000 )
                  (  0.0000000 -1.0000000  0.0000000 )       (  0.0000000 )
                  (  0.0000000  0.0000000  1.0000000 )       ( -0.8100000 )


      isym =  3     180 deg rotation - cart. axis [0,1,0]        

 cryst.   s( 3) = (    -1          0          0      )    f =(  0.0000000 )
                  (     1          1          0      )       (  0.0000000 )
                  (     0          0         -1      )       (  0.5000000 )

 cart.    s( 3) = ( -1.0000000  0.0000000  0.0000000 )    f =(  0.0000000 )
                  (  0.0000000  1.0000000  0.0000000 )       (  0.0000000 )
                  (  0.0000000  0.0000000 -1.0000000 )       (  0.8100000 )


      isym =  4     180 deg rotation - cart. axis [1,0,0]        

 cryst.   s( 4) = (     1          0          0      )
                  (    -1         -1          0      )
                  (     0          0         -1      )

 cart.    s( 4) = (  1.0000000  0.0000000  0.0000000 )
                  (  0.0000000 -1.0000000  0.0000000 )
                  (  0.0000000  0.0000000 -1.0000000 )


      isym =  5      60 deg rotation - cryst. axis [0,0,1]       

 cryst.   s( 5) = (     1          1          0      )    f =(  0.0000000 )
                  (    -1          0          0      )       ( -0.0000000 )
                  (     0          0          1      )       ( -0.5000000 )

 cart.    s( 5) = (  0.5000000 -0.8660254  0.0000000 )    f =(  0.0000000 )
                  (  0.8660254  0.5000000  0.0000000 )       ( -0.0000000 )
                  (  0.0000000  0.0000000  1.0000000 )       ( -0.8100000 )


      isym =  6      60 deg rotation - cryst. axis [0,0,-1]      

 cryst.   s( 6) = (     0         -1          0      )    f =(  0.0000000 )
                  (     1          1          0      )       ( -0.0000000 )
                  (     0          0          1      )       ( -0.5000000 )

 cart.    s( 6) = (  0.5000000  0.8660254  0.0000000 )    f =(  0.0000000 )
                  ( -0.8660254  0.5000000  0.0000000 )       ( -0.0000000 )
                  (  0.0000000  0.0000000  1.0000000 )       ( -0.8100000 )


      isym =  7     120 deg rotation - cryst. axis [0,0,1]       

 cryst.   s( 7) = (     0          1          0      )
                  (    -1         -1          0      )
                  (     0          0          1      )

 cart.    s( 7) = ( -0.5000000 -0.8660254  0.0000000 )
                  (  0.8660254 -0.5000000  0.0000000 )
                  (  0.0000000  0.0000000  1.0000000 )


      isym =  8     120 deg rotation - cryst. axis [0,0,-1]      

 cryst.   s( 8) = (    -1         -1          0      )
                  (     1          0          0      )
                  (     0          0          1      )

 cart.    s( 8) = ( -0.5000000  0.8660254  0.0000000 )
                  ( -0.8660254 -0.5000000  0.0000000 )
                  (  0.0000000  0.0000000  1.0000000 )


      isym =  9     180 deg rotation - cryst. axis [1,-1,0]      

 cryst.   s( 9) = (     0         -1          0      )    f =(  0.0000000 )
                  (    -1          0          0      )       (  0.0000000 )
                  (     0          0         -1      )       (  0.5000000 )

 cart.    s( 9) = (  0.5000000 -0.8660254  0.0000000 )    f =(  0.0000000 )
                  ( -0.8660254 -0.5000000  0.0000000 )       (  0.0000000 )
                  (  0.0000000  0.0000000 -1.0000000 )       (  0.8100000 )


      isym = 10     180 deg rotation - cryst. axis [2,1,0]       

 cryst.   s(10) = (     1          1          0      )    f =(  0.0000000 )
                  (     0         -1          0      )       ( -0.0000000 )
                  (     0          0         -1      )       (  0.5000000 )

 cart.    s(10) = (  0.5000000  0.8660254  0.0000000 )    f =(  0.0000000 )
                  (  0.8660254 -0.5000000  0.0000000 )       ( -0.0000000 )
                  (  0.0000000  0.0000000 -1.0000000 )       (  0.8100000 )


      isym = 11     180 deg rotation - cryst. axis [0,1,0]       

 cryst.   s(11) = (    -1         -1          0      )
                  (     0          1          0      )
                  (     0          0         -1      )

 cart.    s(11) = ( -0.5000000 -0.8660254  0.0000000 )
                  ( -0.8660254  0.5000000  0.0000000 )
                  (  0.0000000  0.0000000 -1.0000000 )


      isym = 12     180 deg rotation - cryst. axis [1,1,0]       

 cryst.   s(12) = (     0          1          0      )
                  (     1          0          0      )
                  (     0          0         -1      )

 cart.    s(12) = ( -0.5000000  0.8660254  0.0000000 )
                  (  0.8660254  0.5000000  0.0000000 )
                  (  0.0000000  0.0000000 -1.0000000 )


      isym = 13     inversion                                    

 cryst.   s(13) = (    -1          0          0      )
                  (     0         -1          0      )
                  (     0          0         -1      )

 cart.    s(13) = ( -1.0000000  0.0000000  0.0000000 )
                  (  0.0000000 -1.0000000  0.0000000 )
                  (  0.0000000  0.0000000 -1.0000000 )


      isym = 14     inv. 180 deg rotation - cart. axis [0,0,1]   

 cryst.   s(14) = (     1          0          0      )    f =(  0.0000000 )
                  (     0          1          0      )       (  0.0000000 )
                  (     0          0         -1      )       (  0.5000000 )

 cart.    s(14) = (  1.0000000  0.0000000  0.0000000 )    f =(  0.0000000 )
                  (  0.0000000  1.0000000  0.0000000 )       (  0.0000000 )
                  (  0.0000000  0.0000000 -1.0000000 )       (  0.8100000 )


      isym = 15     inv. 180 deg rotation - cart. axis [0,1,0]   

 cryst.   s(15) = (     1          0          0      )    f =(  0.0000000 )
                  (    -1         -1          0      )       (  0.0000000 )
                  (     0          0          1      )       ( -0.5000000 )

 cart.    s(15) = (  1.0000000  0.0000000  0.0000000 )    f =(  0.0000000 )
                  (  0.0000000 -1.0000000  0.0000000 )       (  0.0000000 )
                  (  0.0000000  0.0000000  1.0000000 )       ( -0.8100000 )


      isym = 16     inv. 180 deg rotation - cart. axis [1,0,0]   

 cryst.   s(16) = (    -1          0          0      )
                  (     1          1          0      )
                  (     0          0          1      )

 cart.    s(16) = ( -1.0000000  0.0000000  0.0000000 )
                  (  0.0000000  1.0000000  0.0000000 )
                  (  0.0000000  0.0000000  1.0000000 )


      isym = 17     inv.  60 deg rotation - cryst. axis [0,0,1]  

 cryst.   s(17) = (    -1         -1          0      )    f =(  0.0000000 )
                  (     1          0          0      )       (  0.0000000 )
                  (     0          0         -1      )       (  0.5000000 )

 cart.    s(17) = ( -0.5000000  0.8660254  0.0000000 )    f =(  0.0000000 )
                  ( -0.8660254 -0.5000000  0.0000000 )       (  0.0000000 )
                  (  0.0000000  0.0000000 -1.0000000 )       (  0.8100000 )


      isym = 18     inv.  60 deg rotation - cryst. axis [0,0,-1] 

 cryst.   s(18) = (     0          1          0      )    f =(  0.0000000 )
                  (    -1         -1          0      )       ( -0.0000000 )
                  (     0          0         -1      )       (  0.5000000 )

 cart.    s(18) = ( -0.5000000 -0.8660254  0.0000000 )    f =(  0.0000000 )
                  (  0.8660254 -0.5000000  0.0000000 )       ( -0.0000000 )
                  (  0.0000000  0.0000000 -1.0000000 )       (  0.8100000 )


      isym = 19     inv. 120 deg rotation - cryst. axis [0,0,1]  

 cryst.   s(19) = (     0         -1          0      )
                  (     1          1          0      )
                  (     0          0         -1      )

 cart.    s(19) = (  0.5000000  0.8660254  0.0000000 )
                  ( -0.8660254  0.5000000  0.0000000 )
                  (  0.0000000  0.0000000 -1.0000000 )


      isym = 20     inv. 120 deg rotation - cryst. axis [0,0,-1] 

 cryst.   s(20) = (     1          1          0      )
                  (    -1          0          0      )
                  (     0          0         -1      )

 cart.    s(20) = (  0.5000000 -0.8660254  0.0000000 )
                  (  0.8660254  0.5000000  0.0000000 )
                  (  0.0000000  0.0000000 -1.0000000 )


      isym = 21     inv. 180 deg rotation - cryst. axis [1,-1,0] 

 cryst.   s(21) = (     0          1          0      )    f =(  0.0000000 )
                  (     1          0          0      )       ( -0.0000000 )
                  (     0          0          1      )       ( -0.5000000 )

 cart.    s(21) = ( -0.5000000  0.8660254  0.0000000 )    f =(  0.0000000 )
                  (  0.8660254  0.5000000  0.0000000 )       ( -0.0000000 )
                  (  0.0000000  0.0000000  1.0000000 )       ( -0.8100000 )


      isym = 22     inv. 180 deg rotation - cryst. axis [2,1,0]  

 cryst.   s(22) = (    -1         -1          0      )    f =(  0.0000000 )
                  (     0          1          0      )       ( -0.0000000 )
                  (     0          0          1      )       ( -0.5000000 )

 cart.    s(22) = ( -0.5000000 -0.8660254  0.0000000 )    f =(  0.0000000 )
                  ( -0.8660254  0.5000000  0.0000000 )       ( -0.0000000 )
                  (  0.0000000  0.0000000  1.0000000 )       ( -0.8100000 )


      isym = 23     inv. 180 deg rotation - cryst. axis [0,1,0]  

 cryst.   s(23) = (     1          1          0      )
                  (     0         -1          0      )
                  (     0          0          1      )

 cart.    s(23) = (  0.5000000  0.8660254  0.0000000 )
                  (  0.8660254 -0.5000000  0.0000000 )
                  (  0.0000000  0.0000000  1.0000000 )


      isym = 24     inv. 180 deg rotation - cryst. axis [1,1,0]  

 cryst.   s(24) = (     0         -1          0      )
                  (    -1          0          0      )
                  (     0          0          1      )

 cart.    s(24) = (  0.5000000 -0.8660254  0.0000000 )
                  ( -0.8660254 -0.5000000  0.0000000 )
                  (  0.0000000  0.0000000  1.0000000 )


     point group D_6h(6/mmm)
     there are 12 classes
     the character table:

       E     2C6   2C3   C2    3C2'  3C2'' i     2S3   2S6   s_h   3s_d  3s_v 
A_1g   1.00  1.00  1.00  1.00  1.00  1.00  1.00  1.00  1.00  1.00  1.00  1.00
A_2g   1.00  1.00  1.00  1.00 -1.00 -1.00  1.00  1.00  1.00  1.00 -1.00 -1.00
B_1g   1.00 -1.00  1.00 -1.00  1.00 -1.00  1.00 -1.00  1.00 -1.00  1.00 -1.00
B_2g   1.00 -1.00  1.00 -1.00 -1.00  1.00  1.00 -1.00  1.00 -1.00 -1.00  1.00
E_1g   2.00  1.00 -1.00 -2.00  0.00  0.00  2.00  1.00 -1.00 -2.00  0.00  0.00
E_2g   2.00 -1.00 -1.00  2.00  0.00  0.00  2.00 -1.00 -1.00  2.00  0.00  0.00
A_1u   1.00  1.00  1.00  1.00  1.00  1.00 -1.00 -1.00 -1.00 -1.00 -1.00 -1.00
A_2u   1.00  1.00  1.00  1.00 -1.00 -1.00 -1.00 -1.00 -1.00 -1.00  1.00  1.00
B_1u   1.00 -1.00  1.00 -1.00  1.00 -1.00 -1.00  1.00 -1.00  1.00 -1.00  1.00
B_2u   1.00 -1.00  1.00 -1.00 -1.00  1.00 -1.00  1.00 -1.00  1.00  1.00 -1.00
E_1u   2.00  1.00 -1.00 -2.00  0.00  0.00 -2.00 -1.00  1.00  2.00  0.00  0.00
E_2u   2.00 -1.00 -1.00  2.00  0.00  0.00 -2.00  1.00  1.00 -2.00  0.00  0.00

     the symmetry operations in each class and the name of the first element:

     E        1
          identity                                               
     2C6      5    6
           60 deg rotation - cryst. axis [0,0,1]                 
     2C3      7    8
          120 deg rotation - cryst. axis [0,0,1]                 
     C2       2
          180 deg rotation - cart. axis [0,0,1]                  
     3C2'     4   12   11
          180 deg rotation - cart. axis [1,0,0]                  
     3C2''    3    9   10
          180 deg rotation - cart. axis [0,1,0]                  
     i       13
          inversion                                              
     2S3     17   18
          inv.  60 deg rotation - cryst. axis [0,0,1]            
     2S6     19   20
          inv. 120 deg rotation - cryst. axis [0,0,1]            
     s_h     14
          inv. 180 deg rotation - cart. axis [0,0,1]             
     3s_d    16   24   23
          inv. 180 deg rotation - cart. axis [1,0,0]             
     3s_v    15   21   22
          inv. 180 deg rotation - cart. axis [0,1,0]             

   Cartesian axes

     site n.     atom                  positions (alat units)
         1           Co  tau(   1) = (  -0.0000000   0.5773503   0.4050000  )
         2           Co  tau(   2) = (   0.5000000   0.2886751   1.2150000  )

   Crystallographic axes

     site n.     atom                  positions (cryst. coord.)
         1           Co  tau(   1) = (  0.3333333  0.6666667  0.2500000  )
         2           Co  tau(   2) = (  0.6666667  0.3333333  0.7500000  )

     number of k points=    76  Gaussian smearing, width (Ry)=  0.0010
                       cart. coord. in units 2pi/alat
        k(    1) = (   0.0000000   0.0000000   0.0000000), wk =   0.0011574
        k(    2) = (   0.0000000   0.0000000   0.1028807), wk =   0.0023148
        k(    3) = (   0.0000000   0.0000000   0.2057613), wk =   0.0023148
        k(    4) = (   0.0000000   0.0000000  -0.3086420), wk =   0.0011574
        k(    5) = (   0.0000000   0.0962250   0.0000000), wk =   0.0069444
        k(    6) = (   0.0000000   0.0962250   0.1028807), wk =   0.0138889
        k(    7) = (   0.0000000   0.0962250   0.2057613), wk =   0.0138889
        k(    8) = (   0.0000000   0.0962250  -0.3086420), wk =   0.0069444
        k(    9) = (   0.0000000   0.1924501   0.0000000), wk =   0.0069444
        k(   10) = (   0.0000000   0.1924501   0.1028807), wk =   0.0138889
        k(   11) = (   0.0000000   0.1924501   0.2057613), wk =   0.0138889
        k(   12) = (   0.0000000   0.1924501  -0.3086420), wk =   0.0069444
        k(   13) = (   0.0000000   0.2886751   0.0000000), wk =   0.0069444
        k(   14) = (   0.0000000   0.2886751   0.1028807), wk =   0.0138889
        k(   15) = (   0.0000000   0.2886751   0.2057613), wk =   0.0138889
        k(   16) = (   0.0000000   0.2886751  -0.3086420), wk =   0.0069444
        k(   17) = (   0.0000000   0.3849002   0.0000000), wk =   0.0069444
        k(   18) = (   0.0000000   0.3849002   0.1028807), wk =   0.0138889
        k(   19) = (   0.0000000   0.3849002   0.2057613), wk =   0.0138889
        k(   20) = (   0.0000000   0.3849002  -0.3086420), wk =   0.0069444
        k(   21) = (   0.0000000   0.4811252   0.0000000), wk =   0.0069444
        k(   22) = (   0.0000000   0.4811252   0.1028807), wk =   0.0138889
        k(   23) = (   0.0000000   0.4811252   0.2057613), wk =   0.0138889
        k(   24) = (   0.0000000   0.4811252  -0.3086420), wk =   0.0069444
        k(   25) = (   0.0000000  -0.5773503   0.0000000), wk =   0.0034722
        k(   26) = (   0.0000000  -0.5773503   0.1028807), wk =   0.0069444
        k(   27) = (   0.0000000  -0.5773503   0.2057613), wk =   0.0069444
        k(   28) = (   0.0000000  -0.5773503  -0.3086420), wk =   0.0034722
        k(   29) = (   0.0833333   0.1443376   0.0000000), wk =   0.0069444
        k(   30) = (   0.0833333   0.1443376   0.1028807), wk =   0.0138889
        k(   31) = (   0.0833333   0.1443376   0.2057613), wk =   0.0138889
        k(   32) = (   0.0833333   0.1443376  -0.3086420), wk =   0.0069444
        k(   33) = (   0.0833333   0.2405626   0.0000000), wk =   0.0138889
        k(   34) = (   0.0833333   0.2405626   0.1028807), wk =   0.0277778
        k(   35) = (   0.0833333   0.2405626   0.2057613), wk =   0.0277778
        k(   36) = (   0.0833333   0.2405626  -0.3086420), wk =   0.0138889
        k(   37) = (   0.0833333   0.3367877   0.0000000), wk =   0.0138889
        k(   38) = (   0.0833333   0.3367877   0.1028807), wk =   0.0277778
        k(   39) = (   0.0833333   0.3367877   0.2057613), wk =   0.0277778
        k(   40) = (   0.0833333   0.3367877  -0.3086420), wk =   0.0138889
        k(   41) = (   0.0833333   0.4330127   0.0000000), wk =   0.0138889
        k(   42) = (   0.0833333   0.4330127   0.1028807), wk =   0.0277778
        k(   43) = (   0.0833333   0.4330127   0.2057613), wk =   0.0277778
        k(   44) = (   0.0833333   0.4330127  -0.3086420), wk =   0.0138889
        k(   45) = (   0.0833333   0.5292377   0.0000000), wk =   0.0138889
        k(   46) = (   0.0833333   0.5292377   0.1028807), wk =   0.0277778
        k(   47) = (   0.0833333   0.5292377   0.2057613), wk =   0.0277778
        k(   48) = (   0.0833333   0.5292377  -0.3086420), wk =   0.0138889
        k(   49) = (   0.1666667   0.2886751   0.0000000), wk =   0.0069444
        k(   50) = (   0.1666667   0.2886751   0.1028807), wk =   0.0138889
        k(   51) = (   0.1666667   0.2886751   0.2057613), wk =   0.0138889
        k(   52) = (   0.1666667   0.2886751  -0.3086420), wk =   0.0069444
        k(   53) = (   0.1666667   0.3849002   0.0000000), wk =   0.0138889
        k(   54) = (   0.1666667   0.3849002   0.1028807), wk =   0.0277778
        k(   55) = (   0.1666667   0.3849002   0.2057613), wk =   0.0277778
        k(   56) = (   0.1666667   0.3849002  -0.3086420), wk =   0.0138889
        k(   57) = (   0.1666667   0.4811252   0.0000000), wk =   0.0138889
        k(   58) = (   0.1666667   0.4811252   0.1028807), wk =   0.0277778
        k(   59) = (   0.1666667   0.4811252   0.2057613), wk =   0.0277778
        k(   60) = (   0.1666667   0.4811252  -0.3086420), wk =   0.0138889
        k(   61) = (   0.1666667   0.5773503   0.0000000), wk =   0.0069444
        k(   62) = (   0.1666667   0.5773503   0.1028807), wk =   0.0138889
        k(   63) = (   0.1666667   0.5773503   0.2057613), wk =   0.0138889
        k(   64) = (   0.1666667   0.5773503  -0.3086420), wk =   0.0069444
        k(   65) = (   0.2500000   0.4330127   0.0000000), wk =   0.0069444
        k(   66) = (   0.2500000   0.4330127   0.1028807), wk =   0.0138889
        k(   67) = (   0.2500000   0.4330127   0.2057613), wk =   0.0138889
        k(   68) = (   0.2500000   0.4330127  -0.3086420), wk =   0.0069444
        k(   69) = (   0.2500000   0.5292377   0.0000000), wk =   0.0138889
        k(   70) = (   0.2500000   0.5292377   0.1028807), wk =   0.0277778
        k(   71) = (   0.2500000   0.5292377   0.2057613), wk =   0.0277778
        k(   72) = (   0.2500000   0.5292377  -0.3086420), wk =   0.0138889
        k(   73) = (   0.3333333   0.5773503   0.0000000), wk =   0.0023148
        k(   74) = (   0.3333333   0.5773503   0.1028807), wk =   0.0046296
        k(   75) = (   0.3333333   0.5773503   0.2057613), wk =   0.0046296
        k(   76) = (   0.3333333   0.5773503  -0.3086420), wk =   0.0023148

                       cryst. coord.
        k(    1) = (   0.0000000   0.0000000   0.0000000), wk =   0.0011574
        k(    2) = (   0.0000000   0.0000000   0.1666667), wk =   0.0023148
        k(    3) = (   0.0000000   0.0000000   0.3333333), wk =   0.0023148
        k(    4) = (   0.0000000   0.0000000  -0.5000000), wk =   0.0011574
        k(    5) = (   0.0000000   0.0833333   0.0000000), wk =   0.0069444
        k(    6) = (   0.0000000   0.0833333   0.1666667), wk =   0.0138889
        k(    7) = (   0.0000000   0.0833333   0.3333333), wk =   0.0138889
        k(    8) = (   0.0000000   0.0833333  -0.5000000), wk =   0.0069444
        k(    9) = (   0.0000000   0.1666667   0.0000000), wk =   0.0069444
        k(   10) = (   0.0000000   0.1666667   0.1666667), wk =   0.0138889
        k(   11) = (   0.0000000   0.1666667   0.3333333), wk =   0.0138889
        k(   12) = (   0.0000000   0.1666667  -0.5000000), wk =   0.0069444
        k(   13) = (   0.0000000   0.2500000   0.0000000), wk =   0.0069444
        k(   14) = (   0.0000000   0.2500000   0.1666667), wk =   0.0138889
        k(   15) = (   0.0000000   0.2500000   0.3333333), wk =   0.0138889
        k(   16) = (   0.0000000   0.2500000  -0.5000000), wk =   0.0069444
        k(   17) = (   0.0000000   0.3333333   0.0000000), wk =   0.0069444
        k(   18) = (   0.0000000   0.3333333   0.1666667), wk =   0.0138889
        k(   19) = (   0.0000000   0.3333333   0.3333333), wk =   0.0138889
        k(   20) = (   0.0000000   0.3333333  -0.5000000), wk =   0.0069444
        k(   21) = (   0.0000000   0.4166667   0.0000000), wk =   0.0069444
        k(   22) = (   0.0000000   0.4166667   0.1666667), wk =   0.0138889
        k(   23) = (   0.0000000   0.4166667   0.3333333), wk =   0.0138889
        k(   24) = (   0.0000000   0.4166667  -0.5000000), wk =   0.0069444
        k(   25) = (   0.0000000  -0.5000000   0.0000000), wk =   0.0034722
        k(   26) = (   0.0000000  -0.5000000   0.1666667), wk =   0.0069444
        k(   27) = (   0.0000000  -0.5000000   0.3333333), wk =   0.0069444
        k(   28) = (   0.0000000  -0.5000000  -0.5000000), wk =   0.0034722
        k(   29) = (   0.0833333   0.0833333   0.0000000), wk =   0.0069444
        k(   30) = (   0.0833333   0.0833333   0.1666667), wk =   0.0138889
        k(   31) = (   0.0833333   0.0833333   0.3333333), wk =   0.0138889
        k(   32) = (   0.0833333   0.0833333  -0.5000000), wk =   0.0069444
        k(   33) = (   0.0833333   0.1666667   0.0000000), wk =   0.0138889
        k(   34) = (   0.0833333   0.1666667   0.1666667), wk =   0.0277778
        k(   35) = (   0.0833333   0.1666667   0.3333333), wk =   0.0277778
        k(   36) = (   0.0833333   0.1666667  -0.5000000), wk =   0.0138889
        k(   37) = (   0.0833333   0.2500000   0.0000000), wk =   0.0138889
        k(   38) = (   0.0833333   0.2500000   0.1666667), wk =   0.0277778
        k(   39) = (   0.0833333   0.2500000   0.3333333), wk =   0.0277778
        k(   40) = (   0.0833333   0.2500000  -0.5000000), wk =   0.0138889
        k(   41) = (   0.0833333   0.3333333   0.0000000), wk =   0.0138889
        k(   42) = (   0.0833333   0.3333333   0.1666667), wk =   0.0277778
        k(   43) = (   0.0833333   0.3333333   0.3333333), wk =   0.0277778
        k(   44) = (   0.0833333   0.3333333  -0.5000000), wk =   0.0138889
        k(   45) = (   0.0833333   0.4166667   0.0000000), wk =   0.0138889
        k(   46) = (   0.0833333   0.4166667   0.1666667), wk =   0.0277778
        k(   47) = (   0.0833333   0.4166667   0.3333333), wk =   0.0277778
        k(   48) = (   0.0833333   0.4166667  -0.5000000), wk =   0.0138889
        k(   49) = (   0.1666667   0.1666667   0.0000000), wk =   0.0069444
        k(   50) = (   0.1666667   0.1666667   0.1666667), wk =   0.0138889
        k(   51) = (   0.1666667   0.1666667   0.3333333), wk =   0.0138889
        k(   52) = (   0.1666667   0.1666667  -0.5000000), wk =   0.0069444
        k(   53) = (   0.1666667   0.2500000   0.0000000), wk =   0.0138889
        k(   54) = (   0.1666667   0.2500000   0.1666667), wk =   0.0277778
        k(   55) = (   0.1666667   0.2500000   0.3333333), wk =   0.0277778
        k(   56) = (   0.1666667   0.2500000  -0.5000000), wk =   0.0138889
        k(   57) = (   0.1666667   0.3333333   0.0000000), wk =   0.0138889
        k(   58) = (   0.1666667   0.3333333   0.1666667), wk =   0.0277778
        k(   59) = (   0.1666667   0.3333333   0.3333333), wk =   0.0277778
        k(   60) = (   0.1666667   0.3333333  -0.5000000), wk =   0.0138889
        k(   61) = (   0.1666667   0.4166667   0.0000000), wk =   0.0069444
        k(   62) = (   0.1666667   0.4166667   0.1666667), wk =   0.0138889
        k(   63) = (   0.1666667   0.4166667   0.3333333), wk =   0.0138889
        k(   64) = (   0.1666667   0.4166667  -0.5000000), wk =   0.0069444
        k(   65) = (   0.2500000   0.2500000   0.0000000), wk =   0.0069444
        k(   66) = (   0.2500000   0.2500000   0.1666667), wk =   0.0138889
        k(   67) = (   0.2500000   0.2500000   0.3333333), wk =   0.0138889
        k(   68) = (   0.2500000   0.2500000  -0.5000000), wk =   0.0069444
        k(   69) = (   0.2500000   0.3333333   0.0000000), wk =   0.0138889
        k(   70) = (   0.2500000   0.3333333   0.1666667), wk =   0.0277778
        k(   71) = (   0.2500000   0.3333333   0.3333333), wk =   0.0277778
        k(   72) = (   0.2500000   0.3333333  -0.5000000), wk =   0.0138889
        k(   73) = (   0.3333333   0.3333333   0.0000000), wk =   0.0023148
        k(   74) = (   0.3333333   0.3333333   0.1666667), wk =   0.0046296
        k(   75) = (   0.3333333   0.3333333   0.3333333), wk =   0.0046296
        k(   76) = (   0.3333333   0.3333333  -0.5000000), wk =   0.0023148

     Dense  grid:    24033 G-vectors     FFT dimensions: (  36,  36,  54)

     Smooth grid:    23283 G-vectors     FFT dimensions: (  32,  32,  54)

     Dynamical RAM for                 wfc:       0.05 MB

     Dynamical RAM for     wfc (w. buffer):       7.11 MB

     Dynamical RAM for           str. fact:       0.02 MB

     Dynamical RAM for           local pot:       0.00 MB

     Dynamical RAM for          nlocal pot:       0.08 MB

     Dynamical RAM for                qrad:       1.70 MB

     Dynamical RAM for          rho,v,vnew:       0.29 MB

     Dynamical RAM for               rhoin:       0.10 MB

     Dynamical RAM for            rho*nmix:       0.59 MB

     Dynamical RAM for           G-vectors:       0.08 MB

     Dynamical RAM for          h,s,v(r/c):       0.08 MB

     Dynamical RAM for          <psi|beta>:       0.01 MB

     Dynamical RAM for                 psi:       0.09 MB

     Dynamical RAM for                hpsi:       0.09 MB

     Dynamical RAM for                spsi:       0.09 MB

     Dynamical RAM for      wfcinit/wfcrot:       0.10 MB

     Dynamical RAM for           addusdens:       3.47 MB

     Estimated static dynamical RAM per process >       9.59 MB

     Estimated max dynamical RAM per process >      13.65 MB

     Estimated total dynamical RAM >     272.92 MB

     Check: negative core charge=   -0.000043
     Generating pointlists ...
     new r_m :   0.4103 (alat units)  1.9449 (a.u.) for type    1

     The initial density is read from file :
     ./out/Co.save/charge-density

     Starting wfcs from file
     Checking if some PAW data can be deallocated... 

     total cpu time spent up to now is        0.6 secs

     Self-consistent Calculation

     iteration #  1     ecut=   110.00 Ry     beta= 0.70
     Davidson diagonalization with overlap

---- Real-time Memory Report at c_bands before calling an iterative solver
            57 MiB given to the printing process from OS
             0 MiB allocation reported by mallinfo(arena+hblkhd)
        318161 MiB available memory on the node where the printing process lives
------------------
     ethr =  1.00E-05,  avg # of iterations =  1.0

     Threshold (ethr) on eigenvalues was too large:
     Diagonalizing with lowered threshold

     Davidson diagonalization with overlap

---- Real-time Memory Report at c_bands before calling an iterative solver
            66 MiB given to the printing process from OS
             0 MiB allocation reported by mallinfo(arena+hblkhd)
        318148 MiB available memory on the node where the printing process lives
------------------
     c_bands:  1 eigenvalues not converged
     c_bands:  3 eigenvalues not converged
     c_bands:  1 eigenvalues not converged
     c_bands:  1 eigenvalues not converged
     c_bands:  1 eigenvalues not converged
     c_bands:  1 eigenvalues not converged
     c_bands:  1 eigenvalues not converged
     c_bands:  3 eigenvalues not converged
     c_bands:  3 eigenvalues not converged
     c_bands:  2 eigenvalues not converged
     c_bands:  4 eigenvalues not converged
     c_bands:  2 eigenvalues not converged
     c_bands:  1 eigenvalues not converged
     c_bands:  2 eigenvalues not converged
     c_bands:  1 eigenvalues not converged
     c_bands:  1 eigenvalues not converged
     c_bands:  1 eigenvalues not converged
     c_bands:  1 eigenvalues not converged
     c_bands:  4 eigenvalues not converged
     c_bands:  1 eigenvalues not converged
     c_bands:  1 eigenvalues not converged
     c_bands:  1 eigenvalues not converged
     c_bands:  1 eigenvalues not converged
     c_bands:  2 eigenvalues not converged
     c_bands:  1 eigenvalues not converged
     c_bands:  2 eigenvalues not converged
     c_bands:  3 eigenvalues not converged
     c_bands:  4 eigenvalues not converged
     c_bands:  1 eigenvalues not converged
     c_bands:  2 eigenvalues not converged
     c_bands:  2 eigenvalues not converged
     c_bands:  2 eigenvalues not converged
     c_bands:  4 eigenvalues not converged
     c_bands:  2 eigenvalues not converged
     c_bands:  3 eigenvalues not converged
     c_bands:  2 eigenvalues not converged
     ethr =  5.58E-11,  avg # of iterations = 16.9
 
     Magnetic moment per site  (integrated on atomic sphere of radius R)
     atom   1 (R=0.410)  charge= 15.6052  magn=  1.7567
     atom   2 (R=0.410)  charge= 15.6052  magn=  1.7567

     total cpu time spent up to now is        6.9 secs

     End of self-consistent calculation

 ------ SPIN UP ------------


          k = 0.0000 0.0000 0.0000 (  2875 PWs)   bands (ev):

   -77.8947 -77.8435 -41.2865 -41.0119 -41.0119 -40.9836 -40.9679 -40.9679
     9.3546  13.1287  15.5969  15.6350  15.6350  15.9361  15.9361  16.2647
    16.2647  17.3315  17.3315  17.9919  24.3239

     occupation numbers 
     1.0000   1.0000   1.0000   1.0000   1.0000   1.0000   1.0000   1.0000
     1.0000   1.0000   1.0000   1.0000   1.0000   1.0000   1.0000   1.0000
     1.0000   1.0000   1.0000   1.0000   0.0000

          k = 0.0000 0.0000 0.1029 (  2893 PWs)   bands (ev):

   -77.8913 -77.8470 -41.2665 -41.0090 -41.0090 -41.0042 -40.9709 -40.9709
     9.6271  13.0568  15.5286  15.5715  15.5715  15.8649  15.8649  16.4230
    16.4230  17.0379  17.3154  17.3154  25.8417

     occupation numbers 
     1.0000   1.0000   1.0000   1.0000   1.0000   1.0000   1.0000   1.0000
     1.0000   1.0000   1.0000   1.0000   1.0000   1.0000   1.0000   1.0000
     1.0000   1.0000   1.0000   1.0000   0.0000

          k = 0.0000 0.0000 0.2058 (  2906 PWs)   bands (ev):

   -77.8820 -77.8563 -41.2116 -41.0602 -41.0010 -41.0010 -40.9789 -40.9789
    10.4093  12.6132  15.3708  15.5178  15.5178  15.7077  15.7077  15.7361
    16.7342  16.7342  17.2302  17.2302  29.0334

     occupation numbers 
     1.0000   1.0000   1.0000   1.0000   1.0000   1.0000   1.0000   1.0000
     1.0000   1.0000   1.0000   1.0000   1.0000   1.0000   1.0000   1.0000
     1.0000   1.0000   1.0000   1.0000   0.0000

          k = 0.0000 0.0000-0.3086 (  2894 PWs)   bands (ev):

   -77.8692 -77.8692 -41.1361 -41.1361 -40.9899 -40.9899 -40.9899 -40.9899
    11.5525  11.5525  15.2954  15.2954  15.5679  15.5679  15.5679  15.5679
    17.0308  17.0308  17.0308  17.0308  32.8405

     occupation numbers 
     1.0000   1.0000   1.0000   1.0000   1.0000   1.0000   1.0000   1.0000
     1.0000   1.0000   1.0000   1.0000   1.0000   1.0000   1.0000   1.0000
     1.0000   1.0000   1.0000   1.0000   0.0000

          k = 0.0000 0.0962 0.0000 (  2877 PWs)   bands (ev):

   -77.8918 -77.8422 -41.2800 -41.0265 -41.0167 -40.9864 -40.9830 -40.9703
     9.5928  13.2711  15.4005  15.7454  15.7960  15.8901  16.0339  16.1144
    16.1961  16.5671  17.3603  19.0711  24.3653

     occupation numbers 
     1.0000   1.0000   1.0000   1.0000   1.0000   1.0000   1.0000   1.0000
     1.0000   1.0000   1.0000   1.0000   1.0000   1.0000   1.0000   1.0000
     1.0000   1.0000   1.0000   0.0000   0.0000

          k = 0.0000 0.0962 0.1029 (  2895 PWs)   bands (ev):

   -77.8885 -77.8455 -41.2611 -41.0231 -41.0136 -41.0111 -40.9810 -40.9735
     9.8613  13.2138  15.3986  15.6260  15.6655  15.7151  15.9568  16.2474
    16.3809  16.4668  17.3372  18.2882  25.9519

     occupation numbers 
     1.0000   1.0000   1.0000   1.0000   1.0000   1.0000   1.0000   1.0000
     1.0000   1.0000   1.0000   1.0000   1.0000   1.0000   1.0000   1.0000
     1.0000   1.0000   1.0000   0.0000   0.0000

          k = 0.0000 0.0962 0.2058 (  2894 PWs)   bands (ev):

   -77.8794 -77.8546 -41.2092 -41.0656 -41.0137 -41.0051 -40.9887 -40.9820
    10.6314  12.7987  15.2941  15.3503  15.4444  15.6051  15.7984  15.8655
    16.7099  16.7540  17.2361  17.5242  29.1866

     occupation numbers 
     1.0000   1.0000   1.0000   1.0000   1.0000   1.0000   1.0000   1.0000
     1.0000   1.0000   1.0000   1.0000   1.0000   1.0000   1.0000   1.0000
     1.0000   1.0000   1.0000   1.0000   0.0000

          k = 0.0000 0.0962-0.3086 (  2894 PWs)   bands (ev):

   -77.8670 -77.8670 -41.1378 -41.1378 -41.0011 -41.0011 -40.9935 -40.9935
    11.7564  11.7564  15.1525  15.1525  15.5827  15.5827  15.6567  15.6567
    17.0203  17.0203  17.1205  17.1205  33.0073

     occupation numbers 
     1.0000   1.0000   1.0000   1.0000   1.0000   1.0000   1.0000   1.0000
     1.0000   1.0000   1.0000   1.0000   1.0000   1.0000   1.0000   1.0000
     1.0000   1.0000   1.0000   1.0000   0.0000

          k = 0.0000 0.1925 0.0000 (  2892 PWs)   bands (ev):

   -77.8838 -77.8386 -41.2613 -41.0663 -41.0294 -41.0238 -40.9946 -40.9773
    10.2826  13.6240  15.1384  15.4102  15.7193  16.0268  16.0572  16.0905
    16.2163  16.3080  17.4217  20.6295  24.5107

     occupation numbers 
     1.0000   1.0000   1.0000   1.0000   1.0000   1.0000   1.0000   1.0000
     1.0000   1.0000   1.0000   1.0000   1.0000   1.0000   1.0000   1.0000
     1.0000   1.0000   1.0000   0.0000   0.0000

          k = 0.0000 0.1925 0.1029 (  2899 PWs)   bands (ev):

   -77.8808 -77.8417 -41.2460 -41.0615 -41.0413 -41.0259 -40.9974 -40.9808
    10.5356  13.6111  15.1447  15.1776  15.6033  15.8660  15.9790  16.1952
    16.3657  16.4547  17.3830  19.4945  26.3093

     occupation numbers 
     1.0000   1.0000   1.0000   1.0000   1.0000   1.0000   1.0000   1.0000
     1.0000   1.0000   1.0000   1.0000   1.0000   1.0000   1.0000   1.0000
     1.0000   1.0000   1.0000   0.0000   0.0000

          k = 0.0000 0.1925 0.2058 (  2906 PWs)   bands (ev):

   -77.8725 -77.8500 -41.2041 -41.0877 -41.0461 -41.0164 -41.0091 -40.9903
    11.2583  13.2798  14.8136  15.2304  15.3324  15.8058  15.8177  16.0499
    16.6857  16.8412  17.2488  18.1569  29.6447

     occupation numbers 
     1.0000   1.0000   1.0000   1.0000   1.0000   1.0000   1.0000   1.0000
     1.0000   1.0000   1.0000   1.0000   1.0000   1.0000   1.0000   1.0000
     1.0000   1.0000   1.0000   1.0000   0.0000

          k = 0.0000 0.1925-0.3086 (  2900 PWs)   bands (ev):

   -77.8612 -77.8612 -41.1464 -41.1464 -41.0273 -41.0273 -41.0034 -41.0034
    12.3067  12.3067  14.9278  14.9278  15.5281  15.5281  15.8933  15.8933
    17.0058  17.0058  17.3619  17.3619  33.4611

     occupation numbers 
     1.0000   1.0000   1.0000   1.0000   1.0000   1.0000   1.0000   1.0000
     1.0000   1.0000   1.0000   1.0000   1.0000   1.0000   1.0000   1.0000
     1.0000   1.0000   1.0000   1.0000   0.0000

          k = 0.0000 0.2887 0.0000 (  2894 PWs)   bands (ev):

   -77.8723 -77.8343 -41.2332 -41.1211 -41.0787 -41.0463 -41.0084 -40.9872
    11.3290  13.9098  14.7083  14.9774  15.6255  15.8230  16.0218  16.5063
    16.5092  16.7019  17.4795  22.3903  24.7927

     occupation numbers 
     1.0000   1.0000   1.0000   1.0000   1.0000   1.0000   1.0000   1.0000
     1.0000   1.0000   1.0000   1.0000   1.0000   1.0000   1.0000   1.0000
     1.0000   1.0000   1.0000   0.0000   0.0000

          k = 0.0000 0.2887 0.1029 (  2907 PWs)   bands (ev):

   -77.8698 -77.8368 -41.2262 -41.1122 -41.0919 -41.0424 -41.0112 -40.9912
    11.5408  13.9502  14.5684  15.0266  15.4783  15.8605  16.0268  16.5511
    16.6230  16.6580  17.4270  20.7520  26.9489

     occupation numbers 
     1.0000   1.0000   1.0000   1.0000   1.0000   1.0000   1.0000   1.0000
     1.0000   1.0000   1.0000   1.0000   1.0000   1.0000   1.0000   1.0000
     1.0000   1.0000   1.0000   0.0000   0.0000

          k = 0.0000 0.2887 0.2058 (  2904 PWs)   bands (ev):

   -77.8628 -77.8438 -41.2049 -41.1312 -41.0814 -41.0316 -41.0245 -41.0020
    12.1312  13.7117  14.4902  15.0570  15.3525  15.8738  15.9795  16.4043
    16.8048  16.9982  17.2744  18.9181  30.2752

     occupation numbers 
     1.0000   1.0000   1.0000   1.0000   1.0000   1.0000   1.0000   1.0000
     1.0000   1.0000   1.0000   1.0000   1.0000   1.0000   1.0000   1.0000
     1.0000   1.0000   1.0000   0.0000   0.0000

          k = 0.0000 0.2887-0.3086 (  2920 PWs)   bands (ev):

   -77.8533 -77.8533 -41.1709 -41.1709 -41.0502 -41.0502 -41.0168 -41.0168
    12.9493  12.9493  14.7781  14.7781  15.5855  15.5855  16.1749  16.1749
    17.0482  17.0482  17.7011  17.7011  32.3680

     occupation numbers 
     1.0000   1.0000   1.0000   1.0000   1.0000   1.0000   1.0000   1.0000
     1.0000   1.0000   1.0000   1.0000   1.0000   1.0000   1.0000   1.0000
     1.0000   1.0000   1.0000   1.0000   0.0000

          k = 0.0000 0.3849 0.0000 (  2900 PWs)   bands (ev):

   -77.8601 -77.8307 -41.2004 -41.1764 -41.1326 -41.0628 -41.0269 -40.9975
    12.4794  13.8486  14.2009  15.0805  15.6393  15.7435  15.8478  16.9906
    17.1286  17.1724  17.5190  24.3135  24.8805

     occupation numbers 
     1.0000   1.0000   1.0000   1.0000   1.0000   1.0000   1.0000   1.0000
     1.0000   1.0000   1.0000   1.0000   1.0000   1.0000   1.0000   1.0000
     1.0000   1.0000   1.0000   0.0000   0.0000

          k = 0.0000 0.3849 0.1029 (  2897 PWs)   bands (ev):

   -77.8581 -77.8326 -41.2172 -41.1552 -41.1371 -41.0584 -41.0268 -41.0019
    12.5812  13.8789  14.2318  14.9419  15.6668  15.7287  16.1846  17.0085
    17.0387  17.1098  17.4690  21.9792  26.9987

     occupation numbers 
     1.0000   1.0000   1.0000   1.0000   1.0000   1.0000   1.0000   1.0000
     1.0000   1.0000   1.0000   1.0000   1.0000   1.0000   1.0000   1.0000
     1.0000   1.0000   1.0000   0.0000   0.0000

          k = 0.0000 0.3849 0.2058 (  2917 PWs)   bands (ev):

   -77.8527 -77.8380 -41.2231 -41.1807 -41.0978 -41.0465 -41.0349 -41.0139
    12.8641  13.6989  14.3692  14.8628  15.7642  15.9808  16.4832  16.7323
    17.1098  17.2213  17.3580  19.7998  28.0754

     occupation numbers 
     1.0000   1.0000   1.0000   1.0000   1.0000   1.0000   1.0000   1.0000
     1.0000   1.0000   1.0000   1.0000   1.0000   1.0000   1.0000   1.0000
     1.0000   1.0000   1.0000   0.0000   0.0000

          k = 0.0000 0.3849-0.3086 (  2922 PWs)   bands (ev):

   -77.8454 -77.8454 -41.2090 -41.2090 -41.0592 -41.0592 -41.0302 -41.0302
    13.2715  13.2715  14.6548  14.6548  16.1677  16.1677  16.3452  16.3452
    17.2296  17.2296  18.1781  18.1781  29.1844

     occupation numbers 
     1.0000   1.0000   1.0000   1.0000   1.0000   1.0000   1.0000   1.0000
     1.0000   1.0000   1.0000   1.0000   1.0000   1.0000   1.0000   1.0000
     1.0000   1.0000   0.9999   0.9999   0.0000

          k = 0.0000 0.4811 0.0000 (  2920 PWs)   bands (ev):

   -77.8500 -77.8291 -41.2172 -41.1715 -41.1700 -41.0747 -41.0469 -41.0052
    13.2488  13.6661  13.8981  15.4267  15.5138  15.7247  15.9414  17.3503
    17.4817  17.5400  18.2594  23.0753  26.3027

     occupation numbers 
     1.0000   1.0000   1.0000   1.0000   1.0000   1.0000   1.0000   1.0000
     1.0000   1.0000   1.0000   1.0000   1.0000   1.0000   1.0000   1.0000
     1.0000   1.0000   0.0000   0.0000   0.0000

          k = 0.0000 0.4811 0.1029 (  2911 PWs)   bands (ev):

   -77.8486 -77.8305 -41.2351 -41.1878 -41.1394 -41.0700 -41.0430 -41.0099
    13.1475  13.6643  14.1974  14.8388  15.6230  15.9417  16.5308  17.2865
    17.3831  17.5469  18.1062  22.3157  25.5913

     occupation numbers 
     1.0000   1.0000   1.0000   1.0000   1.0000   1.0000   1.0000   1.0000
     1.0000   1.0000   1.0000   1.0000   1.0000   1.0000   1.0000   1.0000
     1.0000   1.0000   1.0000   0.0000   0.0000

          k = 0.0000 0.4811 0.2058 (  2920 PWs)   bands (ev):

   -77.8448 -77.8343 -41.2487 -41.2178 -41.0953 -41.0573 -41.0434 -41.0226
    13.1215  13.5909  14.3554  14.6736  15.9329  16.1818  16.8875  17.4132
    17.4543  17.5156  17.8167  20.6320  25.7182

     occupation numbers 
     1.0000   1.0000   1.0000   1.0000   1.0000   1.0000   1.0000   1.0000
     1.0000   1.0000   1.0000   1.0000   1.0000   1.0000   1.0000   1.0000
     1.0000   1.0000   1.0000   0.0000   0.0000

          k = 0.0000 0.4811-0.3086 (  2908 PWs)   bands (ev):

   -77.8396 -77.8396 -41.2420 -41.2420 -41.0606 -41.0606 -41.0400 -41.0400
    13.3039  13.3039  14.5370  14.5370  16.3877  16.3877  16.8709  16.8709
    17.4649  17.4649  19.0088  19.0088  26.4933

     occupation numbers 
     1.0000   1.0000   1.0000   1.0000   1.0000   1.0000   1.0000   1.0000
     1.0000   1.0000   1.0000   1.0000   1.0000   1.0000   1.0000   1.0000
     1.0000   1.0000   0.0000   0.0000   0.0000

          k = 0.0000-0.5774 0.0000 (  2926 PWs)   bands (ev):

   -77.8458 -77.8290 -41.2321 -41.1856 -41.1558 -41.0790 -41.0573 -41.0080
    13.5157  13.5236  13.7978  15.4694  15.6690  15.6802  16.0148  17.4802
    17.5463  17.6245  19.4019  21.3641  27.5943

     occupation numbers 
     1.0000   1.0000   1.0000   1.0000   1.0000   1.0000   1.0000   1.0000
     1.0000   1.0000   1.0000   1.0000   1.0000   1.0000   1.0000   1.0000
     1.0000   1.0000   0.0000   0.0000   0.0000

          k = 0.0000-0.5774 0.1029 (  2926 PWs)   bands (ev):

   -77.8447 -77.8302 -41.2464 -41.2011 -41.1317 -41.0743 -41.0514 -41.0128
    13.2527  13.5717  14.2317  14.8112  15.5843  16.0261  16.7261  17.3441
    17.5231  17.6170  19.2062  21.1974  26.7141

     occupation numbers 
     1.0000   1.0000   1.0000   1.0000   1.0000   1.0000   1.0000   1.0000
     1.0000   1.0000   1.0000   1.0000   1.0000   1.0000   1.0000   1.0000
     1.0000   1.0000   0.0000   0.0000   0.0000

          k = 0.0000-0.5774 0.2058 (  2910 PWs)   bands (ev):

   -77.8416 -77.8332 -41.2599 -41.2314 -41.0915 -41.0613 -41.0475 -41.0258
    13.1450  13.5486  14.3800  14.5868  15.9108  16.3209  16.9203  17.5401
    17.5678  17.5965  18.9147  20.6286  25.6332

     occupation numbers 
     1.0000   1.0000   1.0000   1.0000   1.0000   1.0000   1.0000   1.0000
     1.0000   1.0000   1.0000   1.0000   1.0000   1.0000   1.0000   1.0000
     1.0000   1.0000   0.0000   0.0000   0.0000

          k = 0.0000-0.5774-0.3086 (  2912 PWs)   bands (ev):

   -77.8374 -77.8374 -41.2546 -41.2546 -41.0604 -41.0604 -41.0436 -41.0436
    13.2896  13.2896  14.4908  14.4908  16.3911  16.3911  17.1037  17.1037
    17.5682  17.5682  19.6652  19.6652  25.2422

     occupation numbers 
     1.0000   1.0000   1.0000   1.0000   1.0000   1.0000   1.0000   1.0000
     1.0000   1.0000   1.0000   1.0000   1.0000   1.0000   1.0000   1.0000
     1.0000   1.0000   0.0000   0.0000   0.0000

          k = 0.0833 0.1443 0.0000 (  2884 PWs)   bands (ev):

   -77.8864 -77.8397 -41.2673 -41.0512 -41.0315 -41.0054 -40.9919 -40.9769
    10.0577  13.5244  15.1943  15.6491  15.7876  15.9455  15.9709  15.9982
    16.2492  16.3338  17.3958  20.1922  24.4606

     occupation numbers 
     1.0000   1.0000   1.0000   1.0000   1.0000   1.0000   1.0000   1.0000
     1.0000   1.0000   1.0000   1.0000   1.0000   1.0000   1.0000   1.0000
     1.0000   1.0000   1.0000   0.0000   0.0000

          k = 0.0833 0.1443 0.1029 (  2884 PWs)   bands (ev):

   -77.8832 -77.8429 -41.2508 -41.0467 -41.0351 -41.0199 -40.9918 -40.9803
    10.3165  13.4971  15.2195  15.3262  15.6458  15.8272  15.9558  16.1139
    16.3879  16.4417  17.3648  19.1670  26.1876

     occupation numbers 
     1.0000   1.0000   1.0000   1.0000   1.0000   1.0000   1.0000   1.0000
     1.0000   1.0000   1.0000   1.0000   1.0000   1.0000   1.0000   1.0000
     1.0000   1.0000   1.0000   0.0000   0.0000

          k = 0.0833 0.1443 0.2058 (  2906 PWs)   bands (ev):

   -77.8747 -77.8514 -41.2054 -41.0794 -41.0348 -41.0167 -41.0000 -40.9893
    11.0575  13.1382  14.9336  15.2764  15.3434  15.7544  15.8200  15.9717
    16.7138  16.7878  17.2481  17.9735  29.4950

     occupation numbers 
     1.0000   1.0000   1.0000   1.0000   1.0000   1.0000   1.0000   1.0000
     1.0000   1.0000   1.0000   1.0000   1.0000   1.0000   1.0000   1.0000
     1.0000   1.0000   1.0000   1.0000   0.0000

          k = 0.0833 0.1443-0.3086 (  2904 PWs)   bands (ev):

   -77.8631 -77.8631 -41.1428 -41.1428 -41.0195 -41.0195 -41.0007 -41.0007
    12.1370  12.1370  14.9846  14.9846  15.5286  15.5286  15.8313  15.8313
    17.0108  17.0108  17.2865  17.2865  33.3283

     occupation numbers 
     1.0000   1.0000   1.0000   1.0000   1.0000   1.0000   1.0000   1.0000
     1.0000   1.0000   1.0000   1.0000   1.0000   1.0000   1.0000   1.0000
     1.0000   1.0000   1.0000   1.0000   0.0000

          k = 0.0833 0.2406 0.0000 (  2896 PWs)   bands (ev):

   -77.8766 -77.8358 -41.2439 -41.0950 -41.0682 -41.0320 -41.0029 -40.9882
    10.9338  13.8867  14.9320  14.9659  15.6677  15.7806  16.1864  16.1938
    16.3818  16.6527  17.4393  21.7544  24.6949

     occupation numbers 
     1.0000   1.0000   1.0000   1.0000   1.0000   1.0000   1.0000   1.0000
     1.0000   1.0000   1.0000   1.0000   1.0000   1.0000   1.0000   1.0000
     1.0000   1.0000   1.0000   0.0000   0.0000

          k = 0.0833 0.2406 0.1029 (  2901 PWs)   bands (ev):

   -77.8739 -77.8385 -41.2330 -41.0887 -41.0766 -41.0365 -41.0042 -40.9917
    11.1663  13.9179  14.7608  14.9797  15.5496  15.8062  16.0059  16.3140
    16.5675  16.6340  17.4032  20.3182  26.7074

     occupation numbers 
     1.0000   1.0000   1.0000   1.0000   1.0000   1.0000   1.0000   1.0000
     1.0000   1.0000   1.0000   1.0000   1.0000   1.0000   1.0000   1.0000
     1.0000   1.0000   1.0000   0.0000   0.0000

          k = 0.0833 0.2406 0.2058 (  2911 PWs)   bands (ev):

   -77.8664 -77.8460 -41.2024 -41.1129 -41.0669 -41.0349 -41.0128 -41.0012
    11.8238  13.6496  14.5711  15.0809  15.2944  15.7049  15.9586  16.2796
    16.8025  16.9137  17.2869  18.6532  30.0965

     occupation numbers 
     1.0000   1.0000   1.0000   1.0000   1.0000   1.0000   1.0000   1.0000
     1.0000   1.0000   1.0000   1.0000   1.0000   1.0000   1.0000   1.0000
     1.0000   1.0000   1.0000   0.0000   0.0000

          k = 0.0833 0.2406-0.3086 (  2920 PWs)   bands (ev):

   -77.8562 -77.8562 -41.1589 -41.1589 -41.0437 -41.0437 -41.0131 -41.0131
    12.7617  12.7617  14.8322  14.8322  15.4281  15.4281  16.1012  16.1012
    17.0548  17.0548  17.5793  17.5793  33.6810

     occupation numbers 
     1.0000   1.0000   1.0000   1.0000   1.0000   1.0000   1.0000   1.0000
     1.0000   1.0000   1.0000   1.0000   1.0000   1.0000   1.0000   1.0000
     1.0000   1.0000   1.0000   1.0000   0.0000

          k = 0.0833 0.3368 0.0000 (  2908 PWs)   bands (ev):

   -77.8647 -77.8318 -41.2132 -41.1487 -41.1143 -41.0561 -41.0193 -41.0004
    12.0675  14.0093  14.4098  14.8624  15.5983  15.6752  15.9953  16.5869
    16.8690  17.2009  17.4758  23.5594  25.0533

     occupation numbers 
     1.0000   1.0000   1.0000   1.0000   1.0000   1.0000   1.0000   1.0000
     1.0000   1.0000   1.0000   1.0000   1.0000   1.0000   1.0000   1.0000
     1.0000   1.0000   1.0000   0.0000   0.0000

          k = 0.0833 0.3368 0.1029 (  2900 PWs)   bands (ev):

   -77.8625 -77.8340 -41.2158 -41.1375 -41.1198 -41.0561 -41.0195 -41.0036
    12.2318  14.0721  14.3188  14.9085  15.4662  15.8198  15.9747  16.6101
    16.9552  17.0677  17.4849  21.5641  27.4419

     occupation numbers 
     1.0000   1.0000   1.0000   1.0000   1.0000   1.0000   1.0000   1.0000
     1.0000   1.0000   1.0000   1.0000   1.0000   1.0000   1.0000   1.0000
     1.0000   1.0000   1.0000   0.0000   0.0000

          k = 0.0833 0.3368 0.2058 (  2910 PWs)   bands (ev):

   -77.8565 -77.8401 -41.2107 -41.1592 -41.0920 -41.0508 -41.0270 -41.0128
    12.6761  13.8330  14.4228  14.9797  15.3825  15.8439  16.0280  16.5966
    17.0231  17.1813  17.4541  19.4996  29.7036

     occupation numbers 
     1.0000   1.0000   1.0000   1.0000   1.0000   1.0000   1.0000   1.0000
     1.0000   1.0000   1.0000   1.0000   1.0000   1.0000   1.0000   1.0000
     1.0000   1.0000   1.0000   0.0000   0.0000

          k = 0.0833 0.3368-0.3086 (  2918 PWs)   bands (ev):

   -77.8483 -77.8483 -41.1902 -41.1902 -41.0599 -41.0599 -41.0263 -41.0263
    13.2679  13.2679  14.7546  14.7546  15.5957  15.5957  16.2883  16.2883
    17.2490  17.2490  18.0320  18.0320  30.8837

     occupation numbers 
     1.0000   1.0000   1.0000   1.0000   1.0000   1.0000   1.0000   1.0000
     1.0000   1.0000   1.0000   1.0000   1.0000   1.0000   1.0000   1.0000
     1.0000   1.0000   1.0000   1.0000   0.0000

          k = 0.0833 0.4330 0.0000 (  2914 PWs)   bands (ev):

   -77.8534 -77.8294 -41.1964 -41.1807 -41.1548 -41.0751 -41.0395 -41.0109
    13.0763  13.8420  14.0343  15.0814  15.4815  15.8046  15.8613  17.0809
    17.2843  17.4983  17.9772  24.3960  25.5240

     occupation numbers 
     1.0000   1.0000   1.0000   1.0000   1.0000   1.0000   1.0000   1.0000
     1.0000   1.0000   1.0000   1.0000   1.0000   1.0000   1.0000   1.0000
     1.0000   1.0000   1.0000   0.0000   0.0000

          k = 0.0833 0.4330 0.1029 (  2913 PWs)   bands (ev):

   -77.8518 -77.8310 -41.2207 -41.1733 -41.1402 -41.0722 -41.0371 -41.0140
    13.0753  13.8649  14.1778  14.8491  15.5586  15.8788  16.1433  17.0305
    17.3237  17.3431  17.9772  22.6345  26.1155

     occupation numbers 
     1.0000   1.0000   1.0000   1.0000   1.0000   1.0000   1.0000   1.0000
     1.0000   1.0000   1.0000   1.0000   1.0000   1.0000   1.0000   1.0000
     1.0000   1.0000   1.0000   0.0000   0.0000

          k = 0.0833 0.4330 0.2058 (  2905 PWs)   bands (ev):

   -77.8474 -77.8354 -41.2333 -41.2006 -41.0989 -41.0618 -41.0410 -41.0216
    13.1643  13.7353  14.3598  14.8220  15.6646  16.0781  16.5183  16.7798
    17.1997  17.4967  18.0449  20.5148  26.8167

     occupation numbers 
     1.0000   1.0000   1.0000   1.0000   1.0000   1.0000   1.0000   1.0000
     1.0000   1.0000   1.0000   1.0000   1.0000   1.0000   1.0000   1.0000
     1.0000   1.0000   1.0000   0.0000   0.0000

          k = 0.0833 0.4330-0.3086 (  2904 PWs)   bands (ev):

   -77.8414 -77.8414 -41.2251 -41.2251 -41.0678 -41.0678 -41.0357 -41.0357
    13.4081  13.4081  14.6421  14.6421  16.0912  16.0912  16.4645  16.4645
    17.4485  17.4485  18.8689  18.8689  27.8512

     occupation numbers 
     1.0000   1.0000   1.0000   1.0000   1.0000   1.0000   1.0000   1.0000
     1.0000   1.0000   1.0000   1.0000   1.0000   1.0000   1.0000   1.0000
     1.0000   1.0000   0.0000   0.0000   0.0000

          k = 0.0833 0.5292 0.0000 (  2924 PWs)   bands (ev):

   -77.8459 -77.8290 -41.2241 -41.1782 -41.1560 -41.0857 -41.0571 -41.0170
    13.5364  13.6815  13.8468  15.4347  15.4376  15.6760  16.0123  17.4357
    17.5067  17.5080  19.2317  22.1235  27.4025

     occupation numbers 
     1.0000   1.0000   1.0000   1.0000   1.0000   1.0000   1.0000   1.0000
     1.0000   1.0000   1.0000   1.0000   1.0000   1.0000   1.0000   1.0000
     1.0000   1.0000   0.0000   0.0000   0.0000

          k = 0.0833 0.5292 0.1029 (  2912 PWs)   bands (ev):

   -77.8447 -77.8301 -41.2385 -41.1942 -41.1329 -41.0798 -41.0523 -41.0201
    13.3302  13.6988  14.2615  14.7938  15.4876  16.0651  16.3998  17.2928
    17.4609  17.5368  19.1710  21.8757  26.1248

     occupation numbers 
     1.0000   1.0000   1.0000   1.0000   1.0000   1.0000   1.0000   1.0000
     1.0000   1.0000   1.0000   1.0000   1.0000   1.0000   1.0000   1.0000
     1.0000   1.0000   0.0000   0.0000   0.0000

          k = 0.0833 0.5292 0.2058 (  2919 PWs)   bands (ev):

   -77.8416 -77.8332 -41.2521 -41.2243 -41.0983 -41.0631 -41.0530 -41.0268
    13.2452  13.6713  14.3873  14.6900  15.6569  16.3760  16.7738  17.0221
    17.4212  17.6073  19.2249  21.0492  25.3872

     occupation numbers 
     1.0000   1.0000   1.0000   1.0000   1.0000   1.0000   1.0000   1.0000
     1.0000   1.0000   1.0000   1.0000   1.0000   1.0000   1.0000   1.0000
     1.0000   1.0000   0.0000   0.0000   0.0000

          k = 0.0833 0.5292-0.3086 (  2908 PWs)   bands (ev):

   -77.8374 -77.8374 -41.2472 -41.2472 -41.0719 -41.0719 -41.0397 -41.0397
    13.3994  13.3994  14.5606  14.5606  16.1876  16.1876  16.8867  16.8867
    17.4884  17.4884  19.9513  19.9513  25.6596

     occupation numbers 
     1.0000   1.0000   1.0000   1.0000   1.0000   1.0000   1.0000   1.0000
     1.0000   1.0000   1.0000   1.0000   1.0000   1.0000   1.0000   1.0000
     1.0000   1.0000   0.0000   0.0000   0.0000

          k = 0.1667 0.2887 0.0000 (  2914 PWs)   bands (ev):

   -77.8664 -77.8323 -41.2177 -41.1270 -41.1182 -41.0485 -41.0168 -41.0079
    11.9220  14.1799  14.5201  14.6479  15.5289  15.6759  16.0878  16.3556
    16.8569  17.2221  17.4383  23.3045  25.0883

     occupation numbers 
     1.0000   1.0000   1.0000   1.0000   1.0000   1.0000   1.0000   1.0000
     1.0000   1.0000   1.0000   1.0000   1.0000   1.0000   1.0000   1.0000
     1.0000   1.0000   1.0000   0.0000   0.0000

          k = 0.1667 0.2887 0.1029 (  2913 PWs)   bands (ev):

   -77.8641 -77.8346 -41.2161 -41.1254 -41.1136 -41.0563 -41.0132 -41.0116
    12.1072  14.2727  14.3810  14.6989  15.4990  15.6859  15.9717  16.4369
    16.9702  17.0582  17.4977  21.4267  27.4339

     occupation numbers 
     1.0000   1.0000   1.0000   1.0000   1.0000   1.0000   1.0000   1.0000
     1.0000   1.0000   1.0000   1.0000   1.0000   1.0000   1.0000   1.0000
     1.0000   1.0000   1.0000   0.0000   0.0000

          k = 0.1667 0.2887 0.2058 (  2912 PWs)   bands (ev):

   -77.8579 -77.8408 -41.2055 -41.1499 -41.0843 -41.0595 -41.0207 -41.0166
    12.6148  13.9496  14.5249  14.8461  15.3287  15.5547  15.9698  16.5366
    17.0326  17.1632  17.5283  19.4225  30.7651

     occupation numbers 
     1.0000   1.0000   1.0000   1.0000   1.0000   1.0000   1.0000   1.0000
     1.0000   1.0000   1.0000   1.0000   1.0000   1.0000   1.0000   1.0000
     1.0000   1.0000   1.0000   0.0000   0.0000

          k = 0.1667 0.2887-0.3086 (  2916 PWs)   bands (ev):

   -77.8493 -77.8493 -41.1815 -41.1815 -41.0610 -41.0610 -41.0257 -41.0257
    13.2992  13.2992  14.8372  14.8372  15.2804  15.2804  16.2394  16.2394
    17.2971  17.2971  18.0117  18.0117  32.6049

     occupation numbers 
     1.0000   1.0000   1.0000   1.0000   1.0000   1.0000   1.0000   1.0000
     1.0000   1.0000   1.0000   1.0000   1.0000   1.0000   1.0000   1.0000
     1.0000   1.0000   1.0000   1.0000   0.0000

          k = 0.1667 0.3849 0.0000 (  2920 PWs)   bands (ev):

   -77.8553 -77.8297 -41.1864 -41.1692 -41.1492 -41.0741 -41.0357 -41.0268
    13.0099  14.1692  14.1716  14.6198  15.3768  15.8143  15.9004  16.6567
    17.2837  17.4337  18.0031  25.1330  25.4830

     occupation numbers 
     1.0000   1.0000   1.0000   1.0000   1.0000   1.0000   1.0000   1.0000
     1.0000   1.0000   1.0000   1.0000   1.0000   1.0000   1.0000   1.0000
     1.0000   1.0000   1.0000   0.0000   0.0000

          k = 0.1667 0.3849 0.1029 (  2914 PWs)   bands (ev):

   -77.8536 -77.8314 -41.2065 -41.1659 -41.1296 -41.0806 -41.0343 -41.0245
    13.0906  14.1043  14.2667  14.6985  15.4288  15.7968  15.8582  16.6892
    17.2276  17.3687  18.0867  22.7055  27.5549

     occupation numbers 
     1.0000   1.0000   1.0000   1.0000   1.0000   1.0000   1.0000   1.0000
     1.0000   1.0000   1.0000   1.0000   1.0000   1.0000   1.0000   1.0000
     1.0000   1.0000   1.0000   0.0000   0.0000

          k = 0.1667 0.3849 0.2058 (  2901 PWs)   bands (ev):

   -77.8489 -77.8361 -41.2170 -41.1862 -41.0959 -41.0790 -41.0405 -41.0226
    13.3083  13.9063  14.5048  14.9222  15.3525  15.6383  15.9904  16.6563
    17.1371  17.5135  18.2665  20.5264  28.5120

     occupation numbers 
     1.0000   1.0000   1.0000   1.0000   1.0000   1.0000   1.0000   1.0000
     1.0000   1.0000   1.0000   1.0000   1.0000   1.0000   1.0000   1.0000
     1.0000   1.0000   0.0000   0.0000   0.0000

          k = 0.1667 0.3849-0.3086 (  2902 PWs)   bands (ev):

   -77.8425 -77.8425 -41.2084 -41.2084 -41.0786 -41.0786 -41.0337 -41.0337
    13.6068  13.6068  14.8347  14.8347  15.4305  15.4305  16.2550  16.2550
    17.4999  17.4999  18.9536  18.9536  29.6538

     occupation numbers 
     1.0000   1.0000   1.0000   1.0000   1.0000   1.0000   1.0000   1.0000
     1.0000   1.0000   1.0000   1.0000   1.0000   1.0000   1.0000   1.0000
     1.0000   1.0000   0.0000   0.0000   0.0000

          k = 0.1667 0.4811 0.0000 (  2920 PWs)   bands (ev):

   -77.8459 -77.8290 -41.2030 -41.1645 -41.1563 -41.0982 -41.0567 -41.0396
    13.7065  13.9571  13.9751  14.9173  15.3361  15.6955  16.0095  17.0558
    17.4295  17.4934  19.1554  23.7661  27.1176

     occupation numbers 
     1.0000   1.0000   1.0000   1.0000   1.0000   1.0000   1.0000   1.0000
     1.0000   1.0000   1.0000   1.0000   1.0000   1.0000   1.0000   1.0000
     1.0000   1.0000   0.0000   0.0000   0.0000

          k = 0.1667 0.4811 0.1029 (  2918 PWs)   bands (ev):

   -77.8448 -77.8301 -41.2180 -41.1831 -41.1321 -41.0945 -41.0552 -41.0354
    13.5603  14.0355  14.2076  14.7395  15.3865  15.8298  16.0784  17.0402
    17.2424  17.5528  19.2376  23.2295  25.9259

     occupation numbers 
     1.0000   1.0000   1.0000   1.0000   1.0000   1.0000   1.0000   1.0000
     1.0000   1.0000   1.0000   1.0000   1.0000   1.0000   1.0000   1.0000
     1.0000   1.0000   0.0000   0.0000   0.0000

          k = 0.1667 0.4811 0.2058 (  2916 PWs)   bands (ev):

   -77.8417 -77.8332 -41.2328 -41.2094 -41.1117 -41.0807 -41.0547 -41.0287
    13.5238  13.9538  14.4034  14.9301  15.2854  15.9535  16.2915  16.7398
    17.2223  17.6259  19.5478  21.7335  25.9986

     occupation numbers 
     1.0000   1.0000   1.0000   1.0000   1.0000   1.0000   1.0000   1.0000
     1.0000   1.0000   1.0000   1.0000   1.0000   1.0000   1.0000   1.0000
     1.0000   1.0000   0.0000   0.0000   0.0000

          k = 0.1667 0.4811-0.3086 (  2910 PWs)   bands (ev):

   -77.8374 -77.8374 -41.2297 -41.2297 -41.0931 -41.0931 -41.0362 -41.0362
    13.6775  13.6775  14.7371  14.7371  15.6839  15.6839  16.4392  16.4392
    17.5051  17.5051  20.3469  20.3469  26.8720

     occupation numbers 
     1.0000   1.0000   1.0000   1.0000   1.0000   1.0000   1.0000   1.0000
     1.0000   1.0000   1.0000   1.0000   1.0000   1.0000   1.0000   1.0000
     1.0000   1.0000   0.0000   0.0000   0.0000

          k = 0.1667 0.5774 0.0000 (  2932 PWs)   bands (ev):

   -77.8418 -77.8294 -41.2153 -41.1691 -41.1410 -41.1083 -41.0687 -41.0442
    13.8800  13.8811  13.8853  15.1317  15.3557  15.5864  16.0931  17.3266
    17.4277  17.4693  20.4090  21.9336  28.3035

     occupation numbers 
     1.0000   1.0000   1.0000   1.0000   1.0000   1.0000   1.0000   1.0000
     1.0000   1.0000   1.0000   1.0000   1.0000   1.0000   1.0000   1.0000
     1.0000   1.0000   0.0000   0.0000   0.0000

          k = 0.1667 0.5774 0.1029 (  2926 PWs)   bands (ev):

   -77.8409 -77.8303 -41.2269 -41.1862 -41.1344 -41.0910 -41.0680 -41.0400
    13.5886  13.9535  14.3693  14.7195  15.3106  15.9486  16.1667  17.2145
    17.3231  17.5195  20.5088  21.8895  27.2220

     occupation numbers 
     1.0000   1.0000   1.0000   1.0000   1.0000   1.0000   1.0000   1.0000
     1.0000   1.0000   1.0000   1.0000   1.0000   1.0000   1.0000   1.0000
     1.0000   1.0000   0.0000   0.0000   0.0000

          k = 0.1667 0.5774 0.2058 (  2914 PWs)   bands (ev):

   -77.8387 -77.8325 -41.2404 -41.2166 -41.1189 -41.0793 -41.0593 -41.0316
    13.5236  13.9674  14.4389  14.8878  15.2043  16.1488  16.4099  16.8080
    17.3382  17.5570  20.8161  21.7075  25.9400

     occupation numbers 
     1.0000   1.0000   1.0000   1.0000   1.0000   1.0000   1.0000   1.0000
     1.0000   1.0000   1.0000   1.0000   1.0000   1.0000   1.0000   1.0000
     1.0000   1.0000   0.0000   0.0000   0.0000

          k = 0.1667 0.5774-0.3086 (  2926 PWs)   bands (ev):

   -77.8356 -77.8356 -41.2377 -41.2377 -41.0987 -41.0987 -41.0366 -41.0366
    13.6816  13.6816  14.6982  14.6982  15.7213  15.7213  16.6388  16.6388
    17.4455  17.4455  21.2999  21.2999  25.4526

     occupation numbers 
     1.0000   1.0000   1.0000   1.0000   1.0000   1.0000   1.0000   1.0000
     1.0000   1.0000   1.0000   1.0000   1.0000   1.0000   1.0000   1.0000
     1.0000   1.0000   0.0000   0.0000   0.0000

          k = 0.2500 0.4330 0.0000 (  2918 PWs)   bands (ev):

   -77.8459 -77.8290 -41.1846 -41.1654 -41.1564 -41.0991 -41.0566 -41.0565
    13.8319  14.0207  14.3588  14.4072  15.2701  15.7133  16.0175  16.8309
    17.3891  17.4981  19.1625  25.5057  26.2654

     occupation numbers 
     1.0000   1.0000   1.0000   1.0000   1.0000   1.0000   1.0000   1.0000
     1.0000   1.0000   1.0000   1.0000   1.0000   1.0000   1.0000   1.0000
     1.0000   1.0000   0.0000   0.0000   0.0000

          k = 0.2500 0.4330 0.1029 (  2914 PWs)   bands (ev):

   -77.8448 -77.8301 -41.1979 -41.1887 -41.1188 -41.1121 -41.0591 -41.0420
    13.8381  13.9735  14.4184  14.5338  15.4181  15.5734  16.0110  16.8652
    17.1910  17.5601  19.2849  23.9983  26.5441

     occupation numbers 
     1.0000   1.0000   1.0000   1.0000   1.0000   1.0000   1.0000   1.0000
     1.0000   1.0000   1.0000   1.0000   1.0000   1.0000   1.0000   1.0000
     1.0000   1.0000   0.0000   0.0000   0.0000

          k = 0.2500 0.4330 0.2058 (  2917 PWs)   bands (ev):

   -77.8417 -77.8332 -41.2184 -41.2038 -41.1163 -41.0959 -41.0544 -41.0295
    13.8441  13.9195  14.5774  14.9063  15.2602  15.5292  16.0427  16.6551
    17.1918  17.6330  19.6568  22.0003  27.3161

     occupation numbers 
     1.0000   1.0000   1.0000   1.0000   1.0000   1.0000   1.0000   1.0000
     1.0000   1.0000   1.0000   1.0000   1.0000   1.0000   1.0000   1.0000
     1.0000   1.0000   0.0000   0.0000   0.0000

          k = 0.2500 0.4330-0.3086 (  2904 PWs)   bands (ev):

   -77.8374 -77.8374 -41.2189 -41.2189 -41.1050 -41.1050 -41.0352 -41.0352
    13.8729  13.8729  14.8852  14.8852  15.3213  15.3213  16.2431  16.2431
    17.5238  17.5238  20.4954  20.4954  28.3291

     occupation numbers 
     1.0000   1.0000   1.0000   1.0000   1.0000   1.0000   1.0000   1.0000
     1.0000   1.0000   1.0000   1.0000   1.0000   1.0000   1.0000   1.0000
     1.0000   1.0000   0.0000   0.0000   0.0000

          k = 0.2500 0.5292 0.0000 (  2920 PWs)   bands (ev):

   -77.8389 -77.8302 -41.1965 -41.1571 -41.1296 -41.1263 -41.0782 -41.0755
    13.9508  14.1260  14.2274  14.7086  15.2876  15.5185  16.1800  17.0997
    17.3628  17.4400  20.7968  23.3173  25.6214

     occupation numbers 
     1.0000   1.0000   1.0000   1.0000   1.0000   1.0000   1.0000   1.0000
     1.0000   1.0000   1.0000   1.0000   1.0000   1.0000   1.0000   1.0000
     1.0000   1.0000   0.0000   0.0000   0.0000

          k = 0.2500 0.5292 0.1029 (  2921 PWs)   bands (ev):

   -77.8383 -77.8307 -41.2031 -41.1793 -41.1446 -41.0994 -41.0805 -41.0562
    13.8930  14.2522  14.3465  14.6075  15.3156  15.5233  16.1862  17.1040
    17.1695  17.4827  20.9811  23.3413  25.6634

     occupation numbers 
     1.0000   1.0000   1.0000   1.0000   1.0000   1.0000   1.0000   1.0000
     1.0000   1.0000   1.0000   1.0000   1.0000   1.0000   1.0000   1.0000
     1.0000   1.0000   0.0000   0.0000   0.0000

          k = 0.2500 0.5292 0.2058 (  2923 PWs)   bands (ev):

   -77.8367 -77.8323 -41.2187 -41.2052 -41.1428 -41.1054 -41.0543 -41.0363
    13.9083  14.2499  14.5042  14.7875  15.1874  15.5450  16.2310  16.6812
    17.2599  17.5223  21.4724  23.0639  25.5792

     occupation numbers 
     1.0000   1.0000   1.0000   1.0000   1.0000   1.0000   1.0000   1.0000
     1.0000   1.0000   1.0000   1.0000   1.0000   1.0000   1.0000   1.0000
     1.0000   1.0000   0.0000   0.0000   0.0000

          k = 0.2500 0.5292-0.3086 (  2920 PWs)   bands (ev):

   -77.8345 -77.8345 -41.2213 -41.2213 -41.1252 -41.1252 -41.0349 -41.0349
    14.0411  14.0411  14.7851  14.7851  15.3273  15.3273  16.3548  16.3548
    17.4372  17.4372  22.2347  22.2347  26.1125

     occupation numbers 
     1.0000   1.0000   1.0000   1.0000   1.0000   1.0000   1.0000   1.0000
     1.0000   1.0000   1.0000   1.0000   1.0000   1.0000   1.0000   1.0000
     1.0000   1.0000   0.0000   0.0000   0.0000

          k = 0.3333 0.5774 0.0000 (  2946 PWs)   bands (ev):

   -77.8335 -77.8335 -41.1880 -41.1440 -41.1440 -41.1029 -41.1029 -41.0978
    13.9597  14.3185  14.3185  14.5982  15.3568  15.3568  16.2757  17.2415
    17.2415  17.3362  22.5287  23.3097  23.3097

     occupation numbers 
     1.0000   1.0000   1.0000   1.0000   1.0000   1.0000   1.0000   1.0000
     1.0000   1.0000   1.0000   1.0000   1.0000   1.0000   1.0000   1.0000
     1.0000   1.0000   0.0000   0.0000   0.0000

          k = 0.3333 0.5774 0.1029 (  2922 PWs)   bands (ev):

   -77.8335 -77.8335 -41.1820 -41.1713 -41.1713 -41.1039 -41.0755 -41.0755
    14.0513  14.3395  14.3395  14.6168  15.3338  15.3338  16.2488  17.1115
    17.2808  17.2808  22.9192  23.3864  23.3864

     occupation numbers 
     1.0000   1.0000   1.0000   1.0000   1.0000   1.0000   1.0000   1.0000
     1.0000   1.0000   1.0000   1.0000   1.0000   1.0000   1.0000   1.0000
     1.0000   1.0000   0.0000   0.0000   0.0000

          k = 0.3333 0.5774 0.2058 (  2922 PWs)   bands (ev):

   -77.8335 -77.8335 -41.2011 -41.2011 -41.1655 -41.1204 -41.0455 -41.0455
    14.2858  14.3796  14.3796  14.6304  15.2943  15.2943  16.2130  16.6511
    17.3557  17.3557  23.5778  23.5778  23.9229

     occupation numbers 
     1.0000   1.0000   1.0000   1.0000   1.0000   1.0000   1.0000   1.0000
     1.0000   1.0000   1.0000   1.0000   1.0000   1.0000   1.0000   1.0000
     1.0000   1.0000   0.0000   0.0000   0.0000

          k = 0.3333 0.5774-0.3086 (  2910 PWs)   bands (ev):

   -77.8335 -77.8335 -41.2123 -41.2123 -41.1430 -41.1430 -41.0342 -41.0342
    14.3984  14.3984  14.5295  14.5295  15.2779  15.2779  16.3052  16.3052
    17.3914  17.3914  23.7025  23.7025  25.3095

     occupation numbers 
     1.0000   1.0000   1.0000   1.0000   1.0000   1.0000   1.0000   1.0000
     1.0000   1.0000   1.0000   1.0000   1.0000   1.0000   1.0000   1.0000
     1.0000   1.0000   0.0000   0.0000   0.0000

 ------ SPIN DOWN ----------


          k = 0.0000 0.0000 0.0000 (  2875 PWs)   bands (ev):

   -75.7475 -75.6922 -39.2056 -38.9231 -38.9231 -38.8756 -38.8756 -38.8742
     9.3530  14.1068  17.3022  17.3469  17.3469  17.7039  17.7039  17.9300
    18.1285  18.1285  19.3199  19.3199  25.3944

     occupation numbers 
     1.0000   1.0000   1.0000   1.0000   1.0000   1.0000   1.0000   1.0000
     1.0000   1.0000   1.0000   1.0000   1.0000   1.0000   1.0000   1.0000
     1.0000   1.0000   0.0000   0.0000   0.0000

          k = 0.0000 0.0000 0.1029 (  2893 PWs)   bands (ev):

   -75.7438 -75.6959 -39.1837 -38.9199 -38.9199 -38.8968 -38.8788 -38.8788
     9.6269  13.8640  17.2120  17.2823  17.2823  17.3603  17.6224  17.6224
    18.3013  18.3013  19.3042  19.3042  26.6998

     occupation numbers 
     1.0000   1.0000   1.0000   1.0000   1.0000   1.0000   1.0000   1.0000
     1.0000   1.0000   1.0000   1.0000   1.0000   1.0000   1.0000   1.0000
     0.0000   0.0000   0.0000   0.0000   0.0000

          k = 0.0000 0.0000 0.2058 (  2906 PWs)   bands (ev):

   -75.7337 -75.7061 -39.1237 -38.9580 -38.9112 -38.9112 -38.8875 -38.8875
    10.4196  12.9602  16.7570  16.9827  17.2270  17.2270  17.4435  17.4435
    18.6502  18.6502  19.2113  19.2113  29.6502

     occupation numbers 
     1.0000   1.0000   1.0000   1.0000   1.0000   1.0000   1.0000   1.0000
     1.0000   1.0000   1.0000   1.0000   1.0000   1.0000   1.0000   1.0000
     0.0000   0.0000   0.0000   0.0000   0.0000

          k = 0.0000 0.0000-0.3086 (  2894 PWs)   bands (ev):

   -75.7199 -75.7199 -39.0412 -39.0412 -38.8993 -38.8993 -38.8993 -38.8993
    11.6246  11.6246  16.7442  16.7442  17.2850  17.2850  17.2850  17.2850
    18.9864  18.9864  18.9864  18.9864  33.2761

     occupation numbers 
     1.0000   1.0000   1.0000   1.0000   1.0000   1.0000   1.0000   1.0000
     1.0000   1.0000   1.0000   1.0000   1.0000   1.0000   1.0000   1.0000
     0.0000   0.0000   0.0000   0.0000   0.0000

          k = 0.0000 0.0962 0.0000 (  2877 PWs)   bands (ev):

   -75.7444 -75.6908 -39.1984 -38.9390 -38.9283 -38.8921 -38.8782 -38.8772
     9.5924  14.2706  17.0629  17.3399  17.4693  17.5305  17.6405  17.8123
    18.0473  18.0581  19.3548  20.1287  25.4117

     occupation numbers 
     1.0000   1.0000   1.0000   1.0000   1.0000   1.0000   1.0000   1.0000
     1.0000   1.0000   1.0000   1.0000   1.0000   1.0000   1.0000   1.0000
     1.0000   1.0000   0.0000   0.0000   0.0000

          k = 0.0000 0.0962 0.1029 (  2895 PWs)   bands (ev):

   -75.7408 -75.6944 -39.1778 -38.9353 -38.9249 -38.9094 -38.8848 -38.8816
     9.8627  14.0407  16.9247  17.0607  17.3387  17.3886  17.6515  17.7233
    18.2485  18.2637  19.3302  19.7932  26.7831

     occupation numbers 
     1.0000   1.0000   1.0000   1.0000   1.0000   1.0000   1.0000   1.0000
     1.0000   1.0000   1.0000   1.0000   1.0000   1.0000   1.0000   1.0000
     0.0001   0.0000   0.0000   0.0000   0.0000

          k = 0.0000 0.0962 0.2058 (  2894 PWs)   bands (ev):

   -75.7310 -75.7042 -39.1212 -38.9656 -38.9249 -38.9158 -38.8966 -38.8907
    10.6451  13.1533  16.5452  16.9720  17.1227  17.3249  17.4663  17.5429
    18.6192  18.6535  19.2177  19.3974  29.7871

     occupation numbers 
     1.0000   1.0000   1.0000   1.0000   1.0000   1.0000   1.0000   1.0000
     1.0000   1.0000   1.0000   1.0000   1.0000   1.0000   1.0000   1.0000
     0.0000   0.0000   0.0000   0.0000   0.0000

          k = 0.0000 0.0962-0.3086 (  2894 PWs)   bands (ev):

   -75.7176 -75.7176 -39.0435 -39.0435 -38.9109 -38.9109 -38.9033 -38.9033
    11.8340  11.8340  16.6528  16.6528  17.2498  17.2498  17.3832  17.3832
    18.9726  18.9726  19.0474  19.0474  33.4362

     occupation numbers 
     1.0000   1.0000   1.0000   1.0000   1.0000   1.0000   1.0000   1.0000
     1.0000   1.0000   1.0000   1.0000   1.0000   1.0000   1.0000   1.0000
     0.0000   0.0000   0.0000   0.0000   0.0000

          k = 0.0000 0.1925 0.0000 (  2892 PWs)   bands (ev):

   -75.7357 -75.6870 -39.1778 -38.9826 -38.9421 -38.9367 -38.8861 -38.8857
    10.2897  14.6926  16.5357  16.7184  17.4157  17.8168  17.8482  17.8523
    17.8940  18.1170  19.4279  21.5534  25.4812

     occupation numbers 
     1.0000   1.0000   1.0000   1.0000   1.0000   1.0000   1.0000   1.0000
     1.0000   1.0000   1.0000   1.0000   1.0000   1.0000   1.0000   1.0000
     1.0000   1.0000   0.0000   0.0000   0.0000

          k = 0.0000 0.1925 0.1029 (  2899 PWs)   bands (ev):

   -75.7324 -75.6902 -39.1614 -38.9771 -38.9511 -38.9384 -38.8941 -38.8895
    10.5476  14.5059  16.2889  16.7572  17.3071  17.5925  17.6290  17.9825
    18.2103  18.2636  19.3839  20.7771  27.0635

     occupation numbers 
     1.0000   1.0000   1.0000   1.0000   1.0000   1.0000   1.0000   1.0000
     1.0000   1.0000   1.0000   1.0000   1.0000   1.0000   1.0000   1.0000
     0.6133   0.0000   0.0000   0.0000   0.0000

          k = 0.0000 0.1925 0.2058 (  2906 PWs)   bands (ev):

   -75.7235 -75.6992 -39.1166 -38.9953 -38.9593 -38.9280 -38.9134 -38.8998
    11.2927  13.6739  16.1749  16.8427  16.9500  17.4087  17.5676  17.8188
    18.5807  18.7067  19.2299  19.8513  30.2002

     occupation numbers 
     1.0000   1.0000   1.0000   1.0000   1.0000   1.0000   1.0000   1.0000
     1.0000   1.0000   1.0000   1.0000   1.0000   1.0000   1.0000   1.0000
     0.0000   0.0000   0.0000   0.0000   0.0000

          k = 0.0000 0.1925-0.3086 (  2900 PWs)   bands (ev):

   -75.7113 -75.7113 -39.0555 -39.0555 -38.9370 -38.9370 -38.9139 -38.9139
    12.4213  12.4213  16.4593  16.4593  17.1361  17.1361  17.6465  17.6465
    18.9497  18.9497  19.2189  19.2189  33.8758

     occupation numbers 
     1.0000   1.0000   1.0000   1.0000   1.0000   1.0000   1.0000   1.0000
     1.0000   1.0000   1.0000   1.0000   1.0000   1.0000   1.0000   1.0000
     0.0000   0.0000   0.0000   0.0000   0.0000

          k = 0.0000 0.2887 0.0000 (  2894 PWs)   bands (ev):

   -75.7233 -75.6822 -39.1469 -39.0428 -38.9967 -38.9605 -38.9010 -38.8964
    11.3728  15.1129  15.8906  16.4080  17.2584  17.6106  17.6747  18.2837
    18.3270  18.5570  19.4959  23.2090  25.6296

     occupation numbers 
     1.0000   1.0000   1.0000   1.0000   1.0000   1.0000   1.0000   1.0000
     1.0000   1.0000   1.0000   1.0000   1.0000   1.0000   1.0000   0.0000
     0.0000   0.0000   0.0000   0.0000   0.0000

          k = 0.0000 0.2887 0.1029 (  2907 PWs)   bands (ev):

   -75.7206 -75.6850 -39.1408 -39.0316 -39.0088 -38.9562 -38.9064 -38.9007
    11.6024  14.9963  15.7704  16.4683  17.1253  17.6044  17.6448  18.3707
    18.4491  18.5194  19.4333  21.8649  27.5922

     occupation numbers 
     1.0000   1.0000   1.0000   1.0000   1.0000   1.0000   1.0000   1.0000
     1.0000   1.0000   1.0000   1.0000   1.0000   1.0000   1.0000   0.0000
     0.0000   0.0000   0.0000   0.0000   0.0000

          k = 0.0000 0.2887 0.2058 (  2904 PWs)   bands (ev):

   -75.7131 -75.6925 -39.1208 -39.0479 -38.9945 -38.9445 -38.9250 -38.9125
    12.2590  14.2892  15.8929  16.5530  16.9040  17.3917  17.7621  18.2139
    18.6961  18.8443  19.2523  20.4085  30.7805

     occupation numbers 
     1.0000   1.0000   1.0000   1.0000   1.0000   1.0000   1.0000   1.0000
     1.0000   1.0000   1.0000   1.0000   1.0000   1.0000   1.0000   0.4664
     0.0000   0.0000   0.0000   0.0000   0.0000

          k = 0.0000 0.2887-0.3086 (  2920 PWs)   bands (ev):

   -75.7028 -75.7028 -39.0873 -39.0873 -38.9568 -38.9568 -38.9285 -38.9285
    13.2323  13.2323  16.2637  16.2637  17.0776  17.0776  17.9668  17.9668
    18.9845  18.9845  19.4576  19.4576  32.8269

     occupation numbers 
     1.0000   1.0000   1.0000   1.0000   1.0000   1.0000   1.0000   1.0000
     1.0000   1.0000   1.0000   1.0000   1.0000   1.0000   1.0000   1.0000
     0.0000   0.0000   0.0000   0.0000   0.0000

          k = 0.0000 0.3849 0.0000 (  2900 PWs)   bands (ev):

   -75.7101 -75.6783 -39.1108 -39.1035 -39.0555 -38.9785 -38.9212 -38.9075
    12.6773  15.1590  15.4371  16.2794  17.3471  17.3975  17.4588  18.8812
    18.9210  19.0369  19.5415  25.0232  25.5545

     occupation numbers 
     1.0000   1.0000   1.0000   1.0000   1.0000   1.0000   1.0000   1.0000
     1.0000   1.0000   1.0000   1.0000   1.0000   1.0000   1.0000   0.0000
     0.0000   0.0000   0.0000   0.0000   0.0000

          k = 0.0000 0.3849 0.1029 (  2897 PWs)   bands (ev):

   -75.7080 -75.6805 -39.1377 -39.0765 -39.0541 -38.9737 -38.9226 -38.9123
    12.8424  15.0641  15.4715  16.2976  17.1951  17.4947  17.6282  18.8930
    18.9170  18.9501  19.4753  22.8700  27.6624

     occupation numbers 
     1.0000   1.0000   1.0000   1.0000   1.0000   1.0000   1.0000   1.0000
     1.0000   1.0000   1.0000   1.0000   1.0000   1.0000   1.0000   0.0000
     0.0000   0.0000   0.0000   0.0000   0.0000

          k = 0.0000 0.3849 0.2058 (  2917 PWs)   bands (ev):

   -75.7021 -75.6863 -39.1464 -39.1040 -39.0067 -38.9608 -38.9339 -38.9253
    13.3001  14.6023  15.7347  16.3166  17.1414  17.6569  17.7700  18.5976
    19.0281  19.0835  19.3315  20.9864  28.7390

[...]
    19.4646  19.5275  20.6150  23.0658  27.9116

     occupation numbers 
     1.0000   1.0000   1.0000   1.0000   1.0000   1.0000   1.0000   1.0000
     1.0000   1.0000   1.0000   1.0000   1.0000   1.0000   1.0000   0.0000
     0.0000   0.0000   0.0000   0.0000   0.0000

          k = 0.0833 0.5292 0.1029 (  2912 PWs)   bands (ev):

   -75.6935 -75.6778 -39.1688 -39.1212 -39.0404 -38.9962 -38.9519 -38.9306
    14.2863  14.9158  15.4464  15.9597  17.1774  17.6567  17.7050  19.2605
    19.4144  19.5037  20.4831  22.7403  26.8506

     occupation numbers 
     1.0000   1.0000   1.0000   1.0000   1.0000   1.0000   1.0000   1.0000
     1.0000   1.0000   1.0000   1.0000   1.0000   1.0000   1.0000   0.0000
     0.0000   0.0000   0.0000   0.0000   0.0000

          k = 0.0833 0.5292 0.2058 (  2919 PWs)   bands (ev):

   -75.6902 -75.6811 -39.1821 -39.1523 -39.0073 -38.9742 -38.9596 -38.9332
    14.2765  14.7513  15.7427  16.0490  17.2213  17.9616  18.1514  18.8097
    19.3660  19.5904  20.2748  21.8294  26.3013

     occupation numbers 
     1.0000   1.0000   1.0000   1.0000   1.0000   1.0000   1.0000   1.0000
     1.0000   1.0000   1.0000   1.0000   1.0000   1.0000   1.0000   0.0000
     0.0000   0.0000   0.0000   0.0000   0.0000

          k = 0.0833 0.5292-0.3086 (  2908 PWs)   bands (ev):

   -75.6856 -75.6856 -39.1765 -39.1765 -38.9813 -38.9813 -38.9464 -38.9464
    14.4546  14.4546  16.0043  16.0043  17.7051  17.7051  18.4605  18.4605
    19.4467  19.4467  20.7980  20.7980  26.5543

     occupation numbers 
     1.0000   1.0000   1.0000   1.0000   1.0000   1.0000   1.0000   1.0000
     1.0000   1.0000   1.0000   1.0000   1.0000   1.0000   0.0000   0.0000
     0.0000   0.0000   0.0000   0.0000   0.0000

          k = 0.1667 0.2887 0.0000 (  2914 PWs)   bands (ev):

   -75.7169 -75.6801 -39.1298 -39.0489 -39.0400 -38.9631 -38.9189 -38.9102
    11.9905  15.3999  15.7236  16.0849  17.2326  17.2915  17.7908  18.1615
    18.7011  19.0489  19.4466  24.0892  25.8533

     occupation numbers 
     1.0000   1.0000   1.0000   1.0000   1.0000   1.0000   1.0000   1.0000
     1.0000   1.0000   1.0000   1.0000   1.0000   1.0000   1.0000   1.0000
     0.0000   0.0000   0.0000   0.0000   0.0000

          k = 0.1667 0.2887 0.1029 (  2913 PWs)   bands (ev):

   -75.7144 -75.6826 -39.1306 -39.0466 -39.0318 -38.9690 -38.9230 -38.9101
    12.2022  15.3178  15.6338  16.1494  17.1443  17.3186  17.6836  18.2472
    18.8262  18.9311  19.4527  22.4574  28.0319

     occupation numbers 
     1.0000   1.0000   1.0000   1.0000   1.0000   1.0000   1.0000   1.0000
     1.0000   1.0000   1.0000   1.0000   1.0000   1.0000   1.0000   0.0002
     0.0000   0.0000   0.0000   0.0000   0.0000

          k = 0.1667 0.2887 0.2058 (  2912 PWs)   bands (ev):

   -75.7077 -75.6893 -39.1229 -39.0696 -38.9962 -38.9713 -38.9326 -38.9187
    12.8034  14.6269  15.8800  16.3135  16.8902  17.1571  17.7374  18.3205
    18.9324  19.0469  19.4041  20.7742  31.2475

     occupation numbers 
     1.0000   1.0000   1.0000   1.0000   1.0000   1.0000   1.0000   1.0000
     1.0000   1.0000   1.0000   1.0000   1.0000   1.0000   1.0000   0.0000
     0.0000   0.0000   0.0000   0.0000   0.0000

          k = 0.1667 0.2887-0.3086 (  2916 PWs)   bands (ev):

   -75.6985 -75.6985 -39.1004 -39.1004 -38.9703 -38.9703 -38.9351 -38.9351
    13.6818  13.6818  16.2493  16.2493  16.8502  16.8502  18.0344  18.0344
    19.2332  19.2332  19.6285  19.6285  33.0256

     occupation numbers 
     1.0000   1.0000   1.0000   1.0000   1.0000   1.0000   1.0000   1.0000
     1.0000   1.0000   1.0000   1.0000   1.0000   1.0000   1.0000   1.0000
     0.0000   0.0000   0.0000   0.0000   0.0000

          k = 0.1667 0.3849 0.0000 (  2920 PWs)   bands (ev):

   -75.7049 -75.6773 -39.0956 -39.0955 -39.0735 -38.9910 -38.9395 -38.9307
    13.2343  15.4350  15.4784  15.8925  17.0359  17.4233  17.5624  18.4948
    19.1927  19.4412  19.7502  25.8306  26.1030

     occupation numbers 
     1.0000   1.0000   1.0000   1.0000   1.0000   1.0000   1.0000   1.0000
     1.0000   1.0000   1.0000   1.0000   1.0000   1.0000   1.0000   0.0000
     0.0000   0.0000   0.0000   0.0000   0.0000

          k = 0.1667 0.3849 0.1029 (  2914 PWs)   bands (ev):

   -75.7030 -75.6791 -39.1262 -39.0902 -39.0440 -38.9959 -38.9450 -38.9244
    13.3845  15.2959  15.5798  15.9932  17.0098  17.3924  17.5169  18.5333
    19.1797  19.2924  19.8567  23.5347  28.1729

     occupation numbers 
     1.0000   1.0000   1.0000   1.0000   1.0000   1.0000   1.0000   1.0000
     1.0000   1.0000   1.0000   1.0000   1.0000   1.0000   1.0000   0.0000
     0.0000   0.0000   0.0000   0.0000   0.0000

          k = 0.1667 0.3849 0.2058 (  2901 PWs)   bands (ev):

   -75.6980 -75.6842 -39.1397 -39.1104 -39.0074 -38.9914 -38.9526 -38.9242
    13.7964  14.9104  15.8571  16.2027  16.8744  17.1159  17.7029  18.4974
    19.0379  19.4719  19.9363  21.5774  29.1148

     occupation numbers 
     1.0000   1.0000   1.0000   1.0000   1.0000   1.0000   1.0000   1.0000
     1.0000   1.0000   1.0000   1.0000   1.0000   1.0000   1.0000   0.0000
     0.0000   0.0000   0.0000   0.0000   0.0000

          k = 0.1667 0.3849-0.3086 (  2902 PWs)   bands (ev):

   -75.6911 -75.6911 -39.1322 -39.1322 -38.9908 -38.9908 -38.9398 -38.9398
    14.3585  14.3585  16.1906  16.1906  16.8470  16.8470  18.0594  18.0594
    19.4704  19.4704  20.2806  20.2806  30.2140

     occupation numbers 
     1.0000   1.0000   1.0000   1.0000   1.0000   1.0000   1.0000   1.0000
     1.0000   1.0000   1.0000   1.0000   1.0000   1.0000   1.0000   1.0000
     0.0000   0.0000   0.0000   0.0000   0.0000

          k = 0.1667 0.4811 0.0000 (  2920 PWs)   bands (ev):

   -75.6948 -75.6765 -39.1326 -39.0902 -39.0624 -39.0174 -38.9536 -38.9535
    14.3415  15.2650  15.2675  15.9296  16.9778  17.3060  17.6535  18.9371
    19.4360  19.4444  20.6344  24.5194  27.7084

     occupation numbers 
     1.0000   1.0000   1.0000   1.0000   1.0000   1.0000   1.0000   1.0000
     1.0000   1.0000   1.0000   1.0000   1.0000   1.0000   1.0000   0.0000
     0.0000   0.0000   0.0000   0.0000   0.0000

          k = 0.1667 0.4811 0.1029 (  2918 PWs)   bands (ev):

   -75.6935 -75.6777 -39.1454 -39.1081 -39.0433 -39.0094 -38.9641 -38.9393
    14.3671  15.2126  15.4273  15.9723  16.9896  17.2823  17.7151  18.9286
    19.2054  19.5178  20.6848  23.9243  26.6922

     occupation numbers 
     1.0000   1.0000   1.0000   1.0000   1.0000   1.0000   1.0000   1.0000
     1.0000   1.0000   1.0000   1.0000   1.0000   1.0000   1.0000   0.0000
     0.0000   0.0000   0.0000   0.0000   0.0000

          k = 0.1667 0.4811 0.2058 (  2916 PWs)   bands (ev):

   -75.6902 -75.6811 -39.1600 -39.1355 -39.0268 -38.9921 -38.9641 -38.9307
    14.4834  15.0088  15.7518  16.2426  16.8253  17.2522  17.9224  18.6171
    19.1404  19.6128  20.8331  22.5096  26.8106

     occupation numbers 
     1.0000   1.0000   1.0000   1.0000   1.0000   1.0000   1.0000   1.0000
     1.0000   1.0000   1.0000   1.0000   1.0000   1.0000   1.0000   0.0000
     0.0000   0.0000   0.0000   0.0000   0.0000

          k = 0.1667 0.4811-0.3086 (  2910 PWs)   bands (ev):

   -75.6856 -75.6856 -39.1566 -39.1566 -39.0078 -39.0078 -38.9401 -38.9401
    14.7156  14.7156  16.1536  16.1536  16.9934  16.9934  18.1935  18.1935
    19.4630  19.4630  21.3523  21.3523  27.6117

     occupation numbers 
     1.0000   1.0000   1.0000   1.0000   1.0000   1.0000   1.0000   1.0000
     1.0000   1.0000   1.0000   1.0000   1.0000   1.0000   0.9789   0.9789
     0.0000   0.0000   0.0000   0.0000   0.0000

          k = 0.1667 0.5774 0.0000 (  2932 PWs)   bands (ev):

   -75.6903 -75.6770 -39.1460 -39.0952 -39.0456 -39.0283 -38.9667 -38.9584
    14.8156  15.1301  15.2134  15.9811  17.0210  17.1471  17.7566  19.2480
    19.4237  19.4337  21.5232  22.9678  28.7220

     occupation numbers 
     1.0000   1.0000   1.0000   1.0000   1.0000   1.0000   1.0000   1.0000
     1.0000   1.0000   1.0000   1.0000   1.0000   1.0000   1.0000   0.0000
     0.0000   0.0000   0.0000   0.0000   0.0000

          k = 0.1667 0.5774 0.1029 (  2926 PWs)   bands (ev):

   -75.6894 -75.6779 -39.1563 -39.1120 -39.0473 -39.0029 -38.9754 -38.9462
    14.6811  15.1723  15.5658  15.8172  16.9487  17.3145  17.8270  19.1776
    19.2464  19.4851  21.5538  22.8748  27.8274

     occupation numbers 
     1.0000   1.0000   1.0000   1.0000   1.0000   1.0000   1.0000   1.0000
     1.0000   1.0000   1.0000   1.0000   1.0000   1.0000   1.0000   0.0000
     0.0000   0.0000   0.0000   0.0000   0.0000

          k = 0.1667 0.5774 0.2058 (  2914 PWs)   bands (ev):

   -75.6870 -75.6803 -39.1691 -39.1434 -39.0351 -38.9923 -38.9656 -38.9343
    14.6469  15.0673  15.8169  16.1570  16.7391  17.4220  18.0659  18.6865
    19.2721  19.5307  21.6828  22.5640  26.7364

     occupation numbers 
     1.0000   1.0000   1.0000   1.0000   1.0000   1.0000   1.0000   1.0000
     1.0000   1.0000   1.0000   1.0000   1.0000   1.0000   1.0000   0.0000
     0.0000   0.0000   0.0000   0.0000   0.0000

          k = 0.1667 0.5774-0.3086 (  2926 PWs)   bands (ev):

   -75.6836 -75.6836 -39.1657 -39.1657 -39.0143 -39.0143 -38.9398 -38.9398
    14.8014  14.8014  16.1463  16.1463  17.0448  17.0448  18.3521  18.3521
    19.4000  19.4000  22.0702  22.0702  26.3580

     occupation numbers 
     1.0000   1.0000   1.0000   1.0000   1.0000   1.0000   1.0000   1.0000
     1.0000   1.0000   1.0000   1.0000   1.0000   1.0000   0.0000   0.0000
     0.0000   0.0000   0.0000   0.0000   0.0000

          k = 0.2500 0.4330 0.0000 (  2918 PWs)   bands (ev):

   -75.6948 -75.6765 -39.1124 -39.0910 -39.0626 -39.0185 -38.9719 -38.9534
    14.3434  15.3407  15.5986  15.6203  16.8868  17.3322  17.6573  18.6997
    19.3893  19.4474  20.6725  26.0678  26.8783

     occupation numbers 
     1.0000   1.0000   1.0000   1.0000   1.0000   1.0000   1.0000   1.0000
     1.0000   1.0000   1.0000   1.0000   1.0000   1.0000   1.0000   0.0000
     0.0000   0.0000   0.0000   0.0000   0.0000

          k = 0.2500 0.4330 0.1029 (  2914 PWs)   bands (ev):

   -75.6936 -75.6777 -39.1200 -39.1160 -39.0298 -39.0286 -38.9742 -38.9413
    14.4271  15.2572  15.6657  15.8029  16.9268  17.1581  17.6607  18.7385
    19.1496  19.5260  20.7742  24.6516  27.1625

     occupation numbers 
     1.0000   1.0000   1.0000   1.0000   1.0000   1.0000   1.0000   1.0000
     1.0000   1.0000   1.0000   1.0000   1.0000   1.0000   1.0000   0.0000
     0.0000   0.0000   0.0000   0.0000   0.0000

          k = 0.2500 0.4330 0.2058 (  2917 PWs)   bands (ev):

   -75.6902 -75.6811 -39.1425 -39.1299 -39.0344 -39.0094 -38.9632 -38.9302
    14.6412  15.1125  15.8814  16.1510  16.7816  16.8977  17.7411  18.5220
    19.1010  19.6212  21.0051  22.8194  27.9336

     occupation numbers 
     1.0000   1.0000   1.0000   1.0000   1.0000   1.0000   1.0000   1.0000
     1.0000   1.0000   1.0000   1.0000   1.0000   1.0000   1.0000   0.0000
     0.0000   0.0000   0.0000   0.0000   0.0000

          k = 0.2500 0.4330-0.3086 (  2904 PWs)   bands (ev):

   -75.6856 -75.6856 -39.1442 -39.1442 -39.0222 -39.0222 -38.9383 -38.9383
    14.8986  14.8986  16.2105  16.2105  16.6749  16.6749  18.0329  18.0329
    19.4861  19.4861  21.5611  21.5611  28.9334

     occupation numbers 
     1.0000   1.0000   1.0000   1.0000   1.0000   1.0000   1.0000   1.0000
     1.0000   1.0000   1.0000   1.0000   1.0000   1.0000   1.0000   1.0000
     0.0000   0.0000   0.0000   0.0000   0.0000

          k = 0.2500 0.5292 0.0000 (  2920 PWs)   bands (ev):

   -75.6872 -75.6778 -39.1253 -39.0820 -39.0483 -39.0332 -38.9926 -38.9770
    15.0699  15.3121  15.4406  15.6938  16.8874  17.0941  17.8528  18.9997
    19.3587  19.3874  21.9266  24.1270  26.2000

     occupation numbers 
     1.0000   1.0000   1.0000   1.0000   1.0000   1.0000   1.0000   1.0000
     1.0000   1.0000   1.0000   1.0000   1.0000   1.0000   1.0000   0.0000
     0.0000   0.0000   0.0000   0.0000   0.0000

          k = 0.2500 0.5292 0.1029 (  2921 PWs)   bands (ev):

   -75.6866 -75.6784 -39.1303 -39.1029 -39.0642 -39.0102 -38.9925 -38.9580
    15.0440  15.4130  15.5236  15.7647  16.8629  16.9952  17.8619  19.0189
    19.1147  19.4410  22.0852  24.1080  26.2699

     occupation numbers 
     1.0000   1.0000   1.0000   1.0000   1.0000   1.0000   1.0000   1.0000
     1.0000   1.0000   1.0000   1.0000   1.0000   1.0000   1.0000   0.0000
     0.0000   0.0000   0.0000   0.0000   0.0000

          k = 0.2500 0.5292 0.2058 (  2923 PWs)   bands (ev):

   -75.6849 -75.6801 -39.1444 -39.1300 -39.0640 -39.0234 -38.9586 -38.9376
    15.0878  15.3723  15.7952  16.1065  16.6156  16.8529  17.9286  18.5571
    19.1872  19.4897  22.4616  23.7616  26.3351

     occupation numbers 
     1.0000   1.0000   1.0000   1.0000   1.0000   1.0000   1.0000   1.0000
     1.0000   1.0000   1.0000   1.0000   1.0000   1.0000   1.0000   0.0000
     0.0000   0.0000   0.0000   0.0000   0.0000

          k = 0.2500 0.5292-0.3086 (  2920 PWs)   bands (ev):

   -75.6825 -75.6825 -39.1467 -39.1467 -39.0454 -39.0454 -38.9367 -38.9367
    15.2199  15.2199  16.1842  16.1842  16.5724  16.5724  18.1321  18.1321
    19.3887  19.3887  23.0453  23.0453  26.8688

     occupation numbers 
     1.0000   1.0000   1.0000   1.0000   1.0000   1.0000   1.0000   1.0000
     1.0000   1.0000   1.0000   1.0000   1.0000   1.0000   1.0000   1.0000
     0.0000   0.0000   0.0000   0.0000   0.0000

          k = 0.3333 0.5774 0.0000 (  2946 PWs)   bands (ev):

   -75.6814 -75.6814 -39.1158 -39.0678 -39.0678 -39.0169 -39.0040 -39.0040
    15.3466  15.4249  15.4249  15.6257  16.9265  16.9265  17.9582  19.1642
    19.1642  19.3281  23.3592  24.1159  24.1159

     occupation numbers 
     1.0000   1.0000   1.0000   1.0000   1.0000   1.0000   1.0000   1.0000
     1.0000   1.0000   1.0000   1.0000   1.0000   1.0000   1.0000   0.0000
     0.0000   0.0000   0.0000   0.0000   0.0000

          k = 0.3333 0.5774 0.1029 (  2922 PWs)   bands (ev):

   -75.6814 -75.6814 -39.1092 -39.0930 -39.0930 -39.0236 -38.9786 -38.9786
    15.4173  15.4994  15.4994  15.6580  16.8411  16.8411  17.9379  19.0606
    19.2114  19.2114  23.7660  24.1671  24.1671

     occupation numbers 
     1.0000   1.0000   1.0000   1.0000   1.0000   1.0000   1.0000   1.0000
     1.0000   1.0000   1.0000   1.0000   1.0000   1.0000   1.0000   0.0000
     0.0000   0.0000   0.0000   0.0000   0.0000

          k = 0.3333 0.5774 0.2058 (  2922 PWs)   bands (ev):

   -75.6813 -75.6813 -39.1238 -39.1238 -39.0912 -39.0418 -38.9475 -38.9475
    15.5820  15.6776  15.6776  15.7187  16.6492  16.6492  17.9360  18.5287
    19.2975  19.2975  24.2942  24.2942  24.7565

     occupation numbers 
     1.0000   1.0000   1.0000   1.0000   1.0000   1.0000   1.0000   1.0000
     1.0000   1.0000   1.0000   1.0000   1.0000   1.0000   1.0000   0.0000
     0.0000   0.0000   0.0000   0.0000   0.0000

          k = 0.3333 0.5774-0.3086 (  2910 PWs)   bands (ev):

   -75.6813 -75.6813 -39.1357 -39.1357 -39.0665 -39.0665 -38.9355 -38.9355
    15.7127  15.7127  15.7949  15.7949  16.5286  16.5286  18.1033  18.1033
    19.3369  19.3369  24.3754  24.3754  26.0664

     occupation numbers 
     1.0000   1.0000   1.0000   1.0000   1.0000   1.0000   1.0000   1.0000
     1.0000   1.0000   1.0000   1.0000   1.0000   1.0000   1.0000   1.0000
     0.0000   0.0000   0.0000   0.0000   0.0000

     the Fermi energy is    18.2131 ev

!    total energy              =    -753.45467481 Ry
     total all-electron energy =     -5573.811366 Ry
     estimated scf accuracy    <       0.00000002 Ry
     smearing contrib. (-TS)   =      -0.00001865 Ry
     internal energy E=F+TS    =    -753.45465616 Ry

     The total energy is F=E-TS. E is the sum of the following terms:
     one-electron contribution =    -287.23424055 Ry
     hartree contribution      =     166.69401604 Ry
     xc contribution           =     -61.37578736 Ry
     ewald contribution        =    -396.36435002 Ry
     one-center paw contrib.   =    -175.17429427 Ry
      -> PAW hartree energy AE =     221.88052736 Ry
      -> PAW hartree energy PS =    -220.82549976 Ry
      -> PAW xc energy AE      =    -117.66567739 Ry
      -> PAW xc energy PS      =      29.02350266 Ry
      -> total E_H with PAW    =     167.74904364 Ry
      -> total E_XC with PAW   =    -150.01796209 Ry

     total magnetization       =     3.36 Bohr mag/cell
     absolute magnetization    =     3.69 Bohr mag/cell

     convergence has been achieved in   1 iterations

     Writing all to output data dir ./out/Co.save/
 
     init_run     :      0.37s CPU      0.52s WALL (       1 calls)
     electrons    :      5.97s CPU      6.31s WALL (       1 calls)

     Called by init_run:
     wfcinit      :      0.22s CPU      0.35s WALL (       1 calls)
     potinit      :      0.10s CPU      0.12s WALL (       1 calls)
     hinit0       :      0.03s CPU      0.03s WALL (       1 calls)

     Called by electrons:
     c_bands      :      5.50s CPU      5.76s WALL (       2 calls)
     sum_band     :      0.38s CPU      0.40s WALL (       2 calls)
     v_of_rho     :      0.01s CPU      0.01s WALL (       2 calls)
     v_h          :      0.00s CPU      0.00s WALL (       2 calls)
     v_xc         :      0.01s CPU      0.01s WALL (       2 calls)
     newd         :      0.01s CPU      0.01s WALL (       2 calls)
     PAW_pot      :      0.18s CPU      0.23s WALL (       2 calls)
     mix_rho      :      0.00s CPU      0.00s WALL (       2 calls)

     Called by c_bands:
     init_us_2    :      0.03s CPU      0.03s WALL (     608 calls)
     init_us_2:cp :      0.03s CPU      0.03s WALL (     608 calls)
     cegterg      :      5.34s CPU      5.54s WALL (     304 calls)

     Called by sum_band:
     sum_band:wei :      0.00s CPU      0.00s WALL (       2 calls)
     sum_band:loo :      0.35s CPU      0.37s WALL (       2 calls)
     sum_band:buf :      0.00s CPU      0.00s WALL (     304 calls)
     sum_band:ini :      0.01s CPU      0.01s WALL (     304 calls)
     sum_band:cal :      0.03s CPU      0.03s WALL (     304 calls)
     sum_band:bec :      0.00s CPU      0.00s WALL (     304 calls)
     addusdens    :      0.02s CPU      0.02s WALL (       2 calls)
                                        0.00s GPU  (       2 calls)
     addusd:skk   :      0.00s CPU      0.00s WALL (       2 calls)
                                        0.00s GPU  (       2 calls)

     Called by *egterg:
     cdiaghg      :      1.66s CPU      1.69s WALL (    2726 calls)
     cegterg:over :      0.21s CPU      0.20s WALL (    2726 calls)
     cegterg:upda :      0.03s CPU      0.05s WALL (    2726 calls)
     cegterg:last :      0.09s CPU      0.09s WALL (    1469 calls)
     h_psi        :      3.13s CPU      3.27s WALL (    3030 calls)
     s_psi        :      0.07s CPU      0.06s WALL (    3030 calls)
     g_psi        :      0.01s CPU      0.02s WALL (    2726 calls)

     Called by h_psi:
     h_psi:calbec :      0.19s CPU      0.17s WALL (    3030 calls)
     vloc_psi     :      2.88s CPU      3.01s WALL (    3030 calls)
     add_vuspsi   :      0.05s CPU      0.07s WALL (    3030 calls)

     General routines
     calbec       :      0.22s CPU      0.20s WALL (    3334 calls)
     fft          :      0.00s CPU      0.00s WALL (      46 calls)
     ffts         :      0.00s CPU      0.00s WALL (       8 calls)
     fftw         :      2.95s CPU      3.05s WALL (   69304 calls)
     interpolate  :      0.00s CPU      0.00s WALL (       4 calls)
 
     Parallel routines

     PAW routines
     PAW_pot      :      0.18s CPU      0.23s WALL (       2 calls)
     PAW_symme    :      0.00s CPU      0.00s WALL (       3 calls)
 
     PWSCF        :      6.64s CPU      7.66s WALL

 
   This run was terminated on:  16:53:59  18Mar2024            

=------------------------------------------------------------------------------=
   JOB DONE.
=------------------------------------------------------------------------------=
