
     Program PWSCF v.7.2 starts on 18Mar2024 at 16:43:22 

     This program is part of the open-source Quantum ESPRESSO suite
     for quantum simulation of materials; please cite
         "P. Giannozzi et al., J. Phys.:Condens. Matter 21 395502 (2009);
         "P. Giannozzi et al., J. Phys.:Condens. Matter 29 465901 (2017);
         "P. Giannozzi et al., J. Chem. Phys. 152 154105 (2020);
          URL http://www.quantum-espresso.org", 
     in publications or presentations arising from this work. More details at
     http://www.quantum-espresso.org/quote

     Parallel version (MPI), running on    20 processors

     MPI processes distributed on     1 nodes
     354066 MiB available memory on the printing compute node when the environment starts
 
     Waiting for input...
     Reading input from standard input

     Current dimensions of program PWSCF are:
     Max number of different atomic species (ntypx) = 10
     Max number of k-points (npk) = 120000
     Max angular momentum in pseudopotentials (lmaxx) =  4
     file Co.pbe-spn-kjpaw_psl.0.3.1.UPF: wavefunction(s)  3P 3D renormalized
 
     R & G space division:  proc/nbgrp/npool/nimage =      20
     Subspace diagonalization in iterative solution of the eigenvalue problem:
     a serial algorithm will be used

 
     Parallelization info
     --------------------
     sticks:   dense  smooth     PW     G-vecs:    dense   smooth      PW
     Min          33      33      9                 1177     1149     185
     Max          34      34     10                 1200     1154     192
     Sum         673     673    199                23777    23007    3791
 
     Using Slab Decomposition
 


     bravais-lattice index     =            4
     lattice parameter (alat)  =       4.7000  a.u.
     unit-cell volume          =     147.4579 (a.u.)^3
     number of atoms/cell      =            2
     number of atomic types    =            1
     number of electrons       =        34.00
     number of Kohn-Sham states=           21
     kinetic-energy cutoff     =     110.0000  Ry
     charge density cutoff     =     450.0000  Ry
     scf convergence threshold =      1.0E-06
     mixing beta               =       0.7000
     number of iterations used =            8  plain     mixing
     Exchange-correlation= SLA  PW   PBX  PBC
                           (   1   4   3   4   0   0   0)

     celldm(1)=   4.700000  celldm(2)=   0.000000  celldm(3)=   1.640000
     celldm(4)=   0.000000  celldm(5)=   0.000000  celldm(6)=   0.000000

     crystal axes: (cart. coord. in units of alat)
               a(1) = (   1.000000   0.000000   0.000000 )  
               a(2) = (  -0.500000   0.866025   0.000000 )  
               a(3) = (   0.000000   0.000000   1.640000 )  

     reciprocal axes: (cart. coord. in units 2 pi/alat)
               b(1) = (  1.000000  0.577350  0.000000 )  
               b(2) = (  0.000000  1.154701  0.000000 )  
               b(3) = (  0.000000  0.000000  0.609756 )  


     PseudoPot. # 1 for Co read from file:
     /truba/home/amuhaymin/ZnS/pseudo/QE/Co.pbe-spn-kjpaw_psl.0.3.1.UPF
     MD5 check sum: b0a1ad65bf214e88c1f3d33b20c7d919
     Pseudo is Projector augmented-wave + core cor, Zval = 17.0
     Generated using &quot;atomic&quot; code by A. Dal Corso  v.6.2.2
     Shape of augmentation charge: PSQ
     Using radial grid of 1193 points,  6 beta functions with: 
                l(1) =   0
                l(2) =   0
                l(3) =   1
                l(4) =   1
                l(5) =   2
                l(6) =   2
     Q(r) pseudized with 0 coefficients 


     atomic species   valence    mass     pseudopotential
        Co            17.00    58.93300     Co( 1.00)

     Starting magnetic structure 
     atomic species   magnetization
        Co           0.294

     24 Sym. Ops., with inversion, found (12 have fractional translation)


                                    s                        frac. trans.

      isym =  1     identity                                     

 cryst.   s( 1) = (     1          0          0      )
                  (     0          1          0      )
                  (     0          0          1      )

 cart.    s( 1) = (  1.0000000  0.0000000  0.0000000 )
                  (  0.0000000  1.0000000  0.0000000 )
                  (  0.0000000  0.0000000  1.0000000 )


      isym =  2     180 deg rotation - cart. axis [0,0,1]        

 cryst.   s( 2) = (    -1          0          0      )    f =(  0.0000000 )
                  (     0         -1          0      )       (  0.0000000 )
                  (     0          0          1      )       ( -0.5000000 )

 cart.    s( 2) = ( -1.0000000  0.0000000  0.0000000 )    f =(  0.0000000 )
                  (  0.0000000 -1.0000000  0.0000000 )       (  0.0000000 )
                  (  0.0000000  0.0000000  1.0000000 )       ( -0.8200000 )


      isym =  3     180 deg rotation - cart. axis [0,1,0]        

 cryst.   s( 3) = (    -1          0          0      )    f =(  0.0000000 )
                  (     1          1          0      )       (  0.0000000 )
                  (     0          0         -1      )       ( -0.5000000 )

 cart.    s( 3) = ( -1.0000000  0.0000000  0.0000000 )    f =(  0.0000000 )
                  (  0.0000000  1.0000000  0.0000000 )       (  0.0000000 )
                  (  0.0000000  0.0000000 -1.0000000 )       ( -0.8200000 )


      isym =  4     180 deg rotation - cart. axis [1,0,0]        

 cryst.   s( 4) = (     1          0          0      )
                  (    -1         -1          0      )
                  (     0          0         -1      )

 cart.    s( 4) = (  1.0000000  0.0000000  0.0000000 )
                  (  0.0000000 -1.0000000  0.0000000 )
                  (  0.0000000  0.0000000 -1.0000000 )


      isym =  5      60 deg rotation - cryst. axis [0,0,1]       

 cryst.   s( 5) = (     1          1          0      )    f =(  0.0000000 )
                  (    -1          0          0      )       ( -0.0000000 )
                  (     0          0          1      )       ( -0.5000000 )

 cart.    s( 5) = (  0.5000000 -0.8660254  0.0000000 )    f =(  0.0000000 )
                  (  0.8660254  0.5000000  0.0000000 )       ( -0.0000000 )
                  (  0.0000000  0.0000000  1.0000000 )       ( -0.8200000 )


      isym =  6      60 deg rotation - cryst. axis [0,0,-1]      

 cryst.   s( 6) = (     0         -1          0      )    f =(  0.0000000 )
                  (     1          1          0      )       ( -0.0000000 )
                  (     0          0          1      )       ( -0.5000000 )

 cart.    s( 6) = (  0.5000000  0.8660254  0.0000000 )    f =(  0.0000000 )
                  ( -0.8660254  0.5000000  0.0000000 )       ( -0.0000000 )
                  (  0.0000000  0.0000000  1.0000000 )       ( -0.8200000 )


      isym =  7     120 deg rotation - cryst. axis [0,0,1]       

 cryst.   s( 7) = (     0          1          0      )
                  (    -1         -1          0      )
                  (     0          0          1      )

 cart.    s( 7) = ( -0.5000000 -0.8660254  0.0000000 )
                  (  0.8660254 -0.5000000  0.0000000 )
                  (  0.0000000  0.0000000  1.0000000 )


      isym =  8     120 deg rotation - cryst. axis [0,0,-1]      

 cryst.   s( 8) = (    -1         -1          0      )
                  (     1          0          0      )
                  (     0          0          1      )

 cart.    s( 8) = ( -0.5000000  0.8660254  0.0000000 )
                  ( -0.8660254 -0.5000000  0.0000000 )
                  (  0.0000000  0.0000000  1.0000000 )


      isym =  9     180 deg rotation - cryst. axis [1,-1,0]      

 cryst.   s( 9) = (     0         -1          0      )    f =(  0.0000000 )
                  (    -1          0          0      )       (  0.0000000 )
                  (     0          0         -1      )       ( -0.5000000 )

 cart.    s( 9) = (  0.5000000 -0.8660254  0.0000000 )    f =(  0.0000000 )
                  ( -0.8660254 -0.5000000  0.0000000 )       (  0.0000000 )
                  (  0.0000000  0.0000000 -1.0000000 )       ( -0.8200000 )


      isym = 10     180 deg rotation - cryst. axis [2,1,0]       

 cryst.   s(10) = (     1          1          0      )    f =(  0.0000000 )
                  (     0         -1          0      )       ( -0.0000000 )
                  (     0          0         -1      )       ( -0.5000000 )

 cart.    s(10) = (  0.5000000  0.8660254  0.0000000 )    f =(  0.0000000 )
                  (  0.8660254 -0.5000000  0.0000000 )       ( -0.0000000 )
                  (  0.0000000  0.0000000 -1.0000000 )       ( -0.8200000 )


      isym = 11     180 deg rotation - cryst. axis [0,1,0]       

 cryst.   s(11) = (    -1         -1          0      )
                  (     0          1          0      )
                  (     0          0         -1      )

 cart.    s(11) = ( -0.5000000 -0.8660254  0.0000000 )
                  ( -0.8660254  0.5000000  0.0000000 )
                  (  0.0000000  0.0000000 -1.0000000 )


      isym = 12     180 deg rotation - cryst. axis [1,1,0]       

 cryst.   s(12) = (     0          1          0      )
                  (     1          0          0      )
                  (     0          0         -1      )

 cart.    s(12) = ( -0.5000000  0.8660254  0.0000000 )
                  (  0.8660254  0.5000000  0.0000000 )
                  (  0.0000000  0.0000000 -1.0000000 )


      isym = 13     inversion                                    

 cryst.   s(13) = (    -1          0          0      )
                  (     0         -1          0      )
                  (     0          0         -1      )

 cart.    s(13) = ( -1.0000000  0.0000000  0.0000000 )
                  (  0.0000000 -1.0000000  0.0000000 )
                  (  0.0000000  0.0000000 -1.0000000 )


      isym = 14     inv. 180 deg rotation - cart. axis [0,0,1]   

 cryst.   s(14) = (     1          0          0      )    f =(  0.0000000 )
                  (     0          1          0      )       (  0.0000000 )
                  (     0          0         -1      )       ( -0.5000000 )

 cart.    s(14) = (  1.0000000  0.0000000  0.0000000 )    f =(  0.0000000 )
                  (  0.0000000  1.0000000  0.0000000 )       (  0.0000000 )
                  (  0.0000000  0.0000000 -1.0000000 )       ( -0.8200000 )


      isym = 15     inv. 180 deg rotation - cart. axis [0,1,0]   

 cryst.   s(15) = (     1          0          0      )    f =(  0.0000000 )
                  (    -1         -1          0      )       (  0.0000000 )
                  (     0          0          1      )       ( -0.5000000 )

 cart.    s(15) = (  1.0000000  0.0000000  0.0000000 )    f =(  0.0000000 )
                  (  0.0000000 -1.0000000  0.0000000 )       (  0.0000000 )
                  (  0.0000000  0.0000000  1.0000000 )       ( -0.8200000 )


      isym = 16     inv. 180 deg rotation - cart. axis [1,0,0]   

 cryst.   s(16) = (    -1          0          0      )
                  (     1          1          0      )
                  (     0          0          1      )

 cart.    s(16) = ( -1.0000000  0.0000000  0.0000000 )
                  (  0.0000000  1.0000000  0.0000000 )
                  (  0.0000000  0.0000000  1.0000000 )


      isym = 17     inv.  60 deg rotation - cryst. axis [0,0,1]  

 cryst.   s(17) = (    -1         -1          0      )    f =(  0.0000000 )
                  (     1          0          0      )       (  0.0000000 )
                  (     0          0         -1      )       ( -0.5000000 )

 cart.    s(17) = ( -0.5000000  0.8660254  0.0000000 )    f =(  0.0000000 )
                  ( -0.8660254 -0.5000000  0.0000000 )       (  0.0000000 )
                  (  0.0000000  0.0000000 -1.0000000 )       ( -0.8200000 )


      isym = 18     inv.  60 deg rotation - cryst. axis [0,0,-1] 

 cryst.   s(18) = (     0          1          0      )    f =(  0.0000000 )
                  (    -1         -1          0      )       ( -0.0000000 )
                  (     0          0         -1      )       ( -0.5000000 )

 cart.    s(18) = ( -0.5000000 -0.8660254  0.0000000 )    f =(  0.0000000 )
                  (  0.8660254 -0.5000000  0.0000000 )       ( -0.0000000 )
                  (  0.0000000  0.0000000 -1.0000000 )       ( -0.8200000 )


      isym = 19     inv. 120 deg rotation - cryst. axis [0,0,1]  

 cryst.   s(19) = (     0         -1          0      )
                  (     1          1          0      )
                  (     0          0         -1      )

 cart.    s(19) = (  0.5000000  0.8660254  0.0000000 )
                  ( -0.8660254  0.5000000  0.0000000 )
                  (  0.0000000  0.0000000 -1.0000000 )


      isym = 20     inv. 120 deg rotation - cryst. axis [0,0,-1] 

 cryst.   s(20) = (     1          1          0      )
                  (    -1          0          0      )
                  (     0          0         -1      )

 cart.    s(20) = (  0.5000000 -0.8660254  0.0000000 )
                  (  0.8660254  0.5000000  0.0000000 )
                  (  0.0000000  0.0000000 -1.0000000 )


      isym = 21     inv. 180 deg rotation - cryst. axis [1,-1,0] 

 cryst.   s(21) = (     0          1          0      )    f =(  0.0000000 )
                  (     1          0          0      )       ( -0.0000000 )
                  (     0          0          1      )       ( -0.5000000 )

 cart.    s(21) = ( -0.5000000  0.8660254  0.0000000 )    f =(  0.0000000 )
                  (  0.8660254  0.5000000  0.0000000 )       ( -0.0000000 )
                  (  0.0000000  0.0000000  1.0000000 )       ( -0.8200000 )


      isym = 22     inv. 180 deg rotation - cryst. axis [2,1,0]  

 cryst.   s(22) = (    -1         -1          0      )    f =(  0.0000000 )
                  (     0          1          0      )       ( -0.0000000 )
                  (     0          0          1      )       ( -0.5000000 )

 cart.    s(22) = ( -0.5000000 -0.8660254  0.0000000 )    f =(  0.0000000 )
                  ( -0.8660254  0.5000000  0.0000000 )       ( -0.0000000 )
                  (  0.0000000  0.0000000  1.0000000 )       ( -0.8200000 )


      isym = 23     inv. 180 deg rotation - cryst. axis [0,1,0]  

 cryst.   s(23) = (     1          1          0      )
                  (     0         -1          0      )
                  (     0          0          1      )

 cart.    s(23) = (  0.5000000  0.8660254  0.0000000 )
                  (  0.8660254 -0.5000000  0.0000000 )
                  (  0.0000000  0.0000000  1.0000000 )


      isym = 24     inv. 180 deg rotation - cryst. axis [1,1,0]  

 cryst.   s(24) = (     0         -1          0      )
                  (    -1          0          0      )
                  (     0          0          1      )

 cart.    s(24) = (  0.5000000 -0.8660254  0.0000000 )
                  ( -0.8660254 -0.5000000  0.0000000 )
                  (  0.0000000  0.0000000  1.0000000 )


     point group D_6h(6/mmm)
     there are 12 classes
     the character table:

       E     2C6   2C3   C2    3C2'  3C2'' i     2S3   2S6   s_h   3s_d  3s_v 
A_1g   1.00  1.00  1.00  1.00  1.00  1.00  1.00  1.00  1.00  1.00  1.00  1.00
A_2g   1.00  1.00  1.00  1.00 -1.00 -1.00  1.00  1.00  1.00  1.00 -1.00 -1.00
B_1g   1.00 -1.00  1.00 -1.00  1.00 -1.00  1.00 -1.00  1.00 -1.00  1.00 -1.00
B_2g   1.00 -1.00  1.00 -1.00 -1.00  1.00  1.00 -1.00  1.00 -1.00 -1.00  1.00
E_1g   2.00  1.00 -1.00 -2.00  0.00  0.00  2.00  1.00 -1.00 -2.00  0.00  0.00
E_2g   2.00 -1.00 -1.00  2.00  0.00  0.00  2.00 -1.00 -1.00  2.00  0.00  0.00
A_1u   1.00  1.00  1.00  1.00  1.00  1.00 -1.00 -1.00 -1.00 -1.00 -1.00 -1.00
A_2u   1.00  1.00  1.00  1.00 -1.00 -1.00 -1.00 -1.00 -1.00 -1.00  1.00  1.00
B_1u   1.00 -1.00  1.00 -1.00  1.00 -1.00 -1.00  1.00 -1.00  1.00 -1.00  1.00
B_2u   1.00 -1.00  1.00 -1.00 -1.00  1.00 -1.00  1.00 -1.00  1.00  1.00 -1.00
E_1u   2.00  1.00 -1.00 -2.00  0.00  0.00 -2.00 -1.00  1.00  2.00  0.00  0.00
E_2u   2.00 -1.00 -1.00  2.00  0.00  0.00 -2.00  1.00  1.00 -2.00  0.00  0.00

     the symmetry operations in each class and the name of the first element:

     E        1
          identity                                               
     2C6      5    6
           60 deg rotation - cryst. axis [0,0,1]                 
     2C3      7    8
          120 deg rotation - cryst. axis [0,0,1]                 
     C2       2
          180 deg rotation - cart. axis [0,0,1]                  
     3C2'     4   12   11
          180 deg rotation - cart. axis [1,0,0]                  
     3C2''    3    9   10
          180 deg rotation - cart. axis [0,1,0]                  
     i       13
          inversion                                              
     2S3     17   18
          inv.  60 deg rotation - cryst. axis [0,0,1]            
     2S6     19   20
          inv. 120 deg rotation - cryst. axis [0,0,1]            
     s_h     14
          inv. 180 deg rotation - cart. axis [0,0,1]             
     3s_d    16   24   23
          inv. 180 deg rotation - cart. axis [1,0,0]             
     3s_v    15   21   22
          inv. 180 deg rotation - cart. axis [0,1,0]             

   Cartesian axes

     site n.     atom                  positions (alat units)
         1           Co  tau(   1) = (  -0.0000000   0.5773503   0.4100000  )
         2           Co  tau(   2) = (   0.5000000   0.2886751   1.2300000  )

   Crystallographic axes

     site n.     atom                  positions (cryst. coord.)
         1           Co  tau(   1) = (  0.3333333  0.6666667  0.2500000  )
         2           Co  tau(   2) = (  0.6666667  0.3333333  0.7500000  )

     number of k points=    76  Gaussian smearing, width (Ry)=  0.0010
                       cart. coord. in units 2pi/alat
        k(    1) = (   0.0000000   0.0000000   0.0000000), wk =   0.0011574
        k(    2) = (   0.0000000   0.0000000   0.1016260), wk =   0.0023148
        k(    3) = (   0.0000000   0.0000000   0.2032520), wk =   0.0023148
        k(    4) = (   0.0000000   0.0000000  -0.3048780), wk =   0.0011574
        k(    5) = (   0.0000000   0.0962250   0.0000000), wk =   0.0069444
        k(    6) = (   0.0000000   0.0962250   0.1016260), wk =   0.0138889
        k(    7) = (   0.0000000   0.0962250   0.2032520), wk =   0.0138889
        k(    8) = (   0.0000000   0.0962250  -0.3048780), wk =   0.0069444
        k(    9) = (   0.0000000   0.1924501   0.0000000), wk =   0.0069444
        k(   10) = (   0.0000000   0.1924501   0.1016260), wk =   0.0138889
        k(   11) = (   0.0000000   0.1924501   0.2032520), wk =   0.0138889
        k(   12) = (   0.0000000   0.1924501  -0.3048780), wk =   0.0069444
        k(   13) = (   0.0000000   0.2886751   0.0000000), wk =   0.0069444
        k(   14) = (   0.0000000   0.2886751   0.1016260), wk =   0.0138889
        k(   15) = (   0.0000000   0.2886751   0.2032520), wk =   0.0138889
        k(   16) = (   0.0000000   0.2886751  -0.3048780), wk =   0.0069444
        k(   17) = (   0.0000000   0.3849002   0.0000000), wk =   0.0069444
        k(   18) = (   0.0000000   0.3849002   0.1016260), wk =   0.0138889
        k(   19) = (   0.0000000   0.3849002   0.2032520), wk =   0.0138889
        k(   20) = (   0.0000000   0.3849002  -0.3048780), wk =   0.0069444
        k(   21) = (   0.0000000   0.4811252   0.0000000), wk =   0.0069444
        k(   22) = (   0.0000000   0.4811252   0.1016260), wk =   0.0138889
        k(   23) = (   0.0000000   0.4811252   0.2032520), wk =   0.0138889
        k(   24) = (   0.0000000   0.4811252  -0.3048780), wk =   0.0069444
        k(   25) = (   0.0000000  -0.5773503   0.0000000), wk =   0.0034722
        k(   26) = (   0.0000000  -0.5773503   0.1016260), wk =   0.0069444
        k(   27) = (   0.0000000  -0.5773503   0.2032520), wk =   0.0069444
        k(   28) = (   0.0000000  -0.5773503  -0.3048780), wk =   0.0034722
        k(   29) = (   0.0833333   0.1443376   0.0000000), wk =   0.0069444
        k(   30) = (   0.0833333   0.1443376   0.1016260), wk =   0.0138889
        k(   31) = (   0.0833333   0.1443376   0.2032520), wk =   0.0138889
        k(   32) = (   0.0833333   0.1443376  -0.3048780), wk =   0.0069444
        k(   33) = (   0.0833333   0.2405626   0.0000000), wk =   0.0138889
        k(   34) = (   0.0833333   0.2405626   0.1016260), wk =   0.0277778
        k(   35) = (   0.0833333   0.2405626   0.2032520), wk =   0.0277778
        k(   36) = (   0.0833333   0.2405626  -0.3048780), wk =   0.0138889
        k(   37) = (   0.0833333   0.3367877   0.0000000), wk =   0.0138889
        k(   38) = (   0.0833333   0.3367877   0.1016260), wk =   0.0277778
        k(   39) = (   0.0833333   0.3367877   0.2032520), wk =   0.0277778
        k(   40) = (   0.0833333   0.3367877  -0.3048780), wk =   0.0138889
        k(   41) = (   0.0833333   0.4330127   0.0000000), wk =   0.0138889
        k(   42) = (   0.0833333   0.4330127   0.1016260), wk =   0.0277778
        k(   43) = (   0.0833333   0.4330127   0.2032520), wk =   0.0277778
        k(   44) = (   0.0833333   0.4330127  -0.3048780), wk =   0.0138889
        k(   45) = (   0.0833333   0.5292377   0.0000000), wk =   0.0138889
        k(   46) = (   0.0833333   0.5292377   0.1016260), wk =   0.0277778
        k(   47) = (   0.0833333   0.5292377   0.2032520), wk =   0.0277778
        k(   48) = (   0.0833333   0.5292377  -0.3048780), wk =   0.0138889
        k(   49) = (   0.1666667   0.2886751   0.0000000), wk =   0.0069444
        k(   50) = (   0.1666667   0.2886751   0.1016260), wk =   0.0138889
        k(   51) = (   0.1666667   0.2886751   0.2032520), wk =   0.0138889
        k(   52) = (   0.1666667   0.2886751  -0.3048780), wk =   0.0069444
        k(   53) = (   0.1666667   0.3849002   0.0000000), wk =   0.0138889
        k(   54) = (   0.1666667   0.3849002   0.1016260), wk =   0.0277778
        k(   55) = (   0.1666667   0.3849002   0.2032520), wk =   0.0277778
        k(   56) = (   0.1666667   0.3849002  -0.3048780), wk =   0.0138889
        k(   57) = (   0.1666667   0.4811252   0.0000000), wk =   0.0138889
        k(   58) = (   0.1666667   0.4811252   0.1016260), wk =   0.0277778
        k(   59) = (   0.1666667   0.4811252   0.2032520), wk =   0.0277778
        k(   60) = (   0.1666667   0.4811252  -0.3048780), wk =   0.0138889
        k(   61) = (   0.1666667   0.5773503   0.0000000), wk =   0.0069444
        k(   62) = (   0.1666667   0.5773503   0.1016260), wk =   0.0138889
        k(   63) = (   0.1666667   0.5773503   0.2032520), wk =   0.0138889
        k(   64) = (   0.1666667   0.5773503  -0.3048780), wk =   0.0069444
        k(   65) = (   0.2500000   0.4330127   0.0000000), wk =   0.0069444
        k(   66) = (   0.2500000   0.4330127   0.1016260), wk =   0.0138889
        k(   67) = (   0.2500000   0.4330127   0.2032520), wk =   0.0138889
        k(   68) = (   0.2500000   0.4330127  -0.3048780), wk =   0.0069444
        k(   69) = (   0.2500000   0.5292377   0.0000000), wk =   0.0138889
        k(   70) = (   0.2500000   0.5292377   0.1016260), wk =   0.0277778
        k(   71) = (   0.2500000   0.5292377   0.2032520), wk =   0.0277778
        k(   72) = (   0.2500000   0.5292377  -0.3048780), wk =   0.0138889
        k(   73) = (   0.3333333   0.5773503   0.0000000), wk =   0.0023148
        k(   74) = (   0.3333333   0.5773503   0.1016260), wk =   0.0046296
        k(   75) = (   0.3333333   0.5773503   0.2032520), wk =   0.0046296
        k(   76) = (   0.3333333   0.5773503  -0.3048780), wk =   0.0023148

                       cryst. coord.
        k(    1) = (   0.0000000   0.0000000   0.0000000), wk =   0.0011574
        k(    2) = (   0.0000000   0.0000000   0.1666667), wk =   0.0023148
        k(    3) = (   0.0000000   0.0000000   0.3333333), wk =   0.0023148
        k(    4) = (   0.0000000   0.0000000  -0.5000000), wk =   0.0011574
        k(    5) = (   0.0000000   0.0833333   0.0000000), wk =   0.0069444
        k(    6) = (   0.0000000   0.0833333   0.1666667), wk =   0.0138889
        k(    7) = (   0.0000000   0.0833333   0.3333333), wk =   0.0138889
        k(    8) = (   0.0000000   0.0833333  -0.5000000), wk =   0.0069444
        k(    9) = (   0.0000000   0.1666667   0.0000000), wk =   0.0069444
        k(   10) = (   0.0000000   0.1666667   0.1666667), wk =   0.0138889
        k(   11) = (   0.0000000   0.1666667   0.3333333), wk =   0.0138889
        k(   12) = (   0.0000000   0.1666667  -0.5000000), wk =   0.0069444
        k(   13) = (   0.0000000   0.2500000   0.0000000), wk =   0.0069444
        k(   14) = (   0.0000000   0.2500000   0.1666667), wk =   0.0138889
        k(   15) = (   0.0000000   0.2500000   0.3333333), wk =   0.0138889
        k(   16) = (   0.0000000   0.2500000  -0.5000000), wk =   0.0069444
        k(   17) = (   0.0000000   0.3333333   0.0000000), wk =   0.0069444
        k(   18) = (   0.0000000   0.3333333   0.1666667), wk =   0.0138889
        k(   19) = (   0.0000000   0.3333333   0.3333333), wk =   0.0138889
        k(   20) = (   0.0000000   0.3333333  -0.5000000), wk =   0.0069444
        k(   21) = (   0.0000000   0.4166667   0.0000000), wk =   0.0069444
        k(   22) = (   0.0000000   0.4166667   0.1666667), wk =   0.0138889
        k(   23) = (   0.0000000   0.4166667   0.3333333), wk =   0.0138889
        k(   24) = (   0.0000000   0.4166667  -0.5000000), wk =   0.0069444
        k(   25) = (   0.0000000  -0.5000000   0.0000000), wk =   0.0034722
        k(   26) = (   0.0000000  -0.5000000   0.1666667), wk =   0.0069444
        k(   27) = (   0.0000000  -0.5000000   0.3333333), wk =   0.0069444
        k(   28) = (   0.0000000  -0.5000000  -0.5000000), wk =   0.0034722
        k(   29) = (   0.0833333   0.0833333   0.0000000), wk =   0.0069444
        k(   30) = (   0.0833333   0.0833333   0.1666667), wk =   0.0138889
        k(   31) = (   0.0833333   0.0833333   0.3333333), wk =   0.0138889
        k(   32) = (   0.0833333   0.0833333  -0.5000000), wk =   0.0069444
        k(   33) = (   0.0833333   0.1666667   0.0000000), wk =   0.0138889
        k(   34) = (   0.0833333   0.1666667   0.1666667), wk =   0.0277778
        k(   35) = (   0.0833333   0.1666667   0.3333333), wk =   0.0277778
        k(   36) = (   0.0833333   0.1666667  -0.5000000), wk =   0.0138889
        k(   37) = (   0.0833333   0.2500000   0.0000000), wk =   0.0138889
        k(   38) = (   0.0833333   0.2500000   0.1666667), wk =   0.0277778
        k(   39) = (   0.0833333   0.2500000   0.3333333), wk =   0.0277778
        k(   40) = (   0.0833333   0.2500000  -0.5000000), wk =   0.0138889
        k(   41) = (   0.0833333   0.3333333   0.0000000), wk =   0.0138889
        k(   42) = (   0.0833333   0.3333333   0.1666667), wk =   0.0277778
        k(   43) = (   0.0833333   0.3333333   0.3333333), wk =   0.0277778
        k(   44) = (   0.0833333   0.3333333  -0.5000000), wk =   0.0138889
        k(   45) = (   0.0833333   0.4166667   0.0000000), wk =   0.0138889
        k(   46) = (   0.0833333   0.4166667   0.1666667), wk =   0.0277778
        k(   47) = (   0.0833333   0.4166667   0.3333333), wk =   0.0277778
        k(   48) = (   0.0833333   0.4166667  -0.5000000), wk =   0.0138889
        k(   49) = (   0.1666667   0.1666667   0.0000000), wk =   0.0069444
        k(   50) = (   0.1666667   0.1666667   0.1666667), wk =   0.0138889
        k(   51) = (   0.1666667   0.1666667   0.3333333), wk =   0.0138889
        k(   52) = (   0.1666667   0.1666667  -0.5000000), wk =   0.0069444
        k(   53) = (   0.1666667   0.2500000   0.0000000), wk =   0.0138889
        k(   54) = (   0.1666667   0.2500000   0.1666667), wk =   0.0277778
        k(   55) = (   0.1666667   0.2500000   0.3333333), wk =   0.0277778
        k(   56) = (   0.1666667   0.2500000  -0.5000000), wk =   0.0138889
        k(   57) = (   0.1666667   0.3333333   0.0000000), wk =   0.0138889
        k(   58) = (   0.1666667   0.3333333   0.1666667), wk =   0.0277778
        k(   59) = (   0.1666667   0.3333333   0.3333333), wk =   0.0277778
        k(   60) = (   0.1666667   0.3333333  -0.5000000), wk =   0.0138889
        k(   61) = (   0.1666667   0.4166667   0.0000000), wk =   0.0069444
        k(   62) = (   0.1666667   0.4166667   0.1666667), wk =   0.0138889
        k(   63) = (   0.1666667   0.4166667   0.3333333), wk =   0.0138889
        k(   64) = (   0.1666667   0.4166667  -0.5000000), wk =   0.0069444
        k(   65) = (   0.2500000   0.2500000   0.0000000), wk =   0.0069444
        k(   66) = (   0.2500000   0.2500000   0.1666667), wk =   0.0138889
        k(   67) = (   0.2500000   0.2500000   0.3333333), wk =   0.0138889
        k(   68) = (   0.2500000   0.2500000  -0.5000000), wk =   0.0069444
        k(   69) = (   0.2500000   0.3333333   0.0000000), wk =   0.0138889
        k(   70) = (   0.2500000   0.3333333   0.1666667), wk =   0.0277778
        k(   71) = (   0.2500000   0.3333333   0.3333333), wk =   0.0277778
        k(   72) = (   0.2500000   0.3333333  -0.5000000), wk =   0.0138889
        k(   73) = (   0.3333333   0.3333333   0.0000000), wk =   0.0023148
        k(   74) = (   0.3333333   0.3333333   0.1666667), wk =   0.0046296
        k(   75) = (   0.3333333   0.3333333   0.3333333), wk =   0.0046296
        k(   76) = (   0.3333333   0.3333333  -0.5000000), wk =   0.0023148

     Dense  grid:    23777 G-vectors     FFT dimensions: (  32,  32,  54)

     Smooth grid:    23007 G-vectors     FFT dimensions: (  32,  32,  54)

     Dynamical RAM for                 wfc:       0.05 MB

     Dynamical RAM for     wfc (w. buffer):       7.01 MB

     Dynamical RAM for           str. fact:       0.02 MB

     Dynamical RAM for           local pot:       0.00 MB

     Dynamical RAM for          nlocal pot:       0.08 MB

     Dynamical RAM for                qrad:       1.70 MB

     Dynamical RAM for          rho,v,vnew:       0.25 MB

     Dynamical RAM for               rhoin:       0.08 MB

     Dynamical RAM for            rho*nmix:       0.59 MB

     Dynamical RAM for           G-vectors:       0.08 MB

     Dynamical RAM for          h,s,v(r/c):       0.08 MB

     Dynamical RAM for          <psi|beta>:       0.01 MB

     Dynamical RAM for                 psi:       0.09 MB

     Dynamical RAM for                hpsi:       0.09 MB

     Dynamical RAM for                spsi:       0.09 MB

     Dynamical RAM for      wfcinit/wfcrot:       0.10 MB

     Dynamical RAM for           addusdens:       3.46 MB

     Estimated static dynamical RAM per process >       9.40 MB

     Estimated max dynamical RAM per process >      13.45 MB

     Estimated total dynamical RAM >     268.91 MB

     Check: negative core charge=   -0.000042
     Generating pointlists ...
     new r_m :   0.4125 (alat units)  1.9388 (a.u.) for type    1

     The initial density is read from file :
     ./out/Co.save/charge-density

     Starting wfcs from file
     Checking if some PAW data can be deallocated... 

     total cpu time spent up to now is        0.6 secs

     Self-consistent Calculation

     iteration #  1     ecut=   110.00 Ry     beta= 0.70
     Davidson diagonalization with overlap

---- Real-time Memory Report at c_bands before calling an iterative solver
            56 MiB given to the printing process from OS
             0 MiB allocation reported by mallinfo(arena+hblkhd)
        353490 MiB available memory on the node where the printing process lives
------------------
     ethr =  1.00E-05,  avg # of iterations =  1.0

     Threshold (ethr) on eigenvalues was too large:
     Diagonalizing with lowered threshold

     Davidson diagonalization with overlap

---- Real-time Memory Report at c_bands before calling an iterative solver
            63 MiB given to the printing process from OS
             0 MiB allocation reported by mallinfo(arena+hblkhd)
        353282 MiB available memory on the node where the printing process lives
------------------
     ethr =  2.66E-10,  avg # of iterations =  2.8
 
     Magnetic moment per site  (integrated on atomic sphere of radius R)
     atom   1 (R=0.413)  charge= 15.6023  magn=  1.7542
     atom   2 (R=0.413)  charge= 15.6023  magn=  1.7542

     total cpu time spent up to now is        3.4 secs

     End of self-consistent calculation

 ------ SPIN UP ------------


          k = 0.0000 0.0000 0.0000 (  2875 PWs)   bands (ev):

   -77.6116 -77.5601 -41.0079 -40.7155 -40.7155 -40.7006 -40.6726 -40.6726
     9.5665  13.3461  15.8119  15.9144  15.9144  16.2088  16.2088  16.5880
    16.5880  17.6305  17.6305  18.1393  24.5529

     occupation numbers 
     1.0000   1.0000   1.0000   1.0000   1.0000   1.0000   1.0000   1.0000
     1.0000   1.0000   1.0000   1.0000   1.0000   1.0000   1.0000   1.0000
     1.0000   1.0000   1.0000   1.0000   0.0000

          k = 0.0000 0.0000 0.1016 (  2876 PWs)   bands (ev):

   -77.6081 -77.5635 -40.9876 -40.7215 -40.7126 -40.7126 -40.6755 -40.6755
     9.8369  13.2676  15.7457  15.8584  15.8584  16.1417  16.1417  16.7367
    16.7367  17.2156  17.6122  17.6122  26.0410

     occupation numbers 
     1.0000   1.0000   1.0000   1.0000   1.0000   1.0000   1.0000   1.0000
     1.0000   1.0000   1.0000   1.0000   1.0000   1.0000   1.0000   1.0000
     1.0000   1.0000   1.0000   1.0000   0.0000

          k = 0.0000 0.0000 0.2033 (  2888 PWs)   bands (ev):

   -77.5987 -77.5730 -40.9319 -40.7782 -40.7048 -40.7048 -40.6834 -40.6834
    10.6128  12.8085  15.5932  15.8102  15.8102  15.9522  15.9926  15.9926
    17.0364  17.0364  17.5242  17.5242  29.1925

     occupation numbers 
     1.0000   1.0000   1.0000   1.0000   1.0000   1.0000   1.0000   1.0000
     1.0000   1.0000   1.0000   1.0000   1.0000   1.0000   1.0000   1.0000
     1.0000   1.0000   1.0000   1.0000   0.0000

          k = 0.0000 0.0000-0.3049 (  2846 PWs)   bands (ev):

   -77.5859 -77.5859 -40.8553 -40.8553 -40.6941 -40.6941 -40.6941 -40.6941
    11.7472  11.7472  15.5227  15.5227  15.8590  15.8590  15.8590  15.8590
    17.3263  17.3263  17.3263  17.3263  32.9636

     occupation numbers 
     1.0000   1.0000   1.0000   1.0000   1.0000   1.0000   1.0000   1.0000
     1.0000   1.0000   1.0000   1.0000   1.0000   1.0000   1.0000   1.0000
     1.0000   1.0000   1.0000   1.0000   0.0000

          k = 0.0000 0.0962 0.0000 (  2841 PWs)   bands (ev):

   -77.6084 -77.5585 -41.0011 -40.7314 -40.7206 -40.7032 -40.6890 -40.6754
     9.8093  13.4949  15.6565  16.0285  16.0365  16.1575  16.3107  16.4175
    16.5182  16.8125  17.6585  19.2897  24.5935

     occupation numbers 
     1.0000   1.0000   1.0000   1.0000   1.0000   1.0000   1.0000   1.0000
     1.0000   1.0000   1.0000   1.0000   1.0000   1.0000   1.0000   1.0000
     1.0000   1.0000   1.0000   0.0000   0.0000

          k = 0.0000 0.0962 0.1016 (  2867 PWs)   bands (ev):

   -77.6051 -77.5618 -40.9819 -40.7287 -40.7264 -40.7176 -40.6884 -40.6784
    10.0756  13.4307  15.6557  15.8777  15.9577  15.9809  16.2380  16.4902
    16.6914  16.7519  17.6333  18.5477  26.1517

     occupation numbers 
     1.0000   1.0000   1.0000   1.0000   1.0000   1.0000   1.0000   1.0000
     1.0000   1.0000   1.0000   1.0000   1.0000   1.0000   1.0000   1.0000
     1.0000   1.0000   1.0000   0.0005   0.0000

          k = 0.0000 0.0962 0.2033 (  2877 PWs)   bands (ev):

   -77.5960 -77.5710 -40.9291 -40.7828 -40.7191 -40.7093 -40.6952 -40.6867
    10.8393  12.9990  15.5416  15.5810  15.7290  15.9022  16.0873  16.1190
    17.0102  17.0514  17.5295  17.8151  29.3487

     occupation numbers 
     1.0000   1.0000   1.0000   1.0000   1.0000   1.0000   1.0000   1.0000
     1.0000   1.0000   1.0000   1.0000   1.0000   1.0000   1.0000   1.0000
     1.0000   1.0000   1.0000   1.0000   0.0000

          k = 0.0000 0.0962-0.3049 (  2870 PWs)   bands (ev):

   -77.5835 -77.5835 -40.8564 -40.8564 -40.7069 -40.7069 -40.6980 -40.6980
    11.9556  11.9556  15.3945  15.3945  15.8568  15.8568  15.9520  15.9520
    17.3148  17.3149  17.4146  17.4146  33.1353

     occupation numbers 
     1.0000   1.0000   1.0000   1.0000   1.0000   1.0000   1.0000   1.0000
     1.0000   1.0000   1.0000   1.0000   1.0000   1.0000   1.0000   1.0000
     1.0000   1.0000   1.0000   1.0000   0.0000

          k = 0.0000 0.1925 0.0000 (  2853 PWs)   bands (ev):

   -77.5997 -77.5543 -40.9816 -40.7751 -40.7342 -40.7337 -40.7111 -40.6832
    10.5116  13.8637  15.4029  15.6498  15.9694  16.3341  16.3461  16.3508
    16.4956  16.5963  17.7173  20.8707  24.7372

     occupation numbers 
     1.0000   1.0000   1.0000   1.0000   1.0000   1.0000   1.0000   1.0000
     1.0000   1.0000   1.0000   1.0000   1.0000   1.0000   1.0000   1.0000
     1.0000   1.0000   1.0000   0.0000   0.0000

          k = 0.0000 0.1925 0.1016 (  2864 PWs)   bands (ev):

   -77.5966 -77.5573 -40.9660 -40.7707 -40.7537 -40.7308 -40.7115 -40.6866
    10.7622  13.8435  15.3847  15.4432  15.8516  16.1764  16.2260  16.4884
    16.6651  16.7344  17.6770  19.7603  26.5121

     occupation numbers 
     1.0000   1.0000   1.0000   1.0000   1.0000   1.0000   1.0000   1.0000
     1.0000   1.0000   1.0000   1.0000   1.0000   1.0000   1.0000   1.0000
     1.0000   1.0000   1.0000   0.0000   0.0000

          k = 0.0000 0.1925 0.2033 (  2876 PWs)   bands (ev):

   -77.5883 -77.5656 -40.9230 -40.8028 -40.7558 -40.7215 -40.7210 -40.6960
    11.4780  13.4919  15.0605  15.5009  15.5773  16.0575  16.1278  16.3491
    16.9819  17.1285  17.5406  18.4452  29.8164

     occupation numbers 
     1.0000   1.0000   1.0000   1.0000   1.0000   1.0000   1.0000   1.0000
     1.0000   1.0000   1.0000   1.0000   1.0000   1.0000   1.0000   1.0000
     1.0000   1.0000   1.0000   1.0000   0.0000

          k = 0.0000 0.1925-0.3049 (  2880 PWs)   bands (ev):

   -77.5770 -77.5770 -40.8636 -40.8636 -40.7379 -40.7379 -40.7088 -40.7088
    12.5175  12.5175  15.1786  15.1786  15.7888  15.7888  16.1996  16.1996
    17.2982  17.2982  17.6529  17.6529  33.6107

     occupation numbers 
     1.0000   1.0000   1.0000   1.0000   1.0000   1.0000   1.0000   1.0000
     1.0000   1.0000   1.0000   1.0000   1.0000   1.0000   1.0000   1.0000
     1.0000   1.0000   1.0000   1.0000   0.0000

          k = 0.0000 0.2887 0.0000 (  2852 PWs)   bands (ev):

   -77.5873 -77.5490 -40.9525 -40.8353 -40.7936 -40.7523 -40.7244 -40.6944
    11.5743  14.1595  14.9348  15.2513  15.8617  16.1390  16.2888  16.7659
    16.8184  17.0067  17.7712  22.6501  25.0210

     occupation numbers 
     1.0000   1.0000   1.0000   1.0000   1.0000   1.0000   1.0000   1.0000
     1.0000   1.0000   1.0000   1.0000   1.0000   1.0000   1.0000   1.0000
     1.0000   1.0000   1.0000   0.0000   0.0000

          k = 0.0000 0.2887 0.1016 (  2861 PWs)   bands (ev):

   -77.5847 -77.5515 -40.9450 -40.8269 -40.8069 -40.7484 -40.7273 -40.6983
    11.7829  14.1921  14.7978  15.3022  15.7176  16.1776  16.2864  16.8569
    16.8916  16.9661  17.7184  21.0244  27.1638

     occupation numbers 
     1.0000   1.0000   1.0000   1.0000   1.0000   1.0000   1.0000   1.0000
     1.0000   1.0000   1.0000   1.0000   1.0000   1.0000   1.0000   1.0000
     1.0000   1.0000   1.0000   0.0000   0.0000

          k = 0.0000 0.2887 0.2033 (  2869 PWs)   bands (ev):

   -77.5777 -77.5586 -40.9225 -40.8469 -40.7965 -40.7405 -40.7379 -40.7089
    12.3643  13.9302  14.7383  15.3151  15.6088  16.1331  16.2978  16.7160
    17.1065  17.2793  17.5664  19.2051  30.4914

     occupation numbers 
     1.0000   1.0000   1.0000   1.0000   1.0000   1.0000   1.0000   1.0000
     1.0000   1.0000   1.0000   1.0000   1.0000   1.0000   1.0000   1.0000
     1.0000   1.0000   1.0000   0.0000   0.0000

          k = 0.0000 0.2887-0.3049 (  2878 PWs)   bands (ev):

   -77.5681 -77.5681 -40.8874 -40.8874 -40.7659 -40.7659 -40.7234 -40.7234
    13.1715  13.1715  15.0251  15.0251  15.8505  15.8505  16.4917  16.4917
    17.3437  17.3437  17.9899  17.9899  32.8611

     occupation numbers 
     1.0000   1.0000   1.0000   1.0000   1.0000   1.0000   1.0000   1.0000
     1.0000   1.0000   1.0000   1.0000   1.0000   1.0000   1.0000   1.0000
     1.0000   1.0000   1.0000   1.0000   0.0000

          k = 0.0000 0.3849 0.0000 (  2880 PWs)   bands (ev):

   -77.5740 -77.5445 -40.9185 -40.8959 -40.8525 -40.7700 -40.7426 -40.7059
    12.7341  14.0903  14.4232  15.3652  15.9521  15.9843  16.0977  17.3175
    17.4506  17.4627  17.8066  24.5921  25.1597

     occupation numbers 
     1.0000   1.0000   1.0000   1.0000   1.0000   1.0000   1.0000   1.0000
     1.0000   1.0000   1.0000   1.0000   1.0000   1.0000   1.0000   1.0000
     1.0000   1.0000   1.0000   0.0000   0.0000

          k = 0.0000 0.3849 0.1016 (  2874 PWs)   bands (ev):

   -77.5721 -77.5464 -40.9358 -40.8746 -40.8561 -40.7657 -40.7431 -40.7102
    12.8303  14.1098  14.4628  15.2066  15.9250  16.0416  16.4455  17.3284
    17.3633  17.3996  17.7624  22.2613  27.4052

     occupation numbers 
     1.0000   1.0000   1.0000   1.0000   1.0000   1.0000   1.0000   1.0000
     1.0000   1.0000   1.0000   1.0000   1.0000   1.0000   1.0000   1.0000
     1.0000   1.0000   1.0000   0.0000   0.0000

          k = 0.0000 0.3849 0.2033 (  2869 PWs)   bands (ev):

   -77.5666 -77.5519 -40.9417 -40.8998 -40.8162 -40.7540 -40.7520 -40.7219
    13.1008  13.9189  14.6104  15.0996  16.0459  16.2940  16.7668  17.0468
    17.4311  17.5066  17.6625  20.0904  28.5777

     occupation numbers 
     1.0000   1.0000   1.0000   1.0000   1.0000   1.0000   1.0000   1.0000
     1.0000   1.0000   1.0000   1.0000   1.0000   1.0000   1.0000   1.0000
     1.0000   1.0000   1.0000   0.0000   0.0000

          k = 0.0000 0.3849-0.3049 (  2876 PWs)   bands (ev):

   -77.5593 -77.5593 -40.9278 -40.9278 -40.7770 -40.7770 -40.7380 -40.7380
    13.4976  13.4976  14.8885  14.8885  16.4569  16.4569  16.6585  16.6585
    17.5436  17.5436  18.4692  18.4692  29.6735

     occupation numbers 
     1.0000   1.0000   1.0000   1.0000   1.0000   1.0000   1.0000   1.0000
     1.0000   1.0000   1.0000   1.0000   1.0000   1.0000   1.0000   1.0000
     1.0000   1.0000   1.0000   1.0000   0.0000

          k = 0.0000 0.4811 0.0000 (  2876 PWs)   bands (ev):

   -77.5633 -77.5422 -40.9405 -40.8950 -40.8872 -40.7828 -40.7624 -40.7145
    13.4946  13.9011  14.1192  15.7231  15.8244  15.9617  16.1939  17.6920
    17.8167  17.8247  18.5886  23.4749  26.6014

     occupation numbers 
     1.0000   1.0000   1.0000   1.0000   1.0000   1.0000   1.0000   1.0000
     1.0000   1.0000   1.0000   1.0000   1.0000   1.0000   1.0000   1.0000
     1.0000   1.0000   0.0000   0.0000   0.0000

          k = 0.0000 0.4811 0.1016 (  2873 PWs)   bands (ev):

   -77.5619 -77.5436 -40.9572 -40.9107 -40.8578 -40.7782 -40.7593 -40.7191
    13.3859  13.8896  14.4265  15.0959  15.9331  16.2047  16.8079  17.5957
    17.7176  17.8671  18.4318  22.6596  26.0060

     occupation numbers 
     1.0000   1.0000   1.0000   1.0000   1.0000   1.0000   1.0000   1.0000
     1.0000   1.0000   1.0000   1.0000   1.0000   1.0000   1.0000   1.0000
     1.0000   1.0000   1.0000   0.0000   0.0000

          k = 0.0000 0.4811 0.2033 (  2873 PWs)   bands (ev):

   -77.5580 -77.5475 -40.9703 -40.9399 -40.8139 -40.7657 -40.7607 -40.7316
    13.3514  13.8125  14.5937  14.8978  16.2414  16.4706  17.1902  17.7504
    17.7554  17.8451  18.1260  20.9460  26.1792

     occupation numbers 
     1.0000   1.0000   1.0000   1.0000   1.0000   1.0000   1.0000   1.0000
     1.0000   1.0000   1.0000   1.0000   1.0000   1.0000   1.0000   1.0000
     1.0000   1.0000   1.0000   0.0000   0.0000

          k = 0.0000 0.4811-0.3049 (  2870 PWs)   bands (ev):

   -77.5527 -77.5527 -40.9637 -40.9637 -40.7787 -40.7787 -40.7487 -40.7487
    13.5292  13.5292  14.7630  14.7630  16.6933  16.6933  17.1737  17.1737
    17.7991  17.7991  19.3163  19.3163  26.9486

     occupation numbers 
     1.0000   1.0000   1.0000   1.0000   1.0000   1.0000   1.0000   1.0000
     1.0000   1.0000   1.0000   1.0000   1.0000   1.0000   1.0000   1.0000
     1.0000   1.0000   0.0000   0.0000   0.0000

          k = 0.0000-0.5774 0.0000 (  2882 PWs)   bands (ev):

   -77.5588 -77.5419 -40.9569 -40.9105 -40.8726 -40.7874 -40.7728 -40.7176
    13.7511  13.7597  14.0186  15.7792  15.9125  15.9766  16.2661  17.8276
    17.8299  17.9646  19.7560  21.7647  27.9084

     occupation numbers 
     1.0000   1.0000   1.0000   1.0000   1.0000   1.0000   1.0000   1.0000
     1.0000   1.0000   1.0000   1.0000   1.0000   1.0000   1.0000   1.0000
     1.0000   1.0000   0.0000   0.0000   0.0000

          k = 0.0000-0.5774 0.1016 (  2866 PWs)   bands (ev):

   -77.5577 -77.5431 -40.9700 -40.9253 -40.8496 -40.7827 -40.7677 -40.7223
    13.4845  13.7963  14.4575  15.0674  15.8934  16.2884  17.0124  17.6416
    17.8593  17.9574  19.5492  21.5846  27.0791

     occupation numbers 
     1.0000   1.0000   1.0000   1.0000   1.0000   1.0000   1.0000   1.0000
     1.0000   1.0000   1.0000   1.0000   1.0000   1.0000   1.0000   1.0000
     1.0000   1.0000   0.0000   0.0000   0.0000

          k = 0.0000-0.5774 0.2033 (  2886 PWs)   bands (ev):

   -77.5546 -77.5461 -40.9829 -40.9547 -40.8098 -40.7700 -40.7650 -40.7351
    13.3716  13.7703  14.6217  14.8030  16.2177  16.6095  17.2179  17.8734
    17.8818  17.9375  19.2320  20.9818  26.1022

     occupation numbers 
     1.0000   1.0000   1.0000   1.0000   1.0000   1.0000   1.0000   1.0000
     1.0000   1.0000   1.0000   1.0000   1.0000   1.0000   1.0000   1.0000
     1.0000   1.0000   0.0000   0.0000   0.0000

          k = 0.0000-0.5774-0.3049 (  2880 PWs)   bands (ev):

   -77.5504 -77.5504 -40.9776 -40.9776 -40.7785 -40.7785 -40.7526 -40.7526
    13.5140  13.5140  14.7145  14.7145  16.6939  16.6939  17.4072  17.4072
    17.9099  17.9099  19.9872  19.9872  25.6807

     occupation numbers 
     1.0000   1.0000   1.0000   1.0000   1.0000   1.0000   1.0000   1.0000
     1.0000   1.0000   1.0000   1.0000   1.0000   1.0000   1.0000   1.0000
     1.0000   1.0000   0.0000   0.0000   0.0000

          k = 0.0833 0.1443 0.0000 (  2860 PWs)   bands (ev):

   -77.6025 -77.5556 -40.9879 -40.7586 -40.7373 -40.7128 -40.7085 -40.6827
    10.2827  13.7597  15.4569  15.8947  16.0493  16.1799  16.2615  16.3080
    16.5333  16.6257  17.6912  20.4284  24.6876

     occupation numbers 
     1.0000   1.0000   1.0000   1.0000   1.0000   1.0000   1.0000   1.0000
     1.0000   1.0000   1.0000   1.0000   1.0000   1.0000   1.0000   1.0000
     1.0000   1.0000   1.0000   0.0000   0.0000

          k = 0.0833 0.1443 0.1016 (  2867 PWs)   bands (ev):

   -77.5993 -77.5587 -40.9710 -40.7544 -40.7461 -40.7276 -40.7033 -40.6860
    10.5393  13.7252  15.4852  15.5697  15.8979  16.1214  16.2091  16.4039
    16.6751  16.7398  17.6583  19.4312  26.3892

     occupation numbers 
     1.0000   1.0000   1.0000   1.0000   1.0000   1.0000   1.0000   1.0000
     1.0000   1.0000   1.0000   1.0000   1.0000   1.0000   1.0000   1.0000
     1.0000   1.0000   1.0000   0.0000   0.0000

          k = 0.0833 0.1443 0.2033 (  2873 PWs)   bands (ev):

   -77.5908 -77.5673 -40.9246 -40.7950 -40.7429 -40.7234 -40.7084 -40.6947
    11.2737  13.3472  15.1808  15.5433  15.5918  16.0396  16.0919  16.2690
    17.0106  17.0786  17.5393  18.2627  29.6632

     occupation numbers 
     1.0000   1.0000   1.0000   1.0000   1.0000   1.0000   1.0000   1.0000
     1.0000   1.0000   1.0000   1.0000   1.0000   1.0000   1.0000   1.0000
     1.0000   1.0000   1.0000   1.0000   0.0000

          k = 0.0833 0.1443-0.3049 (  2856 PWs)   bands (ev):

   -77.5791 -77.5791 -40.8605 -40.8605 -40.7284 -40.7284 -40.7059 -40.7059
    12.3443  12.3443  15.2346  15.2346  15.7912  15.7912  16.1342  16.1342
    17.3034  17.3034  17.5787  17.5787  33.4672

     occupation numbers 
     1.0000   1.0000   1.0000   1.0000   1.0000   1.0000   1.0000   1.0000
     1.0000   1.0000   1.0000   1.0000   1.0000   1.0000   1.0000   1.0000
     1.0000   1.0000   1.0000   1.0000   0.0000

          k = 0.0833 0.2406 0.0000 (  2858 PWs)   bands (ev):

   -77.5919 -77.5508 -40.9636 -40.8068 -40.7798 -40.7391 -40.7191 -40.6953
    11.1738  14.1388  15.1956  15.1961  15.9145  16.0795  16.4382  16.4788
    16.6863  16.9521  17.7298  22.0084  24.9218

     occupation numbers 
     1.0000   1.0000   1.0000   1.0000   1.0000   1.0000   1.0000   1.0000
     1.0000   1.0000   1.0000   1.0000   1.0000   1.0000   1.0000   1.0000
     1.0000   1.0000   1.0000   0.0000   0.0000

          k = 0.0833 0.2406 0.1016 (  2858 PWs)   bands (ev):

   -77.5891 -77.5536 -40.9522 -40.8010 -40.7894 -40.7441 -40.7186 -40.6987
    11.4036  14.1628  14.9918  15.2457  15.8036  16.0709  16.3060  16.5939
    16.8663  16.9282  17.6929  20.5892  26.9159

     occupation numbers 
     1.0000   1.0000   1.0000   1.0000   1.0000   1.0000   1.0000   1.0000
     1.0000   1.0000   1.0000   1.0000   1.0000   1.0000   1.0000   1.0000
     1.0000   1.0000   1.0000   0.0000   0.0000

          k = 0.0833 0.2406 0.2033 (  2870 PWs)   bands (ev):

   -77.5816 -77.5611 -40.9204 -40.8278 -40.7798 -40.7450 -40.7235 -40.7081
    12.0534  13.8688  14.8209  15.3514  15.5371  15.9549  16.2735  16.5886
    17.0997  17.1997  17.5761  18.9414  30.2808

     occupation numbers 
     1.0000   1.0000   1.0000   1.0000   1.0000   1.0000   1.0000   1.0000
     1.0000   1.0000   1.0000   1.0000   1.0000   1.0000   1.0000   1.0000
     1.0000   1.0000   1.0000   0.0000   0.0000

          k = 0.0833 0.2406-0.3049 (  2872 PWs)   bands (ev):

   -77.5714 -77.5714 -40.8753 -40.8753 -40.7574 -40.7574 -40.7197 -40.7197
    12.9815  12.9815  15.0855  15.0855  15.6832  15.6832  16.4149  16.4149
    17.3485  17.3485  17.8694  17.8694  33.9303

     occupation numbers 
     1.0000   1.0000   1.0000   1.0000   1.0000   1.0000   1.0000   1.0000
     1.0000   1.0000   1.0000   1.0000   1.0000   1.0000   1.0000   1.0000
     1.0000   1.0000   1.0000   1.0000   0.0000

          k = 0.0833 0.3368 0.0000 (  2864 PWs)   bands (ev):

   -77.5790 -77.5460 -40.9318 -40.8657 -40.8315 -40.7639 -40.7352 -40.7089
    12.3227  14.2611  14.6350  15.1375  15.8898  15.9130  16.2742  16.8541
    17.1899  17.5201  17.7614  23.8318  25.2937

     occupation numbers 
     1.0000   1.0000   1.0000   1.0000   1.0000   1.0000   1.0000   1.0000
     1.0000   1.0000   1.0000   1.0000   1.0000   1.0000   1.0000   1.0000
     1.0000   1.0000   1.0000   0.0000   0.0000

          k = 0.0833 0.3368 0.1016 (  2862 PWs)   bands (ev):

   -77.5768 -77.5482 -40.9339 -40.8549 -40.8370 -40.7642 -40.7348 -40.7123
    12.4826  14.3144  14.5501  15.1809  15.7169  16.1140  16.2438  16.8876
    17.2717  17.3774  17.7796  21.8429  27.6873

     occupation numbers 
     1.0000   1.0000   1.0000   1.0000   1.0000   1.0000   1.0000   1.0000
     1.0000   1.0000   1.0000   1.0000   1.0000   1.0000   1.0000   1.0000
     1.0000   1.0000   1.0000   0.0000   0.0000

          k = 0.0833 0.3368 0.2033 (  2873 PWs)   bands (ev):

   -77.5708 -77.5542 -40.9284 -40.8766 -40.8093 -40.7616 -40.7398 -40.7217
    12.9159  14.0541  14.6714  15.2323  15.6440  16.1160  16.3303  16.9072
    17.3202  17.4856  17.7555  19.7904  30.1974

     occupation numbers 
     1.0000   1.0000   1.0000   1.0000   1.0000   1.0000   1.0000   1.0000
     1.0000   1.0000   1.0000   1.0000   1.0000   1.0000   1.0000   1.0000
     1.0000   1.0000   1.0000   0.0000   0.0000

          k = 0.0833 0.3368-0.3049 (  2874 PWs)   bands (ev):

   -77.5625 -77.5625 -40.9075 -40.9075 -40.7763 -40.7763 -40.7349 -40.7349
    13.4957  13.4957  14.9980  14.9980  15.8654  15.8654  16.5993  16.5993
    17.5577  17.5577  18.3252  18.3252  31.3895

     occupation numbers 
     1.0000   1.0000   1.0000   1.0000   1.0000   1.0000   1.0000   1.0000
     1.0000   1.0000   1.0000   1.0000   1.0000   1.0000   1.0000   1.0000
     1.0000   1.0000   1.0000   1.0000   0.0000

          k = 0.0833 0.4330 0.0000 (  2878 PWs)   bands (ev):

   -77.5669 -77.5428 -40.9178 -40.8982 -40.8764 -40.7838 -40.7551 -40.7206
    13.3329  14.0837  14.2585  15.3688  15.7723  16.0652  16.1075  17.3805
    17.6176  17.7799  18.3171  24.7675  25.8161

     occupation numbers 
     1.0000   1.0000   1.0000   1.0000   1.0000   1.0000   1.0000   1.0000
     1.0000   1.0000   1.0000   1.0000   1.0000   1.0000   1.0000   1.0000
     1.0000   1.0000   1.0000   0.0000   0.0000

          k = 0.0833 0.4330 0.1016 (  2876 PWs)   bands (ev):

   -77.5652 -77.5444 -40.9407 -40.8942 -40.8591 -40.7813 -40.7527 -40.7238
    13.3238  14.0952  14.4139  15.1111  15.8486  16.1580  16.4066  17.3317
    17.6089  17.6743  18.3137  22.9405  26.5776

     occupation numbers 
     1.0000   1.0000   1.0000   1.0000   1.0000   1.0000   1.0000   1.0000
     1.0000   1.0000   1.0000   1.0000   1.0000   1.0000   1.0000   1.0000
     1.0000   1.0000   1.0000   0.0000   0.0000

          k = 0.0833 0.4330 0.2033 (  2875 PWs)   bands (ev):

   -77.5608 -77.5488 -40.9533 -40.9212 -40.8169 -40.7732 -40.7548 -40.7324
    13.4008  13.9598  14.6016  15.0547  15.9544  16.3779  16.8049  17.0835
    17.4977  17.8179  18.3760  20.8215  27.3023

     occupation numbers 
     1.0000   1.0000   1.0000   1.0000   1.0000   1.0000   1.0000   1.0000
     1.0000   1.0000   1.0000   1.0000   1.0000   1.0000   1.0000   1.0000
     1.0000   1.0000   1.0000   0.0000   0.0000

          k = 0.0833 0.4330-0.3049 (  2870 PWs)   bands (ev):

   -77.5548 -77.5548 -40.9452 -40.9452 -40.7841 -40.7841 -40.7465 -40.7465
    13.6369  13.6369  14.8740  14.8740  16.3834  16.3834  16.7680  16.7680
    17.7666  17.7666  19.1825  19.1825  28.3240

     occupation numbers 
     1.0000   1.0000   1.0000   1.0000   1.0000   1.0000   1.0000   1.0000
     1.0000   1.0000   1.0000   1.0000   1.0000   1.0000   1.0000   1.0000
     1.0000   1.0000   0.0000   0.0000   0.0000

          k = 0.0833 0.5292 0.0000 (  2879 PWs)   bands (ev):

   -77.5588 -77.5419 -40.9480 -40.9023 -40.8728 -40.7950 -40.7726 -40.7274
    13.7805  13.9202  14.0712  15.7365  15.7376  15.9161  16.2642  17.7630
    17.7874  17.8407  19.5953  22.5365  27.7154

     occupation numbers 
     1.0000   1.0000   1.0000   1.0000   1.0000   1.0000   1.0000   1.0000
     1.0000   1.0000   1.0000   1.0000   1.0000   1.0000   1.0000   1.0000
     1.0000   1.0000   0.0000   0.0000   0.0000

          k = 0.0833 0.5292 0.1016 (  2875 PWs)   bands (ev):

   -77.5577 -77.5430 -40.9614 -40.9176 -40.8505 -40.7895 -40.7683 -40.7306
    13.5663  13.9275  14.4949  15.0527  15.7826  16.3361  16.6821  17.5856
    17.7763  17.8682  19.5291  22.2656  26.5032

     occupation numbers 
     1.0000   1.0000   1.0000   1.0000   1.0000   1.0000   1.0000   1.0000
     1.0000   1.0000   1.0000   1.0000   1.0000   1.0000   1.0000   1.0000
     1.0000   1.0000   0.0000   0.0000   0.0000

          k = 0.0833 0.5292 0.2033 (  2873 PWs)   bands (ev):

   -77.5546 -77.5461 -40.9744 -40.9468 -40.8151 -40.7754 -40.7676 -40.7384
    13.4753  13.8967  14.6305  14.9124  15.9510  16.6744  17.0625  17.3380
    17.7376  17.9270  19.5694  21.3998  25.8224

     occupation numbers 
     1.0000   1.0000   1.0000   1.0000   1.0000   1.0000   1.0000   1.0000
     1.0000   1.0000   1.0000   1.0000   1.0000   1.0000   1.0000   1.0000
     1.0000   1.0000   0.0000   0.0000   0.0000

          k = 0.0833 0.5292-0.3049 (  2876 PWs)   bands (ev):

   -77.5504 -77.5504 -40.9693 -40.9693 -40.7876 -40.7876 -40.7519 -40.7519
    13.6270  13.6270  14.7882  14.7882  16.4807  16.4807  17.1995  17.1995
    17.8075  17.8075  20.2882  20.2882  26.1031

     occupation numbers 
     1.0000   1.0000   1.0000   1.0000   1.0000   1.0000   1.0000   1.0000
     1.0000   1.0000   1.0000   1.0000   1.0000   1.0000   1.0000   1.0000
     1.0000   1.0000   0.0000   0.0000   0.0000

          k = 0.1667 0.2887 0.0000 (  2864 PWs)   bands (ev):

   -77.5808 -77.5466 -40.9364 -40.8424 -40.8338 -40.7572 -40.7327 -40.7169
    12.1775  14.4474  14.7476  14.9058  15.8134  15.9195  16.3772  16.6033
    17.1765  17.5450  17.7205  23.5753  25.3230

     occupation numbers 
     1.0000   1.0000   1.0000   1.0000   1.0000   1.0000   1.0000   1.0000
     1.0000   1.0000   1.0000   1.0000   1.0000   1.0000   1.0000   1.0000
     1.0000   1.0000   1.0000   0.0000   0.0000

          k = 0.1667 0.2887 0.1016 (  2860 PWs)   bands (ev):

   -77.5785 -77.5489 -40.9343 -40.8415 -40.8294 -40.7658 -40.7279 -40.7204
    12.3590  14.5381  14.6047  14.9575  15.7688  15.9289  16.2704  16.7045
    17.2867  17.3655  17.7940  21.7060  27.6594

     occupation numbers 
     1.0000   1.0000   1.0000   1.0000   1.0000   1.0000   1.0000   1.0000
     1.0000   1.0000   1.0000   1.0000   1.0000   1.0000   1.0000   1.0000
     1.0000   1.0000   1.0000   0.0000   0.0000

          k = 0.1667 0.2887 0.2033 (  2871 PWs)   bands (ev):

   -77.5723 -77.5551 -40.9228 -40.8664 -40.8008 -40.7706 -40.7298 -40.7292
    12.8566  14.1721  14.7854  15.1049  15.5811  15.7992  16.2771  16.8448
    17.3209  17.4765  17.8307  19.7150  30.9931

     occupation numbers 
     1.0000   1.0000   1.0000   1.0000   1.0000   1.0000   1.0000   1.0000
     1.0000   1.0000   1.0000   1.0000   1.0000   1.0000   1.0000   1.0000
     1.0000   1.0000   1.0000   0.0000   0.0000

          k = 0.1667 0.2887-0.3049 (  2880 PWs)   bands (ev):

   -77.5637 -77.5637 -40.8983 -40.8983 -40.7762 -40.7762 -40.7354 -40.7354
    13.5291  13.5291  15.0941  15.0941  15.5302  15.5302  16.5477  16.5477
    17.6058  17.6058  18.3072  18.3072  33.1163

     occupation numbers 
     1.0000   1.0000   1.0000   1.0000   1.0000   1.0000   1.0000   1.0000
     1.0000   1.0000   1.0000   1.0000   1.0000   1.0000   1.0000   1.0000
     1.0000   1.0000   1.0000   1.0000   0.0000

          k = 0.1667 0.3849 0.0000 (  2873 PWs)   bands (ev):

   -77.5689 -77.5431 -40.9041 -40.8884 -40.8683 -40.7847 -40.7512 -40.7377
    13.2780  14.4016  14.4269  14.8895  15.6522  16.0590  16.1773  16.9210
    17.6125  17.7088  18.3545  25.4234  25.7749

     occupation numbers 
     1.0000   1.0000   1.0000   1.0000   1.0000   1.0000   1.0000   1.0000
     1.0000   1.0000   1.0000   1.0000   1.0000   1.0000   1.0000   1.0000
     1.0000   1.0000   1.0000   0.0000   0.0000

          k = 0.1667 0.3849 0.1016 (  2873 PWs)   bands (ev):

   -77.5671 -77.5449 -40.9247 -40.8851 -40.8482 -40.7914 -40.7474 -40.7375
    13.3521  14.3362  14.5192  14.9662  15.6938  16.0555  16.1368  16.9633
    17.5101  17.6959  18.4306  23.0022  28.0060

     occupation numbers 
     1.0000   1.0000   1.0000   1.0000   1.0000   1.0000   1.0000   1.0000
     1.0000   1.0000   1.0000   1.0000   1.0000   1.0000   1.0000   1.0000
     1.0000   1.0000   1.0000   0.0000   0.0000

          k = 0.1667 0.3849 0.2033 (  2865 PWs)   bands (ev):

   -77.5624 -77.5496 -40.9354 -40.9053 -40.8130 -40.7920 -40.7518 -40.7369
    13.5555  14.1357  14.7550  15.1796  15.6104  15.9069  16.2780  16.9522
    17.4264  17.8375  18.6043  20.8359  29.0217

     occupation numbers 
     1.0000   1.0000   1.0000   1.0000   1.0000   1.0000   1.0000   1.0000
     1.0000   1.0000   1.0000   1.0000   1.0000   1.0000   1.0000   1.0000
     1.0000   1.0000   0.0000   0.0000   0.0000

          k = 0.1667 0.3849-0.3049 (  2868 PWs)   bands (ev):

   -77.5560 -77.5560 -40.9270 -40.9270 -40.7934 -40.7934 -40.7468 -40.7468
    13.8417  13.8417  15.0799  15.0799  15.6983  15.6983  16.5508  16.5508
    17.8142  17.8142  19.2762  19.2762  30.1476

     occupation numbers 
     1.0000   1.0000   1.0000   1.0000   1.0000   1.0000   1.0000   1.0000
     1.0000   1.0000   1.0000   1.0000   1.0000   1.0000   1.0000   1.0000
     1.0000   1.0000   0.0000   0.0000   0.0000

          k = 0.1667 0.4811 0.0000 (  2880 PWs)   bands (ev):

   -77.5589 -77.5419 -40.9249 -40.8864 -40.8731 -40.8099 -40.7722 -40.7520
    13.9706  14.1903  14.2237  15.2031  15.6121  15.9548  16.2605  17.3446
    17.6998  17.8199  19.5356  24.2017  27.4300

     occupation numbers 
     1.0000   1.0000   1.0000   1.0000   1.0000   1.0000   1.0000   1.0000
     1.0000   1.0000   1.0000   1.0000   1.0000   1.0000   1.0000   1.0000
     1.0000   1.0000   0.0000   0.0000   0.0000

          k = 0.1667 0.4811 0.1016 (  2881 PWs)   bands (ev):

   -77.5577 -77.5430 -40.9389 -40.9042 -40.8495 -40.8071 -40.7699 -40.7488
    13.8079  14.2757  14.4589  15.0055  15.6618  16.0984  16.3464  17.3323
    17.5174  17.8775  19.6134  23.6085  26.3441

     occupation numbers 
     1.0000   1.0000   1.0000   1.0000   1.0000   1.0000   1.0000   1.0000
     1.0000   1.0000   1.0000   1.0000   1.0000   1.0000   1.0000   1.0000
     1.0000   1.0000   0.0000   0.0000   0.0000

          k = 0.1667 0.4811 0.2033 (  2872 PWs)   bands (ev):

   -77.5546 -77.5461 -40.9532 -40.9302 -40.8268 -40.7961 -40.7684 -40.7434
    13.7626  14.1896  14.6517  15.1701  15.5628  16.2339  16.5797  17.0304
    17.5195  17.9472  19.9140  22.0794  26.4633

     occupation numbers 
     1.0000   1.0000   1.0000   1.0000   1.0000   1.0000   1.0000   1.0000
     1.0000   1.0000   1.0000   1.0000   1.0000   1.0000   1.0000   1.0000
     1.0000   1.0000   0.0000   0.0000   0.0000

          k = 0.1667 0.4811-0.3049 (  2870 PWs)   bands (ev):

   -77.5504 -77.5504 -40.9501 -40.9501 -40.8078 -40.8078 -40.7512 -40.7512
    13.9128  13.9128  14.9759  14.9759  15.9621  15.9621  16.7351  16.7351
    17.8185  17.8185  20.7001  20.7001  27.3301

     occupation numbers 
     1.0000   1.0000   1.0000   1.0000   1.0000   1.0000   1.0000   1.0000
     1.0000   1.0000   1.0000   1.0000   1.0000   1.0000   1.0000   1.0000
     1.0000   1.0000   0.0000   0.0000   0.0000

          k = 0.1667 0.5774 0.0000 (  2886 PWs)   bands (ev):

   -77.5545 -77.5421 -40.9381 -40.8922 -40.8575 -40.8203 -40.7842 -40.7571
    14.1199  14.1245  14.1411  15.4261  15.6428  15.8283  16.3469  17.6336
    17.6963  17.7865  20.8051  22.3679  28.8357

     occupation numbers 
     1.0000   1.0000   1.0000   1.0000   1.0000   1.0000   1.0000   1.0000
     1.0000   1.0000   1.0000   1.0000   1.0000   1.0000   1.0000   1.0000
     1.0000   1.0000   0.0000   0.0000   0.0000

          k = 0.1667 0.5774 0.1016 (  2888 PWs)   bands (ev):

   -77.5537 -77.5429 -40.9490 -40.9084 -40.8500 -40.8046 -40.7838 -40.7535
    13.8296  14.1937  14.6218  14.9845  15.5837  16.2221  16.4388  17.4906
    17.6306  17.8327  20.8966  22.3143  27.6129

     occupation numbers 
     1.0000   1.0000   1.0000   1.0000   1.0000   1.0000   1.0000   1.0000
     1.0000   1.0000   1.0000   1.0000   1.0000   1.0000   1.0000   1.0000
     1.0000   1.0000   0.0000   0.0000   0.0000

          k = 0.1667 0.5774 0.2033 (  2872 PWs)   bands (ev):

   -77.5514 -77.5452 -40.9618 -40.9380 -40.8338 -40.7944 -40.7744 -40.7465
    13.7597  14.2023  14.6895  15.1232  15.4817  16.4297  16.7059  17.0988
    17.6473  17.8693  21.1875  22.1047  26.3632

     occupation numbers 
     1.0000   1.0000   1.0000   1.0000   1.0000   1.0000   1.0000   1.0000
     1.0000   1.0000   1.0000   1.0000   1.0000   1.0000   1.0000   1.0000
     1.0000   1.0000   0.0000   0.0000   0.0000

          k = 0.1667 0.5774-0.3049 (  2874 PWs)   bands (ev):

   -77.5483 -77.5483 -40.9588 -40.9588 -40.8135 -40.8135 -40.7520 -40.7520
    13.9165  13.9165  14.9360  14.9360  15.9984  15.9984  16.9414  16.9414
    17.7569  17.7569  21.6702  21.6702  25.8908

     occupation numbers 
     1.0000   1.0000   1.0000   1.0000   1.0000   1.0000   1.0000   1.0000
     1.0000   1.0000   1.0000   1.0000   1.0000   1.0000   1.0000   1.0000
     1.0000   1.0000   0.0000   0.0000   0.0000

          k = 0.2500 0.4330 0.0000 (  2876 PWs)   bands (ev):

   -77.5589 -77.5418 -40.9048 -40.8857 -40.8733 -40.8127 -40.7721 -40.7704
    14.1105  14.2596  14.6326  14.6620  15.5351  15.9804  16.2689  17.1009
    17.6544  17.8217  19.5486  25.9236  26.7696

     occupation numbers 
     1.0000   1.0000   1.0000   1.0000   1.0000   1.0000   1.0000   1.0000
     1.0000   1.0000   1.0000   1.0000   1.0000   1.0000   1.0000   1.0000
     1.0000   1.0000   0.0000   0.0000   0.0000

          k = 0.2500 0.4330 0.1016 (  2879 PWs)   bands (ev):

   -77.5577 -77.5430 -40.9167 -40.9090 -40.8372 -40.8254 -40.7727 -40.7577
    14.1089  14.2123  14.6712  14.8044  15.6838  15.8356  16.2720  17.1444
    17.4613  17.8836  19.6662  24.3411  27.0432

     occupation numbers 
     1.0000   1.0000   1.0000   1.0000   1.0000   1.0000   1.0000   1.0000
     1.0000   1.0000   1.0000   1.0000   1.0000   1.0000   1.0000   1.0000
     1.0000   1.0000   0.0000   0.0000   0.0000

          k = 0.2500 0.4330 0.2033 (  2879 PWs)   bands (ev):

   -77.5546 -77.5461 -40.9372 -40.9238 -40.8301 -40.8133 -40.7687 -40.7454
    14.0977  14.1559  14.8295  15.1719  15.5181  15.7926  16.3185  16.9385
    17.4863  17.9552  20.0292  22.3447  27.8020

     occupation numbers 
     1.0000   1.0000   1.0000   1.0000   1.0000   1.0000   1.0000   1.0000
     1.0000   1.0000   1.0000   1.0000   1.0000   1.0000   1.0000   1.0000
     1.0000   1.0000   0.0000   0.0000   0.0000

          k = 0.2500 0.4330-0.3049 (  2874 PWs)   bands (ev):

   -77.5504 -77.5504 -40.9381 -40.9381 -40.8202 -40.8202 -40.7509 -40.7509
    14.1133  14.1133  15.1358  15.1358  15.5873  15.5873  16.5271  16.5271
    17.8377  17.8377  20.8539  20.8539  28.7996

     occupation numbers 
     1.0000   1.0000   1.0000   1.0000   1.0000   1.0000   1.0000   1.0000
     1.0000   1.0000   1.0000   1.0000   1.0000   1.0000   1.0000   1.0000
     1.0000   1.0000   0.0000   0.0000   0.0000

          k = 0.2500 0.5292 0.0000 (  2881 PWs)   bands (ev):

   -77.5515 -77.5427 -40.9168 -40.8776 -40.8458 -40.8420 -40.7937 -40.7915
    14.1969  14.3993  14.4909  14.9856  15.5515  15.7727  16.4353  17.3848
    17.6226  17.7485  21.2135  23.7773  26.1162

     occupation numbers 
     1.0000   1.0000   1.0000   1.0000   1.0000   1.0000   1.0000   1.0000
     1.0000   1.0000   1.0000   1.0000   1.0000   1.0000   1.0000   1.0000
     1.0000   1.0000   0.0000   0.0000   0.0000

          k = 0.2500 0.5292 0.1016 (  2882 PWs)   bands (ev):

   -77.5509 -77.5433 -40.9233 -40.8988 -40.8601 -40.8166 -40.7965 -40.7720
    14.1411  14.5175  14.6080  14.8757  15.5762  15.7834  16.4498  17.3841
    17.4455  17.7928  21.3927  23.7861  26.1303

     occupation numbers 
     1.0000   1.0000   1.0000   1.0000   1.0000   1.0000   1.0000   1.0000
     1.0000   1.0000   1.0000   1.0000   1.0000   1.0000   1.0000   1.0000
     1.0000   1.0000   0.0000   0.0000   0.0000

          k = 0.2500 0.5292 0.2033 (  2882 PWs)   bands (ev):

   -77.5493 -77.5449 -40.9381 -40.9246 -40.8587 -40.8224 -40.7707 -40.7526
    14.1530  14.5010  14.7577  15.0576  15.4367  15.8118  16.5076  16.9579
    17.5624  17.8363  21.8738  23.4665  26.0193

     occupation numbers 
     1.0000   1.0000   1.0000   1.0000   1.0000   1.0000   1.0000   1.0000
     1.0000   1.0000   1.0000   1.0000   1.0000   1.0000   1.0000   1.0000
     1.0000   1.0000   0.0000   0.0000   0.0000

          k = 0.2500 0.5292-0.3049 (  2892 PWs)   bands (ev):

   -77.5471 -77.5471 -40.9404 -40.9404 -40.8417 -40.8417 -40.7514 -40.7514
    14.2850  14.2850  15.0381  15.0381  15.5909  15.5909  16.6362  16.6362
    17.7504  17.7504  22.6265  22.6265  26.5530

     occupation numbers 
     1.0000   1.0000   1.0000   1.0000   1.0000   1.0000   1.0000   1.0000
     1.0000   1.0000   1.0000   1.0000   1.0000   1.0000   1.0000   1.0000
     1.0000   1.0000   0.0000   0.0000   0.0000

          k = 0.3333 0.5774 0.0000 (  2880 PWs)   bands (ev):

   -77.5459 -77.5459 -40.9061 -40.8626 -40.8626 -40.8187 -40.8187 -40.8168
    14.2127  14.5979  14.5979  14.8606  15.6117  15.6117  16.5329  17.5333
    17.5333  17.5918  22.9649  23.7810  23.7810

     occupation numbers 
     1.0000   1.0000   1.0000   1.0000   1.0000   1.0000   1.0000   1.0000
     1.0000   1.0000   1.0000   1.0000   1.0000   1.0000   1.0000   1.0000
     1.0000   1.0000   0.0000   0.0000   0.0000

          k = 0.3333 0.5774 0.1016 (  2877 PWs)   bands (ev):

   -77.5459 -77.5459 -40.9002 -40.8891 -40.8891 -40.8228 -40.7920 -40.7920
    14.3039  14.6128  14.6128  14.8769  15.5905  15.5905  16.5084  17.3731
    17.5778  17.5778  23.3490  23.8501  23.8501

     occupation numbers 
     1.0000   1.0000   1.0000   1.0000   1.0000   1.0000   1.0000   1.0000
     1.0000   1.0000   1.0000   1.0000   1.0000   1.0000   1.0000   1.0000
     1.0000   1.0000   0.0000   0.0000   0.0000

          k = 0.3333 0.5774 0.2033 (  2880 PWs)   bands (ev):

   -77.5459 -77.5459 -40.9187 -40.9187 -40.8839 -40.8392 -40.7623 -40.7623
    14.5370  14.6403  14.6403  14.8852  15.5548  15.5548  16.4789  16.9215
    17.6636  17.6636  24.0215  24.0215  24.3415

     occupation numbers 
     1.0000   1.0000   1.0000   1.0000   1.0000   1.0000   1.0000   1.0000
     1.0000   1.0000   1.0000   1.0000   1.0000   1.0000   1.0000   1.0000
     1.0000   1.0000   0.0000   0.0000   0.0000

          k = 0.3333 0.5774-0.3049 (  2910 PWs)   bands (ev):

   -77.5459 -77.5459 -40.9298 -40.9298 -40.8616 -40.8616 -40.7511 -40.7511
    14.6527  14.6527  14.7802  14.7802  15.5403  15.5403  16.5772  16.5772
    17.7051  17.7051  24.1321  24.1321  25.7183

     occupation numbers 
     1.0000   1.0000   1.0000   1.0000   1.0000   1.0000   1.0000   1.0000
     1.0000   1.0000   1.0000   1.0000   1.0000   1.0000   1.0000   1.0000
     1.0000   1.0000   0.0000   0.0000   0.0000

 ------ SPIN DOWN ----------


          k = 0.0000 0.0000 0.0000 (  2875 PWs)   bands (ev):

   -75.4670 -75.4114 -38.9267 -38.6305 -38.6305 -38.5905 -38.5843 -38.5843
     9.5721  14.3089  17.4956  17.6223  17.6223  17.9704  17.9704  18.0845
    18.4674  18.4674  19.6313  19.6313  25.6348

     occupation numbers 
     1.0000   1.0000   1.0000   1.0000   1.0000   1.0000   1.0000   1.0000
     1.0000   1.0000   1.0000   1.0000   1.0000   1.0000   1.0000   1.0000
     1.0000   1.0000   0.0000   0.0000   0.0000

          k = 0.0000 0.0000 0.1016 (  2876 PWs)   bands (ev):

   -75.4633 -75.4152 -38.9045 -38.6274 -38.6274 -38.6133 -38.5874 -38.5874
     9.8438  14.0600  17.4075  17.5402  17.5666  17.5666  17.8943  17.8943
    18.6288  18.6288  19.6123  19.6123  26.9145

     occupation numbers 
     1.0000   1.0000   1.0000   1.0000   1.0000   1.0000   1.0000   1.0000
     1.0000   1.0000   1.0000   1.0000   1.0000   1.0000   1.0000   1.0000
     0.0000   0.0000   0.0000   0.0000   0.0000

          k = 0.0000 0.0000 0.2033 (  2888 PWs)   bands (ev):

   -75.4532 -75.4254 -38.8436 -38.6755 -38.6190 -38.6190 -38.5958 -38.5958
    10.6304  13.1523  16.9630  17.1837  17.5184  17.5184  17.7257  17.7257
    18.9634  18.9634  19.5151  19.5151  29.8246

     occupation numbers 
     1.0000   1.0000   1.0000   1.0000   1.0000   1.0000   1.0000   1.0000
     1.0000   1.0000   1.0000   1.0000   1.0000   1.0000   1.0000   1.0000
     0.0000   0.0000   0.0000   0.0000   0.0000

          k = 0.0000 0.0000-0.3049 (  2846 PWs)   bands (ev):

   -75.4393 -75.4393 -38.7598 -38.7598 -38.6074 -38.6074 -38.6074 -38.6074
    11.8255  11.8255  16.9516  16.9516  17.5750  17.5750  17.5750  17.5750
    19.2915  19.2915  19.2915  19.2915  33.4145

     occupation numbers 
     1.0000   1.0000   1.0000   1.0000   1.0000   1.0000   1.0000   1.0000
     1.0000   1.0000   1.0000   1.0000   1.0000   1.0000   1.0000   1.0000
     0.0000   0.0000   0.0000   0.0000   0.0000

          k = 0.0000 0.0962 0.0000 (  2841 PWs)   bands (ev):

   -75.4636 -75.4097 -38.9192 -38.6479 -38.6360 -38.6023 -38.5933 -38.5872
     9.8160  14.4791  17.3092  17.5302  17.7484  17.7555  17.9007  18.0830
    18.3844  18.3849  19.6652  20.4132  25.6513

     occupation numbers 
     1.0000   1.0000   1.0000   1.0000   1.0000   1.0000   1.0000   1.0000
     1.0000   1.0000   1.0000   1.0000   1.0000   1.0000   1.0000   1.0000
     1.0000   1.0000   0.0000   0.0000   0.0000

          k = 0.0000 0.0962 0.1016 (  2867 PWs)   bands (ev):

   -75.4600 -75.4133 -38.8982 -38.6444 -38.6328 -38.6235 -38.5972 -38.5905
    10.0842  14.2424  17.1318  17.3056  17.5787  17.6786  17.9044  18.0001
    18.5719  18.5793  19.6376  20.0922  26.9982

     occupation numbers 
     1.0000   1.0000   1.0000   1.0000   1.0000   1.0000   1.0000   1.0000
     1.0000   1.0000   1.0000   1.0000   1.0000   1.0000   1.0000   1.0000
     0.0000   0.0000   0.0000   0.0000   0.0000

          k = 0.0000 0.0962 0.2033 (  2877 PWs)   bands (ev):

   -75.4502 -75.4232 -38.8407 -38.6822 -38.6343 -38.6239 -38.6072 -38.5995
    10.8602  13.3499  16.7655  17.1805  17.4080  17.6216  17.7318  17.8296
    18.9296  18.9603  19.5206  19.7007  29.9644

     occupation numbers 
     1.0000   1.0000   1.0000   1.0000   1.0000   1.0000   1.0000   1.0000
     1.0000   1.0000   1.0000   1.0000   1.0000   1.0000   1.0000   1.0000
     0.0000   0.0000   0.0000   0.0000   0.0000

          k = 0.0000 0.0962-0.3049 (  2870 PWs)   bands (ev):

   -75.4367 -75.4367 -38.7617 -38.7617 -38.6208 -38.6208 -38.6117 -38.6117
    12.0393  12.0393  16.8725  16.8725  17.5257  17.5257  17.6778  17.6778
    19.2761  19.2761  19.3503  19.3503  33.5795

     occupation numbers 
     1.0000   1.0000   1.0000   1.0000   1.0000   1.0000   1.0000   1.0000
     1.0000   1.0000   1.0000   1.0000   1.0000   1.0000   1.0000   1.0000
     0.0000   0.0000   0.0000   0.0000   0.0000

          k = 0.0000 0.1925 0.0000 (  2853 PWs)   bands (ev):

   -75.4542 -75.4052 -38.8977 -38.6958 -38.6510 -38.6509 -38.6019 -38.5957
    10.5259  14.9181  16.7411  16.9767  17.6570  18.0775  18.1064  18.1827
    18.2004  18.3997  19.7354  21.8333  25.7190

     occupation numbers 
     1.0000   1.0000   1.0000   1.0000   1.0000   1.0000   1.0000   1.0000
     1.0000   1.0000   1.0000   1.0000   1.0000   1.0000   1.0000   1.0000
     1.0000   1.0000   0.0000   0.0000   0.0000

          k = 0.0000 0.1925 0.1016 (  2864 PWs)   bands (ev):

   -75.4509 -75.4085 -38.8810 -38.6904 -38.6657 -38.6472 -38.6097 -38.5994
    10.7815  14.7219  16.5070  17.0187  17.5441  17.8410  17.9419  18.2743
    18.5151  18.5475  19.6886  21.0708  27.2811

     occupation numbers 
     1.0000   1.0000   1.0000   1.0000   1.0000   1.0000   1.0000   1.0000
     1.0000   1.0000   1.0000   1.0000   1.0000   1.0000   1.0000   1.0000
     0.5414   0.0005   0.0000   0.0000   0.0000

          k = 0.0000 0.1925 0.2033 (  2876 PWs)   bands (ev):

   -75.4419 -75.4175 -38.8352 -38.7110 -38.6730 -38.6371 -38.6284 -38.6095
    11.5198  13.8818  16.4090  17.1144  17.1753  17.6580  17.8805  18.1172
    18.8834  18.9988  19.5303  20.1522  30.3866

     occupation numbers 
     1.0000   1.0000   1.0000   1.0000   1.0000   1.0000   1.0000   1.0000
     1.0000   1.0000   1.0000   1.0000   1.0000   1.0000   1.0000   1.0000
     0.0000   0.0000   0.0000   0.0000   0.0000

          k = 0.0000 0.1925-0.3049 (  2880 PWs)   bands (ev):

   -75.4297 -75.4297 -38.7726 -38.7726 -38.6514 -38.6514 -38.6233 -38.6233
    12.6380  12.6380  16.6969  16.6969  17.3913  17.3913  17.9542  17.9542
    19.2493  19.2493  19.5163  19.5163  34.0393

     occupation numbers 
     1.0000   1.0000   1.0000   1.0000   1.0000   1.0000   1.0000   1.0000
     1.0000   1.0000   1.0000   1.0000   1.0000   1.0000   1.0000   1.0000
     0.0000   0.0000   0.0000   0.0000   0.0000

          k = 0.0000 0.2887 0.0000 (  2852 PWs)   bands (ev):

   -75.4408 -75.3995 -38.8657 -38.7616 -38.7164 -38.6705 -38.6163 -38.6077
    11.6264  15.3533  16.1026  16.6750  17.4834  17.9414  17.9570  18.5235
    18.6322  18.8569  19.7987  23.4958  25.8684

     occupation numbers 
     1.0000   1.0000   1.0000   1.0000   1.0000   1.0000   1.0000   1.0000
     1.0000   1.0000   1.0000   1.0000   1.0000   1.0000   1.0000   0.2222
     0.0000   0.0000   0.0000   0.0000   0.0000

          k = 0.0000 0.2887 0.1016 (  2861 PWs)   bands (ev):

   -75.4380 -75.4022 -38.8594 -38.7506 -38.7280 -38.6663 -38.6223 -38.6119
    11.8529  15.2222  15.9973  16.7376  17.3545  17.8647  17.9755  18.6741
    18.7084  18.8240  19.7343  22.1577  27.8208

     occupation numbers 
     1.0000   1.0000   1.0000   1.0000   1.0000   1.0000   1.0000   1.0000
     1.0000   1.0000   1.0000   1.0000   1.0000   1.0000   1.0000   0.0000
     0.0000   0.0000   0.0000   0.0000   0.0000

          k = 0.0000 0.2887 0.2033 (  2869 PWs)   bands (ev):

   -75.4305 -75.4098 -38.8391 -38.7665 -38.7131 -38.6549 -38.6421 -38.6234
    12.5009  14.5069  16.1339  16.8180  17.1369  17.6422  18.0909  18.5271
    18.9972  19.1241  19.5505  20.7068  31.0062

     occupation numbers 
     1.0000   1.0000   1.0000   1.0000   1.0000   1.0000   1.0000   1.0000
     1.0000   1.0000   1.0000   1.0000   1.0000   1.0000   1.0000   0.1259
     0.0000   0.0000   0.0000   0.0000   0.0000

          k = 0.0000 0.2887-0.3049 (  2878 PWs)   bands (ev):

   -75.4201 -75.4201 -38.8056 -38.8056 -38.6749 -38.6749 -38.6392 -38.6392
    13.4613  13.4613  16.5067  16.5067  17.3292  17.3292  18.2899  18.2899
    19.2826  19.2826  19.7499  19.7499  33.3285

     occupation numbers 
     1.0000   1.0000   1.0000   1.0000   1.0000   1.0000   1.0000   1.0000
     1.0000   1.0000   1.0000   1.0000   1.0000   1.0000   1.0000   1.0000
     0.0000   0.0000   0.0000   0.0000   0.0000

          k = 0.0000 0.3849 0.0000 (  2880 PWs)   bands (ev):

   -75.4265 -75.3946 -38.8283 -38.8280 -38.7806 -38.6898 -38.6361 -38.6201
    12.9448  15.3938  15.6543  16.5607  17.5705  17.7176  17.7249  19.1913
    19.2042  19.3547  19.8398  25.3216  25.8386

     occupation numbers 
     1.0000   1.0000   1.0000   1.0000   1.0000   1.0000   1.0000   1.0000
     1.0000   1.0000   1.0000   1.0000   1.0000   1.0000   1.0000   0.0000
     0.0000   0.0000   0.0000   0.0000   0.0000

          k = 0.0000 0.3849 0.1016 (  2874 PWs)   bands (ev):

   -75.4244 -75.3967 -38.8589 -38.8002 -38.7756 -38.6851 -38.6384 -38.6248
    13.1049  15.2836  15.7052  16.5691  17.4332  17.8221  17.8853  19.1898
    19.2116  19.2727  19.7752  23.1660  28.0623

     occupation numbers 
     1.0000   1.0000   1.0000   1.0000   1.0000   1.0000   1.0000   1.0000
     1.0000   1.0000   1.0000   1.0000   1.0000   1.0000   1.0000   0.0000
     0.0000   0.0000   0.0000   0.0000   0.0000

          k = 0.0000 0.3849 0.2033 (  2869 PWs)   bands (ev):

   -75.4185 -75.4026 -38.8681 -38.8272 -38.7265 -38.6724 -38.6512 -38.6376
    13.5492  14.8224  15.9712  16.5618  17.4024  17.9264  18.0971  18.9201
    19.3460  19.3644  19.6362  21.2859  29.2462

     occupation numbers 
     1.0000   1.0000   1.0000   1.0000   1.0000   1.0000   1.0000   1.0000
     1.0000   1.0000   1.0000   1.0000   1.0000   1.0000   1.0000   0.0000
     0.0000   0.0000   0.0000   0.0000   0.0000

          k = 0.0000 0.3849-0.3049 (  2876 PWs)   bands (ev):

   -75.4106 -75.4106 -38.8552 -38.8552 -38.6813 -38.6813 -38.6550 -38.6550
    14.1744  14.1744  16.3289  16.3289  17.6623  17.6623  18.4961  18.4961
    19.4835  19.4835  20.0243  20.0243  30.2791

     occupation numbers 
     1.0000   1.0000   1.0000   1.0000   1.0000   1.0000   1.0000   1.0000
     1.0000   1.0000   1.0000   1.0000   1.0000   1.0000   0.9814   0.9814
     0.0000   0.0000   0.0000   0.0000   0.0000

          k = 0.0000 0.4811 0.0000 (  2876 PWs)   bands (ev):

   -75.4149 -75.3922 -38.8769 -38.8268 -38.7939 -38.7036 -38.6576 -38.6294
    14.1199  15.1821  15.3928  16.5835  17.5441  17.5774  17.7970  19.6386
    19.7735  19.8604  20.1479  24.2704  27.1950

     occupation numbers 
     1.0000   1.0000   1.0000   1.0000   1.0000   1.0000   1.0000   1.0000
     1.0000   1.0000   1.0000   1.0000   1.0000   1.0000   1.0000   0.0000
     0.0000   0.0000   0.0000   0.0000   0.0000

          k = 0.0000 0.4811 0.1016 (  2873 PWs)   bands (ev):

   -75.4134 -75.3937 -38.8910 -38.8421 -38.7663 -38.6987 -38.6558 -38.6344
    14.1344  15.1042  15.6159  16.3499  17.6972  17.7473  18.0294  19.5672
    19.6670  19.8574  19.9889  23.3919  26.8382

     occupation numbers 
[...]
    19.7943  19.8163  20.9673  23.4679  28.2360

     occupation numbers 
     1.0000   1.0000   1.0000   1.0000   1.0000   1.0000   1.0000   1.0000
     1.0000   1.0000   1.0000   1.0000   1.0000   1.0000   1.0000   0.0000
     0.0000   0.0000   0.0000   0.0000   0.0000

          k = 0.0833 0.5292 0.1016 (  2875 PWs)   bands (ev):

   -75.4089 -75.3931 -38.8966 -38.8497 -38.7577 -38.7100 -38.6676 -38.6453
    14.5341  15.1409  15.6852  16.2323  17.4727  17.9308  17.9651  19.5652
    19.7197  19.8298  20.8328  23.1218  27.2425

     occupation numbers 
     1.0000   1.0000   1.0000   1.0000   1.0000   1.0000   1.0000   1.0000
     1.0000   1.0000   1.0000   1.0000   1.0000   1.0000   1.0000   0.0000
     0.0000   0.0000   0.0000   0.0000   0.0000

          k = 0.0833 0.5292 0.2033 (  2873 PWs)   bands (ev):

   -75.4055 -75.3964 -38.9087 -38.8795 -38.7243 -38.6896 -38.6757 -38.6488
    14.5118  14.9805  15.9824  16.2791  17.5078  18.2640  18.4462  19.1187
    19.6743  19.9044  20.6248  22.1825  26.7423

     occupation numbers 
     1.0000   1.0000   1.0000   1.0000   1.0000   1.0000   1.0000   1.0000
     1.0000   1.0000   1.0000   1.0000   1.0000   1.0000   1.0000   0.0000
     0.0000   0.0000   0.0000   0.0000   0.0000

          k = 0.0833 0.5292-0.3049 (  2876 PWs)   bands (ev):

   -75.4010 -75.4010 -38.9031 -38.9031 -38.6976 -38.6976 -38.6625 -38.6625
    14.6853  14.6853  16.2279  16.2279  18.0029  18.0029  18.7738  18.7738
    19.7594  19.7594  21.1422  21.1422  27.0025

     occupation numbers 
     1.0000   1.0000   1.0000   1.0000   1.0000   1.0000   1.0000   1.0000
     1.0000   1.0000   1.0000   1.0000   1.0000   1.0000   0.0000   0.0000
     0.0000   0.0000   0.0000   0.0000   0.0000

          k = 0.1667 0.2887 0.0000 (  2864 PWs)   bands (ev):

   -75.4338 -75.3969 -38.8480 -38.7691 -38.7603 -38.6760 -38.6322 -38.6252
    12.2541  15.6581  15.9400  16.3387  17.5235  17.5276  18.0978  18.3914
    19.0161  19.3645  19.7387  24.3843  26.0980

     occupation numbers 
     1.0000   1.0000   1.0000   1.0000   1.0000   1.0000   1.0000   1.0000
     1.0000   1.0000   1.0000   1.0000   1.0000   1.0000   1.0000   1.0000
     0.0000   0.0000   0.0000   0.0000   0.0000

          k = 0.1667 0.2887 0.1016 (  2860 PWs)   bands (ev):

   -75.4313 -75.3994 -38.8490 -38.7671 -38.7518 -38.6815 -38.6361 -38.6256
    12.4624  15.5473  15.8768  16.4038  17.4173  17.5483  17.9985  18.5068
    19.1395  19.2391  19.7490  22.7550  28.2708

     occupation numbers 
     1.0000   1.0000   1.0000   1.0000   1.0000   1.0000   1.0000   1.0000
     1.0000   1.0000   1.0000   1.0000   1.0000   1.0000   1.0000   0.8333
     0.0000   0.0000   0.0000   0.0000   0.0000

          k = 0.1667 0.2887 0.2033 (  2871 PWs)   bands (ev):

   -75.4246 -75.4061 -38.8416 -38.7896 -38.7157 -38.6845 -38.6454 -38.6346
    13.0539  14.8506  16.1317  16.5696  17.1358  17.3928  18.0541  18.6347
    19.2176  19.3580  19.7055  21.0775  31.4847

     occupation numbers 
     1.0000   1.0000   1.0000   1.0000   1.0000   1.0000   1.0000   1.0000
     1.0000   1.0000   1.0000   1.0000   1.0000   1.0000   1.0000   0.0000
     0.0000   0.0000   0.0000   0.0000   0.0000

          k = 0.1667 0.2887-0.3049 (  2880 PWs)   bands (ev):

   -75.4154 -75.4154 -38.8195 -38.8195 -38.6873 -38.6873 -38.6490 -38.6490
    13.9184  13.9184  16.5020  16.5020  17.0898  17.0898  18.3526  18.3526
    19.5405  19.5405  19.9249  19.9249  33.5445

     occupation numbers 
     1.0000   1.0000   1.0000   1.0000   1.0000   1.0000   1.0000   1.0000
     1.0000   1.0000   1.0000   1.0000   1.0000   1.0000   1.0000   1.0000
     0.0000   0.0000   0.0000   0.0000   0.0000

          k = 0.1667 0.3849 0.0000 (  2873 PWs)   bands (ev):

   -75.4209 -75.3932 -38.8198 -38.8126 -38.7976 -38.7059 -38.6549 -38.6454
    13.5123  15.6604  15.7324  16.1578  17.3192  17.6531  17.8542  18.7422
    19.5160  19.7250  20.0940  26.1403  26.4025

     occupation numbers 
     1.0000   1.0000   1.0000   1.0000   1.0000   1.0000   1.0000   1.0000
     1.0000   1.0000   1.0000   1.0000   1.0000   1.0000   1.0000   0.0000
     0.0000   0.0000   0.0000   0.0000   0.0000

          k = 0.1667 0.3849 0.1016 (  2873 PWs)   bands (ev):

   -75.4191 -75.3950 -38.8471 -38.8140 -38.7646 -38.7102 -38.6603 -38.6400
    13.6573  15.5206  15.8316  16.2576  17.2754  17.6384  17.8092  18.7966
    19.4718  19.6154  20.1907  23.8457  28.6262

     occupation numbers 
     1.0000   1.0000   1.0000   1.0000   1.0000   1.0000   1.0000   1.0000
     1.0000   1.0000   1.0000   1.0000   1.0000   1.0000   1.0000   0.0000
     0.0000   0.0000   0.0000   0.0000   0.0000

          k = 0.1667 0.3849 0.2033 (  2865 PWs)   bands (ev):

   -75.4140 -75.4001 -38.8611 -38.8335 -38.7257 -38.7076 -38.6676 -38.6406
    14.0553  15.1387  16.1042  16.4622  17.1230  17.3754  17.9981  18.8024
    19.3200  19.7932  20.2697  21.8966  29.6294

     occupation numbers 
     1.0000   1.0000   1.0000   1.0000   1.0000   1.0000   1.0000   1.0000
     1.0000   1.0000   1.0000   1.0000   1.0000   1.0000   1.0000   0.0000
     0.0000   0.0000   0.0000   0.0000   0.0000

          k = 0.1667 0.3849-0.3049 (  2868 PWs)   bands (ev):

   -75.4071 -75.4071 -38.8543 -38.8543 -38.7076 -38.7076 -38.6562 -38.6562
    14.6001  14.6001  16.4365  16.4365  17.1036  17.1036  18.3628  18.3628
    19.7798  19.7798  20.6066  20.6066  30.7136

     occupation numbers 
     1.0000   1.0000   1.0000   1.0000   1.0000   1.0000   1.0000   1.0000
     1.0000   1.0000   1.0000   1.0000   1.0000   1.0000   1.0000   1.0000
     0.0000   0.0000   0.0000   0.0000   0.0000

          k = 0.1667 0.4811 0.0000 (  2880 PWs)   bands (ev):

   -75.4101 -75.3918 -38.8597 -38.8173 -38.7785 -38.7335 -38.6704 -38.6683
    14.6191  15.5011  15.5074  16.2144  17.2573  17.5796  17.8876  19.2109
    19.7144  19.7635  21.0075  24.9515  28.0356

     occupation numbers 
     1.0000   1.0000   1.0000   1.0000   1.0000   1.0000   1.0000   1.0000
     1.0000   1.0000   1.0000   1.0000   1.0000   1.0000   1.0000   0.0000
     0.0000   0.0000   0.0000   0.0000   0.0000

          k = 0.1667 0.4811 0.1016 (  2881 PWs)   bands (ev):

   -75.4089 -75.3930 -38.8710 -38.8339 -38.7609 -38.7257 -38.6808 -38.6551
    14.6339  15.4478  15.6743  16.2445  17.2646  17.5486  17.9750  19.2104
    19.4870  19.8358  21.0543  24.3068  27.1210

     occupation numbers 
     1.0000   1.0000   1.0000   1.0000   1.0000   1.0000   1.0000   1.0000
     1.0000   1.0000   1.0000   1.0000   1.0000   1.0000   1.0000   0.0000
     0.0000   0.0000   0.0000   0.0000   0.0000

          k = 0.1667 0.4811 0.2033 (  2872 PWs)   bands (ev):

   -75.4056 -75.3964 -38.8845 -38.8606 -38.7439 -38.7099 -38.6809 -38.6474
    14.7332  15.2459  15.9953  16.4946  17.0912  17.5273  18.2104  18.9133
    19.4292  19.9288  21.1986  22.8665  27.2786

     occupation numbers 
     1.0000   1.0000   1.0000   1.0000   1.0000   1.0000   1.0000   1.0000
     1.0000   1.0000   1.0000   1.0000   1.0000   1.0000   1.0000   0.0000
     0.0000   0.0000   0.0000   0.0000   0.0000

          k = 0.1667 0.4811-0.3049 (  2870 PWs)   bands (ev):

   -75.4010 -75.4010 -38.8811 -38.8811 -38.7252 -38.7252 -38.6573 -38.6573
    14.9552  14.9552  16.3892  16.3892  17.2724  17.2724  18.4897  18.4897
    19.7705  19.7705  21.7125  21.7125  28.0753

     occupation numbers 
     1.0000   1.0000   1.0000   1.0000   1.0000   1.0000   1.0000   1.0000
     1.0000   1.0000   1.0000   1.0000   1.0000   1.0000   0.9970   0.9970
     0.0000   0.0000   0.0000   0.0000   0.0000

          k = 0.1667 0.5774 0.0000 (  2886 PWs)   bands (ev):

   -75.4054 -75.3921 -38.8741 -38.8236 -38.7613 -38.7448 -38.6814 -38.6759
    15.0839  15.3680  15.4505  16.2815  17.3197  17.3932  17.9922  19.5427
    19.7101  19.7313  21.9159  23.3958  29.2630

     occupation numbers 
     1.0000   1.0000   1.0000   1.0000   1.0000   1.0000   1.0000   1.0000
     1.0000   1.0000   1.0000   1.0000   1.0000   1.0000   1.0000   0.0000
     0.0000   0.0000   0.0000   0.0000   0.0000

          k = 0.1667 0.5774 0.1016 (  2888 PWs)   bands (ev):

   -75.4045 -75.3930 -38.8833 -38.8392 -38.7637 -38.7197 -38.6926 -38.6623
    14.9313  15.4091  15.8191  16.0965  17.2262  17.5791  18.0879  19.4625
    19.5426  19.7889  21.9406  23.2946  28.2293

     occupation numbers 
     1.0000   1.0000   1.0000   1.0000   1.0000   1.0000   1.0000   1.0000
     1.0000   1.0000   1.0000   1.0000   1.0000   1.0000   1.0000   0.0000
     0.0000   0.0000   0.0000   0.0000   0.0000

          k = 0.1667 0.5774 0.2033 (  2872 PWs)   bands (ev):

   -75.4021 -75.3954 -38.8949 -38.8692 -38.7524 -38.7102 -38.6829 -38.6510
    14.8868  15.3072  16.0654  16.4063  17.0056  17.7018  18.3574  18.9798
    19.5729  19.8365  22.0604  22.9618  27.1680

     occupation numbers 
     1.0000   1.0000   1.0000   1.0000   1.0000   1.0000   1.0000   1.0000
     1.0000   1.0000   1.0000   1.0000   1.0000   1.0000   1.0000   0.0000
     0.0000   0.0000   0.0000   0.0000   0.0000

          k = 0.1667 0.5774-0.3049 (  2874 PWs)   bands (ev):

   -75.3987 -75.3987 -38.8911 -38.8911 -38.7320 -38.7320 -38.6571 -38.6571
    15.0392  15.0392  16.3796  16.3796  17.3283  17.3283  18.6507  18.6507
    19.7064  19.7064  22.4491  22.4491  26.8011

     occupation numbers 
     1.0000   1.0000   1.0000   1.0000   1.0000   1.0000   1.0000   1.0000
     1.0000   1.0000   1.0000   1.0000   1.0000   1.0000   0.0000   0.0000
     0.0000   0.0000   0.0000   0.0000   0.0000

          k = 0.2500 0.4330 0.0000 (  2876 PWs)   bands (ev):

   -75.4102 -75.3918 -38.8377 -38.8164 -38.7787 -38.7366 -38.6904 -38.6681
    14.6310  15.5792  15.8513  15.8911  17.1598  17.6095  17.8936  18.9538
    19.6622  19.7623  21.0522  26.4901  27.3870

     occupation numbers 
     1.0000   1.0000   1.0000   1.0000   1.0000   1.0000   1.0000   1.0000
     1.0000   1.0000   1.0000   1.0000   1.0000   1.0000   1.0000   0.0000
     0.0000   0.0000   0.0000   0.0000   0.0000

          k = 0.2500 0.4330 0.1016 (  2879 PWs)   bands (ev):

   -75.4089 -75.3930 -38.8425 -38.8412 -38.7478 -38.7469 -38.6922 -38.6571
    14.7079  15.4953  15.9173  16.0704  17.1959  17.4269  17.9107  19.0067
    19.4264  19.8423  21.1491  25.0089  27.6660

     occupation numbers 
     1.0000   1.0000   1.0000   1.0000   1.0000   1.0000   1.0000   1.0000
     1.0000   1.0000   1.0000   1.0000   1.0000   1.0000   1.0000   0.0000
     0.0000   0.0000   0.0000   0.0000   0.0000

          k = 0.2500 0.4330 0.2033 (  2879 PWs)   bands (ev):

   -75.4056 -75.3964 -38.8649 -38.8542 -38.7517 -38.7291 -38.6806 -38.6472
    14.9052  15.3495  16.1308  16.4126  17.0425  17.1592  18.0120  18.8120
    19.3872  19.9382  21.3759  23.1757  28.4246

     occupation numbers 
     1.0000   1.0000   1.0000   1.0000   1.0000   1.0000   1.0000   1.0000
     1.0000   1.0000   1.0000   1.0000   1.0000   1.0000   1.0000   0.0000
     0.0000   0.0000   0.0000   0.0000   0.0000

          k = 0.2500 0.4330-0.3049 (  2874 PWs)   bands (ev):

   -75.4010 -75.4010 -38.8672 -38.8672 -38.7407 -38.7407 -38.6558 -38.6558
    15.1447  15.1447  16.4590  16.4590  16.9379  16.9379  18.3180  18.3180
    19.7944  19.7944  21.9260  21.9260  29.4103

     occupation numbers 
     1.0000   1.0000   1.0000   1.0000   1.0000   1.0000   1.0000   1.0000
     1.0000   1.0000   1.0000   1.0000   1.0000   1.0000   1.0000   1.0000
     0.0000   0.0000   0.0000   0.0000   0.0000

          k = 0.2500 0.5292 0.0000 (  2881 PWs)   bands (ev):

   -75.4022 -75.3927 -38.8508 -38.8077 -38.7687 -38.7486 -38.7134 -38.6917
    15.3516  15.5614  15.6961  15.9741  17.1581  17.3558  18.0926  19.2701
    19.6254  19.6840  22.3412  24.5877  26.6998

     occupation numbers 
     1.0000   1.0000   1.0000   1.0000   1.0000   1.0000   1.0000   1.0000
     1.0000   1.0000   1.0000   1.0000   1.0000   1.0000   1.0000   0.0000
     0.0000   0.0000   0.0000   0.0000   0.0000

          k = 0.2500 0.5292 0.1016 (  2882 PWs)   bands (ev):

   -75.4016 -75.3934 -38.8554 -38.8268 -38.7833 -38.7301 -38.7109 -38.6742
    15.3084  15.6755  15.7761  16.0395  17.1290  17.2546  18.1125  19.2984
    19.3863  19.7410  22.4952  24.5542  26.7449

     occupation numbers 
     1.0000   1.0000   1.0000   1.0000   1.0000   1.0000   1.0000   1.0000
     1.0000   1.0000   1.0000   1.0000   1.0000   1.0000   1.0000   0.0000
     0.0000   0.0000   0.0000   0.0000   0.0000

          k = 0.2500 0.5292 0.2033 (  2882 PWs)   bands (ev):

   -75.3998 -75.3951 -38.8678 -38.8533 -38.7836 -38.7445 -38.6764 -38.6548
    15.3390  15.6258  16.0485  16.3778  16.8661  17.1174  18.1967  18.8374
    19.4824  19.7974  22.8651  24.1721  26.7828

     occupation numbers 
     1.0000   1.0000   1.0000   1.0000   1.0000   1.0000   1.0000   1.0000
     1.0000   1.0000   1.0000   1.0000   1.0000   1.0000   1.0000   0.0000
     0.0000   0.0000   0.0000   0.0000   0.0000

          k = 0.2500 0.5292-0.3049 (  2892 PWs)   bands (ev):

   -75.3975 -75.3975 -38.8696 -38.8696 -38.7660 -38.7660 -38.6545 -38.6545
    15.4673  15.4673  16.4358  16.4358  16.8375  16.8375  18.4101  18.4101
    19.6974  19.6974  23.4446  23.4446  27.3152

     occupation numbers 
     1.0000   1.0000   1.0000   1.0000   1.0000   1.0000   1.0000   1.0000
     1.0000   1.0000   1.0000   1.0000   1.0000   1.0000   1.0000   1.0000
     0.0000   0.0000   0.0000   0.0000   0.0000

          k = 0.3333 0.5774 0.0000 (  2880 PWs)   bands (ev):

   -75.3962 -75.3962 -38.8389 -38.7913 -38.7913 -38.7409 -38.7190 -38.7190
    15.6047  15.7046  15.7046  15.8893  17.1873  17.1873  18.2006  19.4419
    19.4419  19.5900  23.7994  24.5882  24.5882

     occupation numbers 
     1.0000   1.0000   1.0000   1.0000   1.0000   1.0000   1.0000   1.0000
     1.0000   1.0000   1.0000   1.0000   1.0000   1.0000   1.0000   0.0000
     0.0000   0.0000   0.0000   0.0000   0.0000

          k = 0.3333 0.5774 0.1016 (  2877 PWs)   bands (ev):

   -75.3962 -75.3962 -38.8323 -38.8147 -38.8147 -38.7475 -38.6954 -38.6954
    15.6748  15.7745  15.7745  15.9196  17.1002  17.1002  18.1842  19.3289
    19.4969  19.4969  24.1990  24.6323  24.6323

     occupation numbers 
     1.0000   1.0000   1.0000   1.0000   1.0000   1.0000   1.0000   1.0000
     1.0000   1.0000   1.0000   1.0000   1.0000   1.0000   1.0000   0.0000
     0.0000   0.0000   0.0000   0.0000   0.0000

          k = 0.3333 0.5774 0.2033 (  2880 PWs)   bands (ev):

   -75.3962 -75.3962 -38.8447 -38.8447 -38.8145 -38.7655 -38.6652 -38.6652
    15.8376  15.9418  15.9418  15.9759  16.9069  16.9069  18.1930  18.8022
    19.5991  19.5991  24.7414  24.7414  25.1804

     occupation numbers 
     1.0000   1.0000   1.0000   1.0000   1.0000   1.0000   1.0000   1.0000
     1.0000   1.0000   1.0000   1.0000   1.0000   1.0000   1.0000   0.0000
     0.0000   0.0000   0.0000   0.0000   0.0000

          k = 0.3333 0.5774-0.3049 (  2910 PWs)   bands (ev):

   -75.3962 -75.3962 -38.8564 -38.8564 -38.7901 -38.7901 -38.6533 -38.6533
    15.9672  15.9672  16.0515  16.0515  16.7877  16.7877  18.3721  18.3721
    19.6467  19.6467  24.8107  24.8107  26.4847

     occupation numbers 
     1.0000   1.0000   1.0000   1.0000   1.0000   1.0000   1.0000   1.0000
     1.0000   1.0000   1.0000   1.0000   1.0000   1.0000   1.0000   1.0000
     0.0000   0.0000   0.0000   0.0000   0.0000

     the Fermi energy is    18.5161 ev

!    total energy              =    -753.45491347 Ry
     total all-electron energy =     -5573.811605 Ry
     estimated scf accuracy    <       0.00000013 Ry
     smearing contrib. (-TS)   =      -0.00001587 Ry
     internal energy E=F+TS    =    -753.45489759 Ry

     The total energy is F=E-TS. E is the sum of the following terms:
     one-electron contribution =    -284.40501152 Ry
     hartree contribution      =     165.62878748 Ry
     xc contribution           =     -61.39269927 Ry
     ewald contribution        =    -398.11078973 Ry
     one-center paw contrib.   =    -175.17518456 Ry
      -> PAW hartree energy AE =     221.94125480 Ry
      -> PAW hartree energy PS =    -220.88615084 Ry
      -> PAW xc energy AE      =    -117.66881318 Ry
      -> PAW xc energy PS      =      29.02611694 Ry
      -> total E_H with PAW    =     166.68389144 Ry
      -> total E_XC with PAW   =    -150.03539551 Ry

     total magnetization       =     3.36 Bohr mag/cell
     absolute magnetization    =     3.68 Bohr mag/cell

     convergence has been achieved in   1 iterations

     Writing all to output data dir ./out/Co.save/
 
     init_run     :      0.37s CPU      0.53s WALL (       1 calls)
     electrons    :      2.59s CPU      2.79s WALL (       1 calls)

     Called by init_run:
     wfcinit      :      0.22s CPU      0.35s WALL (       1 calls)
     potinit      :      0.10s CPU      0.13s WALL (       1 calls)
     hinit0       :      0.03s CPU      0.04s WALL (       1 calls)

     Called by electrons:
     c_bands      :      2.08s CPU      2.23s WALL (       2 calls)
     sum_band     :      0.40s CPU      0.42s WALL (       2 calls)
     v_of_rho     :      0.01s CPU      0.01s WALL (       2 calls)
     v_h          :      0.00s CPU      0.00s WALL (       2 calls)
     v_xc         :      0.01s CPU      0.01s WALL (       2 calls)
     newd         :      0.01s CPU      0.01s WALL (       2 calls)
     PAW_pot      :      0.19s CPU      0.24s WALL (       2 calls)
     mix_rho      :      0.00s CPU      0.00s WALL (       2 calls)

     Called by c_bands:
     init_us_2    :      0.03s CPU      0.03s WALL (     608 calls)
     init_us_2:cp :      0.03s CPU      0.03s WALL (     608 calls)
     cegterg      :      1.92s CPU      2.01s WALL (     304 calls)

     Called by sum_band:
     sum_band:wei :      0.00s CPU      0.00s WALL (       2 calls)
     sum_band:loo :      0.38s CPU      0.39s WALL (       2 calls)
     sum_band:buf :      0.00s CPU      0.00s WALL (     304 calls)
     sum_band:ini :      0.01s CPU      0.01s WALL (     304 calls)
     sum_band:cal :      0.03s CPU      0.03s WALL (     304 calls)
     sum_band:bec :      0.00s CPU      0.00s WALL (     304 calls)
     addusdens    :      0.02s CPU      0.02s WALL (       2 calls)
                                        0.00s GPU  (       2 calls)
     addusd:skk   :      0.00s CPU      0.00s WALL (       2 calls)
                                        0.00s GPU  (       2 calls)

     Called by *egterg:
     cdiaghg      :      0.38s CPU      0.38s WALL (     572 calls)
     cegterg:over :      0.06s CPU      0.05s WALL (     572 calls)
     cegterg:upda :      0.01s CPU      0.01s WALL (     572 calls)
     cegterg:last :      0.01s CPU      0.02s WALL (     457 calls)
     h_psi        :      1.38s CPU      1.45s WALL (     876 calls)
     s_psi        :      0.02s CPU      0.03s WALL (     876 calls)
     g_psi        :      0.00s CPU      0.00s WALL (     572 calls)

     Called by h_psi:
     h_psi:calbec :      0.08s CPU      0.07s WALL (     876 calls)
     vloc_psi     :      1.27s CPU      1.35s WALL (     876 calls)
     add_vuspsi   :      0.02s CPU      0.03s WALL (     876 calls)

     General routines
     calbec       :      0.12s CPU      0.10s WALL (    1180 calls)
     fft          :      0.00s CPU      0.00s WALL (      46 calls)
     ffts         :      0.00s CPU      0.00s WALL (       8 calls)
     fftw         :      1.48s CPU      1.55s WALL (   34182 calls)
     interpolate  :      0.00s CPU      0.00s WALL (       4 calls)
 
     Parallel routines

     PAW routines
     PAW_pot      :      0.19s CPU      0.24s WALL (       2 calls)
     PAW_symme    :      0.00s CPU      0.00s WALL (       3 calls)
 
     PWSCF        :      3.31s CPU      4.18s WALL

 
   This run was terminated on:  16:43:26  18Mar2024            

=------------------------------------------------------------------------------=
   JOB DONE.
=------------------------------------------------------------------------------=
