
     Program PWSCF v.7.2 starts on 18Mar2024 at 16:41:23 

     This program is part of the open-source Quantum ESPRESSO suite
     for quantum simulation of materials; please cite
         "P. Giannozzi et al., J. Phys.:Condens. Matter 21 395502 (2009);
         "P. Giannozzi et al., J. Phys.:Condens. Matter 29 465901 (2017);
         "P. Giannozzi et al., J. Chem. Phys. 152 154105 (2020);
          URL http://www.quantum-espresso.org", 
     in publications or presentations arising from this work. More details at
     http://www.quantum-espresso.org/quote

     Parallel version (MPI), running on    20 processors

     MPI processes distributed on     1 nodes
     354111 MiB available memory on the printing compute node when the environment starts
 
     Waiting for input...
     Reading input from standard input

     Current dimensions of program PWSCF are:
     Max number of different atomic species (ntypx) = 10
     Max number of k-points (npk) = 120000
     Max angular momentum in pseudopotentials (lmaxx) =  4
     file Co.pbe-spn-kjpaw_psl.0.3.1.UPF: wavefunction(s)  3P 3D renormalized
 
     R & G space division:  proc/nbgrp/npool/nimage =      20
     Subspace diagonalization in iterative solution of the eigenvalue problem:
     a serial algorithm will be used

 
     Parallelization info
     --------------------
     sticks:   dense  smooth     PW     G-vecs:    dense   smooth      PW
     Min          33      33      9                 1171     1141     183
     Max          34      34     10                 1190     1146     190
     Sum         673     673    199                23631    22875    3777
 
     Using Slab Decomposition
 


     bravais-lattice index     =            4
     lattice parameter (alat)  =       4.7000  a.u.
     unit-cell volume          =     146.5588 (a.u.)^3
     number of atoms/cell      =            2
     number of atomic types    =            1
     number of electrons       =        34.00
     number of Kohn-Sham states=           21
     kinetic-energy cutoff     =     110.0000  Ry
     charge density cutoff     =     450.0000  Ry
     scf convergence threshold =      1.0E-06
     mixing beta               =       0.7000
     number of iterations used =            8  plain     mixing
     Exchange-correlation= SLA  PW   PBX  PBC
                           (   1   4   3   4   0   0   0)

     celldm(1)=   4.700000  celldm(2)=   0.000000  celldm(3)=   1.630000
     celldm(4)=   0.000000  celldm(5)=   0.000000  celldm(6)=   0.000000

     crystal axes: (cart. coord. in units of alat)
               a(1) = (   1.000000   0.000000   0.000000 )  
               a(2) = (  -0.500000   0.866025   0.000000 )  
               a(3) = (   0.000000   0.000000   1.630000 )  

     reciprocal axes: (cart. coord. in units 2 pi/alat)
               b(1) = (  1.000000  0.577350  0.000000 )  
               b(2) = (  0.000000  1.154701  0.000000 )  
               b(3) = (  0.000000  0.000000  0.613497 )  


     PseudoPot. # 1 for Co read from file:
     /truba/home/amuhaymin/ZnS/pseudo/QE/Co.pbe-spn-kjpaw_psl.0.3.1.UPF
     MD5 check sum: b0a1ad65bf214e88c1f3d33b20c7d919
     Pseudo is Projector augmented-wave + core cor, Zval = 17.0
     Generated using &quot;atomic&quot; code by A. Dal Corso  v.6.2.2
     Shape of augmentation charge: PSQ
     Using radial grid of 1193 points,  6 beta functions with: 
                l(1) =   0
                l(2) =   0
                l(3) =   1
                l(4) =   1
                l(5) =   2
                l(6) =   2
     Q(r) pseudized with 0 coefficients 


     atomic species   valence    mass     pseudopotential
        Co            17.00    58.93300     Co( 1.00)

     Starting magnetic structure 
     atomic species   magnetization
        Co           0.294

     24 Sym. Ops., with inversion, found (12 have fractional translation)


                                    s                        frac. trans.

      isym =  1     identity                                     

 cryst.   s( 1) = (     1          0          0      )
                  (     0          1          0      )
                  (     0          0          1      )

 cart.    s( 1) = (  1.0000000  0.0000000  0.0000000 )
                  (  0.0000000  1.0000000  0.0000000 )
                  (  0.0000000  0.0000000  1.0000000 )


      isym =  2     180 deg rotation - cart. axis [0,0,1]        

 cryst.   s( 2) = (    -1          0          0      )    f =(  0.0000000 )
                  (     0         -1          0      )       (  0.0000000 )
                  (     0          0          1      )       ( -0.5000000 )

 cart.    s( 2) = ( -1.0000000  0.0000000  0.0000000 )    f =(  0.0000000 )
                  (  0.0000000 -1.0000000  0.0000000 )       (  0.0000000 )
                  (  0.0000000  0.0000000  1.0000000 )       ( -0.8150000 )


      isym =  3     180 deg rotation - cart. axis [0,1,0]        

 cryst.   s( 3) = (    -1          0          0      )    f =(  0.0000000 )
                  (     1          1          0      )       (  0.0000000 )
                  (     0          0         -1      )       (  0.5000000 )

 cart.    s( 3) = ( -1.0000000  0.0000000  0.0000000 )    f =(  0.0000000 )
                  (  0.0000000  1.0000000  0.0000000 )       (  0.0000000 )
                  (  0.0000000  0.0000000 -1.0000000 )       (  0.8150000 )


      isym =  4     180 deg rotation - cart. axis [1,0,0]        

 cryst.   s( 4) = (     1          0          0      )
                  (    -1         -1          0      )
                  (     0          0         -1      )

 cart.    s( 4) = (  1.0000000  0.0000000  0.0000000 )
                  (  0.0000000 -1.0000000  0.0000000 )
                  (  0.0000000  0.0000000 -1.0000000 )


      isym =  5      60 deg rotation - cryst. axis [0,0,1]       

 cryst.   s( 5) = (     1          1          0      )    f =(  0.0000000 )
                  (    -1          0          0      )       ( -0.0000000 )
                  (     0          0          1      )       ( -0.5000000 )

 cart.    s( 5) = (  0.5000000 -0.8660254  0.0000000 )    f =(  0.0000000 )
                  (  0.8660254  0.5000000  0.0000000 )       ( -0.0000000 )
                  (  0.0000000  0.0000000  1.0000000 )       ( -0.8150000 )


      isym =  6      60 deg rotation - cryst. axis [0,0,-1]      

 cryst.   s( 6) = (     0         -1          0      )    f =(  0.0000000 )
                  (     1          1          0      )       ( -0.0000000 )
                  (     0          0          1      )       ( -0.5000000 )

 cart.    s( 6) = (  0.5000000  0.8660254  0.0000000 )    f =(  0.0000000 )
                  ( -0.8660254  0.5000000  0.0000000 )       ( -0.0000000 )
                  (  0.0000000  0.0000000  1.0000000 )       ( -0.8150000 )


      isym =  7     120 deg rotation - cryst. axis [0,0,1]       

 cryst.   s( 7) = (     0          1          0      )
                  (    -1         -1          0      )
                  (     0          0          1      )

 cart.    s( 7) = ( -0.5000000 -0.8660254  0.0000000 )
                  (  0.8660254 -0.5000000  0.0000000 )
                  (  0.0000000  0.0000000  1.0000000 )


      isym =  8     120 deg rotation - cryst. axis [0,0,-1]      

 cryst.   s( 8) = (    -1         -1          0      )
                  (     1          0          0      )
                  (     0          0          1      )

 cart.    s( 8) = ( -0.5000000  0.8660254  0.0000000 )
                  ( -0.8660254 -0.5000000  0.0000000 )
                  (  0.0000000  0.0000000  1.0000000 )


      isym =  9     180 deg rotation - cryst. axis [1,-1,0]      

 cryst.   s( 9) = (     0         -1          0      )    f =(  0.0000000 )
                  (    -1          0          0      )       (  0.0000000 )
                  (     0          0         -1      )       (  0.5000000 )

 cart.    s( 9) = (  0.5000000 -0.8660254  0.0000000 )    f =(  0.0000000 )
                  ( -0.8660254 -0.5000000  0.0000000 )       (  0.0000000 )
                  (  0.0000000  0.0000000 -1.0000000 )       (  0.8150000 )


      isym = 10     180 deg rotation - cryst. axis [2,1,0]       

 cryst.   s(10) = (     1          1          0      )    f =(  0.0000000 )
                  (     0         -1          0      )       ( -0.0000000 )
                  (     0          0         -1      )       (  0.5000000 )

 cart.    s(10) = (  0.5000000  0.8660254  0.0000000 )    f =(  0.0000000 )
                  (  0.8660254 -0.5000000  0.0000000 )       ( -0.0000000 )
                  (  0.0000000  0.0000000 -1.0000000 )       (  0.8150000 )


      isym = 11     180 deg rotation - cryst. axis [0,1,0]       

 cryst.   s(11) = (    -1         -1          0      )
                  (     0          1          0      )
                  (     0          0         -1      )

 cart.    s(11) = ( -0.5000000 -0.8660254  0.0000000 )
                  ( -0.8660254  0.5000000  0.0000000 )
                  (  0.0000000  0.0000000 -1.0000000 )


      isym = 12     180 deg rotation - cryst. axis [1,1,0]       

 cryst.   s(12) = (     0          1          0      )
                  (     1          0          0      )
                  (     0          0         -1      )

 cart.    s(12) = ( -0.5000000  0.8660254  0.0000000 )
                  (  0.8660254  0.5000000  0.0000000 )
                  (  0.0000000  0.0000000 -1.0000000 )


      isym = 13     inversion                                    

 cryst.   s(13) = (    -1          0          0      )
                  (     0         -1          0      )
                  (     0          0         -1      )

 cart.    s(13) = ( -1.0000000  0.0000000  0.0000000 )
                  (  0.0000000 -1.0000000  0.0000000 )
                  (  0.0000000  0.0000000 -1.0000000 )


      isym = 14     inv. 180 deg rotation - cart. axis [0,0,1]   

 cryst.   s(14) = (     1          0          0      )    f =(  0.0000000 )
                  (     0          1          0      )       (  0.0000000 )
                  (     0          0         -1      )       (  0.5000000 )

 cart.    s(14) = (  1.0000000  0.0000000  0.0000000 )    f =(  0.0000000 )
                  (  0.0000000  1.0000000  0.0000000 )       (  0.0000000 )
                  (  0.0000000  0.0000000 -1.0000000 )       (  0.8150000 )


      isym = 15     inv. 180 deg rotation - cart. axis [0,1,0]   

 cryst.   s(15) = (     1          0          0      )    f =(  0.0000000 )
                  (    -1         -1          0      )       (  0.0000000 )
                  (     0          0          1      )       ( -0.5000000 )

 cart.    s(15) = (  1.0000000  0.0000000  0.0000000 )    f =(  0.0000000 )
                  (  0.0000000 -1.0000000  0.0000000 )       (  0.0000000 )
                  (  0.0000000  0.0000000  1.0000000 )       ( -0.8150000 )


      isym = 16     inv. 180 deg rotation - cart. axis [1,0,0]   

 cryst.   s(16) = (    -1          0          0      )
                  (     1          1          0      )
                  (     0          0          1      )

 cart.    s(16) = ( -1.0000000  0.0000000  0.0000000 )
                  (  0.0000000  1.0000000  0.0000000 )
                  (  0.0000000  0.0000000  1.0000000 )


      isym = 17     inv.  60 deg rotation - cryst. axis [0,0,1]  

 cryst.   s(17) = (    -1         -1          0      )    f =(  0.0000000 )
                  (     1          0          0      )       (  0.0000000 )
                  (     0          0         -1      )       (  0.5000000 )

 cart.    s(17) = ( -0.5000000  0.8660254  0.0000000 )    f =(  0.0000000 )
                  ( -0.8660254 -0.5000000  0.0000000 )       (  0.0000000 )
                  (  0.0000000  0.0000000 -1.0000000 )       (  0.8150000 )


      isym = 18     inv.  60 deg rotation - cryst. axis [0,0,-1] 

 cryst.   s(18) = (     0          1          0      )    f =(  0.0000000 )
                  (    -1         -1          0      )       ( -0.0000000 )
                  (     0          0         -1      )       (  0.5000000 )

 cart.    s(18) = ( -0.5000000 -0.8660254  0.0000000 )    f =(  0.0000000 )
                  (  0.8660254 -0.5000000  0.0000000 )       ( -0.0000000 )
                  (  0.0000000  0.0000000 -1.0000000 )       (  0.8150000 )


      isym = 19     inv. 120 deg rotation - cryst. axis [0,0,1]  

 cryst.   s(19) = (     0         -1          0      )
                  (     1          1          0      )
                  (     0          0         -1      )

 cart.    s(19) = (  0.5000000  0.8660254  0.0000000 )
                  ( -0.8660254  0.5000000  0.0000000 )
                  (  0.0000000  0.0000000 -1.0000000 )


      isym = 20     inv. 120 deg rotation - cryst. axis [0,0,-1] 

 cryst.   s(20) = (     1          1          0      )
                  (    -1          0          0      )
                  (     0          0         -1      )

 cart.    s(20) = (  0.5000000 -0.8660254  0.0000000 )
                  (  0.8660254  0.5000000  0.0000000 )
                  (  0.0000000  0.0000000 -1.0000000 )


      isym = 21     inv. 180 deg rotation - cryst. axis [1,-1,0] 

 cryst.   s(21) = (     0          1          0      )    f =(  0.0000000 )
                  (     1          0          0      )       ( -0.0000000 )
                  (     0          0          1      )       ( -0.5000000 )

 cart.    s(21) = ( -0.5000000  0.8660254  0.0000000 )    f =(  0.0000000 )
                  (  0.8660254  0.5000000  0.0000000 )       ( -0.0000000 )
                  (  0.0000000  0.0000000  1.0000000 )       ( -0.8150000 )


      isym = 22     inv. 180 deg rotation - cryst. axis [2,1,0]  

 cryst.   s(22) = (    -1         -1          0      )    f =(  0.0000000 )
                  (     0          1          0      )       ( -0.0000000 )
                  (     0          0          1      )       ( -0.5000000 )

 cart.    s(22) = ( -0.5000000 -0.8660254  0.0000000 )    f =(  0.0000000 )
                  ( -0.8660254  0.5000000  0.0000000 )       ( -0.0000000 )
                  (  0.0000000  0.0000000  1.0000000 )       ( -0.8150000 )


      isym = 23     inv. 180 deg rotation - cryst. axis [0,1,0]  

 cryst.   s(23) = (     1          1          0      )
                  (     0         -1          0      )
                  (     0          0          1      )

 cart.    s(23) = (  0.5000000  0.8660254  0.0000000 )
                  (  0.8660254 -0.5000000  0.0000000 )
                  (  0.0000000  0.0000000  1.0000000 )


      isym = 24     inv. 180 deg rotation - cryst. axis [1,1,0]  

 cryst.   s(24) = (     0         -1          0      )
                  (    -1          0          0      )
                  (     0          0          1      )

 cart.    s(24) = (  0.5000000 -0.8660254  0.0000000 )
                  ( -0.8660254 -0.5000000  0.0000000 )
                  (  0.0000000  0.0000000  1.0000000 )


     point group D_6h(6/mmm)
     there are 12 classes
     the character table:

       E     2C6   2C3   C2    3C2'  3C2'' i     2S3   2S6   s_h   3s_d  3s_v 
A_1g   1.00  1.00  1.00  1.00  1.00  1.00  1.00  1.00  1.00  1.00  1.00  1.00
A_2g   1.00  1.00  1.00  1.00 -1.00 -1.00  1.00  1.00  1.00  1.00 -1.00 -1.00
B_1g   1.00 -1.00  1.00 -1.00  1.00 -1.00  1.00 -1.00  1.00 -1.00  1.00 -1.00
B_2g   1.00 -1.00  1.00 -1.00 -1.00  1.00  1.00 -1.00  1.00 -1.00 -1.00  1.00
E_1g   2.00  1.00 -1.00 -2.00  0.00  0.00  2.00  1.00 -1.00 -2.00  0.00  0.00
E_2g   2.00 -1.00 -1.00  2.00  0.00  0.00  2.00 -1.00 -1.00  2.00  0.00  0.00
A_1u   1.00  1.00  1.00  1.00  1.00  1.00 -1.00 -1.00 -1.00 -1.00 -1.00 -1.00
A_2u   1.00  1.00  1.00  1.00 -1.00 -1.00 -1.00 -1.00 -1.00 -1.00  1.00  1.00
B_1u   1.00 -1.00  1.00 -1.00  1.00 -1.00 -1.00  1.00 -1.00  1.00 -1.00  1.00
B_2u   1.00 -1.00  1.00 -1.00 -1.00  1.00 -1.00  1.00 -1.00  1.00  1.00 -1.00
E_1u   2.00  1.00 -1.00 -2.00  0.00  0.00 -2.00 -1.00  1.00  2.00  0.00  0.00
E_2u   2.00 -1.00 -1.00  2.00  0.00  0.00 -2.00  1.00  1.00 -2.00  0.00  0.00

     the symmetry operations in each class and the name of the first element:

     E        1
          identity                                               
     2C6      5    6
           60 deg rotation - cryst. axis [0,0,1]                 
     2C3      7    8
          120 deg rotation - cryst. axis [0,0,1]                 
     C2       2
          180 deg rotation - cart. axis [0,0,1]                  
     3C2'     4   12   11
          180 deg rotation - cart. axis [1,0,0]                  
     3C2''    3    9   10
          180 deg rotation - cart. axis [0,1,0]                  
     i       13
          inversion                                              
     2S3     17   18
          inv.  60 deg rotation - cryst. axis [0,0,1]            
     2S6     19   20
          inv. 120 deg rotation - cryst. axis [0,0,1]            
     s_h     14
          inv. 180 deg rotation - cart. axis [0,0,1]             
     3s_d    16   24   23
          inv. 180 deg rotation - cart. axis [1,0,0]             
     3s_v    15   21   22
          inv. 180 deg rotation - cart. axis [0,1,0]             

   Cartesian axes

     site n.     atom                  positions (alat units)
         1           Co  tau(   1) = (  -0.0000000   0.5773503   0.4075000  )
         2           Co  tau(   2) = (   0.5000000   0.2886751   1.2225000  )

   Crystallographic axes

     site n.     atom                  positions (cryst. coord.)
         1           Co  tau(   1) = (  0.3333333  0.6666667  0.2500000  )
         2           Co  tau(   2) = (  0.6666667  0.3333333  0.7500000  )

     number of k points=    76  Gaussian smearing, width (Ry)=  0.0010
                       cart. coord. in units 2pi/alat
        k(    1) = (   0.0000000   0.0000000   0.0000000), wk =   0.0011574
        k(    2) = (   0.0000000   0.0000000   0.1022495), wk =   0.0023148
        k(    3) = (   0.0000000   0.0000000   0.2044990), wk =   0.0023148
        k(    4) = (   0.0000000   0.0000000  -0.3067485), wk =   0.0011574
        k(    5) = (   0.0000000   0.0962250   0.0000000), wk =   0.0069444
        k(    6) = (   0.0000000   0.0962250   0.1022495), wk =   0.0138889
        k(    7) = (   0.0000000   0.0962250   0.2044990), wk =   0.0138889
        k(    8) = (   0.0000000   0.0962250  -0.3067485), wk =   0.0069444
        k(    9) = (   0.0000000   0.1924501   0.0000000), wk =   0.0069444
        k(   10) = (   0.0000000   0.1924501   0.1022495), wk =   0.0138889
        k(   11) = (   0.0000000   0.1924501   0.2044990), wk =   0.0138889
        k(   12) = (   0.0000000   0.1924501  -0.3067485), wk =   0.0069444
        k(   13) = (   0.0000000   0.2886751   0.0000000), wk =   0.0069444
        k(   14) = (   0.0000000   0.2886751   0.1022495), wk =   0.0138889
        k(   15) = (   0.0000000   0.2886751   0.2044990), wk =   0.0138889
        k(   16) = (   0.0000000   0.2886751  -0.3067485), wk =   0.0069444
        k(   17) = (   0.0000000   0.3849002   0.0000000), wk =   0.0069444
        k(   18) = (   0.0000000   0.3849002   0.1022495), wk =   0.0138889
        k(   19) = (   0.0000000   0.3849002   0.2044990), wk =   0.0138889
        k(   20) = (   0.0000000   0.3849002  -0.3067485), wk =   0.0069444
        k(   21) = (   0.0000000   0.4811252   0.0000000), wk =   0.0069444
        k(   22) = (   0.0000000   0.4811252   0.1022495), wk =   0.0138889
        k(   23) = (   0.0000000   0.4811252   0.2044990), wk =   0.0138889
        k(   24) = (   0.0000000   0.4811252  -0.3067485), wk =   0.0069444
        k(   25) = (   0.0000000  -0.5773503   0.0000000), wk =   0.0034722
        k(   26) = (   0.0000000  -0.5773503   0.1022495), wk =   0.0069444
        k(   27) = (   0.0000000  -0.5773503   0.2044990), wk =   0.0069444
        k(   28) = (   0.0000000  -0.5773503  -0.3067485), wk =   0.0034722
        k(   29) = (   0.0833333   0.1443376   0.0000000), wk =   0.0069444
        k(   30) = (   0.0833333   0.1443376   0.1022495), wk =   0.0138889
        k(   31) = (   0.0833333   0.1443376   0.2044990), wk =   0.0138889
        k(   32) = (   0.0833333   0.1443376  -0.3067485), wk =   0.0069444
        k(   33) = (   0.0833333   0.2405626   0.0000000), wk =   0.0138889
        k(   34) = (   0.0833333   0.2405626   0.1022495), wk =   0.0277778
        k(   35) = (   0.0833333   0.2405626   0.2044990), wk =   0.0277778
        k(   36) = (   0.0833333   0.2405626  -0.3067485), wk =   0.0138889
        k(   37) = (   0.0833333   0.3367877   0.0000000), wk =   0.0138889
        k(   38) = (   0.0833333   0.3367877   0.1022495), wk =   0.0277778
        k(   39) = (   0.0833333   0.3367877   0.2044990), wk =   0.0277778
        k(   40) = (   0.0833333   0.3367877  -0.3067485), wk =   0.0138889
        k(   41) = (   0.0833333   0.4330127   0.0000000), wk =   0.0138889
        k(   42) = (   0.0833333   0.4330127   0.1022495), wk =   0.0277778
        k(   43) = (   0.0833333   0.4330127   0.2044990), wk =   0.0277778
        k(   44) = (   0.0833333   0.4330127  -0.3067485), wk =   0.0138889
        k(   45) = (   0.0833333   0.5292377   0.0000000), wk =   0.0138889
        k(   46) = (   0.0833333   0.5292377   0.1022495), wk =   0.0277778
        k(   47) = (   0.0833333   0.5292377   0.2044990), wk =   0.0277778
        k(   48) = (   0.0833333   0.5292377  -0.3067485), wk =   0.0138889
        k(   49) = (   0.1666667   0.2886751   0.0000000), wk =   0.0069444
        k(   50) = (   0.1666667   0.2886751   0.1022495), wk =   0.0138889
        k(   51) = (   0.1666667   0.2886751   0.2044990), wk =   0.0138889
        k(   52) = (   0.1666667   0.2886751  -0.3067485), wk =   0.0069444
        k(   53) = (   0.1666667   0.3849002   0.0000000), wk =   0.0138889
        k(   54) = (   0.1666667   0.3849002   0.1022495), wk =   0.0277778
        k(   55) = (   0.1666667   0.3849002   0.2044990), wk =   0.0277778
        k(   56) = (   0.1666667   0.3849002  -0.3067485), wk =   0.0138889
        k(   57) = (   0.1666667   0.4811252   0.0000000), wk =   0.0138889
        k(   58) = (   0.1666667   0.4811252   0.1022495), wk =   0.0277778
        k(   59) = (   0.1666667   0.4811252   0.2044990), wk =   0.0277778
        k(   60) = (   0.1666667   0.4811252  -0.3067485), wk =   0.0138889
        k(   61) = (   0.1666667   0.5773503   0.0000000), wk =   0.0069444
        k(   62) = (   0.1666667   0.5773503   0.1022495), wk =   0.0138889
        k(   63) = (   0.1666667   0.5773503   0.2044990), wk =   0.0138889
        k(   64) = (   0.1666667   0.5773503  -0.3067485), wk =   0.0069444
        k(   65) = (   0.2500000   0.4330127   0.0000000), wk =   0.0069444
        k(   66) = (   0.2500000   0.4330127   0.1022495), wk =   0.0138889
        k(   67) = (   0.2500000   0.4330127   0.2044990), wk =   0.0138889
        k(   68) = (   0.2500000   0.4330127  -0.3067485), wk =   0.0069444
        k(   69) = (   0.2500000   0.5292377   0.0000000), wk =   0.0138889
        k(   70) = (   0.2500000   0.5292377   0.1022495), wk =   0.0277778
        k(   71) = (   0.2500000   0.5292377   0.2044990), wk =   0.0277778
        k(   72) = (   0.2500000   0.5292377  -0.3067485), wk =   0.0138889
        k(   73) = (   0.3333333   0.5773503   0.0000000), wk =   0.0023148
        k(   74) = (   0.3333333   0.5773503   0.1022495), wk =   0.0046296
        k(   75) = (   0.3333333   0.5773503   0.2044990), wk =   0.0046296
        k(   76) = (   0.3333333   0.5773503  -0.3067485), wk =   0.0023148

                       cryst. coord.
        k(    1) = (   0.0000000   0.0000000   0.0000000), wk =   0.0011574
        k(    2) = (   0.0000000   0.0000000   0.1666667), wk =   0.0023148
        k(    3) = (   0.0000000   0.0000000   0.3333333), wk =   0.0023148
        k(    4) = (   0.0000000   0.0000000  -0.5000000), wk =   0.0011574
        k(    5) = (   0.0000000   0.0833333   0.0000000), wk =   0.0069444
        k(    6) = (   0.0000000   0.0833333   0.1666667), wk =   0.0138889
        k(    7) = (   0.0000000   0.0833333   0.3333333), wk =   0.0138889
        k(    8) = (   0.0000000   0.0833333  -0.5000000), wk =   0.0069444
        k(    9) = (   0.0000000   0.1666667   0.0000000), wk =   0.0069444
        k(   10) = (   0.0000000   0.1666667   0.1666667), wk =   0.0138889
        k(   11) = (   0.0000000   0.1666667   0.3333333), wk =   0.0138889
        k(   12) = (   0.0000000   0.1666667  -0.5000000), wk =   0.0069444
        k(   13) = (   0.0000000   0.2500000   0.0000000), wk =   0.0069444
        k(   14) = (   0.0000000   0.2500000   0.1666667), wk =   0.0138889
        k(   15) = (   0.0000000   0.2500000   0.3333333), wk =   0.0138889
        k(   16) = (   0.0000000   0.2500000  -0.5000000), wk =   0.0069444
        k(   17) = (   0.0000000   0.3333333   0.0000000), wk =   0.0069444
        k(   18) = (   0.0000000   0.3333333   0.1666667), wk =   0.0138889
        k(   19) = (   0.0000000   0.3333333   0.3333333), wk =   0.0138889
        k(   20) = (   0.0000000   0.3333333  -0.5000000), wk =   0.0069444
        k(   21) = (   0.0000000   0.4166667   0.0000000), wk =   0.0069444
        k(   22) = (   0.0000000   0.4166667   0.1666667), wk =   0.0138889
        k(   23) = (   0.0000000   0.4166667   0.3333333), wk =   0.0138889
        k(   24) = (   0.0000000   0.4166667  -0.5000000), wk =   0.0069444
        k(   25) = (   0.0000000  -0.5000000   0.0000000), wk =   0.0034722
        k(   26) = (   0.0000000  -0.5000000   0.1666667), wk =   0.0069444
        k(   27) = (   0.0000000  -0.5000000   0.3333333), wk =   0.0069444
        k(   28) = (   0.0000000  -0.5000000  -0.5000000), wk =   0.0034722
        k(   29) = (   0.0833333   0.0833333   0.0000000), wk =   0.0069444
        k(   30) = (   0.0833333   0.0833333   0.1666667), wk =   0.0138889
        k(   31) = (   0.0833333   0.0833333   0.3333333), wk =   0.0138889
        k(   32) = (   0.0833333   0.0833333  -0.5000000), wk =   0.0069444
        k(   33) = (   0.0833333   0.1666667   0.0000000), wk =   0.0138889
        k(   34) = (   0.0833333   0.1666667   0.1666667), wk =   0.0277778
        k(   35) = (   0.0833333   0.1666667   0.3333333), wk =   0.0277778
        k(   36) = (   0.0833333   0.1666667  -0.5000000), wk =   0.0138889
        k(   37) = (   0.0833333   0.2500000   0.0000000), wk =   0.0138889
        k(   38) = (   0.0833333   0.2500000   0.1666667), wk =   0.0277778
        k(   39) = (   0.0833333   0.2500000   0.3333333), wk =   0.0277778
        k(   40) = (   0.0833333   0.2500000  -0.5000000), wk =   0.0138889
        k(   41) = (   0.0833333   0.3333333   0.0000000), wk =   0.0138889
        k(   42) = (   0.0833333   0.3333333   0.1666667), wk =   0.0277778
        k(   43) = (   0.0833333   0.3333333   0.3333333), wk =   0.0277778
        k(   44) = (   0.0833333   0.3333333  -0.5000000), wk =   0.0138889
        k(   45) = (   0.0833333   0.4166667   0.0000000), wk =   0.0138889
        k(   46) = (   0.0833333   0.4166667   0.1666667), wk =   0.0277778
        k(   47) = (   0.0833333   0.4166667   0.3333333), wk =   0.0277778
        k(   48) = (   0.0833333   0.4166667  -0.5000000), wk =   0.0138889
        k(   49) = (   0.1666667   0.1666667   0.0000000), wk =   0.0069444
        k(   50) = (   0.1666667   0.1666667   0.1666667), wk =   0.0138889
        k(   51) = (   0.1666667   0.1666667   0.3333333), wk =   0.0138889
        k(   52) = (   0.1666667   0.1666667  -0.5000000), wk =   0.0069444
        k(   53) = (   0.1666667   0.2500000   0.0000000), wk =   0.0138889
        k(   54) = (   0.1666667   0.2500000   0.1666667), wk =   0.0277778
        k(   55) = (   0.1666667   0.2500000   0.3333333), wk =   0.0277778
        k(   56) = (   0.1666667   0.2500000  -0.5000000), wk =   0.0138889
        k(   57) = (   0.1666667   0.3333333   0.0000000), wk =   0.0138889
        k(   58) = (   0.1666667   0.3333333   0.1666667), wk =   0.0277778
        k(   59) = (   0.1666667   0.3333333   0.3333333), wk =   0.0277778
        k(   60) = (   0.1666667   0.3333333  -0.5000000), wk =   0.0138889
        k(   61) = (   0.1666667   0.4166667   0.0000000), wk =   0.0069444
        k(   62) = (   0.1666667   0.4166667   0.1666667), wk =   0.0138889
        k(   63) = (   0.1666667   0.4166667   0.3333333), wk =   0.0138889
        k(   64) = (   0.1666667   0.4166667  -0.5000000), wk =   0.0069444
        k(   65) = (   0.2500000   0.2500000   0.0000000), wk =   0.0069444
        k(   66) = (   0.2500000   0.2500000   0.1666667), wk =   0.0138889
        k(   67) = (   0.2500000   0.2500000   0.3333333), wk =   0.0138889
        k(   68) = (   0.2500000   0.2500000  -0.5000000), wk =   0.0069444
        k(   69) = (   0.2500000   0.3333333   0.0000000), wk =   0.0138889
        k(   70) = (   0.2500000   0.3333333   0.1666667), wk =   0.0277778
        k(   71) = (   0.2500000   0.3333333   0.3333333), wk =   0.0277778
        k(   72) = (   0.2500000   0.3333333  -0.5000000), wk =   0.0138889
        k(   73) = (   0.3333333   0.3333333   0.0000000), wk =   0.0023148
        k(   74) = (   0.3333333   0.3333333   0.1666667), wk =   0.0046296
        k(   75) = (   0.3333333   0.3333333   0.3333333), wk =   0.0046296
        k(   76) = (   0.3333333   0.3333333  -0.5000000), wk =   0.0023148

     Dense  grid:    23631 G-vectors     FFT dimensions: (  32,  32,  54)

     Smooth grid:    22875 G-vectors     FFT dimensions: (  32,  32,  54)

     Dynamical RAM for                 wfc:       0.05 MB

     Dynamical RAM for     wfc (w. buffer):       6.96 MB

     Dynamical RAM for           str. fact:       0.02 MB

     Dynamical RAM for           local pot:       0.00 MB

     Dynamical RAM for          nlocal pot:       0.08 MB

     Dynamical RAM for                qrad:       1.70 MB

     Dynamical RAM for          rho,v,vnew:       0.25 MB

     Dynamical RAM for               rhoin:       0.08 MB

     Dynamical RAM for            rho*nmix:       0.57 MB

     Dynamical RAM for           G-vectors:       0.08 MB

     Dynamical RAM for          h,s,v(r/c):       0.08 MB

     Dynamical RAM for          <psi|beta>:       0.01 MB

     Dynamical RAM for                 psi:       0.09 MB

     Dynamical RAM for                hpsi:       0.09 MB

     Dynamical RAM for                spsi:       0.09 MB

     Dynamical RAM for      wfcinit/wfcrot:       0.10 MB

     Dynamical RAM for           addusdens:       3.38 MB

     Estimated static dynamical RAM per process >       9.34 MB

     Estimated max dynamical RAM per process >      13.30 MB

     Estimated total dynamical RAM >     265.97 MB

     Check: negative core charge=   -0.000043
     Generating pointlists ...
     new r_m :   0.4120 (alat units)  1.9364 (a.u.) for type    1

     The initial density is read from file :
     ./out/Co.save/charge-density


     starting charge      34.2099, renormalised to      34.0000

     negative rho (up, down):  1.815E+00 1.440E+00
     Starting wfcs from file
     Checking if some PAW data can be deallocated... 

     total cpu time spent up to now is        0.6 secs

     Self-consistent Calculation

     iteration #  1     ecut=   110.00 Ry     beta= 0.70
     Davidson diagonalization with overlap

---- Real-time Memory Report at c_bands before calling an iterative solver
            56 MiB given to the printing process from OS
             0 MiB allocation reported by mallinfo(arena+hblkhd)
        353532 MiB available memory on the node where the printing process lives
------------------
     c_bands:  1 eigenvalues not converged
     c_bands:  3 eigenvalues not converged
     c_bands:  3 eigenvalues not converged
     c_bands:  1 eigenvalues not converged
     c_bands:  5 eigenvalues not converged
     c_bands:  5 eigenvalues not converged
     c_bands:  3 eigenvalues not converged
     c_bands:  5 eigenvalues not converged
     c_bands:  1 eigenvalues not converged
     c_bands:  1 eigenvalues not converged
     c_bands:  5 eigenvalues not converged
     c_bands:  1 eigenvalues not converged
     c_bands:  1 eigenvalues not converged
     c_bands:  1 eigenvalues not converged
     c_bands:  1 eigenvalues not converged
     c_bands:  1 eigenvalues not converged
     c_bands:  5 eigenvalues not converged
     c_bands:  5 eigenvalues not converged
     c_bands:  4 eigenvalues not converged
     c_bands:  5 eigenvalues not converged
     c_bands:  4 eigenvalues not converged
     c_bands:  4 eigenvalues not converged
     c_bands:  1 eigenvalues not converged
     c_bands:  1 eigenvalues not converged
     c_bands:  1 eigenvalues not converged
     c_bands:  1 eigenvalues not converged
     c_bands:  3 eigenvalues not converged
     c_bands:  3 eigenvalues not converged
     c_bands:  1 eigenvalues not converged
     c_bands:  1 eigenvalues not converged
     c_bands:  1 eigenvalues not converged
     c_bands:  1 eigenvalues not converged
     c_bands:  1 eigenvalues not converged
     c_bands:  1 eigenvalues not converged
     ethr =  1.00E-05,  avg # of iterations = 29.6

     negative rho (up, down):  1.194E-01 6.043E-02

     total cpu time spent up to now is       13.8 secs

     total energy              =    -753.09706184 Ry
     estimated scf accuracy    <       1.75389171 Ry

     total magnetization       =     3.28 Bohr mag/cell
     absolute magnetization    =     3.58 Bohr mag/cell

     iteration #  2     ecut=   110.00 Ry     beta= 0.70
     Davidson diagonalization with overlap

---- Real-time Memory Report at c_bands before calling an iterative solver
            75 MiB given to the printing process from OS
             0 MiB allocation reported by mallinfo(arena+hblkhd)
        353319 MiB available memory on the node where the printing process lives
------------------
     ethr =  5.16E-03,  avg # of iterations =  2.0

     negative rho (up, down):  3.142E-03 5.573E-04

     total cpu time spent up to now is       15.3 secs

     total energy              =    -753.06615277 Ry
     estimated scf accuracy    <       0.56310508 Ry

     total magnetization       =     3.03 Bohr mag/cell
     absolute magnetization    =     3.36 Bohr mag/cell

     iteration #  3     ecut=   110.00 Ry     beta= 0.70
     Davidson diagonalization with overlap

---- Real-time Memory Report at c_bands before calling an iterative solver
            77 MiB given to the printing process from OS
             0 MiB allocation reported by mallinfo(arena+hblkhd)
        353305 MiB available memory on the node where the printing process lives
------------------
     ethr =  1.66E-03,  avg # of iterations =  3.8

     total cpu time spent up to now is       17.3 secs

     total energy              =    -753.39441595 Ry
     estimated scf accuracy    <       0.62944041 Ry

     total magnetization       =     3.24 Bohr mag/cell
     absolute magnetization    =     3.54 Bohr mag/cell

     iteration #  4     ecut=   110.00 Ry     beta= 0.70
     Davidson diagonalization with overlap

---- Real-time Memory Report at c_bands before calling an iterative solver
            79 MiB given to the printing process from OS
             0 MiB allocation reported by mallinfo(arena+hblkhd)
        353294 MiB available memory on the node where the printing process lives
------------------
     ethr =  1.66E-03,  avg # of iterations =  1.1

     total cpu time spent up to now is       18.6 secs

     total energy              =    -753.41160420 Ry
     estimated scf accuracy    <       0.06927401 Ry

     total magnetization       =     3.26 Bohr mag/cell
     absolute magnetization    =     3.63 Bohr mag/cell

     iteration #  5     ecut=   110.00 Ry     beta= 0.70
     Davidson diagonalization with overlap

---- Real-time Memory Report at c_bands before calling an iterative solver
            80 MiB given to the printing process from OS
             0 MiB allocation reported by mallinfo(arena+hblkhd)
        353285 MiB available memory on the node where the printing process lives
------------------
     ethr =  2.04E-04,  avg # of iterations =  4.4

     total cpu time spent up to now is       20.8 secs

     total energy              =    -753.45301332 Ry
     estimated scf accuracy    <       0.02641288 Ry

     total magnetization       =     3.27 Bohr mag/cell
     absolute magnetization    =     3.58 Bohr mag/cell

     iteration #  6     ecut=   110.00 Ry     beta= 0.70
     Davidson diagonalization with overlap

---- Real-time Memory Report at c_bands before calling an iterative solver
            81 MiB given to the printing process from OS
             0 MiB allocation reported by mallinfo(arena+hblkhd)
        353278 MiB available memory on the node where the printing process lives
------------------
     ethr =  7.77E-05,  avg # of iterations =  1.7

     total cpu time spent up to now is       22.2 secs

     total energy              =    -753.45230406 Ry
     estimated scf accuracy    <       0.00647093 Ry

     total magnetization       =     3.30 Bohr mag/cell
     absolute magnetization    =     3.61 Bohr mag/cell

     iteration #  7     ecut=   110.00 Ry     beta= 0.70
     Davidson diagonalization with overlap

---- Real-time Memory Report at c_bands before calling an iterative solver
            82 MiB given to the printing process from OS
             0 MiB allocation reported by mallinfo(arena+hblkhd)
        353270 MiB available memory on the node where the printing process lives
------------------
     ethr =  1.90E-05,  avg # of iterations =  4.3

     total cpu time spent up to now is       24.2 secs

     total energy              =    -753.45478728 Ry
     estimated scf accuracy    <       0.00027758 Ry

     total magnetization       =     3.35 Bohr mag/cell
     absolute magnetization    =     3.67 Bohr mag/cell

     iteration #  8     ecut=   110.00 Ry     beta= 0.70
     Davidson diagonalization with overlap

---- Real-time Memory Report at c_bands before calling an iterative solver
            82 MiB given to the printing process from OS
             0 MiB allocation reported by mallinfo(arena+hblkhd)
        353263 MiB available memory on the node where the printing process lives
------------------
     c_bands:  1 eigenvalues not converged
     c_bands:  1 eigenvalues not converged
     c_bands:  1 eigenvalues not converged
     c_bands:  1 eigenvalues not converged
     c_bands:  1 eigenvalues not converged
     ethr =  8.16E-07,  avg # of iterations = 11.6

     total cpu time spent up to now is       27.7 secs

     total energy              =    -753.45498154 Ry
     estimated scf accuracy    <       0.00111572 Ry

     total magnetization       =     3.36 Bohr mag/cell
     absolute magnetization    =     3.68 Bohr mag/cell

     iteration #  9     ecut=   110.00 Ry     beta= 0.70
     Davidson diagonalization with overlap

---- Real-time Memory Report at c_bands before calling an iterative solver
            82 MiB given to the printing process from OS
             0 MiB allocation reported by mallinfo(arena+hblkhd)
        353260 MiB available memory on the node where the printing process lives
------------------
     ethr =  8.16E-07,  avg # of iterations =  4.1

     total cpu time spent up to now is       29.7 secs

     total energy              =    -753.45509364 Ry
     estimated scf accuracy    <       0.00005893 Ry

     total magnetization       =     3.36 Bohr mag/cell
     absolute magnetization    =     3.68 Bohr mag/cell

     iteration # 10     ecut=   110.00 Ry     beta= 0.70
     Davidson diagonalization with overlap

---- Real-time Memory Report at c_bands before calling an iterative solver
            84 MiB given to the printing process from OS
             0 MiB allocation reported by mallinfo(arena+hblkhd)
        353254 MiB available memory on the node where the printing process lives
------------------
     ethr =  1.73E-07,  avg # of iterations =  3.1

     total cpu time spent up to now is       31.4 secs

     total energy              =    -753.45509548 Ry
     estimated scf accuracy    <       0.00001477 Ry

     total magnetization       =     3.36 Bohr mag/cell
     absolute magnetization    =     3.68 Bohr mag/cell

     iteration # 11     ecut=   110.00 Ry     beta= 0.70
     Davidson diagonalization with overlap

---- Real-time Memory Report at c_bands before calling an iterative solver
            84 MiB given to the printing process from OS
             0 MiB allocation reported by mallinfo(arena+hblkhd)
        353250 MiB available memory on the node where the printing process lives
------------------
     ethr =  4.34E-08,  avg # of iterations =  5.4

     total cpu time spent up to now is       33.8 secs

     total energy              =    -753.45510447 Ry
     estimated scf accuracy    <       0.00001070 Ry

     total magnetization       =     3.36 Bohr mag/cell
     absolute magnetization    =     3.68 Bohr mag/cell

     iteration # 12     ecut=   110.00 Ry     beta= 0.70
     Davidson diagonalization with overlap

---- Real-time Memory Report at c_bands before calling an iterative solver
            84 MiB given to the printing process from OS
             0 MiB allocation reported by mallinfo(arena+hblkhd)
        353247 MiB available memory on the node where the printing process lives
------------------
     ethr =  3.15E-08,  avg # of iterations =  1.8

     total cpu time spent up to now is       35.2 secs

     total energy              =    -753.45510480 Ry
     estimated scf accuracy    <       0.00000217 Ry

     total magnetization       =     3.36 Bohr mag/cell
     absolute magnetization    =     3.68 Bohr mag/cell

     iteration # 13     ecut=   110.00 Ry     beta= 0.70
     Davidson diagonalization with overlap

---- Real-time Memory Report at c_bands before calling an iterative solver
            85 MiB given to the printing process from OS
             0 MiB allocation reported by mallinfo(arena+hblkhd)
        353245 MiB available memory on the node where the printing process lives
------------------
     ethr =  6.39E-09,  avg # of iterations =  5.7
 
     Magnetic moment per site  (integrated on atomic sphere of radius R)
     atom   1 (R=0.412)  charge= 15.6028  magn=  1.7526
     atom   2 (R=0.412)  charge= 15.6028  magn=  1.7526

     total cpu time spent up to now is       37.4 secs

     End of self-consistent calculation

 ------ SPIN UP ------------


          k = 0.0000 0.0000 0.0000 (  2875 PWs)   bands (ev):

   -77.4799 -77.4255 -40.8815 -40.5839 -40.5839 -40.5620 -40.5385 -40.5385
     9.6669  13.4577  15.9641  16.0377  16.0377  16.3420  16.3420  16.7035
    16.7035  17.7789  17.7789  18.3359  24.8288

     occupation numbers 
     1.0000   1.0000   1.0000   1.0000   1.0000   1.0000   1.0000   1.0000
     1.0000   1.0000   1.0000   1.0000   1.0000   1.0000   1.0000   1.0000
     1.0000   1.0000   1.0000   1.0000   0.0000

          k = 0.0000 0.0000 0.1022 (  2851 PWs)   bands (ev):

   -77.4763 -77.4292 -40.8603 -40.5837 -40.5809 -40.5809 -40.5416 -40.5416
     9.9409  13.3840  15.8954  15.9771  15.9771  16.2714  16.2714  16.8599
    16.8599  17.3961  17.7616  17.7616  26.3338

     occupation numbers 
     1.0000   1.0000   1.0000   1.0000   1.0000   1.0000   1.0000   1.0000
     1.0000   1.0000   1.0000   1.0000   1.0000   1.0000   1.0000   1.0000
     1.0000   1.0000   1.0000   1.0000   0.0000

          k = 0.0000 0.0000 0.2045 (  2864 PWs)   bands (ev):

   -77.4663 -77.4391 -40.8024 -40.6427 -40.5726 -40.5726 -40.5499 -40.5499
    10.7269  12.9363  15.7368  15.9252  15.9252  16.1035  16.1151  16.1151
    17.1715  17.1715  17.6734  17.6734  29.5185

     occupation numbers 
     1.0000   1.0000   1.0000   1.0000   1.0000   1.0000   1.0000   1.0000
     1.0000   1.0000   1.0000   1.0000   1.0000   1.0000   1.0000   1.0000
     1.0000   1.0000   1.0000   1.0000   0.0000

          k = 0.0000 0.0000-0.3067 (  2834 PWs)   bands (ev):

   -77.4527 -77.4527 -40.7228 -40.7228 -40.5612 -40.5612 -40.5612 -40.5612
    11.8736  11.8736  15.6621  15.6621  15.9757  15.9757  15.9757  15.9757
    17.4708  17.4708  17.4708  17.4708  33.3243

     occupation numbers 
     1.0000   1.0000   1.0000   1.0000   1.0000   1.0000   1.0000   1.0000
     1.0000   1.0000   1.0000   1.0000   1.0000   1.0000   1.0000   1.0000
     1.0000   1.0000   1.0000   1.0000   0.0000

          k = 0.0000 0.0962 0.0000 (  2829 PWs)   bands (ev):

   -77.4767 -77.4240 -40.8744 -40.5998 -40.5890 -40.5648 -40.5550 -40.5412
     9.9098  13.6052  15.7861  16.1522  16.1807  16.2920  16.4437  16.5390
    16.6328  16.9648  17.8080  19.4778  24.8690

     occupation numbers 
     1.0000   1.0000   1.0000   1.0000   1.0000   1.0000   1.0000   1.0000
     1.0000   1.0000   1.0000   1.0000   1.0000   1.0000   1.0000   1.0000
     1.0000   1.0000   1.0000   0.0000   0.0000

          k = 0.0000 0.0962 0.1022 (  2847 PWs)   bands (ev):

   -77.4732 -77.4275 -40.8544 -40.5965 -40.5899 -40.5858 -40.5538 -40.5444
    10.1796  13.5460  15.7852  16.0126  16.0756  16.1118  16.3673  16.6408
    16.8151  16.8865  17.7835  18.7196  26.4435

     occupation numbers 
     1.0000   1.0000   1.0000   1.0000   1.0000   1.0000   1.0000   1.0000
     1.0000   1.0000   1.0000   1.0000   1.0000   1.0000   1.0000   1.0000
     1.0000   1.0000   1.0000   0.0000   0.0000

          k = 0.0000 0.0962 0.2045 (  2865 PWs)   bands (ev):

   -77.4635 -77.4372 -40.7997 -40.6480 -40.5867 -40.5771 -40.5613 -40.5532
    10.9531  13.1262  15.6721  15.7207  15.8456  16.0166  16.2096  16.2580
    17.1457  17.1889  17.6791  17.9694  29.6733

     occupation numbers 
     1.0000   1.0000   1.0000   1.0000   1.0000   1.0000   1.0000   1.0000
     1.0000   1.0000   1.0000   1.0000   1.0000   1.0000   1.0000   1.0000
     1.0000   1.0000   1.0000   1.0000   0.0000

          k = 0.0000 0.0962-0.3067 (  2854 PWs)   bands (ev):

   -77.4504 -77.4504 -40.7243 -40.7243 -40.5738 -40.5738 -40.5652 -40.5652
    12.0815  12.0815  15.5245  15.5245  15.9813  15.9813  16.0683  16.0683
    17.4595  17.4595  17.5611  17.5611  33.4942

     occupation numbers 
     1.0000   1.0000   1.0000   1.0000   1.0000   1.0000   1.0000   1.0000
     1.0000   1.0000   1.0000   1.0000   1.0000   1.0000   1.0000   1.0000
     1.0000   1.0000   1.0000   1.0000   0.0000

          k = 0.0000 0.1925 0.0000 (  2839 PWs)   bands (ev):

   -77.4678 -77.4199 -40.8544 -40.6435 -40.6028 -40.5997 -40.5733 -40.5489
    10.6121  13.9706  15.5224  15.7857  16.1089  16.4584  16.4754  16.4826
    16.6291  16.7291  17.8695  21.0675  25.0109

     occupation numbers 
     1.0000   1.0000   1.0000   1.0000   1.0000   1.0000   1.0000   1.0000
     1.0000   1.0000   1.0000   1.0000   1.0000   1.0000   1.0000   1.0000
     1.0000   1.0000   1.0000   0.0000   0.0000

          k = 0.0000 0.1925 0.1022 (  2846 PWs)   bands (ev):

   -77.4646 -77.4231 -40.8382 -40.6388 -40.6195 -40.5992 -40.5748 -40.5525
    10.8660  13.9558  15.5160  15.5630  15.9887  16.2894  16.3705  16.6163
    16.7936  16.8735  17.8293  19.9448  26.8008

     occupation numbers 
     1.0000   1.0000   1.0000   1.0000   1.0000   1.0000   1.0000   1.0000
     1.0000   1.0000   1.0000   1.0000   1.0000   1.0000   1.0000   1.0000
     1.0000   1.0000   1.0000   0.0000   0.0000

          k = 0.0000 0.1925 0.2045 (  2853 PWs)   bands (ev):

   -77.4559 -77.4319 -40.7938 -40.6698 -40.6229 -40.5894 -40.5856 -40.5624
    11.5908  13.6179  15.1817  15.6207  15.7090  16.1969  16.2400  16.4712
    17.1186  17.2722  17.6912  18.6094  30.1367

     occupation numbers 
     1.0000   1.0000   1.0000   1.0000   1.0000   1.0000   1.0000   1.0000
     1.0000   1.0000   1.0000   1.0000   1.0000   1.0000   1.0000   1.0000
     1.0000   1.0000   1.0000   0.9998   0.0000

          k = 0.0000 0.1925-0.3067 (  2864 PWs)   bands (ev):

   -77.4439 -77.4439 -40.7325 -40.7325 -40.6038 -40.6038 -40.5759 -40.5759
    12.6415  12.6415  15.3001  15.3001  15.9184  15.9184  16.3151  16.3151
    17.4435  17.4435  17.8046  17.8046  33.9610

     occupation numbers 
     1.0000   1.0000   1.0000   1.0000   1.0000   1.0000   1.0000   1.0000
     1.0000   1.0000   1.0000   1.0000   1.0000   1.0000   1.0000   1.0000
     1.0000   1.0000   1.0000   1.0000   0.0000

          k = 0.0000 0.2887 0.0000 (  2830 PWs)   bands (ev):

   -77.4552 -77.4148 -40.8245 -40.7037 -40.6597 -40.6211 -40.5874 -40.5599
    11.6749  14.2644  15.0640  15.3623  16.0058  16.2487  16.4252  16.9146
    16.9442  17.1391  17.9267  22.8563  25.2884

     occupation numbers 
     1.0000   1.0000   1.0000   1.0000   1.0000   1.0000   1.0000   1.0000
     1.0000   1.0000   1.0000   1.0000   1.0000   1.0000   1.0000   1.0000
     1.0000   1.0000   1.0000   0.0000   0.0000

          k = 0.0000 0.2887 0.1022 (  2837 PWs)   bands (ev):

   -77.4525 -77.4175 -40.8168 -40.6947 -40.6737 -40.6170 -40.5903 -40.5640
    11.8861  14.3029  14.9233  15.4137  15.8568  16.2874  16.4261  16.9853
    17.0389  17.0961  17.8729  21.2199  27.4437

     occupation numbers 
     1.0000   1.0000   1.0000   1.0000   1.0000   1.0000   1.0000   1.0000
     1.0000   1.0000   1.0000   1.0000   1.0000   1.0000   1.0000   1.0000
     1.0000   1.0000   1.0000   0.0000   0.0000

          k = 0.0000 0.2887 0.2045 (  2858 PWs)   bands (ev):

   -77.4451 -77.4249 -40.7938 -40.7154 -40.6628 -40.6058 -40.6040 -40.5752
    12.4747  14.0546  14.8528  15.4369  15.7358  16.2698  16.4092  16.8389
    17.2426  17.4285  17.7174  19.3786  30.7893

     occupation numbers 
     1.0000   1.0000   1.0000   1.0000   1.0000   1.0000   1.0000   1.0000
     1.0000   1.0000   1.0000   1.0000   1.0000   1.0000   1.0000   1.0000
     1.0000   1.0000   1.0000   0.0000   0.0000

          k = 0.0000 0.2887-0.3067 (  2862 PWs)   bands (ev):

   -77.4350 -77.4350 -40.7575 -40.7575 -40.6305 -40.6305 -40.5906 -40.5906
    13.2907  13.2907  15.1460  15.1460  15.9785  15.9785  16.6076  16.6076
    17.4880  17.4880  18.1474  18.1474  33.0368

     occupation numbers 
     1.0000   1.0000   1.0000   1.0000   1.0000   1.0000   1.0000   1.0000
     1.0000   1.0000   1.0000   1.0000   1.0000   1.0000   1.0000   1.0000
     1.0000   1.0000   1.0000   1.0000   0.0000

          k = 0.0000 0.3849 0.0000 (  2856 PWs)   bands (ev):

   -77.4417 -77.4105 -40.7895 -40.7644 -40.7187 -40.6389 -40.6066 -40.5713
    12.8355  14.1971  14.5450  15.4724  16.0596  16.1273  16.2392  17.4446
    17.5832  17.6086  17.9650  24.8063  25.3867

     occupation numbers 
     1.0000   1.0000   1.0000   1.0000   1.0000   1.0000   1.0000   1.0000
     1.0000   1.0000   1.0000   1.0000   1.0000   1.0000   1.0000   1.0000
     1.0000   1.0000   1.0000   0.0000   0.0000

          k = 0.0000 0.3849 0.1022 (  2861 PWs)   bands (ev):

   -77.4396 -77.4126 -40.8070 -40.7423 -40.7231 -40.6344 -40.6067 -40.5758
    12.9331  14.2231  14.5819  15.3222  16.0568  16.1508  16.5870  17.4593
    17.4929  17.5450  17.9167  22.4603  27.5874

     occupation numbers 
     1.0000   1.0000   1.0000   1.0000   1.0000   1.0000   1.0000   1.0000
     1.0000   1.0000   1.0000   1.0000   1.0000   1.0000   1.0000   1.0000
     1.0000   1.0000   1.0000   0.0000   0.0000

          k = 0.0000 0.3849 0.2045 (  2854 PWs)   bands (ev):

   -77.4339 -77.4183 -40.8131 -40.7688 -40.6818 -40.6221 -40.6155 -40.5882
    13.2077  14.0375  14.7269  15.2278  16.1673  16.4080  16.9000  17.1752
    17.5636  17.6574  17.8087  20.2669  28.7266

     occupation numbers 
     1.0000   1.0000   1.0000   1.0000   1.0000   1.0000   1.0000   1.0000
     1.0000   1.0000   1.0000   1.0000   1.0000   1.0000   1.0000   1.0000
     1.0000   1.0000   1.0000   0.0000   0.0000

          k = 0.0000 0.3849-0.3067 (  2872 PWs)   bands (ev):

   -77.4261 -77.4261 -40.7984 -40.7984 -40.6412 -40.6412 -40.6052 -40.6052
    13.6103  13.6103  15.0140  15.0140  16.5817  16.5817  16.7797  16.7797
    17.6822  17.6822  18.6291  18.6291  29.8355

     occupation numbers 
     1.0000   1.0000   1.0000   1.0000   1.0000   1.0000   1.0000   1.0000
     1.0000   1.0000   1.0000   1.0000   1.0000   1.0000   1.0000   1.0000
     1.0000   1.0000   0.9399   0.9399   0.0000

          k = 0.0000 0.4811 0.0000 (  2854 PWs)   bands (ev):

   -77.4307 -77.4085 -40.8090 -40.7612 -40.7571 -40.6518 -40.6274 -40.5798
    13.5996  14.0084  14.2357  15.8297  15.9304  16.1072  16.3341  17.8194
    17.9501  17.9850  18.7306  23.6261  26.8212

     occupation numbers 
     1.0000   1.0000   1.0000   1.0000   1.0000   1.0000   1.0000   1.0000
     1.0000   1.0000   1.0000   1.0000   1.0000   1.0000   1.0000   1.0000
     1.0000   1.0000   0.0000   0.0000   0.0000

          k = 0.0000 0.4811 0.1022 (  2854 PWs)   bands (ev):

   -77.4292 -77.4100 -40.8273 -40.7781 -40.7256 -40.6470 -40.6237 -40.5846
    13.4902  14.0008  14.5474  15.2135  16.0415  16.3393  16.9448  17.7392
    17.8487  18.0089  18.5716  22.8249  26.1859

     occupation numbers 
     1.0000   1.0000   1.0000   1.0000   1.0000   1.0000   1.0000   1.0000
     1.0000   1.0000   1.0000   1.0000   1.0000   1.0000   1.0000   1.0000
     1.0000   1.0000   1.0000   0.0000   0.0000

          k = 0.0000 0.4811 0.2045 (  2855 PWs)   bands (ev):

   -77.4252 -77.4141 -40.8413 -40.8091 -40.6795 -40.6339 -40.6245 -40.5978
    13.4567  13.9266  14.7117  15.0287  16.3568  16.5957  17.3279  17.8812
    17.9034  17.9820  18.2567  21.1087  26.3425

     occupation numbers 
     1.0000   1.0000   1.0000   1.0000   1.0000   1.0000   1.0000   1.0000
     1.0000   1.0000   1.0000   1.0000   1.0000   1.0000   1.0000   1.0000
     1.0000   1.0000   1.0000   0.0000   0.0000

          k = 0.0000 0.4811-0.3067 (  2856 PWs)   bands (ev):

   -77.4196 -77.4196 -40.8343 -40.8343 -40.6429 -40.6429 -40.6159 -40.6159
    13.6382  13.6382  14.8899  14.8899  16.8192  16.8192  17.3042  17.3042
    17.9326  17.9326  19.4663  19.4663  27.1170

     occupation numbers 
     1.0000   1.0000   1.0000   1.0000   1.0000   1.0000   1.0000   1.0000
     1.0000   1.0000   1.0000   1.0000   1.0000   1.0000   1.0000   1.0000
     1.0000   1.0000   0.0000   0.0000   0.0000

          k = 0.0000-0.5774 0.0000 (  2862 PWs)   bands (ev):

   -77.4261 -77.4083 -40.8254 -40.7766 -40.7420 -40.6565 -40.6383 -40.5829
    13.8580  13.8676  14.1332  15.8847  16.0595  16.0801  16.4086  17.9550
    17.9909  18.0985  19.8932  21.9087  28.1290

     occupation numbers 
     1.0000   1.0000   1.0000   1.0000   1.0000   1.0000   1.0000   1.0000
     1.0000   1.0000   1.0000   1.0000   1.0000   1.0000   1.0000   1.0000
     1.0000   1.0000   0.0000   0.0000   0.0000

          k = 0.0000-0.5774 0.1022 (  2852 PWs)   bands (ev):

   -77.4249 -77.4095 -40.8399 -40.7926 -40.7173 -40.6516 -40.6324 -40.5879
    13.5900  13.9059  14.5806  15.1851  16.0015  16.4250  17.1476  17.7920
    17.9925  18.0910  19.6844  21.7294  27.2827

     occupation numbers 
     1.0000   1.0000   1.0000   1.0000   1.0000   1.0000   1.0000   1.0000
     1.0000   1.0000   1.0000   1.0000   1.0000   1.0000   1.0000   1.0000
     1.0000   1.0000   0.0000   0.0000   0.0000

          k = 0.0000-0.5774 0.2045 (  2874 PWs)   bands (ev):

   -77.4217 -77.4128 -40.8537 -40.8239 -40.6754 -40.6382 -40.6289 -40.6014
    13.4767  13.8830  14.7380  14.9366  16.3334  16.7372  17.3588  18.0131
    18.0213  18.0703  19.3597  21.1267  26.2923

     occupation numbers 
     1.0000   1.0000   1.0000   1.0000   1.0000   1.0000   1.0000   1.0000
     1.0000   1.0000   1.0000   1.0000   1.0000   1.0000   1.0000   1.0000
     1.0000   1.0000   0.0000   0.0000   0.0000

          k = 0.0000-0.5774-0.3067 (  2860 PWs)   bands (ev):

   -77.4172 -77.4172 -40.8482 -40.8482 -40.6427 -40.6427 -40.6198 -40.6198
    13.6221  13.6221  14.8416  14.8416  16.8213  16.8213  17.5428  17.5428
    18.0418  18.0418  20.1261  20.1261  25.8560

     occupation numbers 
     1.0000   1.0000   1.0000   1.0000   1.0000   1.0000   1.0000   1.0000
     1.0000   1.0000   1.0000   1.0000   1.0000   1.0000   1.0000   1.0000
     1.0000   1.0000   0.0000   0.0000   0.0000

          k = 0.0833 0.1443 0.0000 (  2840 PWs)   bands (ev):

   -77.4706 -77.4212 -40.8609 -40.6270 -40.6055 -40.5792 -40.5704 -40.5485
    10.3832  13.8676  15.5787  16.0322  16.1846  16.3300  16.3858  16.4243
    16.6668  16.7552  17.8429  20.6226  24.9620

     occupation numbers 
     1.0000   1.0000   1.0000   1.0000   1.0000   1.0000   1.0000   1.0000
     1.0000   1.0000   1.0000   1.0000   1.0000   1.0000   1.0000   1.0000
     1.0000   1.0000   1.0000   0.0000   0.0000

          k = 0.0833 0.1443 0.1022 (  2851 PWs)   bands (ev):

   -77.4673 -77.4245 -40.8434 -40.6224 -40.6121 -40.5946 -40.5674 -40.5520
    10.6432  13.8384  15.6062  15.7026  16.0338  16.2423  16.3494  16.5317
    16.8096  16.8698  17.8104  19.6124  26.6791

     occupation numbers 
     1.0000   1.0000   1.0000   1.0000   1.0000   1.0000   1.0000   1.0000
     1.0000   1.0000   1.0000   1.0000   1.0000   1.0000   1.0000   1.0000
     1.0000   1.0000   1.0000   0.0000   0.0000

          k = 0.0833 0.1443 0.2045 (  2856 PWs)   bands (ev):

   -77.4583 -77.4336 -40.7953 -40.6614 -40.6102 -40.5905 -40.5742 -40.5612
    11.3869  13.4736  15.3042  15.6668  15.7210  16.1654  16.2190  16.3905
    17.1476  17.2197  17.6902  18.4240  29.9852

     occupation numbers 
     1.0000   1.0000   1.0000   1.0000   1.0000   1.0000   1.0000   1.0000
     1.0000   1.0000   1.0000   1.0000   1.0000   1.0000   1.0000   1.0000
     1.0000   1.0000   1.0000   1.0000   0.0000

          k = 0.0833 0.1443-0.3067 (  2846 PWs)   bands (ev):

   -77.4459 -77.4459 -40.7289 -40.7289 -40.5947 -40.5947 -40.5730 -40.5730
    12.4691  12.4691  15.3576  15.3576  15.9200  15.9200  16.2501  16.2501
    17.4487  17.4487  17.7287  17.7287  33.8221

     occupation numbers 
     1.0000   1.0000   1.0000   1.0000   1.0000   1.0000   1.0000   1.0000
     1.0000   1.0000   1.0000   1.0000   1.0000   1.0000   1.0000   1.0000
     1.0000   1.0000   1.0000   1.0000   0.0000

          k = 0.0833 0.2406 0.0000 (  2842 PWs)   bands (ev):

   -77.4599 -77.4166 -40.8359 -40.6751 -40.6469 -40.6068 -40.5818 -40.5610
    11.2743  14.2429  15.3114  15.3280  16.0546  16.1965  16.5885  16.6062
    16.8118  17.0858  17.8850  22.2112  25.1927

     occupation numbers 
     1.0000   1.0000   1.0000   1.0000   1.0000   1.0000   1.0000   1.0000
     1.0000   1.0000   1.0000   1.0000   1.0000   1.0000   1.0000   1.0000
     1.0000   1.0000   1.0000   0.0000   0.0000

          k = 0.0833 0.2406 0.1022 (  2840 PWs)   bands (ev):

   -77.4570 -77.4195 -40.8242 -40.6688 -40.6565 -40.6117 -40.5820 -40.5646
    11.5070  14.2725  15.1201  15.3614  15.9372  16.2051  16.4257  16.7301
    16.9986  17.0638  17.8477  20.7811  27.2006

     occupation numbers 
     1.0000   1.0000   1.0000   1.0000   1.0000   1.0000   1.0000   1.0000
     1.0000   1.0000   1.0000   1.0000   1.0000   1.0000   1.0000   1.0000
     1.0000   1.0000   1.0000   0.0000   0.0000

          k = 0.0833 0.2406 0.2045 (  2850 PWs)   bands (ev):

   -77.4491 -77.4274 -40.7915 -40.6959 -40.6463 -40.6112 -40.5889 -40.5745
    12.1648  13.9945  14.9357  15.4676  15.6698  16.0933  16.3860  16.7102
    17.2379  17.3451  17.7286  19.1117  30.5955

     occupation numbers 
     1.0000   1.0000   1.0000   1.0000   1.0000   1.0000   1.0000   1.0000
     1.0000   1.0000   1.0000   1.0000   1.0000   1.0000   1.0000   1.0000
     1.0000   1.0000   1.0000   0.0000   0.0000

          k = 0.0833 0.2406-0.3067 (  2856 PWs)   bands (ev):

   -77.4383 -77.4383 -40.7450 -40.7450 -40.6226 -40.6226 -40.5867 -40.5867
    13.1030  13.1030  15.2041  15.2041  15.8133  15.8133  16.5307  16.5307
    17.4939  17.4939  18.0248  18.0248  34.2381

     occupation numbers 
     1.0000   1.0000   1.0000   1.0000   1.0000   1.0000   1.0000   1.0000
     1.0000   1.0000   1.0000   1.0000   1.0000   1.0000   1.0000   1.0000
     1.0000   1.0000   1.0000   1.0000   0.0000

          k = 0.0833 0.3368 0.0000 (  2848 PWs)   bands (ev):

   -77.4468 -77.4119 -40.8031 -40.7341 -40.6981 -40.6323 -40.5988 -40.5744
    12.4232  14.3659  14.7593  15.2455  16.0069  16.0570  16.4044  17.0012
    17.3170  17.6543  17.9198  24.0428  25.5500

     occupation numbers 
     1.0000   1.0000   1.0000   1.0000   1.0000   1.0000   1.0000   1.0000
     1.0000   1.0000   1.0000   1.0000   1.0000   1.0000   1.0000   1.0000
     1.0000   1.0000   1.0000   0.0000   0.0000

          k = 0.0833 0.3368 0.1022 (  2851 PWs)   bands (ev):

   -77.4445 -77.4143 -40.8055 -40.7226 -40.7039 -40.6325 -40.5985 -40.5779
    12.5853  14.4261  14.6700  15.2916  15.8502  16.2345  16.3775  17.0305
    17.4028  17.5140  17.9330  22.0424  27.9501

     occupation numbers 
     1.0000   1.0000   1.0000   1.0000   1.0000   1.0000   1.0000   1.0000
     1.0000   1.0000   1.0000   1.0000   1.0000   1.0000   1.0000   1.0000
     1.0000   1.0000   1.0000   0.0000   0.0000

          k = 0.0833 0.3368 0.2045 (  2853 PWs)   bands (ev):

   -77.4381 -77.4206 -40.7998 -40.7455 -40.6751 -40.6283 -40.6048 -40.5877
    13.0242  14.1757  14.7850  15.3554  15.7688  16.2464  16.4498  17.0342
    17.4627  17.6268  17.9042  19.9665  30.3569

     occupation numbers 
     1.0000   1.0000   1.0000   1.0000   1.0000   1.0000   1.0000   1.0000
     1.0000   1.0000   1.0000   1.0000   1.0000   1.0000   1.0000   1.0000
     1.0000   1.0000   1.0000   0.0000   0.0000

          k = 0.0833 0.3368-0.3067 (  2856 PWs)   bands (ev):

   -77.4294 -77.4294 -40.7780 -40.7780 -40.6410 -40.6410 -40.6016 -40.6016
    13.6110  13.6110  15.1208  15.1208  15.9909  15.9909  16.7203  16.7203
    17.6992  17.6992  18.4838  18.4838  31.5504

     occupation numbers 
     1.0000   1.0000   1.0000   1.0000   1.0000   1.0000   1.0000   1.0000
     1.0000   1.0000   1.0000   1.0000   1.0000   1.0000   1.0000   1.0000
     1.0000   1.0000   1.0000   1.0000   0.0000

          k = 0.0833 0.4330 0.0000 (  2862 PWs)   bands (ev):

   -77.4344 -77.4089 -40.7863 -40.7685 -40.7427 -40.6527 -40.6197 -40.5860
    13.4352  14.1903  14.3761  15.4747  15.8877  16.2003  16.2499  17.5221
    17.7472  17.9408  18.4528  24.9408  26.0338

     occupation numbers 
     1.0000   1.0000   1.0000   1.0000   1.0000   1.0000   1.0000   1.0000
     1.0000   1.0000   1.0000   1.0000   1.0000   1.0000   1.0000   1.0000
     1.0000   1.0000   1.0000   0.0000   0.0000

          k = 0.0833 0.4330 0.1022 (  2860 PWs)   bands (ev):

   -77.4327 -77.4107 -40.8112 -40.7619 -40.7265 -40.6498 -40.6171 -40.5893
    13.4268  14.2078  14.5304  15.2262  15.9646  16.2844  16.5457  17.4716
    17.7637  17.8061  18.4513  23.1292  26.7337

     occupation numbers 
     1.0000   1.0000   1.0000   1.0000   1.0000   1.0000   1.0000   1.0000
     1.0000   1.0000   1.0000   1.0000   1.0000   1.0000   1.0000   1.0000
     1.0000   1.0000   1.0000   0.0000   0.0000

          k = 0.0833 0.4330 0.2045 (  2857 PWs)   bands (ev):

   -77.4280 -77.4153 -40.8244 -40.7904 -40.6828 -40.6401 -40.6200 -40.5980
    13.5064  14.0755  14.7179  15.1844  16.0712  16.4985  16.9381  17.2181
    17.6428  17.9576  18.5147  20.9925  27.4549

     occupation numbers 
     1.0000   1.0000   1.0000   1.0000   1.0000   1.0000   1.0000   1.0000
     1.0000   1.0000   1.0000   1.0000   1.0000   1.0000   1.0000   1.0000
     1.0000   1.0000   1.0000   0.0000   0.0000

          k = 0.0833 0.4330-0.3067 (  2852 PWs)   bands (ev):

   -77.4217 -77.4217 -40.8159 -40.8159 -40.6493 -40.6493 -40.6127 -40.6127
    13.7471  13.7471  15.0002  15.0002  16.5068  16.5068  16.8948  16.8948
    17.9071  17.9071  19.3353  19.3353  28.4879

     occupation numbers 
     1.0000   1.0000   1.0000   1.0000   1.0000   1.0000   1.0000   1.0000
     1.0000   1.0000   1.0000   1.0000   1.0000   1.0000   1.0000   1.0000
     1.0000   1.0000   0.0000   0.0000   0.0000

          k = 0.0833 0.5292 0.0000 (  2859 PWs)   bands (ev):

   -77.4262 -77.4083 -40.8166 -40.7685 -40.7422 -40.6640 -40.6381 -40.5927
    13.8865  14.0270  14.1849  15.8401  15.8475  16.0589  16.4064  17.8989
    17.9496  17.9748  19.7297  22.6780  27.9369

     occupation numbers 
     1.0000   1.0000   1.0000   1.0000   1.0000   1.0000   1.0000   1.0000
     1.0000   1.0000   1.0000   1.0000   1.0000   1.0000   1.0000   1.0000
     1.0000   1.0000   0.0000   0.0000   0.0000

          k = 0.0833 0.5292 0.1022 (  2856 PWs)   bands (ev):

   -77.4250 -77.4095 -40.8312 -40.7850 -40.7184 -40.6580 -40.6332 -40.5960
    13.6712  14.0374  14.6150  15.1688  15.8953  16.4697  16.8145  17.7369
    17.9181  18.0039  19.6624  22.4108  26.7010

     occupation numbers 
     1.0000   1.0000   1.0000   1.0000   1.0000   1.0000   1.0000   1.0000
     1.0000   1.0000   1.0000   1.0000   1.0000   1.0000   1.0000   1.0000
     1.0000   1.0000   0.0000   0.0000   0.0000

          k = 0.0833 0.5292 0.2045 (  2858 PWs)   bands (ev):

   -77.4217 -77.4128 -40.8452 -40.8161 -40.6815 -40.6420 -40.6330 -40.6038
    13.5805  14.0097  14.7464  15.0449  16.0664  16.8002  17.2023  17.4690
    17.8782  18.0695  19.7020  21.5480  25.9976

     occupation numbers 
     1.0000   1.0000   1.0000   1.0000   1.0000   1.0000   1.0000   1.0000
     1.0000   1.0000   1.0000   1.0000   1.0000   1.0000   1.0000   1.0000
     1.0000   1.0000   0.0000   0.0000   0.0000

          k = 0.0833 0.5292-0.3067 (  2860 PWs)   bands (ev):

   -77.4172 -77.4172 -40.8400 -40.8400 -40.6532 -40.6532 -40.6177 -40.6177
    13.7353  13.7353  14.9148  14.9148  16.6071  16.6071  17.3278  17.3278
    17.9480  17.9480  20.4296  20.4296  26.2753

     occupation numbers 
     1.0000   1.0000   1.0000   1.0000   1.0000   1.0000   1.0000   1.0000
     1.0000   1.0000   1.0000   1.0000   1.0000   1.0000   1.0000   1.0000
     1.0000   1.0000   0.0000   0.0000   0.0000

          k = 0.1667 0.2887 0.0000 (  2848 PWs)   bands (ev):

   -77.4486 -77.4125 -40.8079 -40.7104 -40.7014 -40.6248 -40.5961 -40.5825
    12.2777  14.5477  14.8729  15.0184  15.9321  16.0612  16.5044  16.7550
    17.3038  17.6779  17.8797  23.7851  25.5860

     occupation numbers 
     1.0000   1.0000   1.0000   1.0000   1.0000   1.0000   1.0000   1.0000
     1.0000   1.0000   1.0000   1.0000   1.0000   1.0000   1.0000   1.0000
     1.0000   1.0000   1.0000   0.0000   0.0000

          k = 0.1667 0.2887 0.1022 (  2843 PWs)   bands (ev):

   -77.4462 -77.4149 -40.8059 -40.7093 -40.6967 -40.6335 -40.5916 -40.5863
    12.4616  14.6410  14.7306  15.0710  15.8937  16.0709  16.3909  16.8484
    17.4180  17.5036  17.9466  21.9048  27.9349

     occupation numbers 
     1.0000   1.0000   1.0000   1.0000   1.0000   1.0000   1.0000   1.0000
     1.0000   1.0000   1.0000   1.0000   1.0000   1.0000   1.0000   1.0000
     1.0000   1.0000   1.0000   0.0000   0.0000

          k = 0.1667 0.2887 0.2045 (  2843 PWs)   bands (ev):

   -77.4396 -77.4215 -40.7942 -40.7354 -40.6665 -40.6376 -40.5956 -40.5942
    12.9655  14.2954  14.8955  15.2219  15.7101  15.9372  16.3936  16.9716
    17.4674  17.6135  17.9801  19.8904  31.2876

     occupation numbers 
     1.0000   1.0000   1.0000   1.0000   1.0000   1.0000   1.0000   1.0000
     1.0000   1.0000   1.0000   1.0000   1.0000   1.0000   1.0000   1.0000
     1.0000   1.0000   1.0000   0.0000   0.0000

          k = 0.1667 0.2887-0.3067 (  2866 PWs)   bands (ev):

   -77.4306 -77.4306 -40.7687 -40.7687 -40.6415 -40.6415 -40.6017 -40.6017
    13.6458  13.6458  15.2123  15.2123  15.6594  15.6594  16.6689  16.6689
    17.7482  17.7482  18.4648  18.4648  33.2753

     occupation numbers 
     1.0000   1.0000   1.0000   1.0000   1.0000   1.0000   1.0000   1.0000
     1.0000   1.0000   1.0000   1.0000   1.0000   1.0000   1.0000   1.0000
     1.0000   1.0000   1.0000   1.0000   0.0000

          k = 0.1667 0.3849 0.0000 (  2857 PWs)   bands (ev):

   -77.4364 -77.4093 -40.7746 -40.7567 -40.7356 -40.6526 -40.6157 -40.6033
    13.3780  14.5189  14.5312  14.9957  15.7724  16.2022  16.3068  17.0706
    17.7439  17.8715  18.4862  25.6396  25.9996

     occupation numbers 
     1.0000   1.0000   1.0000   1.0000   1.0000   1.0000   1.0000   1.0000
     1.0000   1.0000   1.0000   1.0000   1.0000   1.0000   1.0000   1.0000
     1.0000   1.0000   1.0000   0.0000   0.0000

          k = 0.1667 0.3849 0.1022 (  2858 PWs)   bands (ev):

   -77.4346 -77.4111 -40.7956 -40.7533 -40.7151 -40.6596 -40.6124 -40.6024
    13.4538  14.4522  14.6279  15.0751  15.8195  16.1924  16.2639  17.1090
    17.6645  17.8299  18.5676  23.2005  28.1704

     occupation numbers 
     1.0000   1.0000   1.0000   1.0000   1.0000   1.0000   1.0000   1.0000
     1.0000   1.0000   1.0000   1.0000   1.0000   1.0000   1.0000   1.0000
     1.0000   1.0000   1.0000   0.0000   0.0000

          k = 0.1667 0.3849 0.2045 (  2853 PWs)   bands (ev):

   -77.4297 -77.4161 -40.8066 -40.7746 -40.6791 -40.6592 -40.6178 -40.6010
    13.6618  14.2513  14.8698  15.2991  15.7367  16.0346  16.4041  17.0876
    17.5742  17.9763  18.7456  21.0097  29.1661

     occupation numbers 
     1.0000   1.0000   1.0000   1.0000   1.0000   1.0000   1.0000   1.0000
     1.0000   1.0000   1.0000   1.0000   1.0000   1.0000   1.0000   1.0000
     1.0000   1.0000   0.0000   0.0000   0.0000

          k = 0.1667 0.3849-0.3067 (  2848 PWs)   bands (ev):

   -77.4229 -77.4229 -40.7977 -40.7977 -40.6596 -40.6596 -40.6119 -40.6119
    13.9532  13.9532  15.2040  15.2040  15.8210  15.8210  16.6786  16.6786
    17.9576  17.9576  19.4292  19.4292  30.3058

     occupation numbers 
     1.0000   1.0000   1.0000   1.0000   1.0000   1.0000   1.0000   1.0000
     1.0000   1.0000   1.0000   1.0000   1.0000   1.0000   1.0000   1.0000
     1.0000   1.0000   0.0000   0.0000   0.0000

          k = 0.1667 0.4811 0.0000 (  2870 PWs)   bands (ev):

   -77.4262 -77.4083 -40.7934 -40.7530 -40.7426 -40.6784 -40.6377 -40.6174
    14.0729  14.3017  14.3290  15.3070  15.7313  16.0887  16.4037  17.4907
    17.8647  17.9569  19.6654  24.3414  27.6513

     occupation numbers 
     1.0000   1.0000   1.0000   1.0000   1.0000   1.0000   1.0000   1.0000
     1.0000   1.0000   1.0000   1.0000   1.0000   1.0000   1.0000   1.0000
     1.0000   1.0000   0.0000   0.0000   0.0000

          k = 0.1667 0.4811 0.1022 (  2857 PWs)   bands (ev):

   -77.4250 -77.4095 -40.8087 -40.7723 -40.7172 -40.6751 -40.6353 -40.6138
    13.9118  14.3860  14.5696  15.1166  15.7815  16.2292  16.4826  17.4766
    17.6758  18.0165  19.7456  23.7654  26.5214

     occupation numbers 
     1.0000   1.0000   1.0000   1.0000   1.0000   1.0000   1.0000   1.0000
     1.0000   1.0000   1.0000   1.0000   1.0000   1.0000   1.0000   1.0000
     1.0000   1.0000   0.0000   0.0000   0.0000

          k = 0.1667 0.4811 0.2045 (  2856 PWs)   bands (ev):

   -77.4217 -77.4127 -40.8241 -40.7997 -40.6945 -40.6623 -40.6341 -40.6076
    13.8684  14.3026  14.7655  15.2986  15.6783  16.3602  16.7101  17.1706
    17.6648  18.0895  20.0511  22.2387  26.6218

     occupation numbers 
     1.0000   1.0000   1.0000   1.0000   1.0000   1.0000   1.0000   1.0000
     1.0000   1.0000   1.0000   1.0000   1.0000   1.0000   1.0000   1.0000
     1.0000   1.0000   0.0000   0.0000   0.0000

          k = 0.1667 0.4811-0.3067 (  2850 PWs)   bands (ev):

   -77.4172 -77.4172 -40.8208 -40.8208 -40.6747 -40.6747 -40.6155 -40.6155
    14.0220  14.0220  15.1006  15.1006  16.0844  16.0844  16.8657  16.8657
    17.9618  17.9618  20.8467  20.8467  27.4948

     occupation numbers 
     1.0000   1.0000   1.0000   1.0000   1.0000   1.0000   1.0000   1.0000
     1.0000   1.0000   1.0000   1.0000   1.0000   1.0000   1.0000   1.0000
     1.0000   1.0000   0.0000   0.0000   0.0000

          k = 0.1667 0.5774 0.0000 (  2866 PWs)   bands (ev):

   -77.4217 -77.4086 -40.8068 -40.7584 -40.7264 -40.6891 -40.6503 -40.6225
    14.2291  14.2301  14.2451  15.5290  15.7568  15.9687  16.4901  17.7768
    17.8620  17.9273  20.9311  22.5034  28.9557

     occupation numbers 
     1.0000   1.0000   1.0000   1.0000   1.0000   1.0000   1.0000   1.0000
     1.0000   1.0000   1.0000   1.0000   1.0000   1.0000   1.0000   1.0000
     1.0000   1.0000   0.0000   0.0000   0.0000

          k = 0.1667 0.5774 0.1022 (  2864 PWs)   bands (ev):

   -77.4208 -77.4095 -40.8186 -40.7760 -40.7187 -40.6720 -40.6493 -40.6186
    13.9342  14.3023  14.7345  15.0962  15.7033  16.3516  16.5744  17.6482
    17.7734  17.9764  21.0255  22.4508  27.8036

     occupation numbers 
     1.0000   1.0000   1.0000   1.0000   1.0000   1.0000   1.0000   1.0000
     1.0000   1.0000   1.0000   1.0000   1.0000   1.0000   1.0000   1.0000
     1.0000   1.0000   0.0000   0.0000   0.0000

          k = 0.1667 0.5774 0.2045 (  2864 PWs)   bands (ev):

   -77.4184 -77.4119 -40.8325 -40.8075 -40.7019 -40.6606 -40.6398 -40.6107
    13.8653  14.3152  14.8026  15.2534  15.5958  16.5588  16.8348  17.2403
    17.7894  18.0140  21.3223  22.2435  26.5531

     occupation numbers 
     1.0000   1.0000   1.0000   1.0000   1.0000   1.0000   1.0000   1.0000
     1.0000   1.0000   1.0000   1.0000   1.0000   1.0000   1.0000   1.0000
     1.0000   1.0000   0.0000   0.0000   0.0000

          k = 0.1667 0.5774-0.3067 (  2862 PWs)   bands (ev):

   -77.4152 -77.4152 -40.8295 -40.8295 -40.6807 -40.6807 -40.6162 -40.6162
    14.0252  14.0252  15.0602  15.0602  16.1222  16.1222  17.0720  17.0720
    17.8997  17.8997  21.8095  21.8095  26.0630

     occupation numbers 
     1.0000   1.0000   1.0000   1.0000   1.0000   1.0000   1.0000   1.0000
     1.0000   1.0000   1.0000   1.0000   1.0000   1.0000   1.0000   1.0000
     1.0000   1.0000   0.0000   0.0000   0.0000

          k = 0.2500 0.4330 0.0000 (  2864 PWs)   bands (ev):

   -77.4262 -77.4082 -40.7733 -40.7531 -40.7428 -40.6803 -40.6375 -40.6358
    14.2091  14.3693  14.7329  14.7715  15.6581  16.1110  16.4127  17.2512
    17.8209  17.9600  19.6772  26.0817  26.8918

     occupation numbers 
     1.0000   1.0000   1.0000   1.0000   1.0000   1.0000   1.0000   1.0000
     1.0000   1.0000   1.0000   1.0000   1.0000   1.0000   1.0000   1.0000
     1.0000   1.0000   0.0000   0.0000   0.0000

          k = 0.2500 0.4330 0.1022 (  2857 PWs)   bands (ev):

   -77.4250 -77.4094 -40.7867 -40.7777 -40.7038 -40.6939 -40.6384 -40.6222
    14.2102  14.3217  14.7817  14.9092  15.8090  15.9659  16.4110  17.2909
    17.6209  18.0233  19.7985  24.5222  27.1698

     occupation numbers 
     1.0000   1.0000   1.0000   1.0000   1.0000   1.0000   1.0000   1.0000
     1.0000   1.0000   1.0000   1.0000   1.0000   1.0000   1.0000   1.0000
     1.0000   1.0000   0.0000   0.0000   0.0000

          k = 0.2500 0.4330 0.2045 (  2855 PWs)   bands (ev):

   -77.4217 -77.4127 -40.8082 -40.7934 -40.6986 -40.6791 -40.6341 -40.6091
    14.2038  14.2664  14.9442  15.2862  15.6438  15.9199  16.4512  17.0804
    17.6321  18.0972  20.1678  22.5107  27.9403

     occupation numbers 
     1.0000   1.0000   1.0000   1.0000   1.0000   1.0000   1.0000   1.0000
     1.0000   1.0000   1.0000   1.0000   1.0000   1.0000   1.0000   1.0000
     1.0000   1.0000   0.0000   0.0000   0.0000

          k = 0.2500 0.4330-0.3067 (  2850 PWs)   bands (ev):

   -77.4172 -77.4172 -40.8089 -40.8089 -40.6874 -40.6874 -40.6149 -40.6149
    14.2230  14.2230  15.2580  15.2580  15.7087  15.7087  16.6603  16.6603
    17.9812  17.9812  21.0030  21.0030  28.9521

     occupation numbers 
     1.0000   1.0000   1.0000   1.0000   1.0000   1.0000   1.0000   1.0000
     1.0000   1.0000   1.0000   1.0000   1.0000   1.0000   1.0000   1.0000
     1.0000   1.0000   0.0000   0.0000   0.0000

          k = 0.2500 0.5292 0.0000 (  2871 PWs)   bands (ev):

   -77.4186 -77.4093 -40.7858 -40.7446 -40.7143 -40.7099 -40.6602 -40.6568
    14.3014  14.4996  14.5939  15.0902  15.6754  15.9058  16.5802  17.5333
    17.7913  17.8928  21.3386  23.9053  26.2388

     occupation numbers 
     1.0000   1.0000   1.0000   1.0000   1.0000   1.0000   1.0000   1.0000
     1.0000   1.0000   1.0000   1.0000   1.0000   1.0000   1.0000   1.0000
     1.0000   1.0000   0.0000   0.0000   0.0000

          k = 0.2500 0.5292 0.1022 (  2870 PWs)   bands (ev):

   -77.4180 -77.4100 -40.7927 -40.7674 -40.7291 -40.6828 -40.6623 -40.6370
    14.2456  14.6215  14.7144  14.9831  15.7020  15.9129  16.5908  17.5368
    17.6003  17.9371  21.5219  23.9184  26.2648

     occupation numbers 
     1.0000   1.0000   1.0000   1.0000   1.0000   1.0000   1.0000   1.0000
     1.0000   1.0000   1.0000   1.0000   1.0000   1.0000   1.0000   1.0000
     1.0000   1.0000   0.0000   0.0000   0.0000

          k = 0.2500 0.5292 0.2045 (  2863 PWs)   bands (ev):

   -77.4163 -77.4116 -40.8087 -40.7946 -40.7274 -40.6888 -40.6352 -40.6164
    14.2601  14.6114  14.8702  15.1673  15.5653  15.9374  16.6433  17.1038
    17.7056  17.9795  22.0105  23.6096  26.1749

     occupation numbers 
     1.0000   1.0000   1.0000   1.0000   1.0000   1.0000   1.0000   1.0000
     1.0000   1.0000   1.0000   1.0000   1.0000   1.0000   1.0000   1.0000
     1.0000   1.0000   0.0000   0.0000   0.0000

          k = 0.2500 0.5292-0.3067 (  2864 PWs)   bands (ev):

   -77.4140 -77.4140 -40.8113 -40.8113 -40.7092 -40.7092 -40.6150 -40.6150
    14.3948  14.3948  15.1562  15.1562  15.7141  15.7141  16.7726  16.7726
    17.8921  17.8921  22.7699  22.7699  26.7140

     occupation numbers 
     1.0000   1.0000   1.0000   1.0000   1.0000   1.0000   1.0000   1.0000
     1.0000   1.0000   1.0000   1.0000   1.0000   1.0000   1.0000   1.0000
     1.0000   1.0000   0.0000   0.0000   0.0000

          k = 0.3333 0.5774 0.0000 (  2856 PWs)   bands (ev):

   -77.4128 -77.4128 -40.7757 -40.7299 -40.7299 -40.6862 -40.6862 -40.6817
    14.3137  14.6967  14.6967  14.9692  15.7413  15.7413  16.6792  17.6813
    17.6813  17.7620  23.0833  23.9073  23.9073

     occupation numbers 
     1.0000   1.0000   1.0000   1.0000   1.0000   1.0000   1.0000   1.0000
     1.0000   1.0000   1.0000   1.0000   1.0000   1.0000   1.0000   1.0000
     1.0000   1.0000   0.0000   0.0000   0.0000

          k = 0.3333 0.5774 0.1022 (  2865 PWs)   bands (ev):

   -77.4128 -77.4128 -40.7695 -40.7583 -40.7583 -40.6880 -40.6576 -40.6576
    14.4069  14.7148  14.7148  14.9869  15.7185  15.7185  16.6530  17.5355
    17.7241  17.7241  23.4754  23.9783  23.9783

     occupation numbers 
     1.0000   1.0000   1.0000   1.0000   1.0000   1.0000   1.0000   1.0000
     1.0000   1.0000   1.0000   1.0000   1.0000   1.0000   1.0000   1.0000
     1.0000   1.0000   0.0000   0.0000   0.0000

          k = 0.3333 0.5774 0.2045 (  2856 PWs)   bands (ev):

   -77.4128 -77.4128 -40.7894 -40.7894 -40.7523 -40.7053 -40.6263 -40.6263
    14.6451  14.7488  14.7488  14.9978  15.6798  15.6798  16.6199  17.0699
    17.8061  17.8061  24.1546  24.1546  24.4838

     occupation numbers 
     1.0000   1.0000   1.0000   1.0000   1.0000   1.0000   1.0000   1.0000
     1.0000   1.0000   1.0000   1.0000   1.0000   1.0000   1.0000   1.0000
     1.0000   1.0000   0.0000   0.0000   0.0000

          k = 0.3333 0.5774-0.3067 (  2862 PWs)   bands (ev):

   -77.4128 -77.4128 -40.8011 -40.8011 -40.7288 -40.7288 -40.6145 -40.6144
    14.7645  14.7645  14.8929  14.8929  15.6637  15.6637  16.7175  16.7175
    17.8454  17.8454  24.2683  24.2683  25.8766

     occupation numbers 
     1.0000   1.0000   1.0000   1.0000   1.0000   1.0000   1.0000   1.0000
     1.0000   1.0000   1.0000   1.0000   1.0000   1.0000   1.0000   1.0000
     1.0000   1.0000   0.0000   0.0000   0.0000

 ------ SPIN DOWN ----------


          k = 0.0000 0.0000 0.0000 (  2875 PWs)   bands (ev):

   -75.3365 -75.2779 -38.8030 -38.4996 -38.4996 -38.4538 -38.4508 -38.4508
     9.6743  14.4305  17.6600  17.7457  17.7457  18.1051  18.1051  18.2847
    18.5721  18.5721  19.7711  19.7711  25.9105

     occupation numbers 
     1.0000   1.0000   1.0000   1.0000   1.0000   1.0000   1.0000   1.0000
[...]
    19.9303  19.9716  21.1116  23.6201  28.4598

     occupation numbers 
     1.0000   1.0000   1.0000   1.0000   1.0000   1.0000   1.0000   1.0000
     1.0000   1.0000   1.0000   1.0000   1.0000   1.0000   1.0000   0.0000
     0.0000   0.0000   0.0000   0.0000   0.0000

          k = 0.0833 0.5292 0.1022 (  2856 PWs)   bands (ev):

   -75.2773 -75.2606 -38.7673 -38.7177 -38.6279 -38.5794 -38.5345 -38.5113
    14.6364  15.2509  15.7982  16.3401  17.5825  18.0623  18.1039  19.7084
    19.8665  19.9682  20.9754  23.2773  27.4406

     occupation numbers 
     1.0000   1.0000   1.0000   1.0000   1.0000   1.0000   1.0000   1.0000
     1.0000   1.0000   1.0000   1.0000   1.0000   1.0000   1.0000   0.0000
     0.0000   0.0000   0.0000   0.0000   0.0000

          k = 0.0833 0.5292 0.2045 (  2858 PWs)   bands (ev):

   -75.2737 -75.2641 -38.7806 -38.7497 -38.5929 -38.5574 -38.5425 -38.5147
    14.6144  15.0900  16.0982  16.4055  17.6243  18.3859  18.5769  19.2512
    19.8191  20.0506  20.7620  22.3379  26.9200

     occupation numbers 
     1.0000   1.0000   1.0000   1.0000   1.0000   1.0000   1.0000   1.0000
     1.0000   1.0000   1.0000   1.0000   1.0000   1.0000   1.0000   0.0000
     0.0000   0.0000   0.0000   0.0000   0.0000

          k = 0.0833 0.5292-0.3067 (  2860 PWs)   bands (ev):

   -75.2689 -75.2689 -38.7747 -38.7747 -38.5653 -38.5653 -38.5288 -38.5288
    14.7906  14.7906  16.3547  16.3547  18.1237  18.1237  18.8990  18.8990
    19.9034  19.9034  21.2887  21.2887  27.1782

     occupation numbers 
     1.0000   1.0000   1.0000   1.0000   1.0000   1.0000   1.0000   1.0000
     1.0000   1.0000   1.0000   1.0000   1.0000   1.0000   0.0000   0.0000
     0.0000   0.0000   0.0000   0.0000   0.0000

          k = 0.1667 0.2887 0.0000 (  2848 PWs)   bands (ev):

   -75.3028 -75.2638 -38.7221 -38.6378 -38.6287 -38.5443 -38.4984 -38.4907
    12.3563  15.7633  16.0672  16.4507  17.6371  17.6692  18.2125  18.5531
    19.1448  19.5002  19.8907  24.5901  26.3631

     occupation numbers 
     1.0000   1.0000   1.0000   1.0000   1.0000   1.0000   1.0000   1.0000
     1.0000   1.0000   1.0000   1.0000   1.0000   1.0000   1.0000   1.0000
     0.0000   0.0000   0.0000   0.0000   0.0000

          k = 0.1667 0.2887 0.1022 (  2843 PWs)   bands (ev):

   -75.3002 -75.2665 -38.7229 -38.6357 -38.6199 -38.5504 -38.5025 -38.4907
    12.5672  15.6717  15.9878  16.5167  17.5375  17.6949  18.1075  18.6545
    19.2713  19.3756  19.8999  22.9498  28.5480

     occupation numbers 
     1.0000   1.0000   1.0000   1.0000   1.0000   1.0000   1.0000   1.0000
     1.0000   1.0000   1.0000   1.0000   1.0000   1.0000   1.0000   0.1386
     0.0000   0.0000   0.0000   0.0000   0.0000

          k = 0.1667 0.2887 0.2045 (  2843 PWs)   bands (ev):

   -75.2931 -75.2736 -38.7149 -38.6597 -38.5825 -38.5531 -38.5124 -38.4998
    13.1654  14.9779  16.2432  16.6848  17.2663  17.5333  18.1627  18.7558
    19.3651  19.4951  19.8538  21.2487  31.7830

     occupation numbers 
     1.0000   1.0000   1.0000   1.0000   1.0000   1.0000   1.0000   1.0000
     1.0000   1.0000   1.0000   1.0000   1.0000   1.0000   1.0000   0.0000
     0.0000   0.0000   0.0000   0.0000   0.0000

          k = 0.1667 0.2887-0.3067 (  2866 PWs)   bands (ev):

   -75.2833 -75.2833 -38.6914 -38.6914 -38.5541 -38.5541 -38.5157 -38.5157
    14.0386  14.0386  16.6189  16.6189  17.2226  17.2226  18.4660  18.4660
    19.6828  19.6828  20.0805  20.0805  33.7076

     occupation numbers 
     1.0000   1.0000   1.0000   1.0000   1.0000   1.0000   1.0000   1.0000
     1.0000   1.0000   1.0000   1.0000   1.0000   1.0000   1.0000   1.0000
     0.0000   0.0000   0.0000   0.0000   0.0000

          k = 0.1667 0.3849 0.0000 (  2857 PWs)   bands (ev):

   -75.2897 -75.2604 -38.6888 -38.6856 -38.6656 -38.5746 -38.5209 -38.5119
    13.6138  15.7758  15.8372  16.2637  17.4314  17.8025  17.9724  18.9013
    19.6499  19.8810  20.2291  26.3553  26.6316

     occupation numbers 
     1.0000   1.0000   1.0000   1.0000   1.0000   1.0000   1.0000   1.0000
     1.0000   1.0000   1.0000   1.0000   1.0000   1.0000   1.0000   0.0000
     0.0000   0.0000   0.0000   0.0000   0.0000

          k = 0.1667 0.3849 0.1022 (  2858 PWs)   bands (ev):

   -75.2877 -75.2624 -38.7193 -38.6830 -38.6332 -38.5793 -38.5267 -38.5057
    13.7605  15.6369  15.9390  16.3659  17.3975  17.7787  17.9263  18.9481
    19.6194  19.7513  20.3321  24.0435  28.7981

     occupation numbers 
     1.0000   1.0000   1.0000   1.0000   1.0000   1.0000   1.0000   1.0000
     1.0000   1.0000   1.0000   1.0000   1.0000   1.0000   1.0000   0.0000
     0.0000   0.0000   0.0000   0.0000   0.0000

          k = 0.1667 0.3849 0.2045 (  2853 PWs)   bands (ev):

   -75.2823 -75.2677 -38.7337 -38.7038 -38.5936 -38.5758 -38.5345 -38.5058
    14.1628  15.2548  16.2184  16.5775  17.2523  17.5041  18.1173  18.9307
    19.4713  19.9334  20.4128  22.0692  29.7793

     occupation numbers 
     1.0000   1.0000   1.0000   1.0000   1.0000   1.0000   1.0000   1.0000
     1.0000   1.0000   1.0000   1.0000   1.0000   1.0000   1.0000   0.0000
     0.0000   0.0000   0.0000   0.0000   0.0000

          k = 0.1667 0.3849-0.3067 (  2848 PWs)   bands (ev):

   -75.2750 -75.2750 -38.7261 -38.7261 -38.5755 -38.5755 -38.5220 -38.5220
    14.7126  14.7126  16.5577  16.5577  17.2293  17.2293  18.4837  18.4837
    19.9259  19.9259  20.7584  20.7584  30.8768

     occupation numbers 
     1.0000   1.0000   1.0000   1.0000   1.0000   1.0000   1.0000   1.0000
     1.0000   1.0000   1.0000   1.0000   1.0000   1.0000   1.0000   1.0000
     0.0000   0.0000   0.0000   0.0000   0.0000

          k = 0.1667 0.4811 0.0000 (  2870 PWs)   bands (ev):

   -75.2786 -75.2593 -38.7290 -38.6845 -38.6504 -38.6027 -38.5363 -38.5359
    14.7204  15.6076  15.6134  16.3170  17.3710  17.7021  18.0386  19.3650
    19.8730  19.9047  21.1429  25.1004  28.2587

     occupation numbers 
     1.0000   1.0000   1.0000   1.0000   1.0000   1.0000   1.0000   1.0000
     1.0000   1.0000   1.0000   1.0000   1.0000   1.0000   1.0000   0.0000
     0.0000   0.0000   0.0000   0.0000   0.0000

          k = 0.1667 0.4811 0.1022 (  2857 PWs)   bands (ev):

   -75.2773 -75.2606 -38.7417 -38.7027 -38.6310 -38.5946 -38.5475 -38.5213
    14.7356  15.5576  15.7812  16.3506  17.3815  17.6766  18.1134  19.3600
    19.6400  19.9788  21.1919  24.4701  27.2996

     occupation numbers 
     1.0000   1.0000   1.0000   1.0000   1.0000   1.0000   1.0000   1.0000
     1.0000   1.0000   1.0000   1.0000   1.0000   1.0000   1.0000   0.0000
     0.0000   0.0000   0.0000   0.0000   0.0000

          k = 0.1667 0.4811 0.2045 (  2856 PWs)   bands (ev):

   -75.2738 -75.2641 -38.7563 -38.7311 -38.6133 -38.5774 -38.5476 -38.5127
    14.8367  15.3553  16.1096  16.6147  17.2098  17.6530  18.3383  19.0482
    19.5792  20.0746  21.3392  23.0275  27.4421

     occupation numbers 
     1.0000   1.0000   1.0000   1.0000   1.0000   1.0000   1.0000   1.0000
     1.0000   1.0000   1.0000   1.0000   1.0000   1.0000   1.0000   0.0000
     0.0000   0.0000   0.0000   0.0000   0.0000

          k = 0.1667 0.4811-0.3067 (  2850 PWs)   bands (ev):

   -75.2689 -75.2689 -38.7529 -38.7529 -38.5935 -38.5935 -38.5228 -38.5228
    15.0617  15.0617  16.5138  16.5138  17.3913  17.3913  18.6176  18.6176
    19.9174  19.9174  21.8606  21.8606  28.2446

     occupation numbers 
     1.0000   1.0000   1.0000   1.0000   1.0000   1.0000   1.0000   1.0000
     1.0000   1.0000   1.0000   1.0000   1.0000   1.0000   0.9970   0.9970
     0.0000   0.0000   0.0000   0.0000   0.0000

          k = 0.1667 0.5774 0.0000 (  2866 PWs)   bands (ev):

   -75.2738 -75.2597 -38.7436 -38.6904 -38.6326 -38.6143 -38.5496 -38.5418
    15.1859  15.4744  15.5535  16.3819  17.4239  17.5274  18.1441  19.6920
    19.8697  19.8779  22.0502  23.5385  29.3866

     occupation numbers 
     1.0000   1.0000   1.0000   1.0000   1.0000   1.0000   1.0000   1.0000
     1.0000   1.0000   1.0000   1.0000   1.0000   1.0000   1.0000   0.0000
     0.0000   0.0000   0.0000   0.0000   0.0000

          k = 0.1667 0.5774 0.1022 (  2864 PWs)   bands (ev):

   -75.2728 -75.2606 -38.7537 -38.7075 -38.6344 -38.5882 -38.5596 -38.5286
    15.0324  15.5178  15.9268  16.2003  17.3403  17.7093  18.2278  19.6132
    19.6911  19.9384  22.0771  23.4380  28.4233

     occupation numbers 
     1.0000   1.0000   1.0000   1.0000   1.0000   1.0000   1.0000   1.0000
     1.0000   1.0000   1.0000   1.0000   1.0000   1.0000   1.0000   0.0000
     0.0000   0.0000   0.0000   0.0000   0.0000

          k = 0.1667 0.5774 0.2045 (  2864 PWs)   bands (ev):

   -75.2702 -75.2632 -38.7666 -38.7396 -38.6220 -38.5776 -38.5495 -38.5165
    14.9890  15.4157  16.1780  16.5275  17.1220  17.8279  18.4862  19.1175
    19.7196  19.9858  22.2004  23.1067  27.3522

     occupation numbers 
     1.0000   1.0000   1.0000   1.0000   1.0000   1.0000   1.0000   1.0000
     1.0000   1.0000   1.0000   1.0000   1.0000   1.0000   1.0000   0.0000
     0.0000   0.0000   0.0000   0.0000   0.0000

          k = 0.1667 0.5774-0.3067 (  2862 PWs)   bands (ev):

   -75.2667 -75.2667 -38.7628 -38.7628 -38.6004 -38.6004 -38.5226 -38.5226
    15.1441  15.1441  16.5043  16.5043  17.4458  17.4458  18.7807  18.7807
    19.8527  19.8527  22.5929  22.5929  26.9763

     occupation numbers 
     1.0000   1.0000   1.0000   1.0000   1.0000   1.0000   1.0000   1.0000
     1.0000   1.0000   1.0000   1.0000   1.0000   1.0000   0.0000   0.0000
     0.0000   0.0000   0.0000   0.0000   0.0000

          k = 0.2500 0.4330 0.0000 (  2864 PWs)   bands (ev):

   -75.2786 -75.2592 -38.7070 -38.6845 -38.6506 -38.6049 -38.5564 -38.5357
    14.7311  15.6844  15.9583  15.9919  17.2746  17.7310  18.0434  19.1134
    19.8226  19.9056  21.1853  26.6539  27.5151

     occupation numbers 
     1.0000   1.0000   1.0000   1.0000   1.0000   1.0000   1.0000   1.0000
     1.0000   1.0000   1.0000   1.0000   1.0000   1.0000   1.0000   0.0000
     0.0000   0.0000   0.0000   0.0000   0.0000

          k = 0.2500 0.4330 0.1022 (  2857 PWs)   bands (ev):

   -75.2773 -75.2605 -38.7135 -38.7107 -38.6165 -38.6163 -38.5586 -38.5235
    14.8094  15.6009  16.0257  16.1756  17.3149  17.5503  18.0532  19.1596
    19.5806  19.9863  21.2861  25.1904  27.7985

     occupation numbers 
     1.0000   1.0000   1.0000   1.0000   1.0000   1.0000   1.0000   1.0000
     1.0000   1.0000   1.0000   1.0000   1.0000   1.0000   1.0000   0.0000
     0.0000   0.0000   0.0000   0.0000   0.0000

          k = 0.2500 0.4330 0.2045 (  2855 PWs)   bands (ev):

   -75.2738 -75.2641 -38.7370 -38.7248 -38.6212 -38.5964 -38.5469 -38.5124
    15.0097  15.4571  16.2443  16.5280  17.1634  17.2838  18.1447  18.9480
    19.5378  20.0837  21.5177  23.3415  28.5691

     occupation numbers 
     1.0000   1.0000   1.0000   1.0000   1.0000   1.0000   1.0000   1.0000
     1.0000   1.0000   1.0000   1.0000   1.0000   1.0000   1.0000   0.0000
     0.0000   0.0000   0.0000   0.0000   0.0000

          k = 0.2500 0.4330-0.3067 (  2850 PWs)   bands (ev):

   -75.2689 -75.2689 -38.7391 -38.7391 -38.6091 -38.6091 -38.5211 -38.5211
    15.2519  15.2519  16.5805  16.5805  17.0576  17.0576  18.4479  18.4479
    19.9415  19.9415  22.0758  22.0758  29.5682

     occupation numbers 
     1.0000   1.0000   1.0000   1.0000   1.0000   1.0000   1.0000   1.0000
     1.0000   1.0000   1.0000   1.0000   1.0000   1.0000   1.0000   1.0000
     0.0000   0.0000   0.0000   0.0000   0.0000

          k = 0.2500 0.5292 0.0000 (  2871 PWs)   bands (ev):

   -75.2704 -75.2604 -38.7205 -38.6752 -38.6373 -38.6195 -38.5792 -38.5604
    15.4510  15.6592  15.8004  16.0758  17.2745  17.4809  18.2436  19.4271
    19.7883  19.8354  22.4720  24.7221  26.8272

     occupation numbers 
     1.0000   1.0000   1.0000   1.0000   1.0000   1.0000   1.0000   1.0000
     1.0000   1.0000   1.0000   1.0000   1.0000   1.0000   1.0000   0.0000
     0.0000   0.0000   0.0000   0.0000   0.0000

          k = 0.2500 0.5292 0.1022 (  2870 PWs)   bands (ev):

   -75.2698 -75.2611 -38.7256 -38.6963 -38.6534 -38.5974 -38.5782 -38.5411
    15.4086  15.7767  15.8829  16.1417  17.2481  17.3806  18.2581  19.4506
    19.5428  19.8916  22.6303  24.6927  26.8833

     occupation numbers 
     1.0000   1.0000   1.0000   1.0000   1.0000   1.0000   1.0000   1.0000
     1.0000   1.0000   1.0000   1.0000   1.0000   1.0000   1.0000   0.0000
     0.0000   0.0000   0.0000   0.0000   0.0000

          k = 0.2500 0.5292 0.2045 (  2863 PWs)   bands (ev):

   -75.2679 -75.2629 -38.7395 -38.7244 -38.6534 -38.6117 -38.5424 -38.5202
    15.4419  15.7317  16.1594  16.4850  16.9906  17.2410  18.3343  18.9788
    19.6303  19.9450  23.0067  24.3194  26.9410

     occupation numbers 
     1.0000   1.0000   1.0000   1.0000   1.0000   1.0000   1.0000   1.0000
     1.0000   1.0000   1.0000   1.0000   1.0000   1.0000   1.0000   0.0000
     0.0000   0.0000   0.0000   0.0000   0.0000

          k = 0.2500 0.5292-0.3067 (  2864 PWs)   bands (ev):

   -75.2654 -75.2654 -38.7417 -38.7417 -38.6344 -38.6344 -38.5196 -38.5196
    15.5728  15.5728  16.5523  16.5523  16.9575  16.9575  18.5456  18.5456
    19.8424  19.8424  23.5915  23.5915  27.4805

     occupation numbers 
     1.0000   1.0000   1.0000   1.0000   1.0000   1.0000   1.0000   1.0000
     1.0000   1.0000   1.0000   1.0000   1.0000   1.0000   1.0000   1.0000
     0.0000   0.0000   0.0000   0.0000   0.0000

          k = 0.3333 0.5774 0.0000 (  2856 PWs)   bands (ev):

   -75.2642 -75.2642 -38.7093 -38.6593 -38.6593 -38.6063 -38.5887 -38.5887
    15.6979  15.8034  15.8034  15.9950  17.3098  17.3098  18.3520  19.5985
    19.5985  19.7547  23.9239  24.7199  24.7199

     occupation numbers 
     1.0000   1.0000   1.0000   1.0000   1.0000   1.0000   1.0000   1.0000
     1.0000   1.0000   1.0000   1.0000   1.0000   1.0000   1.0000   0.0000
     0.0000   0.0000   0.0000   0.0000   0.0000

          k = 0.3333 0.5774 0.1022 (  2865 PWs)   bands (ev):

   -75.2641 -75.2641 -38.7025 -38.6848 -38.6848 -38.6132 -38.5630 -38.5630
    15.7702  15.8755  15.8755  16.0264  17.2232  17.2232  18.3331  19.4854
    19.6504  19.6504  24.3321  24.7660  24.7660

     occupation numbers 
     1.0000   1.0000   1.0000   1.0000   1.0000   1.0000   1.0000   1.0000
     1.0000   1.0000   1.0000   1.0000   1.0000   1.0000   1.0000   0.0000
     0.0000   0.0000   0.0000   0.0000   0.0000

          k = 0.3333 0.5774 0.2045 (  2856 PWs)   bands (ev):

   -75.2641 -75.2641 -38.7167 -38.7167 -38.6837 -38.6321 -38.5308 -38.5308
    15.9389  16.0475  16.0475  16.0843  17.0302  17.0302  18.3360  18.9464
    19.7461  19.7461  24.8800  24.8800  25.3286

     occupation numbers 
     1.0000   1.0000   1.0000   1.0000   1.0000   1.0000   1.0000   1.0000
     1.0000   1.0000   1.0000   1.0000   1.0000   1.0000   1.0000   0.0000
     0.0000   0.0000   0.0000   0.0000   0.0000

          k = 0.3333 0.5774-0.3067 (  2862 PWs)   bands (ev):

   -75.2641 -75.2641 -38.7291 -38.7291 -38.6580 -38.6580 -38.5183 -38.5183
    16.0742  16.0742  16.1598  16.1598  16.9109  16.9109  18.5114  18.5114
    19.7904  19.7904  24.9523  24.9523  26.6472

     occupation numbers 
     1.0000   1.0000   1.0000   1.0000   1.0000   1.0000   1.0000   1.0000
     1.0000   1.0000   1.0000   1.0000   1.0000   1.0000   1.0000   1.0000
     0.0000   0.0000   0.0000   0.0000   0.0000

     the Fermi energy is    18.6440 ev

!    total energy              =    -753.45510579 Ry
     total all-electron energy =     -5573.811797 Ry
     estimated scf accuracy    <       0.00000005 Ry
     smearing contrib. (-TS)   =      -0.00002041 Ry
     internal energy E=F+TS    =    -753.45508538 Ry

     The total energy is F=E-TS. E is the sum of the following terms:
     one-electron contribution =    -283.09887201 Ry
     hartree contribution      =     165.14416727 Ry
     xc contribution           =     -61.40176995 Ry
     ewald contribution        =    -398.92299456 Ry
     one-center paw contrib.   =    -175.17561613 Ry
      -> PAW hartree energy AE =     221.97874555 Ry
      -> PAW hartree energy PS =    -220.92356986 Ry
      -> PAW xc energy AE      =    -117.67109985 Ry
      -> PAW xc energy PS      =      29.02811609 Ry
      -> total E_H with PAW    =     166.19934296 Ry
      -> total E_XC with PAW   =    -150.04475370 Ry

     total magnetization       =     3.36 Bohr mag/cell
     absolute magnetization    =     3.68 Bohr mag/cell

     convergence has been achieved in  13 iterations

     Writing all to output data dir ./out/Co.save/
 
     init_run     :      0.37s CPU      0.53s WALL (       1 calls)
     electrons    :     34.66s CPU     36.79s WALL (       1 calls)

     Called by init_run:
     wfcinit      :      0.22s CPU      0.35s WALL (       1 calls)
     potinit      :      0.10s CPU      0.13s WALL (       1 calls)
     hinit0       :      0.03s CPU      0.04s WALL (       1 calls)

     Called by electrons:
     c_bands      :     30.69s CPU     32.41s WALL (      13 calls)
     sum_band     :      2.57s CPU      2.69s WALL (      13 calls)
     v_of_rho     :      0.04s CPU      0.04s WALL (      14 calls)
     v_h          :      0.00s CPU      0.00s WALL (      14 calls)
     v_xc         :      0.04s CPU      0.04s WALL (      14 calls)
     newd         :      0.06s CPU      0.07s WALL (      14 calls)
     PAW_pot      :      1.36s CPU      1.66s WALL (      14 calls)
     mix_rho      :      0.01s CPU      0.01s WALL (      13 calls)

     Called by c_bands:
     init_us_2    :      0.17s CPU      0.17s WALL (    3952 calls)
     init_us_2:cp :      0.17s CPU      0.17s WALL (    3952 calls)
     cegterg      :     29.69s CPU     31.02s WALL (    2111 calls)

     Called by sum_band:
     sum_band:wei :      0.02s CPU      0.02s WALL (      13 calls)
     sum_band:loo :      2.42s CPU      2.54s WALL (      13 calls)
     sum_band:buf :      0.01s CPU      0.02s WALL (    1976 calls)
     sum_band:ini :      0.10s CPU      0.09s WALL (    1976 calls)
     sum_band:cal :      0.20s CPU      0.19s WALL (    1976 calls)
     sum_band:bec :      0.01s CPU      0.02s WALL (    1976 calls)
     addusdens    :      0.11s CPU      0.12s WALL (      13 calls)
                                        0.00s GPU  (      13 calls)
     addusd:skk   :      0.00s CPU      0.00s WALL (      13 calls)
                                        0.00s GPU  (      13 calls)

     Called by *egterg:
     cdiaghg      :      8.16s CPU      8.37s WALL (   13788 calls)
     cegterg:over :      1.04s CPU      1.00s WALL (   11964 calls)
     cegterg:upda :      0.13s CPU      0.26s WALL (   11964 calls)
     cegterg:last :      0.44s CPU      0.47s WALL (    7923 calls)
     h_psi        :     18.57s CPU     19.57s WALL (   14075 calls)
     s_psi        :      0.37s CPU      0.33s WALL (   14075 calls)
     g_psi        :      0.08s CPU      0.08s WALL (   11964 calls)

     Called by h_psi:
     h_psi:calbec :      0.97s CPU      0.92s WALL (   14075 calls)
     vloc_psi     :     17.29s CPU     18.17s WALL (   14075 calls)
     add_vuspsi   :      0.25s CPU      0.37s WALL (   14075 calls)

     General routines
     calbec       :      1.15s CPU      1.08s WALL (   16051 calls)
     fft          :      0.03s CPU      0.03s WALL (     344 calls)
     ffts         :      0.00s CPU      0.00s WALL (      54 calls)
     fftw         :     18.28s CPU     18.86s WALL (  409676 calls)
     interpolate  :      0.00s CPU      0.00s WALL (      28 calls)
 
     Parallel routines

     PAW routines
     PAW_pot      :      1.36s CPU      1.66s WALL (      14 calls)
     PAW_symme    :      0.01s CPU      0.01s WALL (      26 calls)
 
     PWSCF        :     35.33s CPU     38.17s WALL

 
   This run was terminated on:  16:42: 1  18Mar2024            

=------------------------------------------------------------------------------=
   JOB DONE.
=------------------------------------------------------------------------------=
