# E (eV) pdos(E) 
 -7.457 -0.335E-04
 -7.447  0.500E-03
 -7.437  0.206E-02
 -7.427  0.425E-02
 -7.417  0.651E-02
 -7.407  0.846E-02
 -7.397  0.103E-01
 -7.387  0.124E-01
 -7.377  0.146E-01
 -7.367  0.176E-01
 -7.357  0.219E-01
 -7.347  0.270E-01
 -7.337  0.327E-01
 -7.327  0.402E-01
 -7.317  0.491E-01
 -7.307  0.581E-01
 -7.297  0.653E-01
 -7.287  0.729E-01
 -7.277  0.829E-01
 -7.267  0.981E-01
 -7.257  0.112E+00
 -7.247  0.121E+00
 -7.237  0.128E+00
 -7.227  0.135E+00
 -7.217  0.141E+00
 -7.207  0.146E+00
 -7.197  0.149E+00
 -7.187  0.153E+00
 -7.177  0.157E+00
 -7.167  0.165E+00
 -7.157  0.182E+00
 -7.147  0.201E+00
 -7.137  0.217E+00
 -7.127  0.252E+00
 -7.117  0.304E+00
 -7.107  0.330E+00
 -7.097  0.329E+00
 -7.087  0.313E+00
 -7.077  0.311E+00
 -7.067  0.328E+00
 -7.057  0.345E+00
 -7.047  0.370E+00
 -7.037  0.395E+00
 -7.027  0.412E+00
 -7.017  0.427E+00
 -7.007  0.424E+00
 -6.997  0.441E+00
 -6.987  0.457E+00
 -6.977  0.490E+00
 -6.967  0.521E+00
 -6.957  0.545E+00
 -6.947  0.557E+00
 -6.937  0.593E+00
 -6.927  0.716E+00
 -6.917  0.922E+00
 -6.907  0.105E+01
 -6.897  0.113E+01
 -6.887  0.132E+01
 -6.877  0.114E+01
 -6.867  0.112E+01
 -6.857  0.111E+01
 -6.847  0.109E+01
 -6.837  0.110E+01
 -6.827  0.124E+01
 -6.817  0.130E+01
 -6.807  0.118E+01
 -6.797  0.106E+01
 -6.787  0.968E+00
 -6.777  0.904E+00
 -6.767  0.880E+00
 -6.757  0.897E+00
 -6.747  0.174E+01
 -6.737  0.154E+01
 -6.727  0.209E+01
 -6.717  0.160E+01
 -6.707  0.237E+01
 -6.697  0.303E+01
 -6.687  0.276E+01
 -6.677  0.246E+01
 -6.667  0.228E+01
 -6.657  0.307E+01
 -6.647  0.336E+01
 -6.637  0.354E+01
 -6.627  0.400E+01
 -6.617  0.412E+01
 -6.607  0.410E+01
 -6.597  0.409E+01
 -6.587  0.407E+01
 -6.577  0.455E+01
 -6.567  0.470E+01
 -6.557  0.466E+01
 -6.547  0.470E+01
 -6.537  0.487E+01
 -6.527  0.531E+01
 -6.517  0.705E+01
 -6.507  0.956E+01
 -6.497  0.663E+01
 -6.487  0.629E+01
 -6.477  0.530E+01
 -6.467  0.604E+01
 -6.457  0.891E+01
 -6.447  0.926E+01
 -6.437  0.607E+01
 -6.427  0.585E+01
 -6.417  0.525E+01
 -6.407  0.574E+01
 -6.397  0.638E+01
 -6.387  0.659E+01
 -6.377  0.810E+01
 -6.367  0.132E+02
 -6.357  0.140E+02
 -6.347  0.111E+02
 -6.337  0.103E+02
 -6.327  0.865E+01
 -6.317  0.595E+01
 -6.307  0.382E-02
 -6.297  0.000E+00
 -6.287  0.000E+00
 -6.277  0.000E+00
 -6.267  0.000E+00
 -6.257  0.000E+00
 -6.247  0.000E+00
 -6.237  0.000E+00
 -6.227  0.000E+00
 -6.217  0.000E+00
 -6.207  0.000E+00
 -6.197  0.000E+00
 -6.187  0.000E+00
 -6.177  0.000E+00
 -6.167  0.000E+00
 -6.157  0.000E+00
 -6.147  0.000E+00
 -6.137  0.000E+00
 -6.127  0.000E+00
 -6.117  0.000E+00
 -6.107  0.000E+00
 -6.097  0.000E+00
 -6.087  0.000E+00
 -6.077  0.000E+00
 -6.067  0.000E+00
 -6.057  0.000E+00
 -6.047  0.000E+00
 -6.037  0.000E+00
 -6.027  0.000E+00
 -6.017  0.000E+00
 -6.007  0.000E+00
 -5.997  0.000E+00
 -5.987  0.000E+00
 -5.977  0.000E+00
 -5.967  0.000E+00
 -5.957  0.000E+00
 -5.947  0.000E+00
 -5.937  0.000E+00
 -5.927  0.000E+00
 -5.917  0.000E+00
 -5.907  0.000E+00
 -5.897  0.000E+00
 -5.887  0.000E+00
 -5.877  0.000E+00
 -5.867  0.000E+00
 -5.857  0.000E+00
 -5.847  0.000E+00
 -5.837  0.000E+00
 -5.827  0.000E+00
 -5.817  0.000E+00
 -5.807  0.000E+00
 -5.797  0.000E+00
 -5.787  0.000E+00
 -5.777  0.000E+00
 -5.767  0.000E+00
 -5.757  0.000E+00
 -5.747  0.000E+00
 -5.737  0.000E+00
 -5.727  0.000E+00
 -5.717  0.000E+00
 -5.707  0.000E+00
 -5.697  0.000E+00
 -5.687  0.000E+00
 -5.677  0.000E+00
 -5.667  0.000E+00
 -5.657  0.000E+00
 -5.647  0.000E+00
 -5.637  0.000E+00
 -5.627  0.000E+00
 -5.617  0.000E+00
 -5.607  0.000E+00
 -5.597  0.000E+00
 -5.587  0.000E+00
 -5.577  0.000E+00
 -5.567  0.000E+00
 -5.557  0.000E+00
 -5.547  0.000E+00
 -5.537  0.000E+00
 -5.527  0.000E+00
 -5.517  0.000E+00
 -5.507  0.000E+00
 -5.497  0.000E+00
 -5.487  0.000E+00
 -5.477  0.000E+00
 -5.467  0.000E+00
 -5.457  0.000E+00
 -5.447  0.000E+00
 -5.437  0.000E+00
 -5.427  0.000E+00
 -5.417  0.000E+00
 -5.407  0.000E+00
 -5.397  0.000E+00
 -5.387  0.000E+00
 -5.377  0.000E+00
 -5.367  0.000E+00
 -5.357  0.000E+00
 -5.347  0.000E+00
 -5.337  0.000E+00
 -5.327  0.000E+00
 -5.317  0.000E+00
 -5.307  0.000E+00
 -5.297  0.000E+00
 -5.287  0.000E+00
 -5.277  0.000E+00
 -5.267  0.000E+00
 -5.257  0.000E+00
 -5.247  0.000E+00
 -5.237  0.000E+00
 -5.227  0.000E+00
 -5.217  0.000E+00
 -5.207  0.000E+00
 -5.197  0.000E+00
 -5.187  0.000E+00
 -5.177  0.000E+00
 -5.167  0.000E+00
 -5.157  0.000E+00
 -5.147  0.000E+00
 -5.137  0.000E+00
 -5.127  0.000E+00
 -5.117  0.000E+00
 -5.107  0.000E+00
 -5.097  0.000E+00
 -5.087  0.000E+00
 -5.077  0.000E+00
 -5.067  0.000E+00
 -5.057  0.000E+00
 -5.047  0.000E+00
 -5.037  0.000E+00
 -5.027  0.000E+00
 -5.017  0.000E+00
 -5.007  0.000E+00
 -4.997  0.000E+00
 -4.987  0.000E+00
 -4.977  0.000E+00
 -4.967  0.000E+00
 -4.957  0.000E+00
 -4.947  0.000E+00
 -4.937  0.000E+00
 -4.927  0.000E+00
 -4.917  0.000E+00
 -4.907  0.000E+00
 -4.897  0.000E+00
 -4.887  0.000E+00
 -4.877  0.000E+00
 -4.867  0.000E+00
 -4.857  0.000E+00
 -4.847  0.000E+00
 -4.837  0.000E+00
 -4.827  0.000E+00
 -4.817  0.000E+00
 -4.807  0.000E+00
 -4.797  0.000E+00
 -4.787  0.000E+00
 -4.777  0.000E+00
 -4.767  0.000E+00
 -4.757  0.000E+00
 -4.747  0.000E+00
 -4.737  0.000E+00
 -4.727  0.000E+00
 -4.717  0.000E+00
 -4.707  0.000E+00
 -4.697  0.000E+00
 -4.687  0.000E+00
 -4.677  0.000E+00
 -4.667  0.000E+00
 -4.657  0.000E+00
 -4.647  0.000E+00
 -4.637  0.000E+00
 -4.627  0.000E+00
 -4.617  0.000E+00
 -4.607  0.000E+00
 -4.597  0.000E+00
 -4.587  0.000E+00
 -4.577  0.000E+00
 -4.567  0.000E+00
 -4.557  0.000E+00
 -4.547  0.000E+00
 -4.537  0.000E+00
 -4.527  0.000E+00
 -4.517  0.000E+00
 -4.507  0.000E+00
 -4.497  0.000E+00
 -4.487  0.000E+00
 -4.477  0.000E+00
 -4.467  0.000E+00
 -4.457  0.000E+00
 -4.447  0.000E+00
 -4.437  0.000E+00
 -4.427  0.000E+00
 -4.417  0.000E+00
 -4.407  0.000E+00
 -4.397  0.000E+00
 -4.387  0.000E+00
 -4.377  0.000E+00
 -4.367  0.000E+00
 -4.357  0.000E+00
 -4.347  0.000E+00
 -4.337  0.000E+00
 -4.327  0.000E+00
 -4.317  0.000E+00
 -4.307  0.000E+00
 -4.297  0.000E+00
 -4.287  0.000E+00
 -4.277  0.000E+00
 -4.267  0.000E+00
 -4.257  0.000E+00
 -4.247  0.000E+00
 -4.237  0.000E+00
 -4.227  0.000E+00
 -4.217  0.000E+00
 -4.207  0.000E+00
 -4.197  0.000E+00
 -4.187  0.000E+00
 -4.177  0.000E+00
 -4.167  0.000E+00
 -4.157  0.000E+00
 -4.147  0.000E+00
 -4.137  0.000E+00
 -4.127  0.000E+00
 -4.117  0.000E+00
 -4.107  0.000E+00
 -4.097  0.000E+00
 -4.087  0.000E+00
 -4.077  0.000E+00
 -4.067  0.000E+00
 -4.057  0.000E+00
 -4.047  0.000E+00
 -4.037  0.000E+00
 -4.027  0.000E+00
 -4.017  0.000E+00
 -4.007  0.000E+00
 -3.997  0.000E+00
 -3.987  0.000E+00
 -3.977  0.000E+00
 -3.967  0.000E+00
 -3.957  0.000E+00
 -3.947  0.000E+00
 -3.937  0.000E+00
 -3.927  0.000E+00
 -3.917  0.000E+00
 -3.907  0.000E+00
 -3.897  0.000E+00
 -3.887  0.000E+00
 -3.877  0.000E+00
 -3.867  0.000E+00
 -3.857  0.000E+00
 -3.847  0.000E+00
 -3.837  0.000E+00
 -3.827  0.000E+00
 -3.817  0.000E+00
 -3.807  0.000E+00
 -3.797  0.000E+00
 -3.787  0.000E+00
 -3.777  0.000E+00
 -3.767  0.000E+00
 -3.757  0.000E+00
 -3.747  0.000E+00
 -3.737  0.000E+00
 -3.727  0.000E+00
 -3.717  0.000E+00
 -3.707  0.000E+00
 -3.697  0.000E+00
 -3.687  0.000E+00
 -3.677  0.000E+00
 -3.667  0.000E+00
 -3.657  0.000E+00
 -3.647  0.000E+00
 -3.637  0.000E+00
 -3.627  0.000E+00
 -3.617  0.000E+00
 -3.607  0.000E+00
 -3.597  0.000E+00
 -3.587  0.000E+00
 -3.577  0.000E+00
 -3.567  0.000E+00
 -3.557  0.000E+00
 -3.547  0.000E+00
 -3.537  0.000E+00
 -3.527  0.000E+00
 -3.517  0.000E+00
 -3.507  0.000E+00
 -3.497  0.000E+00
 -3.487  0.000E+00
 -3.477  0.000E+00
 -3.467  0.000E+00
 -3.457  0.000E+00
 -3.447  0.000E+00
 -3.437  0.000E+00
 -3.427  0.000E+00
 -3.417  0.000E+00
 -3.407  0.000E+00
 -3.397  0.000E+00
 -3.387  0.000E+00
 -3.377  0.000E+00
 -3.367  0.000E+00
 -3.357  0.000E+00
 -3.347  0.000E+00
 -3.337  0.000E+00
 -3.327  0.000E+00
 -3.317  0.000E+00
 -3.307  0.000E+00
 -3.297  0.000E+00
 -3.287  0.000E+00
 -3.277  0.000E+00
 -3.267  0.000E+00
 -3.257  0.000E+00
 -3.247  0.000E+00
 -3.237  0.000E+00
 -3.227  0.000E+00
 -3.217  0.000E+00
 -3.207  0.000E+00
 -3.197  0.000E+00
 -3.187  0.000E+00
 -3.177  0.000E+00
 -3.167  0.000E+00
 -3.157  0.000E+00
 -3.147  0.000E+00
 -3.137  0.000E+00
 -3.127  0.000E+00
 -3.117  0.000E+00
 -3.107  0.000E+00
 -3.097  0.000E+00
 -3.087  0.000E+00
 -3.077  0.000E+00
 -3.067  0.000E+00
 -3.057  0.000E+00
 -3.047  0.000E+00
 -3.037  0.000E+00
 -3.027  0.000E+00
 -3.017  0.000E+00
 -3.007  0.000E+00
 -2.997  0.000E+00
 -2.987  0.000E+00
 -2.977  0.000E+00
 -2.967  0.000E+00
 -2.957  0.000E+00
 -2.947  0.000E+00
 -2.937  0.000E+00
 -2.927  0.000E+00
 -2.917  0.000E+00
 -2.907  0.000E+00
 -2.897  0.000E+00
 -2.887  0.000E+00
 -2.877  0.000E+00
 -2.867  0.000E+00
 -2.857  0.000E+00
 -2.847  0.000E+00
 -2.837  0.000E+00
 -2.827  0.000E+00
 -2.817  0.000E+00
 -2.807  0.000E+00
 -2.797  0.000E+00
 -2.787  0.000E+00
 -2.777  0.000E+00
 -2.767  0.000E+00
 -2.757  0.000E+00
 -2.747  0.000E+00
 -2.737  0.000E+00
 -2.727  0.000E+00
 -2.717  0.000E+00
 -2.707  0.000E+00
 -2.697  0.000E+00
 -2.687  0.000E+00
 -2.677  0.000E+00
 -2.667  0.000E+00
 -2.657  0.000E+00
 -2.647  0.000E+00
 -2.637  0.000E+00
 -2.627  0.000E+00
 -2.617  0.000E+00
 -2.607  0.000E+00
 -2.597  0.000E+00
 -2.587  0.000E+00
 -2.577  0.000E+00
 -2.567  0.000E+00
 -2.557  0.000E+00
 -2.547  0.000E+00
 -2.537  0.000E+00
 -2.527  0.000E+00
 -2.517  0.000E+00
 -2.507  0.000E+00
 -2.497  0.000E+00
 -2.487  0.000E+00
 -2.477  0.000E+00
 -2.467  0.000E+00
 -2.457  0.000E+00
 -2.447  0.000E+00
 -2.437  0.000E+00
 -2.427  0.000E+00
 -2.417  0.000E+00
 -2.407  0.000E+00
 -2.397  0.000E+00
 -2.387  0.000E+00
 -2.377  0.000E+00
 -2.367  0.000E+00
 -2.357  0.000E+00
 -2.347  0.000E+00
 -2.337  0.000E+00
 -2.327  0.000E+00
 -2.317  0.000E+00
 -2.307  0.000E+00
 -2.297  0.000E+00
 -2.287  0.000E+00
 -2.277  0.000E+00
 -2.267  0.000E+00
 -2.257  0.000E+00
 -2.247  0.000E+00
 -2.237  0.000E+00
 -2.227  0.000E+00
 -2.217  0.000E+00
 -2.207  0.000E+00
 -2.197  0.000E+00
 -2.187  0.000E+00
 -2.177  0.000E+00
 -2.167  0.000E+00
 -2.157  0.000E+00
 -2.147  0.000E+00
 -2.137  0.000E+00
 -2.127  0.000E+00
 -2.117  0.000E+00
 -2.107  0.000E+00
 -2.097  0.000E+00
 -2.087  0.000E+00
 -2.077  0.000E+00
 -2.067  0.000E+00
 -2.057  0.000E+00
 -2.047  0.000E+00
 -2.037  0.000E+00
 -2.027  0.000E+00
 -2.017  0.000E+00
 -2.007  0.000E+00
 -1.997  0.000E+00
 -1.987  0.000E+00
 -1.977  0.000E+00
 -1.967  0.000E+00
 -1.957  0.000E+00
 -1.947  0.000E+00
 -1.937  0.000E+00
 -1.927  0.000E+00
 -1.917  0.000E+00
 -1.907  0.000E+00
 -1.897  0.000E+00
 -1.887  0.000E+00
 -1.877  0.000E+00
 -1.867  0.000E+00
 -1.857  0.000E+00
 -1.847  0.000E+00
 -1.837  0.000E+00
 -1.827  0.000E+00
 -1.817  0.000E+00
 -1.807  0.000E+00
 -1.797  0.000E+00
 -1.787  0.000E+00
 -1.777  0.000E+00
 -1.767  0.000E+00
 -1.757  0.000E+00
 -1.747  0.000E+00
 -1.737  0.000E+00
 -1.727  0.000E+00
 -1.717  0.000E+00
 -1.707  0.000E+00
 -1.697  0.000E+00
 -1.687  0.000E+00
 -1.677  0.000E+00
 -1.667  0.000E+00
 -1.657  0.000E+00
 -1.647  0.000E+00
 -1.637  0.000E+00
 -1.627  0.000E+00
 -1.617  0.000E+00
 -1.607  0.000E+00
 -1.597  0.000E+00
 -1.587  0.000E+00
 -1.577  0.000E+00
 -1.567  0.000E+00
 -1.557  0.000E+00
 -1.547  0.000E+00
 -1.537  0.000E+00
 -1.527  0.000E+00
 -1.517  0.000E+00
 -1.507  0.000E+00
 -1.497  0.506E+01
 -1.487  0.180E+03
 -1.477  0.147E+03
 -1.467  0.197E+03
 -1.457  0.332E+03
 -1.447  0.264E+03
 -1.437  0.223E+03
 -1.427  0.357E+03
 -1.417  0.982E+03
 -1.407  0.524E+03
 -1.397  0.127E+04
 -1.387  0.107E+04
 -1.377  0.240E+04
 -1.367  0.660E+03
 -1.357  0.193E+04
 -1.347  0.340E+03
 -1.337  0.457E+03
 -1.327  0.475E+03
 -1.317  0.501E+03
 -1.307  0.453E+03
 -1.297  0.393E+03
 -1.287  0.212E+03
 -1.277  0.311E+03
 -1.267  0.381E+03
 -1.257  0.422E+03
 -1.247  0.336E+03
 -1.237  0.339E+03
 -1.227  0.245E+03
 -1.217  0.202E+03
 -1.207  0.278E+03
 -1.197  0.336E+03
 -1.187  0.273E+03
 -1.177  0.240E+03
 -1.167  0.325E+03
 -1.157  0.347E+03
 -1.147  0.384E+03
 -1.137  0.546E+03
 -1.127  0.307E+03
 -1.117  0.588E+03
 -1.107  0.104E+04
 -1.097  0.915E+03
 -1.087  0.129E+04
 -1.077  0.207E+04
 -1.067  0.126E+04
 -1.057  0.683E+03
 -1.047  0.540E+03
 -1.037  0.483E+03
 -1.027  0.163E+03
 -1.017  0.107E+03
 -1.007  0.854E+02
 -0.997  0.857E+02
 -0.987  0.159E+03
 -0.977  0.121E+03
 -0.967  0.909E+02
 -0.957  0.763E+02
 -0.947  0.723E+02
 -0.937  0.718E+02
 -0.927  0.850E+02
 -0.917  0.801E+02
 -0.907  0.867E+02
 -0.897  0.878E+02
 -0.887  0.124E+03
 -0.877  0.138E+03
 -0.867  0.135E+03
 -0.857  0.119E+03
 -0.847  0.126E+03
 -0.837  0.148E+03
 -0.827  0.891E+02
 -0.817  0.900E+02
 -0.807  0.104E+03
 -0.797  0.157E+03
 -0.787  0.210E+03
 -0.777  0.197E+03
 -0.767  0.138E+03
 -0.757  0.622E+02
 -0.747  0.607E+02
 -0.737  0.101E+03
 -0.727  0.200E+03
 -0.717  0.196E+03
 -0.707  0.133E+03
 -0.697  0.795E+02
 -0.687  0.546E+02
 -0.677  0.638E+02
 -0.667  0.155E+02
 -0.657  0.287E+01
 -0.647  0.172E-01
 -0.637  0.000E+00
 -0.627  0.000E+00
 -0.617  0.000E+00
 -0.607  0.000E+00
 -0.597  0.000E+00
 -0.587  0.000E+00
 -0.577  0.000E+00
 -0.567  0.000E+00
 -0.557  0.000E+00
 -0.547  0.000E+00
 -0.537  0.000E+00
 -0.527  0.000E+00
 -0.517  0.000E+00
 -0.507  0.000E+00
 -0.497  0.000E+00
 -0.487  0.000E+00
 -0.477  0.000E+00
 -0.467  0.000E+00
 -0.457  0.000E+00
 -0.447  0.000E+00
 -0.437  0.000E+00
 -0.427  0.000E+00
 -0.417  0.000E+00
 -0.407  0.000E+00
 -0.397  0.000E+00
 -0.387  0.000E+00
 -0.377  0.000E+00
 -0.367  0.000E+00
 -0.357  0.000E+00
 -0.347  0.000E+00
 -0.337  0.000E+00
 -0.327  0.000E+00
 -0.317  0.000E+00
 -0.307  0.000E+00
 -0.297  0.000E+00
 -0.287  0.000E+00
 -0.277  0.000E+00
 -0.267  0.000E+00
 -0.257  0.000E+00
 -0.247  0.000E+00
 -0.237  0.000E+00
 -0.227  0.000E+00
 -0.217  0.000E+00
 -0.207  0.000E+00
 -0.197  0.000E+00
 -0.187  0.000E+00
 -0.177  0.000E+00
 -0.167  0.000E+00
 -0.157  0.000E+00
 -0.147  0.000E+00
 -0.137  0.000E+00
 -0.127  0.000E+00
 -0.117  0.000E+00
 -0.107  0.000E+00
 -0.097  0.000E+00
 -0.087  0.000E+00
 -0.077  0.000E+00
 -0.067  0.000E+00
 -0.057  0.000E+00
 -0.047  0.000E+00
 -0.037  0.000E+00
 -0.027  0.000E+00
 -0.017  0.000E+00
 -0.007  0.000E+00
  0.003  0.000E+00
  0.013  0.000E+00
  0.023  0.000E+00
  0.033  0.000E+00
  0.043  0.000E+00
  0.053  0.000E+00
  0.063  0.000E+00
  0.073  0.000E+00
  0.083  0.000E+00
  0.093  0.000E+00
  0.103  0.000E+00
  0.113  0.000E+00
  0.123  0.000E+00
  0.133  0.000E+00
  0.143  0.000E+00
  0.153  0.000E+00
  0.163  0.000E+00
  0.173  0.000E+00
  0.183  0.000E+00
  0.193  0.000E+00
  0.203  0.000E+00
  0.213  0.000E+00
  0.223  0.000E+00
  0.233  0.000E+00
  0.243  0.000E+00
  0.253  0.000E+00
  0.263  0.000E+00
  0.273  0.000E+00
  0.283  0.000E+00
  0.293  0.000E+00
  0.303  0.000E+00
  0.313  0.000E+00
  0.323  0.000E+00
  0.333  0.000E+00
  0.343 -0.671E-05
  0.353 -0.555E-04
  0.363 -0.102E-03
  0.373  0.126E-03
  0.383  0.960E-03
  0.393  0.273E-02
  0.403  0.576E-02
  0.413  0.104E-01
  0.423  0.170E-01
  0.433  0.258E-01
  0.443  0.372E-01
  0.453  0.518E-01
  0.463  0.834E-01
  0.473  0.156E+00
  0.483  0.224E+00
  0.493  0.229E+00
  0.503  0.170E+00
  0.513  0.161E+00
  0.523  0.177E+00
  0.533  0.194E+00
  0.543  0.213E+00
  0.553  0.234E+00
  0.563  0.257E+00
  0.573  0.283E+00
  0.583  0.311E+00
  0.593  0.342E+00
  0.603  0.377E+00
  0.613  0.414E+00
  0.623  0.454E+00
  0.633  0.507E+00
  0.643  0.578E+00
  0.653  0.662E+00
  0.663  0.756E+00
  0.673  0.844E+00
  0.683  0.906E+00
  0.693  0.912E+00
  0.703  0.981E+00
  0.713  0.108E+01
  0.723  0.113E+01
  0.733  0.112E+01
  0.743  0.113E+01
  0.753  0.115E+01
  0.763  0.117E+01
  0.773  0.116E+01
  0.783  0.114E+01
  0.793  0.111E+01
  0.803  0.107E+01
  0.813  0.102E+01
  0.823  0.983E+00
  0.833  0.102E+01
  0.843  0.107E+01
  0.853  0.114E+01
  0.863  0.125E+01
  0.873  0.139E+01
  0.883  0.163E+01
  0.893  0.197E+01
  0.903  0.240E+01
  0.913  0.299E+01
  0.923  0.444E+01
  0.933  0.704E+01
  0.943  0.597E+01
  0.953  0.624E+01
  0.963  0.703E+01
  0.973  0.612E+01
  0.983  0.544E+01
  0.993  0.526E+01
  1.003  0.571E+01
  1.013  0.568E+01
  1.023  0.525E+01
  1.033  0.557E+01
  1.043  0.476E+01
  1.053  0.347E+01
  1.063  0.672E+01
  1.073  0.690E+01
  1.083  0.413E+01
  1.093  0.358E+01
  1.103  0.400E+01
  1.113  0.465E+01
  1.123  0.519E+01
  1.133  0.557E+01
  1.143  0.577E+01
  1.153  0.578E+01
  1.163  0.569E+01
  1.173  0.552E+01
  1.183  0.525E+01
  1.193  0.489E+01
  1.203  0.444E+01
  1.213  0.418E+01
  1.223  0.392E+01
  1.233  0.370E+01
  1.243  0.350E+01
  1.253  0.333E+01
  1.263  0.319E+01
  1.273  0.309E+01
  1.283  0.299E+01
  1.293  0.291E+01
  1.303  0.284E+01
  1.313  0.288E+01
  1.323  0.302E+01
  1.333  0.316E+01
  1.343  0.327E+01
  1.353  0.334E+01
  1.363  0.340E+01
  1.373  0.340E+01
  1.383  0.338E+01
  1.393  0.333E+01
  1.403  0.323E+01
  1.413  0.309E+01
  1.423  0.292E+01
  1.433  0.275E+01
  1.443  0.257E+01
  1.453  0.238E+01
  1.463  0.222E+01
  1.473  0.216E+01
  1.483  0.214E+01
  1.493  0.215E+01
  1.503  0.217E+01
  1.513  0.221E+01
  1.523  0.225E+01
  1.533  0.231E+01
  1.543  0.254E+01
  1.553  0.276E+01
  1.563  0.280E+01
  1.573  0.273E+01
  1.583  0.261E+01
  1.593  0.245E+01
  1.603  0.226E+01
  1.613  0.203E+01
  1.623  0.178E+01
  1.633  0.156E+01
  1.643  0.139E+01
  1.653  0.130E+01
  1.663  0.132E+01
  1.673  0.142E+01
  1.683  0.155E+01
  1.693  0.170E+01
  1.703  0.184E+01
  1.713  0.195E+01
  1.723  0.206E+01
  1.733  0.214E+01
  1.743  0.220E+01
  1.753  0.225E+01
  1.763  0.227E+01
  1.773  0.228E+01
  1.783  0.227E+01
  1.793  0.223E+01
  1.803  0.218E+01
  1.813  0.210E+01
  1.823  0.202E+01
  1.833  0.194E+01
  1.843  0.188E+01
  1.853  0.183E+01
  1.863  0.177E+01
  1.873  0.172E+01
  1.883  0.168E+01
  1.893  0.164E+01
  1.903  0.161E+01
  1.913  0.158E+01
  1.923  0.155E+01
  1.933  0.153E+01
  1.943  0.151E+01
  1.953  0.151E+01
  1.963  0.150E+01
  1.973  0.151E+01
  1.983  0.151E+01
  1.993  0.153E+01
  2.003  0.154E+01
  2.013  0.155E+01
  2.023  0.156E+01
  2.033  0.157E+01
  2.043  0.158E+01
  2.053  0.159E+01
  2.063  0.159E+01
  2.073  0.160E+01
  2.083  0.160E+01
  2.093  0.160E+01
  2.103  0.156E+01
  2.113  0.186E+01
  2.123  0.234E+01
  2.133  0.198E+01
  2.143  0.176E+01
  2.153  0.168E+01
  2.163  0.156E+01
  2.173  0.142E+01
  2.183  0.132E+01
  2.193  0.128E+01
  2.203  0.126E+01
  2.213  0.124E+01
  2.223  0.122E+01
  2.233  0.120E+01
  2.243  0.118E+01
  2.253  0.116E+01
  2.263  0.114E+01
  2.273  0.112E+01
  2.283  0.110E+01
  2.293  0.108E+01
  2.303  0.106E+01
  2.313  0.105E+01
  2.323  0.103E+01
  2.333  0.103E+01
  2.343  0.103E+01
  2.353  0.104E+01
  2.363  0.105E+01
  2.373  0.107E+01
  2.383  0.110E+01
  2.393  0.113E+01
  2.403  0.116E+01
  2.413  0.117E+01
  2.423  0.122E+01
  2.433  0.127E+01
  2.443  0.133E+01
  2.453  0.144E+01
  2.463  0.157E+01
  2.473  0.172E+01
  2.483  0.183E+01
  2.493  0.192E+01
  2.503  0.197E+01
  2.513  0.199E+01
  2.523  0.199E+01
  2.533  0.199E+01
  2.543  0.197E+01
  2.553  0.195E+01
  2.563  0.196E+01
  2.573  0.202E+01
  2.583  0.214E+01
  2.593  0.229E+01
  2.603  0.245E+01
  2.613  0.263E+01
  2.623  0.281E+01
  2.633  0.300E+01
  2.643  0.350E+01
  2.653  0.481E+01
  2.663  0.626E+01
  2.673  0.790E+01
  2.683  0.609E+01
  2.693  0.445E+01
  2.703  0.332E+01
  2.713  0.253E+01
  2.723  0.199E+01
  2.733  0.176E+01
  2.743  0.170E+01
  2.753  0.180E+01
  2.763  0.196E+01
  2.773  0.214E+01
  2.783  0.229E+01
  2.793  0.341E+01
  2.803  0.247E+01
  2.813  0.196E+01
  2.823  0.160E+01
  2.833  0.133E+01
  2.843  0.130E+01
  2.853  0.132E+01
  2.863  0.136E+01
  2.873  0.150E+01
  2.883  0.168E+01
  2.893  0.198E+01
  2.903  0.220E+01
  2.913  0.239E+01
  2.923  0.252E+01
  2.933  0.262E+01
  2.943  0.268E+01
  2.953  0.273E+01
  2.963  0.278E+01
  2.973  0.284E+01
  2.983  0.291E+01
  2.993  0.298E+01
  3.003  0.305E+01
  3.013  0.312E+01
  3.023  0.320E+01
  3.033  0.328E+01
  3.043  0.334E+01
  3.053  0.337E+01
  3.063  0.337E+01
  3.073  0.338E+01
  3.083  0.323E+01
  3.093  0.301E+01
  3.103  0.282E+01
  3.113  0.264E+01
  3.123  0.228E+01
  3.133  0.219E+01
  3.143  0.225E+01
  3.153  0.233E+01
  3.163  0.233E+01
  3.173  0.227E+01
  3.183  0.214E+01
  3.193  0.202E+01
  3.203  0.193E+01
  3.213  0.193E+01
  3.223  0.204E+01
  3.233  0.232E+01
  3.243  0.265E+01
  3.253  0.286E+01
  3.263  0.295E+01
  3.273  0.312E+01
  3.283  0.325E+01
  3.293  0.339E+01
  3.303  0.351E+01
  3.313  0.351E+01
  3.323  0.354E+01
  3.333  0.361E+01
  3.343  0.382E+01
  3.353  0.365E+01
  3.363  0.334E+01
  3.373  0.325E+01
  3.383  0.321E+01
  3.393  0.321E+01
  3.403  0.321E+01
  3.413  0.330E+01
  3.423  0.349E+01
  3.433  0.336E+01
  3.443  0.325E+01
  3.453  0.320E+01
  3.463  0.319E+01
  3.473  0.320E+01
  3.483  0.326E+01
  3.493  0.339E+01
  3.503  0.339E+01
  3.513  0.339E+01
  3.523  0.340E+01
  3.533  0.330E+01
  3.543  0.313E+01
  3.553  0.302E+01
  3.563  0.299E+01
  3.573  0.302E+01
  3.583  0.302E+01
  3.593  0.299E+01
  3.603  0.306E+01
  3.613  0.328E+01
  3.623  0.300E+01
  3.633  0.261E+01
  3.643  0.261E+01
  3.653  0.262E+01
  3.663  0.260E+01
  3.673  0.260E+01
  3.683  0.263E+01
  3.693  0.269E+01
  3.703  0.278E+01
  3.713  0.309E+01
  3.723  0.340E+01
  3.733  0.367E+01
  3.743  0.326E+01
  3.753  0.520E+01
  3.763  0.530E+01
  3.773  0.549E+01
  3.783  0.506E+01
  3.793  0.417E+01
  3.803  0.397E+01
  3.813  0.384E+01
  3.823  0.373E+01
  3.833  0.366E+01
  3.843  0.368E+01
  3.853  0.376E+01
  3.863  0.357E+01
  3.873  0.318E+01
  3.883  0.274E+01
  3.893  0.243E+01
  3.903  0.227E+01
  3.913  0.218E+01
  3.923  0.214E+01
  3.933  0.214E+01
  3.943  0.218E+01
  3.953  0.224E+01
  3.963  0.232E+01
  3.973  0.244E+01
  3.983  0.259E+01
  3.993  0.277E+01
  4.003  0.301E+01
  4.013  0.327E+01
  4.023  0.352E+01
  4.033  0.369E+01
  4.043  0.382E+01
  4.053  0.389E+01
  4.063  0.406E+01
  4.073  0.420E+01
  4.083  0.424E+01
  4.093  0.447E+01
  4.103  0.442E+01
  4.113  0.387E+01
  4.123  0.376E+01
  4.133  0.363E+01
  4.143  0.347E+01
  4.153  0.340E+01
  4.163  0.347E+01
  4.173  0.335E+01
  4.183  0.312E+01
  4.193  0.312E+01
  4.203  0.316E+01
  4.213  0.325E+01
  4.223  0.341E+01
  4.233  0.357E+01
  4.243  0.385E+01
  4.253  0.423E+01
  4.263  0.486E+01
  4.273  0.528E+01
  4.283  0.548E+01
  4.293  0.555E+01
  4.303  0.531E+01
  4.313  0.451E+01
  4.323  0.357E+01
  4.333  0.316E+01
  4.343  0.300E+01
  4.353  0.303E+01
  4.363  0.307E+01
  4.373  0.295E+01
  4.383  0.254E+01
  4.393  0.243E+01
  4.403  0.239E+01
  4.413  0.238E+01
  4.423  0.244E+01
  4.433  0.253E+01
  4.443  0.260E+01
  4.453  0.261E+01
  4.463  0.257E+01
  4.473  0.266E+01
  4.483  0.276E+01
  4.493  0.285E+01
  4.503  0.294E+01
  4.513  0.303E+01
  4.523  0.313E+01
  4.533  0.340E+01
  4.543  0.383E+01
  4.553  0.407E+01
  4.563  0.434E+01
  4.573  0.426E+01
  4.583  0.447E+01
  4.593  0.464E+01
  4.603  0.459E+01
  4.613  0.435E+01
  4.623  0.403E+01
  4.633  0.363E+01
  4.643  0.371E+01
  4.653  0.374E+01
  4.663  0.407E+01
  4.673  0.480E+01
  4.683  0.617E+01
  4.693  0.567E+01
  4.703  0.464E+01
  4.713  0.374E+01
  4.723  0.319E+01
  4.733  0.286E+01
  4.743  0.265E+01
  4.753  0.251E+01
  4.763  0.241E+01
  4.773  0.234E+01
  4.783  0.230E+01
  4.793  0.226E+01
  4.803  0.223E+01
  4.813  0.219E+01
  4.823  0.215E+01
  4.833  0.212E+01
  4.843  0.208E+01
  4.853  0.206E+01
  4.863  0.206E+01
  4.873  0.216E+01
  4.883  0.239E+01
  4.893  0.250E+01
  4.903  0.243E+01
  4.913  0.220E+01
  4.923  0.210E+01
  4.933  0.208E+01
  4.943  0.206E+01
  4.953  0.202E+01
  4.963  0.198E+01
  4.973  0.194E+01
  4.983  0.196E+01
  4.993  0.191E+01
  5.003  0.153E+01
  5.013  0.153E+01
  5.023  0.193E+01
  5.033  0.201E+01
  5.043  0.189E+01
  5.053  0.176E+01
  5.063  0.160E+01
  5.073  0.142E+01
  5.083  0.119E+01
  5.093  0.984E+00
  5.103  0.888E+00
  5.113  0.861E+00
  5.123  0.861E+00
  5.133  0.865E+00
  5.143  0.871E+00
  5.153  0.878E+00
  5.163  0.933E+00
  5.173  0.110E+01
  5.183  0.141E+01
  5.193  0.173E+01
  5.203  0.187E+01
  5.213  0.192E+01
  5.223  0.221E+01
  5.233  0.233E+01
  5.243  0.221E+01
  5.253  0.188E+01
  5.263  0.178E+01
  5.273  0.157E+01
  5.283  0.137E+01
  5.293  0.118E+01
  5.303  0.101E+01
  5.313  0.874E+00
  5.323  0.762E+00
  5.333  0.676E+00
  5.343  0.605E+00
  5.353  0.537E+00
  5.363  0.480E+00
  5.373  0.437E+00
  5.383  0.437E+00
  5.393  0.480E+00
  5.403  0.497E+00
  5.413  0.486E+00
  5.423  0.446E+00
  5.433  0.379E+00
  5.443  0.282E+00
  5.453  0.159E+00
  5.463  0.666E-01
  5.473  0.339E-01
  5.483  0.142E-01
  5.493  0.316E-02
  5.503  0.182E-03
  5.513  0.349E-04
  5.523  0.182E-06
  5.533  0.000E+00
  5.543  0.000E+00
  5.553  0.000E+00
  5.563  0.000E+00
  5.573  0.000E+00
  5.583  0.000E+00
  5.593  0.000E+00
  5.603  0.000E+00
  5.613  0.000E+00
  5.623  0.000E+00
  5.633  0.000E+00
  5.643  0.000E+00
  5.653  0.000E+00
  5.663  0.000E+00
  5.673  0.000E+00
  5.683  0.000E+00
  5.693  0.000E+00
  5.703  0.000E+00
  5.713  0.000E+00
  5.723  0.000E+00
  5.733  0.000E+00
  5.743  0.000E+00
  5.753  0.000E+00
  5.763  0.000E+00
  5.773  0.000E+00
  5.783  0.000E+00
  5.793  0.000E+00
  5.803  0.000E+00
  5.813  0.000E+00
  5.823  0.000E+00
  5.833  0.000E+00
  5.843  0.000E+00
  5.853  0.000E+00
  5.863  0.000E+00
  5.873  0.000E+00
  5.883  0.000E+00
  5.893  0.000E+00
  5.903  0.000E+00
  5.913  0.000E+00
  5.923  0.000E+00
  5.933  0.000E+00
  5.943  0.000E+00
  5.953  0.000E+00
  5.963  0.000E+00
  5.973  0.000E+00
  5.983  0.000E+00
  5.993  0.000E+00
  6.003  0.000E+00
  6.013  0.000E+00
  6.023  0.000E+00
  6.033  0.000E+00
  6.043  0.000E+00
  6.053  0.000E+00
  6.063  0.000E+00
  6.073  0.000E+00
  6.083  0.000E+00
  6.093  0.000E+00
  6.103  0.000E+00
  6.113  0.000E+00
  6.123  0.000E+00
  6.133  0.000E+00
  6.143  0.000E+00
  6.153  0.000E+00
  6.163  0.000E+00
  6.173  0.000E+00
  6.183  0.000E+00
  6.193  0.000E+00
  6.203  0.000E+00
  6.213  0.000E+00
  6.223  0.000E+00
  6.233  0.000E+00
  6.243  0.000E+00
  6.253  0.000E+00
  6.263  0.000E+00
  6.273  0.000E+00
  6.283  0.000E+00
  6.293  0.000E+00
  6.303  0.000E+00
  6.313  0.000E+00
  6.323  0.000E+00
  6.333  0.000E+00
  6.343  0.000E+00
  6.353  0.000E+00
  6.363  0.000E+00
  6.373  0.000E+00
  6.383  0.000E+00
  6.393  0.000E+00
  6.403  0.000E+00
  6.413  0.000E+00
  6.423  0.000E+00
  6.433  0.000E+00
  6.443  0.000E+00
  6.453  0.000E+00
  6.463  0.000E+00
  6.473  0.000E+00
  6.483  0.000E+00
  6.493  0.000E+00
  6.503  0.000E+00
  6.513  0.000E+00
  6.523  0.000E+00
  6.533  0.000E+00
  6.543  0.000E+00
  6.553  0.000E+00
  6.563  0.000E+00
  6.573  0.000E+00
  6.583  0.000E+00
  6.593  0.000E+00
  6.603  0.000E+00
  6.613  0.000E+00
  6.623  0.000E+00
  6.633  0.000E+00
  6.643  0.000E+00
  6.653  0.000E+00
  6.663  0.000E+00
  6.673  0.000E+00
  6.683  0.000E+00
  6.693  0.000E+00
  6.703  0.000E+00
  6.713  0.000E+00
  6.723  0.000E+00
  6.733  0.000E+00
  6.743  0.000E+00
  6.753  0.000E+00
  6.763  0.000E+00
  6.773  0.000E+00
  6.783  0.000E+00
  6.793  0.000E+00
  6.803  0.000E+00
  6.813  0.000E+00
  6.823  0.000E+00
  6.833  0.000E+00
  6.843  0.000E+00
  6.853  0.000E+00
  6.863  0.000E+00
  6.873  0.000E+00
  6.883  0.000E+00
  6.893  0.000E+00
  6.903  0.000E+00
  6.913  0.000E+00
  6.923  0.000E+00
  6.933  0.000E+00
  6.943  0.000E+00
  6.953  0.000E+00
  6.963  0.000E+00
  6.973  0.000E+00
  6.983  0.000E+00
  6.993  0.000E+00
  7.003  0.000E+00
  7.013  0.000E+00
  7.023  0.000E+00
  7.033  0.000E+00
  7.043  0.000E+00
  7.053  0.000E+00
  7.063  0.000E+00
  7.073  0.000E+00
  7.083  0.000E+00
  7.093  0.000E+00
  7.103  0.000E+00
  7.113  0.000E+00
  7.123  0.000E+00
  7.133  0.000E+00
  7.143  0.000E+00
  7.153  0.000E+00
  7.163  0.000E+00
  7.173  0.000E+00
  7.183  0.000E+00
  7.193  0.000E+00
  7.203  0.000E+00
  7.213  0.000E+00
  7.223  0.000E+00
  7.233  0.000E+00
  7.243  0.000E+00
  7.253  0.000E+00
  7.263  0.000E+00
  7.273  0.000E+00
  7.283  0.000E+00
  7.293  0.000E+00
  7.303  0.000E+00
  7.313  0.000E+00
  7.323  0.000E+00
  7.333  0.000E+00
  7.343  0.000E+00
  7.353  0.000E+00
  7.363  0.000E+00
  7.373  0.000E+00
  7.383  0.000E+00
  7.393  0.000E+00
  7.403  0.000E+00
  7.413  0.000E+00
  7.423  0.000E+00
  7.433 -0.327E-08
  7.443 -0.360E-07
  7.453 -0.861E-07
  7.463 -0.137E-06
  7.473 -0.264E-06
  7.483 -0.406E-06
  7.493 -0.440E-06
  7.503 -0.244E-06
  7.513  0.304E-06
  7.523  0.133E-05
  7.533  0.294E-05
  7.543  0.529E-05
  7.553  0.848E-05
  7.563  0.126E-04
  7.573  0.179E-04
  7.583  0.243E-04
  7.593  0.321E-04
  7.603  0.414E-04
  7.613  0.520E-04
  7.623  0.646E-04
  7.633  0.789E-04
  7.643  0.952E-04
  7.653  0.114E-03
  7.663  0.134E-03
  7.673  0.157E-03
  7.683  0.182E-03
  7.693  0.210E-03
  7.703  0.240E-03
  7.713  0.274E-03
  7.723  0.310E-03
  7.733  0.350E-03
  7.743  0.392E-03
  7.753  0.438E-03
  7.763  0.487E-03
  7.773  0.539E-03
  7.783  0.597E-03
  7.793  0.656E-03
  7.803  0.720E-03
  7.813  0.789E-03
  7.823  0.861E-03
  7.833  0.933E-03
  7.843  0.101E-02
  7.853  0.109E-02
  7.863  0.118E-02
  7.873  0.128E-02
  7.883  0.139E-02
  7.893  0.150E-02
  7.903  0.160E-02
  7.913  0.170E-02
  7.923  0.179E-02
  7.933  0.187E-02
  7.943  0.196E-02
  7.953  0.204E-02
  7.963  0.211E-02
  7.973  0.219E-02
  7.983  0.226E-02
  7.993  0.233E-02
  8.003  0.239E-02
  8.013  0.246E-02
  8.023  0.252E-02
  8.033  0.258E-02
  8.043  0.264E-02
  8.053  0.269E-02
  8.063  0.275E-02
  8.073  0.279E-02
  8.083  0.284E-02
  8.093  0.289E-02
  8.103  0.293E-02
  8.113  0.297E-02
  8.123  0.300E-02
  8.133  0.301E-02
  8.143  0.300E-02
  8.153  0.299E-02
  8.163  0.299E-02
  8.173  0.299E-02
  8.183  0.300E-02
  8.193  0.302E-02
  8.203  0.303E-02
  8.213  0.305E-02
  8.223  0.306E-02
  8.233  0.308E-02
  8.243  0.309E-02
  8.253  0.311E-02
  8.263  0.314E-02
  8.273  0.317E-02
  8.283  0.321E-02
  8.293  0.325E-02
  8.303  0.330E-02
  8.313  0.334E-02