### Running on host: unam-asus

     Program PWSCF v.7.2 starts on 15Feb2024 at 19:17:54 

     This program is part of the open-source Quantum ESPRESSO suite
     for quantum simulation of materials; please cite
         "P. Giannozzi et al., J. Phys.:Condens. Matter 21 395502 (2009);
         "P. Giannozzi et al., J. Phys.:Condens. Matter 29 465901 (2017);
         "P. Giannozzi et al., J. Chem. Phys. 152 154105 (2020);
          URL http://www.quantum-espresso.org", 
     in publications or presentations arising from this work. More details at
     http://www.quantum-espresso.org/quote

     Parallel version (MPI), running on    10 processors

     MPI processes distributed on     1 nodes
     1776 MiB available memory on the printing compute node when the environment starts

     Reading input from scf.m-v.degauss-0.001.in

     Current dimensions of program PWSCF are:
     Max number of different atomic species (ntypx) = 10
     Max number of k-points (npk) =  40000
     Max angular momentum in pseudopotentials (lmaxx) =  4
     file Cu.pbe-spn-kjpaw_psl.1.0.0.UPF: wavefunction(s)  4S 3P 3D renormalized
     Found identity + (  0.0000 -0.5000 -0.5000) symmetry
     This is a supercell, fractional translations are disabled

     R & G space division:  proc/nbgrp/npool/nimage =      10
     Subspace diagonalization in iterative solution of the eigenvalue problem:
     a serial algorithm will be used


     Parallelization info
     --------------------
     sticks:   dense  smooth     PW     G-vecs:    dense   smooth      PW
     Min         189     189     54                 6179     6179     944
     Max         190     190     55                 6183     6183     947
     Sum        1893    1893    545                61805    61805    9459

     Using Slab Decomposition



     bravais-lattice index     =            1
     lattice parameter (alat)  =       6.7604  a.u.
     unit-cell volume          =     308.9657 (a.u.)^3
     number of atoms/cell      =            4
     number of atomic types    =            1
     number of electrons       =        76.00
     number of Kohn-Sham states=           46
     kinetic-energy cutoff     =     130.0000  Ry
     charge density cutoff     =     520.0000  Ry
     scf convergence threshold =      1.0E-08
     mixing beta               =       0.7000
     number of iterations used =            8  plain     mixing
     Exchange-correlation= SLA  PW   PBX  PBC
                           (   1   4   3   4   0   0   0)

     celldm(1)=   6.760364  celldm(2)=   0.000000  celldm(3)=   0.000000
     celldm(4)=   0.000000  celldm(5)=   0.000000  celldm(6)=   0.000000

     crystal axes: (cart. coord. in units of alat)
               a(1) = (   1.000000   0.000000   0.000000 )  
               a(2) = (   0.000000   1.000000   0.000000 )  
               a(3) = (   0.000000   0.000000   1.000000 )  

     reciprocal axes: (cart. coord. in units 2 pi/alat)
               b(1) = (  1.000000  0.000000  0.000000 )  
               b(2) = (  0.000000  1.000000  0.000000 )  
               b(3) = (  0.000000  0.000000  1.000000 )  


     PseudoPot. # 1 for Cu read from file:
     /home/abdul/git_repo/ZnS_Cu-Vacancy/pseudo/QE/Cu.pbe-spn-kjpaw_psl.1.0.0.UPF
     MD5 check sum: e7cbaad2f97193e5fe23251a619a52b0
     Pseudo is Projector augmented-wave + core cor, Zval = 19.0
     Generated using &quot;atomic&quot; code by A. Dal Corso  v.6.3
     Shape of augmentation charge: PSQ
     Using radial grid of 1199 points,  6 beta functions with: 
                l(1) =   0
                l(2) =   0
                l(3) =   1
                l(4) =   1
                l(5) =   2
                l(6) =   2
     Q(r) pseudized with 0 coefficients 


     atomic species   valence    mass     pseudopotential
        Cu            19.00    63.54600     Cu( 1.00)

     48 Sym. Ops., with inversion, found


                                    s                        frac. trans.

      isym =  1     identity                                     

 cryst.   s( 1) = (     1          0          0      )
                  (     0          1          0      )
                  (     0          0          1      )

 cart.    s( 1) = (  1.0000000  0.0000000  0.0000000 )
                  (  0.0000000  1.0000000  0.0000000 )
                  (  0.0000000  0.0000000  1.0000000 )


      isym =  2     180 deg rotation - cart. axis [0,0,1]        

 cryst.   s( 2) = (    -1          0          0      )
                  (     0         -1          0      )
                  (     0          0          1      )

 cart.    s( 2) = ( -1.0000000  0.0000000  0.0000000 )
                  (  0.0000000 -1.0000000  0.0000000 )
                  (  0.0000000  0.0000000  1.0000000 )


      isym =  3     180 deg rotation - cart. axis [0,1,0]        

 cryst.   s( 3) = (    -1          0          0      )
                  (     0          1          0      )
                  (     0          0         -1      )

 cart.    s( 3) = ( -1.0000000  0.0000000  0.0000000 )
                  (  0.0000000  1.0000000  0.0000000 )
                  (  0.0000000  0.0000000 -1.0000000 )


      isym =  4     180 deg rotation - cart. axis [1,0,0]        

 cryst.   s( 4) = (     1          0          0      )
                  (     0         -1          0      )
                  (     0          0         -1      )

 cart.    s( 4) = (  1.0000000  0.0000000  0.0000000 )
                  (  0.0000000 -1.0000000  0.0000000 )
                  (  0.0000000  0.0000000 -1.0000000 )


      isym =  5     180 deg rotation - cart. axis [1,1,0]        

 cryst.   s( 5) = (     0          1          0      )
                  (     1          0          0      )
                  (     0          0         -1      )

 cart.    s( 5) = (  0.0000000  1.0000000  0.0000000 )
                  (  1.0000000  0.0000000  0.0000000 )
                  (  0.0000000  0.0000000 -1.0000000 )


      isym =  6     180 deg rotation - cart. axis [1,-1,0]       

 cryst.   s( 6) = (     0         -1          0      )
                  (    -1          0          0      )
                  (     0          0         -1      )

 cart.    s( 6) = (  0.0000000 -1.0000000  0.0000000 )
                  ( -1.0000000  0.0000000  0.0000000 )
                  (  0.0000000  0.0000000 -1.0000000 )


      isym =  7      90 deg rotation - cart. axis [0,0,-1]       

 cryst.   s( 7) = (     0         -1          0      )
                  (     1          0          0      )
                  (     0          0          1      )

 cart.    s( 7) = (  0.0000000  1.0000000  0.0000000 )
                  ( -1.0000000  0.0000000  0.0000000 )
                  (  0.0000000  0.0000000  1.0000000 )


      isym =  8      90 deg rotation - cart. axis [0,0,1]        

 cryst.   s( 8) = (     0          1          0      )
                  (    -1          0          0      )
                  (     0          0          1      )

 cart.    s( 8) = (  0.0000000 -1.0000000  0.0000000 )
                  (  1.0000000  0.0000000  0.0000000 )
                  (  0.0000000  0.0000000  1.0000000 )


      isym =  9     180 deg rotation - cart. axis [1,0,1]        

 cryst.   s( 9) = (     0          0          1      )
                  (     0         -1          0      )
                  (     1          0          0      )

 cart.    s( 9) = (  0.0000000  0.0000000  1.0000000 )
                  (  0.0000000 -1.0000000  0.0000000 )
                  (  1.0000000  0.0000000  0.0000000 )


      isym = 10     180 deg rotation - cart. axis [-1,0,1]       

 cryst.   s(10) = (     0          0         -1      )
                  (     0         -1          0      )
                  (    -1          0          0      )

 cart.    s(10) = (  0.0000000  0.0000000 -1.0000000 )
                  (  0.0000000 -1.0000000  0.0000000 )
                  ( -1.0000000  0.0000000  0.0000000 )


      isym = 11      90 deg rotation - cart. axis [0,1,0]        

 cryst.   s(11) = (     0          0         -1      )
                  (     0          1          0      )
                  (     1          0          0      )

 cart.    s(11) = (  0.0000000  0.0000000  1.0000000 )
                  (  0.0000000  1.0000000  0.0000000 )
                  ( -1.0000000  0.0000000  0.0000000 )


      isym = 12      90 deg rotation - cart. axis [0,-1,0]       

 cryst.   s(12) = (     0          0          1      )
                  (     0          1          0      )
                  (    -1          0          0      )

 cart.    s(12) = (  0.0000000  0.0000000 -1.0000000 )
                  (  0.0000000  1.0000000  0.0000000 )
                  (  1.0000000  0.0000000  0.0000000 )


      isym = 13     180 deg rotation - cart. axis [0,1,1]        

 cryst.   s(13) = (    -1          0          0      )
                  (     0          0          1      )
                  (     0          1          0      )

 cart.    s(13) = ( -1.0000000  0.0000000  0.0000000 )
                  (  0.0000000  0.0000000  1.0000000 )
                  (  0.0000000  1.0000000  0.0000000 )


      isym = 14     180 deg rotation - cart. axis [0,1,-1]       

 cryst.   s(14) = (    -1          0          0      )
                  (     0          0         -1      )
                  (     0         -1          0      )

 cart.    s(14) = ( -1.0000000  0.0000000  0.0000000 )
                  (  0.0000000  0.0000000 -1.0000000 )
                  (  0.0000000 -1.0000000  0.0000000 )


      isym = 15      90 deg rotation - cart. axis [-1,0,0]       

 cryst.   s(15) = (     1          0          0      )
                  (     0          0         -1      )
                  (     0          1          0      )

 cart.    s(15) = (  1.0000000  0.0000000  0.0000000 )
                  (  0.0000000  0.0000000  1.0000000 )
                  (  0.0000000 -1.0000000  0.0000000 )


      isym = 16      90 deg rotation - cart. axis [1,0,0]        

 cryst.   s(16) = (     1          0          0      )
                  (     0          0          1      )
                  (     0         -1          0      )

 cart.    s(16) = (  1.0000000  0.0000000  0.0000000 )
                  (  0.0000000  0.0000000 -1.0000000 )
                  (  0.0000000  1.0000000  0.0000000 )


      isym = 17     120 deg rotation - cart. axis [-1,-1,-1]     

 cryst.   s(17) = (     0          0          1      )
                  (     1          0          0      )
                  (     0          1          0      )

 cart.    s(17) = (  0.0000000  1.0000000  0.0000000 )
                  (  0.0000000  0.0000000  1.0000000 )
                  (  1.0000000  0.0000000  0.0000000 )


      isym = 18     120 deg rotation - cart. axis [-1,1,1]       

 cryst.   s(18) = (     0          0         -1      )
                  (    -1          0          0      )
                  (     0          1          0      )

 cart.    s(18) = (  0.0000000 -1.0000000  0.0000000 )
                  (  0.0000000  0.0000000  1.0000000 )
                  ( -1.0000000  0.0000000  0.0000000 )


      isym = 19     120 deg rotation - cart. axis [1,1,-1]       

 cryst.   s(19) = (     0          0         -1      )
                  (     1          0          0      )
                  (     0         -1          0      )

 cart.    s(19) = (  0.0000000  1.0000000  0.0000000 )
                  (  0.0000000  0.0000000 -1.0000000 )
                  ( -1.0000000  0.0000000  0.0000000 )


      isym = 20     120 deg rotation - cart. axis [1,-1,1]       

 cryst.   s(20) = (     0          0          1      )
                  (    -1          0          0      )
                  (     0         -1          0      )

 cart.    s(20) = (  0.0000000 -1.0000000  0.0000000 )
                  (  0.0000000  0.0000000 -1.0000000 )
                  (  1.0000000  0.0000000  0.0000000 )


      isym = 21     120 deg rotation - cart. axis [1,1,1]        

 cryst.   s(21) = (     0          1          0      )
                  (     0          0          1      )
                  (     1          0          0      )

 cart.    s(21) = (  0.0000000  0.0000000  1.0000000 )
                  (  1.0000000  0.0000000  0.0000000 )
                  (  0.0000000  1.0000000  0.0000000 )


      isym = 22     120 deg rotation - cart. axis [-1,1,-1]      

 cryst.   s(22) = (     0         -1          0      )
                  (     0          0         -1      )
                  (     1          0          0      )

 cart.    s(22) = (  0.0000000  0.0000000  1.0000000 )
                  ( -1.0000000  0.0000000  0.0000000 )
                  (  0.0000000 -1.0000000  0.0000000 )


      isym = 23     120 deg rotation - cart. axis [1,-1,-1]      

 cryst.   s(23) = (     0         -1          0      )
                  (     0          0          1      )
                  (    -1          0          0      )

 cart.    s(23) = (  0.0000000  0.0000000 -1.0000000 )
                  ( -1.0000000  0.0000000  0.0000000 )
                  (  0.0000000  1.0000000  0.0000000 )


      isym = 24     120 deg rotation - cart. axis [-1,-1,1]      

 cryst.   s(24) = (     0          1          0      )
                  (     0          0         -1      )
                  (    -1          0          0      )

 cart.    s(24) = (  0.0000000  0.0000000 -1.0000000 )
                  (  1.0000000  0.0000000  0.0000000 )
                  (  0.0000000 -1.0000000  0.0000000 )


      isym = 25     inversion                                    

 cryst.   s(25) = (    -1          0          0      )
                  (     0         -1          0      )
                  (     0          0         -1      )

 cart.    s(25) = ( -1.0000000  0.0000000  0.0000000 )
                  (  0.0000000 -1.0000000  0.0000000 )
                  (  0.0000000  0.0000000 -1.0000000 )


      isym = 26     inv. 180 deg rotation - cart. axis [0,0,1]   

 cryst.   s(26) = (     1          0          0      )
                  (     0          1          0      )
                  (     0          0         -1      )

 cart.    s(26) = (  1.0000000  0.0000000  0.0000000 )
                  (  0.0000000  1.0000000  0.0000000 )
                  (  0.0000000  0.0000000 -1.0000000 )


      isym = 27     inv. 180 deg rotation - cart. axis [0,1,0]   

 cryst.   s(27) = (     1          0          0      )
                  (     0         -1          0      )
                  (     0          0          1      )

 cart.    s(27) = (  1.0000000  0.0000000  0.0000000 )
                  (  0.0000000 -1.0000000  0.0000000 )
                  (  0.0000000  0.0000000  1.0000000 )


      isym = 28     inv. 180 deg rotation - cart. axis [1,0,0]   

 cryst.   s(28) = (    -1          0          0      )
                  (     0          1          0      )
                  (     0          0          1      )

 cart.    s(28) = ( -1.0000000  0.0000000  0.0000000 )
                  (  0.0000000  1.0000000  0.0000000 )
                  (  0.0000000  0.0000000  1.0000000 )


      isym = 29     inv. 180 deg rotation - cart. axis [1,1,0]   

 cryst.   s(29) = (     0         -1          0      )
                  (    -1          0          0      )
                  (     0          0          1      )

 cart.    s(29) = (  0.0000000 -1.0000000  0.0000000 )
                  ( -1.0000000  0.0000000  0.0000000 )
                  (  0.0000000  0.0000000  1.0000000 )


      isym = 30     inv. 180 deg rotation - cart. axis [1,-1,0]  

 cryst.   s(30) = (     0          1          0      )
                  (     1          0          0      )
                  (     0          0          1      )

 cart.    s(30) = (  0.0000000  1.0000000  0.0000000 )
                  (  1.0000000  0.0000000  0.0000000 )
                  (  0.0000000  0.0000000  1.0000000 )


      isym = 31     inv.  90 deg rotation - cart. axis [0,0,-1]  

 cryst.   s(31) = (     0          1          0      )
                  (    -1          0          0      )
                  (     0          0         -1      )

 cart.    s(31) = (  0.0000000 -1.0000000  0.0000000 )
                  (  1.0000000  0.0000000  0.0000000 )
                  (  0.0000000  0.0000000 -1.0000000 )


      isym = 32     inv.  90 deg rotation - cart. axis [0,0,1]   

 cryst.   s(32) = (     0         -1          0      )
                  (     1          0          0      )
                  (     0          0         -1      )

 cart.    s(32) = (  0.0000000  1.0000000  0.0000000 )
                  ( -1.0000000  0.0000000  0.0000000 )
                  (  0.0000000  0.0000000 -1.0000000 )


      isym = 33     inv. 180 deg rotation - cart. axis [1,0,1]   

 cryst.   s(33) = (     0          0         -1      )
                  (     0          1          0      )
                  (    -1          0          0      )

 cart.    s(33) = (  0.0000000  0.0000000 -1.0000000 )
                  (  0.0000000  1.0000000  0.0000000 )
                  ( -1.0000000  0.0000000  0.0000000 )


      isym = 34     inv. 180 deg rotation - cart. axis [-1,0,1]  

 cryst.   s(34) = (     0          0          1      )
                  (     0          1          0      )
                  (     1          0          0      )

 cart.    s(34) = (  0.0000000  0.0000000  1.0000000 )
                  (  0.0000000  1.0000000  0.0000000 )
                  (  1.0000000  0.0000000  0.0000000 )


      isym = 35     inv.  90 deg rotation - cart. axis [0,1,0]   

 cryst.   s(35) = (     0          0          1      )
                  (     0         -1          0      )
                  (    -1          0          0      )

 cart.    s(35) = (  0.0000000  0.0000000 -1.0000000 )
                  (  0.0000000 -1.0000000  0.0000000 )
                  (  1.0000000  0.0000000  0.0000000 )


      isym = 36     inv.  90 deg rotation - cart. axis [0,-1,0]  

 cryst.   s(36) = (     0          0         -1      )
                  (     0         -1          0      )
                  (     1          0          0      )

 cart.    s(36) = (  0.0000000  0.0000000  1.0000000 )
                  (  0.0000000 -1.0000000  0.0000000 )
                  ( -1.0000000  0.0000000  0.0000000 )


      isym = 37     inv. 180 deg rotation - cart. axis [0,1,1]   

 cryst.   s(37) = (     1          0          0      )
                  (     0          0         -1      )
                  (     0         -1          0      )

 cart.    s(37) = (  1.0000000  0.0000000  0.0000000 )
                  (  0.0000000  0.0000000 -1.0000000 )
                  (  0.0000000 -1.0000000  0.0000000 )


      isym = 38     inv. 180 deg rotation - cart. axis [0,1,-1]  

 cryst.   s(38) = (     1          0          0      )
                  (     0          0          1      )
                  (     0          1          0      )

 cart.    s(38) = (  1.0000000  0.0000000  0.0000000 )
                  (  0.0000000  0.0000000  1.0000000 )
                  (  0.0000000  1.0000000  0.0000000 )


      isym = 39     inv.  90 deg rotation - cart. axis [-1,0,0]  

 cryst.   s(39) = (    -1          0          0      )
                  (     0          0          1      )
                  (     0         -1          0      )

 cart.    s(39) = ( -1.0000000  0.0000000  0.0000000 )
                  (  0.0000000  0.0000000 -1.0000000 )
                  (  0.0000000  1.0000000  0.0000000 )


      isym = 40     inv.  90 deg rotation - cart. axis [1,0,0]   

 cryst.   s(40) = (    -1          0          0      )
                  (     0          0         -1      )
                  (     0          1          0      )

 cart.    s(40) = ( -1.0000000  0.0000000  0.0000000 )
                  (  0.0000000  0.0000000  1.0000000 )
                  (  0.0000000 -1.0000000  0.0000000 )


      isym = 41     inv. 120 deg rotation - cart. axis [-1,-1,-1]

 cryst.   s(41) = (     0          0         -1      )
                  (    -1          0          0      )
                  (     0         -1          0      )

 cart.    s(41) = (  0.0000000 -1.0000000  0.0000000 )
                  (  0.0000000  0.0000000 -1.0000000 )
                  ( -1.0000000  0.0000000  0.0000000 )


      isym = 42     inv. 120 deg rotation - cart. axis [-1,1,1]  

 cryst.   s(42) = (     0          0          1      )
                  (     1          0          0      )
                  (     0         -1          0      )

 cart.    s(42) = (  0.0000000  1.0000000  0.0000000 )
                  (  0.0000000  0.0000000 -1.0000000 )
                  (  1.0000000  0.0000000  0.0000000 )


      isym = 43     inv. 120 deg rotation - cart. axis [1,1,-1]  

 cryst.   s(43) = (     0          0          1      )
                  (    -1          0          0      )
                  (     0          1          0      )

 cart.    s(43) = (  0.0000000 -1.0000000  0.0000000 )
                  (  0.0000000  0.0000000  1.0000000 )
                  (  1.0000000  0.0000000  0.0000000 )


      isym = 44     inv. 120 deg rotation - cart. axis [1,-1,1]  

 cryst.   s(44) = (     0          0         -1      )
                  (     1          0          0      )
                  (     0          1          0      )

 cart.    s(44) = (  0.0000000  1.0000000  0.0000000 )
                  (  0.0000000  0.0000000  1.0000000 )
                  ( -1.0000000  0.0000000  0.0000000 )


      isym = 45     inv. 120 deg rotation - cart. axis [1,1,1]   

 cryst.   s(45) = (     0         -1          0      )
                  (     0          0         -1      )
                  (    -1          0          0      )

 cart.    s(45) = (  0.0000000  0.0000000 -1.0000000 )
                  ( -1.0000000  0.0000000  0.0000000 )
                  (  0.0000000 -1.0000000  0.0000000 )


      isym = 46     inv. 120 deg rotation - cart. axis [-1,1,-1] 

 cryst.   s(46) = (     0          1          0      )
                  (     0          0          1      )
                  (    -1          0          0      )

 cart.    s(46) = (  0.0000000  0.0000000 -1.0000000 )
                  (  1.0000000  0.0000000  0.0000000 )
                  (  0.0000000  1.0000000  0.0000000 )


      isym = 47     inv. 120 deg rotation - cart. axis [1,-1,-1] 

 cryst.   s(47) = (     0          1          0      )
                  (     0          0         -1      )
                  (     1          0          0      )

 cart.    s(47) = (  0.0000000  0.0000000  1.0000000 )
                  (  1.0000000  0.0000000  0.0000000 )
                  (  0.0000000 -1.0000000  0.0000000 )


      isym = 48     inv. 120 deg rotation - cart. axis [-1,-1,1] 

 cryst.   s(48) = (     0         -1          0      )
                  (     0          0          1      )
                  (     1          0          0      )

 cart.    s(48) = (  0.0000000  0.0000000  1.0000000 )
                  ( -1.0000000  0.0000000  0.0000000 )
                  (  0.0000000  1.0000000  0.0000000 )


     point group O_h (m-3m) 
     there are 10 classes
     the character table:

       E     8C3   3C2   6C4   6C2'  i     8S6   3s_h  6S4   6s_d 
A_1g   1.00  1.00  1.00  1.00  1.00  1.00  1.00  1.00  1.00  1.00
A_2g   1.00  1.00  1.00 -1.00 -1.00  1.00  1.00  1.00 -1.00 -1.00
E_g    2.00 -1.00  2.00  0.00  0.00  2.00 -1.00  2.00  0.00  0.00
T_1g   3.00  0.00 -1.00  1.00 -1.00  3.00  0.00 -1.00  1.00 -1.00
T_2g   3.00  0.00 -1.00 -1.00  1.00  3.00  0.00 -1.00 -1.00  1.00
A_1u   1.00  1.00  1.00  1.00  1.00 -1.00 -1.00 -1.00 -1.00 -1.00
A_2u   1.00  1.00  1.00 -1.00 -1.00 -1.00 -1.00 -1.00  1.00  1.00
E_u    2.00 -1.00  2.00  0.00  0.00 -2.00  1.00 -2.00  0.00  0.00
T_1u   3.00  0.00 -1.00  1.00 -1.00 -3.00  0.00  1.00 -1.00  1.00
T_2u   3.00  0.00 -1.00 -1.00  1.00 -3.00  0.00  1.00  1.00 -1.00

     the symmetry operations in each class and the name of the first element:

     E        1
          identity                                               
     8C3     17   19   20   18   24   21   22   23
          120 deg rotation - cart. axis [-1,-1,-1]               
     3C2      2    4    3
          180 deg rotation - cart. axis [0,0,1]                  
     6C4      7    8   15   16   12   11
           90 deg rotation - cart. axis [0,0,-1]                 
     6C2'     5    6   14   13   10    9
          180 deg rotation - cart. axis [1,1,0]                  
     i       25
          inversion                                              
     8S6     41   43   44   42   48   45   46   47
          inv. 120 deg rotation - cart. axis [-1,-1,-1]          
     3s_h    26   28   27
          inv. 180 deg rotation - cart. axis [0,0,1]             
     6S4     31   32   39   40   36   35
          inv.  90 deg rotation - cart. axis [0,0,-1]            
     6s_d    29   30   38   37   34   33
          inv. 180 deg rotation - cart. axis [1,1,0]             

   Cartesian axes

     site n.     atom                  positions (alat units)
         1           Cu  tau(   1) = (   0.0000000   0.0000000   0.0000000  )
         2           Cu  tau(   2) = (   0.0000000   0.5000000   0.5000000  )
         3           Cu  tau(   3) = (   0.5000000   0.0000000   0.5000000  )
         4           Cu  tau(   4) = (   0.5000000   0.5000000   0.0000000  )

   Crystallographic axes

     site n.     atom                  positions (cryst. coord.)
         1           Cu  tau(   1) = (  0.0000000  0.0000000  0.0000000  )
         2           Cu  tau(   2) = (  0.0000000  0.5000000  0.5000000  )
         3           Cu  tau(   3) = (  0.5000000  0.0000000  0.5000000  )
         4           Cu  tau(   4) = (  0.5000000  0.5000000  0.0000000  )

     number of k points=    84  Marzari-Vanderbilt smearing, width (Ry)=  0.0010
                       cart. coord. in units 2pi/alat
        k(    1) = (   0.0000000   0.0000000   0.0000000), wk =   0.0011574
        k(    2) = (   0.0000000   0.0000000   0.0833333), wk =   0.0069444
        k(    3) = (   0.0000000   0.0000000   0.1666667), wk =   0.0069444
        k(    4) = (   0.0000000   0.0000000   0.2500000), wk =   0.0069444
        k(    5) = (   0.0000000   0.0000000   0.3333333), wk =   0.0069444
        k(    6) = (   0.0000000   0.0000000   0.4166667), wk =   0.0069444
        k(    7) = (   0.0000000   0.0000000  -0.5000000), wk =   0.0034722
        k(    8) = (   0.0000000   0.0833333   0.0833333), wk =   0.0138889
        k(    9) = (   0.0000000   0.0833333   0.1666667), wk =   0.0277778
        k(   10) = (   0.0000000   0.0833333   0.2500000), wk =   0.0277778
        k(   11) = (   0.0000000   0.0833333   0.3333333), wk =   0.0277778
        k(   12) = (   0.0000000   0.0833333   0.4166667), wk =   0.0277778
        k(   13) = (   0.0000000   0.0833333  -0.5000000), wk =   0.0138889
        k(   14) = (   0.0000000   0.1666667   0.1666667), wk =   0.0138889
        k(   15) = (   0.0000000   0.1666667   0.2500000), wk =   0.0277778
        k(   16) = (   0.0000000   0.1666667   0.3333333), wk =   0.0277778
        k(   17) = (   0.0000000   0.1666667   0.4166667), wk =   0.0277778
        k(   18) = (   0.0000000   0.1666667  -0.5000000), wk =   0.0138889
        k(   19) = (   0.0000000   0.2500000   0.2500000), wk =   0.0138889
        k(   20) = (   0.0000000   0.2500000   0.3333333), wk =   0.0277778
        k(   21) = (   0.0000000   0.2500000   0.4166667), wk =   0.0277778
        k(   22) = (   0.0000000   0.2500000  -0.5000000), wk =   0.0138889
        k(   23) = (   0.0000000   0.3333333   0.3333333), wk =   0.0138889
        k(   24) = (   0.0000000   0.3333333   0.4166667), wk =   0.0277778
        k(   25) = (   0.0000000   0.3333333  -0.5000000), wk =   0.0138889
        k(   26) = (   0.0000000   0.4166667   0.4166667), wk =   0.0138889
        k(   27) = (   0.0000000   0.4166667  -0.5000000), wk =   0.0138889
        k(   28) = (   0.0000000  -0.5000000  -0.5000000), wk =   0.0034722
        k(   29) = (   0.0833333   0.0833333   0.0833333), wk =   0.0092593
        k(   30) = (   0.0833333   0.0833333   0.1666667), wk =   0.0277778
        k(   31) = (   0.0833333   0.0833333   0.2500000), wk =   0.0277778
        k(   32) = (   0.0833333   0.0833333   0.3333333), wk =   0.0277778
        k(   33) = (   0.0833333   0.0833333   0.4166667), wk =   0.0277778
        k(   34) = (   0.0833333   0.0833333  -0.5000000), wk =   0.0138889
        k(   35) = (   0.0833333   0.1666667   0.1666667), wk =   0.0277778
        k(   36) = (   0.0833333   0.1666667   0.2500000), wk =   0.0555556
        k(   37) = (   0.0833333   0.1666667   0.3333333), wk =   0.0555556
        k(   38) = (   0.0833333   0.1666667   0.4166667), wk =   0.0555556
        k(   39) = (   0.0833333   0.1666667  -0.5000000), wk =   0.0277778
        k(   40) = (   0.0833333   0.2500000   0.2500000), wk =   0.0277778
        k(   41) = (   0.0833333   0.2500000   0.3333333), wk =   0.0555556
        k(   42) = (   0.0833333   0.2500000   0.4166667), wk =   0.0555556
        k(   43) = (   0.0833333   0.2500000  -0.5000000), wk =   0.0277778
        k(   44) = (   0.0833333   0.3333333   0.3333333), wk =   0.0277778
        k(   45) = (   0.0833333   0.3333333   0.4166667), wk =   0.0555556
        k(   46) = (   0.0833333   0.3333333  -0.5000000), wk =   0.0277778
        k(   47) = (   0.0833333   0.4166667   0.4166667), wk =   0.0277778
        k(   48) = (   0.0833333   0.4166667  -0.5000000), wk =   0.0277778
        k(   49) = (   0.0833333  -0.5000000  -0.5000000), wk =   0.0069444
        k(   50) = (   0.1666667   0.1666667   0.1666667), wk =   0.0092593
        k(   51) = (   0.1666667   0.1666667   0.2500000), wk =   0.0277778
        k(   52) = (   0.1666667   0.1666667   0.3333333), wk =   0.0277778
        k(   53) = (   0.1666667   0.1666667   0.4166667), wk =   0.0277778
        k(   54) = (   0.1666667   0.1666667  -0.5000000), wk =   0.0138889
        k(   55) = (   0.1666667   0.2500000   0.2500000), wk =   0.0277778
        k(   56) = (   0.1666667   0.2500000   0.3333333), wk =   0.0555556
        k(   57) = (   0.1666667   0.2500000   0.4166667), wk =   0.0555556
        k(   58) = (   0.1666667   0.2500000  -0.5000000), wk =   0.0277778
        k(   59) = (   0.1666667   0.3333333   0.3333333), wk =   0.0277778
        k(   60) = (   0.1666667   0.3333333   0.4166667), wk =   0.0555556
        k(   61) = (   0.1666667   0.3333333  -0.5000000), wk =   0.0277778
        k(   62) = (   0.1666667   0.4166667   0.4166667), wk =   0.0277778
        k(   63) = (   0.1666667   0.4166667  -0.5000000), wk =   0.0277778
        k(   64) = (   0.1666667  -0.5000000  -0.5000000), wk =   0.0069444
        k(   65) = (   0.2500000   0.2500000   0.2500000), wk =   0.0092593
        k(   66) = (   0.2500000   0.2500000   0.3333333), wk =   0.0277778
        k(   67) = (   0.2500000   0.2500000   0.4166667), wk =   0.0277778
        k(   68) = (   0.2500000   0.2500000  -0.5000000), wk =   0.0138889
        k(   69) = (   0.2500000   0.3333333   0.3333333), wk =   0.0277778
        k(   70) = (   0.2500000   0.3333333   0.4166667), wk =   0.0555556
        k(   71) = (   0.2500000   0.3333333  -0.5000000), wk =   0.0277778
        k(   72) = (   0.2500000   0.4166667   0.4166667), wk =   0.0277778
        k(   73) = (   0.2500000   0.4166667  -0.5000000), wk =   0.0277778
        k(   74) = (   0.2500000  -0.5000000  -0.5000000), wk =   0.0069444
        k(   75) = (   0.3333333   0.3333333   0.3333333), wk =   0.0092593
        k(   76) = (   0.3333333   0.3333333   0.4166667), wk =   0.0277778
        k(   77) = (   0.3333333   0.3333333  -0.5000000), wk =   0.0138889
        k(   78) = (   0.3333333   0.4166667   0.4166667), wk =   0.0277778
        k(   79) = (   0.3333333   0.4166667  -0.5000000), wk =   0.0277778
        k(   80) = (   0.3333333  -0.5000000  -0.5000000), wk =   0.0069444
        k(   81) = (   0.4166667   0.4166667   0.4166667), wk =   0.0092593
        k(   82) = (   0.4166667   0.4166667  -0.5000000), wk =   0.0138889
        k(   83) = (   0.4166667  -0.5000000  -0.5000000), wk =   0.0069444
        k(   84) = (  -0.5000000  -0.5000000  -0.5000000), wk =   0.0011574

                       cryst. coord.
        k(    1) = (   0.0000000   0.0000000   0.0000000), wk =   0.0011574
        k(    2) = (   0.0000000   0.0000000   0.0833333), wk =   0.0069444
        k(    3) = (   0.0000000   0.0000000   0.1666667), wk =   0.0069444
        k(    4) = (   0.0000000   0.0000000   0.2500000), wk =   0.0069444
        k(    5) = (   0.0000000   0.0000000   0.3333333), wk =   0.0069444
        k(    6) = (   0.0000000   0.0000000   0.4166667), wk =   0.0069444
        k(    7) = (   0.0000000   0.0000000  -0.5000000), wk =   0.0034722
        k(    8) = (   0.0000000   0.0833333   0.0833333), wk =   0.0138889
        k(    9) = (   0.0000000   0.0833333   0.1666667), wk =   0.0277778
        k(   10) = (   0.0000000   0.0833333   0.2500000), wk =   0.0277778
        k(   11) = (   0.0000000   0.0833333   0.3333333), wk =   0.0277778
        k(   12) = (   0.0000000   0.0833333   0.4166667), wk =   0.0277778
        k(   13) = (   0.0000000   0.0833333  -0.5000000), wk =   0.0138889
        k(   14) = (   0.0000000   0.1666667   0.1666667), wk =   0.0138889
        k(   15) = (   0.0000000   0.1666667   0.2500000), wk =   0.0277778
        k(   16) = (   0.0000000   0.1666667   0.3333333), wk =   0.0277778
        k(   17) = (   0.0000000   0.1666667   0.4166667), wk =   0.0277778
        k(   18) = (   0.0000000   0.1666667  -0.5000000), wk =   0.0138889
        k(   19) = (   0.0000000   0.2500000   0.2500000), wk =   0.0138889
        k(   20) = (   0.0000000   0.2500000   0.3333333), wk =   0.0277778
        k(   21) = (   0.0000000   0.2500000   0.4166667), wk =   0.0277778
        k(   22) = (   0.0000000   0.2500000  -0.5000000), wk =   0.0138889
        k(   23) = (   0.0000000   0.3333333   0.3333333), wk =   0.0138889
        k(   24) = (   0.0000000   0.3333333   0.4166667), wk =   0.0277778
        k(   25) = (   0.0000000   0.3333333  -0.5000000), wk =   0.0138889
        k(   26) = (   0.0000000   0.4166667   0.4166667), wk =   0.0138889
        k(   27) = (   0.0000000   0.4166667  -0.5000000), wk =   0.0138889
        k(   28) = (   0.0000000  -0.5000000  -0.5000000), wk =   0.0034722
        k(   29) = (   0.0833333   0.0833333   0.0833333), wk =   0.0092593
        k(   30) = (   0.0833333   0.0833333   0.1666667), wk =   0.0277778
        k(   31) = (   0.0833333   0.0833333   0.2500000), wk =   0.0277778
        k(   32) = (   0.0833333   0.0833333   0.3333333), wk =   0.0277778
        k(   33) = (   0.0833333   0.0833333   0.4166667), wk =   0.0277778
        k(   34) = (   0.0833333   0.0833333  -0.5000000), wk =   0.0138889
        k(   35) = (   0.0833333   0.1666667   0.1666667), wk =   0.0277778
        k(   36) = (   0.0833333   0.1666667   0.2500000), wk =   0.0555556
        k(   37) = (   0.0833333   0.1666667   0.3333333), wk =   0.0555556
        k(   38) = (   0.0833333   0.1666667   0.4166667), wk =   0.0555556
        k(   39) = (   0.0833333   0.1666667  -0.5000000), wk =   0.0277778
        k(   40) = (   0.0833333   0.2500000   0.2500000), wk =   0.0277778
        k(   41) = (   0.0833333   0.2500000   0.3333333), wk =   0.0555556
        k(   42) = (   0.0833333   0.2500000   0.4166667), wk =   0.0555556
        k(   43) = (   0.0833333   0.2500000  -0.5000000), wk =   0.0277778
        k(   44) = (   0.0833333   0.3333333   0.3333333), wk =   0.0277778
        k(   45) = (   0.0833333   0.3333333   0.4166667), wk =   0.0555556
        k(   46) = (   0.0833333   0.3333333  -0.5000000), wk =   0.0277778
        k(   47) = (   0.0833333   0.4166667   0.4166667), wk =   0.0277778
        k(   48) = (   0.0833333   0.4166667  -0.5000000), wk =   0.0277778
        k(   49) = (   0.0833333  -0.5000000  -0.5000000), wk =   0.0069444
        k(   50) = (   0.1666667   0.1666667   0.1666667), wk =   0.0092593
        k(   51) = (   0.1666667   0.1666667   0.2500000), wk =   0.0277778
        k(   52) = (   0.1666667   0.1666667   0.3333333), wk =   0.0277778
        k(   53) = (   0.1666667   0.1666667   0.4166667), wk =   0.0277778
        k(   54) = (   0.1666667   0.1666667  -0.5000000), wk =   0.0138889
        k(   55) = (   0.1666667   0.2500000   0.2500000), wk =   0.0277778
        k(   56) = (   0.1666667   0.2500000   0.3333333), wk =   0.0555556
        k(   57) = (   0.1666667   0.2500000   0.4166667), wk =   0.0555556
        k(   58) = (   0.1666667   0.2500000  -0.5000000), wk =   0.0277778
        k(   59) = (   0.1666667   0.3333333   0.3333333), wk =   0.0277778
        k(   60) = (   0.1666667   0.3333333   0.4166667), wk =   0.0555556
        k(   61) = (   0.1666667   0.3333333  -0.5000000), wk =   0.0277778
        k(   62) = (   0.1666667   0.4166667   0.4166667), wk =   0.0277778
        k(   63) = (   0.1666667   0.4166667  -0.5000000), wk =   0.0277778
        k(   64) = (   0.1666667  -0.5000000  -0.5000000), wk =   0.0069444
        k(   65) = (   0.2500000   0.2500000   0.2500000), wk =   0.0092593
        k(   66) = (   0.2500000   0.2500000   0.3333333), wk =   0.0277778
        k(   67) = (   0.2500000   0.2500000   0.4166667), wk =   0.0277778
        k(   68) = (   0.2500000   0.2500000  -0.5000000), wk =   0.0138889
        k(   69) = (   0.2500000   0.3333333   0.3333333), wk =   0.0277778
        k(   70) = (   0.2500000   0.3333333   0.4166667), wk =   0.0555556
        k(   71) = (   0.2500000   0.3333333  -0.5000000), wk =   0.0277778
        k(   72) = (   0.2500000   0.4166667   0.4166667), wk =   0.0277778
        k(   73) = (   0.2500000   0.4166667  -0.5000000), wk =   0.0277778
        k(   74) = (   0.2500000  -0.5000000  -0.5000000), wk =   0.0069444
        k(   75) = (   0.3333333   0.3333333   0.3333333), wk =   0.0092593
        k(   76) = (   0.3333333   0.3333333   0.4166667), wk =   0.0277778
        k(   77) = (   0.3333333   0.3333333  -0.5000000), wk =   0.0138889
        k(   78) = (   0.3333333   0.4166667   0.4166667), wk =   0.0277778
        k(   79) = (   0.3333333   0.4166667  -0.5000000), wk =   0.0277778
        k(   80) = (   0.3333333  -0.5000000  -0.5000000), wk =   0.0069444
        k(   81) = (   0.4166667   0.4166667   0.4166667), wk =   0.0092593
        k(   82) = (   0.4166667   0.4166667  -0.5000000), wk =   0.0138889
        k(   83) = (   0.4166667  -0.5000000  -0.5000000), wk =   0.0069444
        k(   84) = (  -0.5000000  -0.5000000  -0.5000000), wk =   0.0011574

     Dense  grid:    61805 G-vectors     FFT dimensions: (  50,  50,  50)

     Dynamical RAM for                 wfc:       0.54 MB

     Dynamical RAM for     wfc (w. buffer):      46.12 MB

     Dynamical RAM for           str. fact:       0.09 MB

     Dynamical RAM for           local pot:       0.00 MB

     Dynamical RAM for          nlocal pot:       0.85 MB

     Dynamical RAM for                qrad:       1.83 MB

     Dynamical RAM for          rho,v,vnew:       0.57 MB

     Dynamical RAM for               rhoin:       0.19 MB

     Dynamical RAM for            rho*nmix:       1.51 MB

     Dynamical RAM for           G-vectors:       0.40 MB

     Dynamical RAM for          h,s,v(r/c):       0.39 MB

     Dynamical RAM for          <psi|beta>:       0.05 MB

     Dynamical RAM for                 psi:       1.09 MB

     Dynamical RAM for                hpsi:       1.09 MB

     Dynamical RAM for                spsi:       1.09 MB

     Dynamical RAM for      wfcinit/wfcrot:       1.13 MB

     Dynamical RAM for           addusdens:      17.93 MB

     Estimated static dynamical RAM per process >      50.72 MB

     Estimated max dynamical RAM per process >      70.15 MB

     Estimated total dynamical RAM >     701.52 MB

     The initial density is read from file :
     ./out/Cu.save/charge-density

     Starting wfcs from file
     Checking if some PAW data can be deallocated... 

     total cpu time spent up to now is        1.6 secs

     Self-consistent Calculation

     iteration #  1     ecut=   130.00 Ry     beta= 0.70
     Davidson diagonalization with overlap

---- Real-time Memory Report at c_bands before calling an iterative solver
            86 MiB given to the printing process from OS
             0 MiB allocation reported by mallinfo(arena+hblkhd)
          1177 MiB available memory on the node where the printing process lives
------------------
     ethr =  1.00E-05,  avg # of iterations =  1.8
     Minimization algorithm failed to find Fermi energy: reverting to bisection
     Possible cause: smearing is larger than the electronic band-gap.

     Threshold (ethr) on eigenvalues was too large:
     Diagonalizing with lowered threshold

     Davidson diagonalization with overlap

---- Real-time Memory Report at c_bands before calling an iterative solver
           106 MiB given to the printing process from OS
             0 MiB allocation reported by mallinfo(arena+hblkhd)
           859 MiB available memory on the node where the printing process lives
------------------
     ethr =  3.47E-11,  avg # of iterations =  1.0
     Minimization algorithm failed to find Fermi energy: reverting to bisection
     Possible cause: smearing is larger than the electronic band-gap.

     total cpu time spent up to now is       54.5 secs

     total energy              =   -1947.54852561 Ry
     estimated scf accuracy    <       0.00000003 Ry

     iteration #  2     ecut=   130.00 Ry     beta= 0.70
     Davidson diagonalization with overlap

---- Real-time Memory Report at c_bands before calling an iterative solver
           106 MiB given to the printing process from OS
             0 MiB allocation reported by mallinfo(arena+hblkhd)
           913 MiB available memory on the node where the printing process lives
------------------
     ethr =  3.84E-11,  avg # of iterations =  2.8
     Minimization algorithm failed to find Fermi energy: reverting to bisection
     Possible cause: smearing is larger than the electronic band-gap.

     total cpu time spent up to now is       88.7 secs

     total energy              =   -1947.54852554 Ry
     estimated scf accuracy    <       0.00000063 Ry

     iteration #  3     ecut=   130.00 Ry     beta= 0.70
     Davidson diagonalization with overlap

---- Real-time Memory Report at c_bands before calling an iterative solver
           107 MiB given to the printing process from OS
             0 MiB allocation reported by mallinfo(arena+hblkhd)
           889 MiB available memory on the node where the printing process lives
------------------
     ethr =  3.84E-11,  avg # of iterations =  2.3
     Minimization algorithm failed to find Fermi energy: reverting to bisection
     Possible cause: smearing is larger than the electronic band-gap.

     total cpu time spent up to now is      121.8 secs

     End of self-consistent calculation

          k = 0.0000 0.0000 0.0000 (  7809 PWs)   bands (ev):

   -95.7703 -95.7488 -95.7488 -95.7488 -53.1913 -53.1913 -53.1913 -53.1224
   -53.1224 -53.1224 -53.1224 -53.1224 -53.1224 -53.0759 -53.0759 -53.0759
     7.2460  11.8332  11.8332  11.8333  12.3257  12.3257  12.3257  13.8095
    13.8095  13.8095  14.6843  14.6843  15.2687  15.2687  15.2687  15.4402
    15.4402  15.4402  15.4402  15.4402  15.4402  18.3480  18.3480  18.3480
    24.2199  24.2199  24.2199  30.2284  30.2284  30.2284

     occupation numbers 
     1.0000   1.0000   1.0000   1.0000   1.0000   1.0000   1.0000   1.0000
     1.0000   1.0000   1.0000   1.0000   1.0000   1.0000   1.0000   1.0000
     1.0000   1.0000   1.0000   1.0000   1.0000   1.0000   1.0000   1.0000
     1.0000   1.0000   1.0000   1.0000   1.0000   1.0000   1.0000   1.0000
     1.0000   1.0000   1.0000   1.0000   1.0000   0.0000   0.0000   0.0000
     0.0000   0.0000   0.0000   0.0000   0.0000   0.0000

          k = 0.0000 0.0000 0.0833 (  7757 PWs)   bands (ev):

   -95.7699 -95.7492 -95.7488 -95.7488 -53.1901 -53.1901 -53.1893 -53.1236
   -53.1236 -53.1224 -53.1224 -53.1216 -53.1216 -53.0780 -53.0767 -53.0767
     7.3327  11.8321  11.8748  11.8748  12.3495  12.3507  12.3507  13.7826
    13.8307  13.8307  14.6600  14.6941  15.2372  15.2372  15.2585  15.2756
    15.2756  15.4030  15.4030  15.4402  15.4403  17.8333  18.5890  18.5890
    24.2497  24.2497  24.9033  29.6583  29.6583  29.8641

     occupation numbers 
     1.0000   1.0000   1.0000   1.0000   1.0000   1.0000   1.0000   1.0000
     1.0000   1.0000   1.0000   1.0000   1.0000   1.0000   1.0000   1.0000
     1.0000   1.0000   1.0000   1.0000   1.0000   1.0000   1.0000   1.0000
     1.0000   1.0000   1.0000   1.0000   1.0000   1.0000   1.0000   1.0000
     1.0000   1.0000   1.0000   1.0000   1.0000   0.0000   0.0000   0.0000
     0.0000   0.0000   0.0000   0.0000   0.0000   0.0000

          k = 0.0000 0.0000 0.1667 (  7745 PWs)   bands (ev):

   -95.7689 -95.7502 -95.7488 -95.7488 -53.1866 -53.1866 -53.1837 -53.1270
   -53.1270 -53.1225 -53.1225 -53.1193 -53.1193 -53.0838 -53.0790 -53.0790
     7.5908  11.8111  11.9936  11.9936  12.4196  12.4263  12.4263  13.7042
    13.8937  13.8937  14.5898  14.7226  14.8933  14.8933  15.1457  15.1457
    15.2287  15.2968  15.2968  15.4404  15.4404  16.7417  19.2000  19.2000
    24.3421  24.3421  26.5143  28.4589  28.4589  29.0170

     occupation numbers 
     1.0000   1.0000   1.0000   1.0000   1.0000   1.0000   1.0000   1.0000
     1.0000   1.0000   1.0000   1.0000   1.0000   1.0000   1.0000   1.0000
     1.0000   1.0000   1.0000   1.0000   1.0000   1.0000   1.0000   1.0000
     1.0000   1.0000   1.0000   1.0000   1.0000   1.0000   1.0000   1.0000
     1.0000   1.0000   1.0000   1.0000   1.0000   1.0000   0.0000   0.0000
     0.0000   0.0000   0.0000   0.0000   0.0000   0.0000

          k = 0.0000 0.0000 0.2500 (  7745 PWs)   bands (ev):

   -95.7672 -95.7519 -95.7488 -95.7488 -53.1812 -53.1812 -53.1748 -53.1325
   -53.1325 -53.1227 -53.1226 -53.1156 -53.1156 -53.0932 -53.0827 -53.0827
     8.0141  11.7088  12.1713  12.1713  12.5318  12.5534  12.5534  13.5805
    13.9971  13.9971  14.4454  14.4454  14.4826  14.7681  15.0049  15.0049
    15.1354  15.1354  15.1813  15.4406  15.4406  15.6177  20.0273  20.0273
    24.5056  24.5056  27.1101  27.1101  28.0412  28.0412

     occupation numbers 
     1.0000   1.0000   1.0000   1.0000   1.0000   1.0000   1.0000   1.0000
     1.0000   1.0000   1.0000   1.0000   1.0000   1.0000   1.0000   1.0000
     1.0000   1.0000   1.0000   1.0000   1.0000   1.0000   1.0000   1.0000
     1.0000   1.0000   1.0000   1.0000   1.0000   1.0000   1.0000   1.0000
     1.0000   1.0000   1.0000   1.0000   1.0000   1.0000   0.0000   0.0000
     0.0000   0.0000   0.0000   0.0000   0.0000   0.0000

          k = 0.0000 0.0000 0.3333 (  7756 PWs)   bands (ev):

   -95.7649 -95.7542 -95.7488 -95.7488 -53.1740 -53.1740 -53.1630 -53.1396
   -53.1396 -53.1228 -53.1228 -53.1108 -53.1108 -53.1054 -53.0876 -53.0876
     8.5897  11.4102  12.3732  12.3732  12.6798  12.7339  12.7339  13.4211
    14.0070  14.0070  14.1380  14.1380  14.3554  14.7595  14.8277  14.8395
    14.8395  14.9379  14.9379  15.1199  15.4408  15.4408  20.9933  20.9933
    24.7522  24.7522  25.7611  25.7611  27.1269  27.1269

     occupation numbers 
     1.0000   1.0000   1.0000   1.0000   1.0000   1.0000   1.0000   1.0000
     1.0000   1.0000   1.0000   1.0000   1.0000   1.0000   1.0000   1.0000
     1.0000   1.0000   1.0000   1.0000   1.0000   1.0000   1.0000   1.0000
     1.0000   1.0000   1.0000   1.0000   1.0000   1.0000   1.0000   1.0000
     1.0000   1.0000   1.0000   1.0000   1.0000   1.0000   0.0000   0.0000
     0.0000   0.0000   0.0000   0.0000   0.0000   0.0000

          k = 0.0000 0.0000 0.4167 (  7740 PWs)   bands (ev):

   -95.7623 -95.7568 -95.7488 -95.7488 -53.1657 -53.1657 -53.1493 -53.1479
   -53.1479 -53.1229 -53.1229 -53.1194 -53.1052 -53.1052 -53.0931 -53.0931
     9.2929  10.8340  12.5435  12.5435  12.8545  12.9694  12.9694  13.2381
    13.6083  13.6083  14.2386  14.3085  14.3114  14.3114  14.6955  14.6955
    14.7236  14.7236  14.8975  15.0488  15.4410  15.4410  22.0641  22.0641
    24.4590  24.4590  25.0866  25.0866  26.3640  26.3640

     occupation numbers 
     1.0000   1.0000   1.0000   1.0000   1.0000   1.0000   1.0000   1.0000
     1.0000   1.0000   1.0000   1.0000   1.0000   1.0000   1.0000   1.0000
     1.0000   1.0000   1.0000   1.0000   1.0000   1.0000   1.0000   1.0000
     1.0000   1.0000   1.0000   1.0000   1.0000   1.0000   1.0000   1.0000
     1.0000   1.0000   1.0000   1.0000   1.0000   1.0000   0.0000   0.0000
     0.0000   0.0000   0.0000   0.0000   0.0000   0.0000

          k = 0.0000 0.0000-0.5000 (  7752 PWs)   bands (ev):

   -95.7595 -95.7595 -95.7488 -95.7488 -53.1568 -53.1568 -53.1568 -53.1568
   -53.1344 -53.1344 -53.1229 -53.1229 -53.0992 -53.0992 -53.0992 -53.0992
    10.0746  10.0746  12.6126  12.6126  13.0448  13.0448  13.2611  13.2611
    13.2611  13.2611  14.1880  14.1880  14.5101  14.5101  14.5101  14.5101
    14.6360  14.6360  14.9729  14.9729  15.4410  15.4410  23.2230  23.2230
    23.2230  23.2230  25.3648  25.3648  25.9388  25.9388

     occupation numbers 
     1.0000   1.0000   1.0000   1.0000   1.0000   1.0000   1.0000   1.0000
     1.0000   1.0000   1.0000   1.0000   1.0000   1.0000   1.0000   1.0000
     1.0000   1.0000   1.0000   1.0000   1.0000   1.0000   1.0000   1.0000
     1.0000   1.0000   1.0000   1.0000   1.0000   1.0000   1.0000   1.0000
     1.0000   1.0000   1.0000   1.0000   1.0000   1.0000   0.0000   0.0000
     0.0000   0.0000   0.0000   0.0000   0.0000   0.0000

          k = 0.0000 0.0833 0.0833 (  7731 PWs)   bands (ev):

   -95.7696 -95.7492 -95.7491 -95.7488 -53.1889 -53.1883 -53.1883 -53.1259
   -53.1228 -53.1228 -53.1216 -53.1216 -53.1213 -53.0810 -53.0775 -53.0764
     7.4190  11.8746  11.8746  11.9154  12.3741  12.3741  12.3749  13.7674
    13.8408  13.8497  14.6533  14.6883  15.1549  15.1875  15.1875  15.2071
    15.2689  15.2689  15.4030  15.4030  15.4165  18.0725  18.0725  18.8100
    24.2795  24.9442  24.9442  28.5103  29.7778  29.9858

     occupation numbers 
     1.0000   1.0000   1.0000   1.0000   1.0000   1.0000   1.0000   1.0000
     1.0000   1.0000   1.0000   1.0000   1.0000   1.0000   1.0000   1.0000
     1.0000   1.0000   1.0000   1.0000   1.0000   1.0000   1.0000   1.0000
     1.0000   1.0000   1.0000   1.0000   1.0000   1.0000   1.0000   1.0000
     1.0000   1.0000   1.0000   1.0000   1.0000   0.0000   0.0000   0.0000
     0.0000   0.0000   0.0000   0.0000   0.0000   0.0000

          k = 0.0000 0.0833 0.1667 (  7747 PWs)   bands (ev):

   -95.7685 -95.7502 -95.7491 -95.7488 -53.1855 -53.1852 -53.1830 -53.1300
   -53.1262 -53.1216 -53.1205 -53.1204 -53.1191 -53.0875 -53.0798 -53.0779
     7.6760  11.8567  11.9964  12.0315  12.4427  12.4476  12.4482  13.6967
    13.8978  13.9058  14.5926  14.7144  14.8207  14.8208  15.0485  15.1194
    15.1539  15.2361  15.2965  15.4029  15.4037  17.0036  18.6576  19.3863
    24.3707  25.0708  26.5683  27.1468  28.5696  29.1264

     occupation numbers 
     1.0000   1.0000   1.0000   1.0000   1.0000   1.0000   1.0000   1.0000
     1.0000   1.0000   1.0000   1.0000   1.0000   1.0000   1.0000   1.0000
     1.0000   1.0000   1.0000   1.0000   1.0000   1.0000   1.0000   1.0000
     1.0000   1.0000   1.0000   1.0000   1.0000   1.0000   1.0000   1.0000
     1.0000   1.0000   1.0000   1.0000   1.0000   0.0217   0.0000   0.0000
     0.0000   0.0000   0.0000   0.0000   0.0000   0.0000

          k = 0.0000 0.0833 0.2500 (  7731 PWs)   bands (ev):

   -95.7668 -95.7519 -95.7491 -95.7488 -53.1802 -53.1801 -53.1745 -53.1355
   -53.1316 -53.1215 -53.1202 -53.1167 -53.1152 -53.0969 -53.0836 -53.0812
     8.0972  11.7594  12.1790  12.2057  12.5528  12.5690  12.5729  13.5774
    13.9946  13.9993  14.3761  14.4042  14.4945  14.7654  14.8039  14.9841
    15.0128  15.1349  15.1733  15.4007  15.4026  15.9715  19.4235  20.1860
    24.5205  25.2930  25.8298  27.2175  28.1392  28.6149

     occupation numbers 
     1.0000   1.0000   1.0000   1.0000   1.0000   1.0000   1.0000   1.0000
     1.0000   1.0000   1.0000   1.0000   1.0000   1.0000   1.0000   1.0000
     1.0000   1.0000   1.0000   1.0000   1.0000   1.0000   1.0000   1.0000
     1.0000   1.0000   1.0000   1.0000   1.0000   1.0000   1.0000   1.0000
     1.0000   1.0000   1.0000   1.0000   1.0000   1.0000   0.0000   0.0000
     0.0000   0.0000   0.0000   0.0000   0.0000   0.0000

          k = 0.0000 0.0833 0.3333 (  7740 PWs)   bands (ev):

   -95.7647 -95.7541 -95.7491 -95.7489 -53.1738 -53.1730 -53.1635 -53.1423
   -53.1387 -53.1213 -53.1203 -53.1119 -53.1102 -53.1087 -53.0885 -53.0860
     8.6698  11.4673  12.3879  12.4058  12.6977  12.7381  12.7497  13.4224
    13.9459  13.9866  14.0961  14.1391  14.3984  14.4448  14.8250  14.8334
    14.8475  14.9373  15.0525  15.3308  15.4002  15.4023  20.2951  21.1328
    24.4037  24.9492  25.6219  25.8691  27.2179  28.4637

     occupation numbers 
     1.0000   1.0000   1.0000   1.0000   1.0000   1.0000   1.0000   1.0000
     1.0000   1.0000   1.0000   1.0000   1.0000   1.0000   1.0000   1.0000
     1.0000   1.0000   1.0000   1.0000   1.0000   1.0000   1.0000   1.0000
     1.0000   1.0000   1.0000   1.0000   1.0000   1.0000   1.0000   1.0000
     1.0000   1.0000   1.0000   1.0000   1.0000   1.0000   0.0000   0.0000
     0.0000   0.0000   0.0000   0.0000   0.0000   0.0000

          k = 0.0000 0.0833 0.4167 (  7740 PWs)   bands (ev):

   -95.7621 -95.7566 -95.7490 -95.7489 -53.1663 -53.1647 -53.1505 -53.1500
   -53.1470 -53.1222 -53.1211 -53.1206 -53.1062 -53.1043 -53.0941 -53.0918
     9.3688  10.8978  12.5672  12.5777  12.8687  12.9544  12.9801  13.2438
    13.5585  13.6019  14.1239  14.1638  14.3118  14.4165  14.6881  14.7014
    14.7231  14.8143  14.9143  15.1117  15.4005  15.4017  21.2425  22.1905
    23.3311  24.5704  25.2194  26.0016  26.5128  27.5621

     occupation numbers 
     1.0000   1.0000   1.0000   1.0000   1.0000   1.0000   1.0000   1.0000
     1.0000   1.0000   1.0000   1.0000   1.0000   1.0000   1.0000   1.0000
     1.0000   1.0000   1.0000   1.0000   1.0000   1.0000   1.0000   1.0000
     1.0000   1.0000   1.0000   1.0000   1.0000   1.0000   1.0000   1.0000
     1.0000   1.0000   1.0000   1.0000   1.0000   1.0000   0.0000   0.0000
     0.0000   0.0000   0.0000   0.0000   0.0000   0.0000

          k = 0.0000 0.0833-0.5000 (  7752 PWs)   bands (ev):

   -95.7594 -95.7594 -95.7490 -95.7490 -53.1582 -53.1581 -53.1558 -53.1558
   -53.1364 -53.1364 -53.1209 -53.1209 -53.1002 -53.1002 -53.0980 -53.0980
    10.1449  10.1449  12.6447  12.6447  13.0548  13.0548  13.2261  13.2262
    13.2646  13.2646  14.0903  14.0904  14.5100  14.5100  14.5834  14.5834
    14.6360  14.6360  15.0050  15.0050  15.4011  15.4011  22.2553  22.2553
    23.3403  23.3403  25.6875  25.6875  26.8064  26.8064

     occupation numbers 
     1.0000   1.0000   1.0000   1.0000   1.0000   1.0000   1.0000   1.0000
     1.0000   1.0000   1.0000   1.0000   1.0000   1.0000   1.0000   1.0000
     1.0000   1.0000   1.0000   1.0000   1.0000   1.0000   1.0000   1.0000
     1.0000   1.0000   1.0000   1.0000   1.0000   1.0000   1.0000   1.0000
     1.0000   1.0000   1.0000   1.0000   1.0000   1.0000   0.0000   0.0000
     0.0000   0.0000   0.0000   0.0000   0.0000   0.0000

          k = 0.0000 0.1667 0.1667 (  7761 PWs)   bands (ev):

   -95.7675 -95.7501 -95.7501 -95.7489 -53.1821 -53.1809 -53.1809 -53.1352
   -53.1238 -53.1238 -53.1187 -53.1187 -53.1180 -53.0951 -53.0823 -53.0778
     7.9294  11.9875  11.9875  12.1398  12.5115  12.5126  12.5126  13.6536
    13.9320  13.9408  14.5706  14.6003  14.6344  14.6344  14.7230  15.0423
    15.1464  15.1464  15.2957  15.2957  15.3462  17.5728  17.5728  19.8945
    24.4421  25.6803  26.7323  26.7323  28.8947  28.8947

     occupation numbers 
     1.0000   1.0000   1.0000   1.0000   1.0000   1.0000   1.0000   1.0000
     1.0000   1.0000   1.0000   1.0000   1.0000   1.0000   1.0000   1.0000
     1.0000   1.0000   1.0000   1.0000   1.0000   1.0000   1.0000   1.0000
     1.0000   1.0000   1.0000   1.0000   1.0000   1.0000   1.0000   1.0000
     1.0000   1.0000   1.0000   1.0000   1.0000   0.0000   0.0000   0.0000
     0.0000   0.0000   0.0000   0.0000   0.0000   0.0000

          k = 0.0000 0.1667 0.2500 (  7735 PWs)   bands (ev):

   -95.7659 -95.7517 -95.7500 -95.7490 -53.1774 -53.1768 -53.1739 -53.1412
   -53.1292 -53.1200 -53.1181 -53.1164 -53.1143 -53.1049 -53.0861 -53.0798
     8.3444  11.9055  12.1853  12.3030  12.6158  12.6166  12.6300  13.5579
    13.9917  14.0176  14.1960  14.2776  14.3671  14.5015  14.7832  14.9222
    15.0124  15.0949  15.1336  15.2945  15.3130  16.5329  18.2653  20.6326
    24.0929  24.8196  27.0082  27.5335  28.4371  28.7817

     occupation numbers 
     1.0000   1.0000   1.0000   1.0000   1.0000   1.0000   1.0000   1.0000
     1.0000   1.0000   1.0000   1.0000   1.0000   1.0000   1.0000   1.0000
     1.0000   1.0000   1.0000   1.0000   1.0000   1.0000   1.0000   1.0000
     1.0000   1.0000   1.0000   1.0000   1.0000   1.0000   1.0000   1.0000
     1.0000   1.0000   1.0000   1.0000   1.0000   1.0000   0.0000   0.0000
     0.0000   0.0000   0.0000   0.0000   0.0000   0.0000

          k = 0.0000 0.1667 0.3333 (  7743 PWs)   bands (ev):

   -95.7638 -95.7538 -95.7499 -95.7491 -53.1728 -53.1698 -53.1646 -53.1478
   -53.1361 -53.1173 -53.1163 -53.1156 -53.1150 -53.1086 -53.0910 -53.0837
     8.9074  11.6323  12.4161  12.4966  12.7514  12.7535  12.7959  13.4209
    13.7888  13.9230  14.0292  14.0882  14.1488  14.4430  14.7803  14.8517
    14.8780  14.9359  14.9856  15.2931  15.2983  15.7911  19.0325  21.5330
    22.9141  25.0135  26.1866  27.2559  27.6417  30.4060

     occupation numbers 
     1.0000   1.0000   1.0000   1.0000   1.0000   1.0000   1.0000   1.0000
     1.0000   1.0000   1.0000   1.0000   1.0000   1.0000   1.0000   1.0000
     1.0000   1.0000   1.0000   1.0000   1.0000   1.0000   1.0000   1.0000
     1.0000   1.0000   1.0000   1.0000   1.0000   1.0000   1.0000   1.0000
     1.0000   1.0000   1.0000   1.0000   1.0000   1.0000   0.0000   0.0000
     0.0000   0.0000   0.0000   0.0000   0.0000   0.0000

          k = 0.0000 0.1667 0.4167 (  7718 PWs)   bands (ev):

   -95.7614 -95.7562 -95.7497 -95.7493 -53.1672 -53.1617 -53.1544 -53.1536
   -53.1442 -53.1287 -53.1165 -53.1154 -53.1092 -53.1021 -53.0968 -53.0891
     9.5931  11.0833  12.6244  12.6757  12.9109  12.9120  13.0108  13.2582
    13.4302  13.5812  13.9336  13.9997  14.3165  14.4806  14.6612  14.7037
    14.7226  14.8136  14.9979  15.2918  15.2927  15.3740  19.8681  21.7934
    22.5571  24.8971  25.3943  26.5828  28.0393  29.5364

     occupation numbers 
     1.0000   1.0000   1.0000   1.0000   1.0000   1.0000   1.0000   1.0000
     1.0000   1.0000   1.0000   1.0000   1.0000   1.0000   1.0000   1.0000
     1.0000   1.0000   1.0000   1.0000   1.0000   1.0000   1.0000   1.0000
     1.0000   1.0000   1.0000   1.0000   1.0000   1.0000   1.0000   1.0000
     1.0000   1.0000   1.0000   1.0000   1.0000   1.0000   0.0000   0.0000
     0.0000   0.0000   0.0000   0.0000   0.0000   0.0000

          k = 0.0000 0.1667-0.5000 (  7738 PWs)   bands (ev):

   -95.7588 -95.7588 -95.7495 -95.7495 -53.1610 -53.1610 -53.1530 -53.1530
   -53.1414 -53.1414 -53.1158 -53.1158 -53.1030 -53.1030 -53.0954 -53.0954
    10.3514  10.3514  12.7332  12.7332  13.0838  13.0838  13.1312  13.1312
    13.2739  13.2739  13.9335  13.9335  14.5114  14.5114  14.6227  14.6227
    14.6267  14.6267  15.1492  15.1492  15.2913  15.2913  20.7825  20.7825
    23.6831  23.6831  25.9162  25.9162  28.7242  28.7242

     occupation numbers 
     1.0000   1.0000   1.0000   1.0000   1.0000   1.0000   1.0000   1.0000
     1.0000   1.0000   1.0000   1.0000   1.0000   1.0000   1.0000   1.0000
     1.0000   1.0000   1.0000   1.0000   1.0000   1.0000   1.0000   1.0000
     1.0000   1.0000   1.0000   1.0000   1.0000   1.0000   1.0000   1.0000
     1.0000   1.0000   1.0000   1.0000   1.0000   1.0000   0.0000   0.0000
     0.0000   0.0000   0.0000   0.0000   0.0000   0.0000

          k = 0.0000 0.2500 0.2500 (  7741 PWs)   bands (ev):

   -95.7645 -95.7515 -95.7515 -95.7492 -53.1726 -53.1726 -53.1716 -53.1475
   -53.1252 -53.1252 -53.1148 -53.1131 -53.1129 -53.1129 -53.0900 -53.0802
     8.7482  12.1283  12.1283  12.4472  12.6958  12.7211  12.7211  13.5017
    13.9627  13.9627  13.9915  14.0706  14.0753  14.4635  14.8233  14.8638
    14.9704  14.9704  15.1319  15.1319  15.2316  17.1530  17.1530  21.3061
    22.7470  24.9456  28.0405  28.0405  28.7498  28.7498

     occupation numbers 
     1.0000   1.0000   1.0000   1.0000   1.0000   1.0000   1.0000   1.0000
     1.0000   1.0000   1.0000   1.0000   1.0000   1.0000   1.0000   1.0000
     1.0000   1.0000   1.0000   1.0000   1.0000   1.0000   1.0000   1.0000
     1.0000   1.0000   1.0000   1.0000   1.0000   1.0000   1.0000   1.0000
     1.0000   1.0000   1.0000   1.0000   1.0000   0.0000   0.0000   0.0000
     0.0000   0.0000   0.0000   0.0000   0.0000   0.0000

          k = 0.0000 0.2500 0.3333 (  7727 PWs)   bands (ev):

   -95.7626 -95.7534 -95.7511 -95.7496 -53.1705 -53.1659 -53.1648 -53.1535
   -53.1320 -53.1257 -53.1200 -53.1114 -53.1108 -53.1065 -53.0952 -53.0828
     9.2941  11.8854  12.3937  12.6191  12.7930  12.8403  12.8689  13.4033
    13.6047  13.7732  13.8130  13.9748  14.1830  14.4198  14.7041  14.8183
    14.8705  14.9351  14.9996  15.1306  15.1786  16.2996  17.8279  21.4864
    22.1520  25.2452  26.6958  27.8317  28.7156  29.4638

     occupation numbers 
     1.0000   1.0000   1.0000   1.0000   1.0000   1.0000   1.0000   1.0000
     1.0000   1.0000   1.0000   1.0000   1.0000   1.0000   1.0000   1.0000
     1.0000   1.0000   1.0000   1.0000   1.0000   1.0000   1.0000   1.0000
     1.0000   1.0000   1.0000   1.0000   1.0000   1.0000   1.0000   1.0000
     1.0000   1.0000   1.0000   1.0000   1.0000   1.0000   0.0000   0.0000
     0.0000   0.0000   0.0000   0.0000   0.0000   0.0000

          k = 0.0000 0.2500 0.4167 (  7713 PWs)   bands (ev):

   -95.7603 -95.7556 -95.7508 -95.7499 -53.1676 -53.1590 -53.1574 -53.1569
   -53.1399 -53.1368 -53.1140 -53.1102 -53.1097 -53.1012 -53.0996 -53.0871
     9.9548  11.3719  12.6477  12.8114  12.8595  12.9792  13.0580  13.2736
    13.2959  13.5420  13.7253  13.9043  14.3349  14.4463  14.6059  14.6731
    14.7196  14.7249  15.1313  15.1499  15.1759  15.7451  18.5729  20.3771
    23.1336  25.4194  25.6735  26.9631  29.5356  30.1981

     occupation numbers 
     1.0000   1.0000   1.0000   1.0000   1.0000   1.0000   1.0000   1.0000
     1.0000   1.0000   1.0000   1.0000   1.0000   1.0000   1.0000   1.0000
     1.0000   1.0000   1.0000   1.0000   1.0000   1.0000   1.0000   1.0000
     1.0000   1.0000   1.0000   1.0000   1.0000   1.0000   1.0000   1.0000
     1.0000   1.0000   1.0000   1.0000   1.0000   1.0000   0.0000   0.0000
     0.0000   0.0000   0.0000   0.0000   0.0000   0.0000

          k = 0.0000 0.2500-0.5000 (  7724 PWs)   bands (ev):

   -95.7580 -95.7580 -95.7503 -95.7503 -53.1638 -53.1638 -53.1484 -53.1484
   -53.1476 -53.1476 -53.1095 -53.1095 -53.1076 -53.1076 -53.0929 -53.0929
    10.6794  10.6794  12.8194  12.8194  13.0340  13.0340  13.1276  13.1276
    13.2851  13.2851  13.7969  13.7969  14.5198  14.5198  14.5596  14.5596
    14.5884  14.5884  15.1364  15.1364  15.4057  15.4057  19.4133  19.4133
    24.2279  24.2279  26.2424  26.2424  30.4809  30.4809

     occupation numbers 
     1.0000   1.0000   1.0000   1.0000   1.0000   1.0000   1.0000   1.0000
     1.0000   1.0000   1.0000   1.0000   1.0000   1.0000   1.0000   1.0000
     1.0000   1.0000   1.0000   1.0000   1.0000   1.0000   1.0000   1.0000
     1.0000   1.0000   1.0000   1.0000   1.0000   1.0000   1.0000   1.0000
     1.0000   1.0000   1.0000   1.0000   1.0000   1.0000   0.0000   0.0000
     0.0000   0.0000   0.0000   0.0000   0.0000   0.0000

          k = 0.0000 0.3333 0.3333 (  7706 PWs)   bands (ev):

   -95.7609 -95.7528 -95.7528 -95.7501 -53.1667 -53.1667 -53.1586 -53.1582
   -53.1355 -53.1266 -53.1266 -53.1070 -53.1046 -53.1046 -53.1006 -53.0838
     9.8127  12.1890  12.1890  12.7155  12.8837  12.9629  12.9629  13.3567
    13.5074  13.5074  13.6601  13.9217  14.2584  14.3675  14.6057  14.7283
    14.7283  14.9370  14.9370  15.0771  15.1849  16.8607  16.8607  20.2262
    22.9474  25.5953  27.3741  27.3741  28.4073  28.4073

     occupation numbers 
     1.0000   1.0000   1.0000   1.0000   1.0000   1.0000   1.0000   1.0000
     1.0000   1.0000   1.0000   1.0000   1.0000   1.0000   1.0000   1.0000
     1.0000   1.0000   1.0000   1.0000   1.0000   1.0000   1.0000   1.0000
     1.0000   1.0000   1.0000   1.0000   1.0000   1.0000   1.0000   1.0000
     1.0000   1.0000   1.0000   1.0000   1.0000   1.0000   1.0000   0.0000
     0.0000   0.0000   0.0000   0.0000   0.0000   0.0000

          k = 0.0000 0.3333 0.4167 (  7728 PWs)   bands (ev):

   -95.7589 -95.7547 -95.7522 -95.7508 -53.1666 -53.1626 -53.1611 -53.1506
   -53.1451 -53.1342 -53.1203 -53.1068 -53.1045 -53.1034 -53.0978 -53.0868
    10.4328  11.7278  12.4823  12.7491  13.0078  13.0698  13.1158  13.2791
    13.2948  13.4796  13.5584  13.8301  14.3663  14.3807  14.5212  14.5911
    14.5913  14.7349  14.9456  15.0075  15.4209  16.1785  17.4984  19.1491
    23.8864  26.0752  26.1133  27.4767  28.1996  29.1252

     occupation numbers 
     1.0000   1.0000   1.0000   1.0000   1.0000   1.0000   1.0000   1.0000
     1.0000   1.0000   1.0000   1.0000   1.0000   1.0000   1.0000   1.0000
     1.0000   1.0000   1.0000   1.0000   1.0000   1.0000   1.0000   1.0000
     1.0000   1.0000   1.0000   1.0000   1.0000   1.0000   1.0000   1.0000
     1.0000   1.0000   1.0000   1.0000   1.0000   1.0000   0.0000   0.0000
     0.0000   0.0000   0.0000   0.0000   0.0000   0.0000

          k = 0.0000 0.3333-0.5000 (  7714 PWs)   bands (ev):

   -95.7568 -95.7568 -95.7515 -95.7514 -53.1653 -53.1653 -53.1538 -53.1538
   -53.1424 -53.1424 -53.1136 -53.1136 -53.1033 -53.1033 -53.0917 -53.0917
    11.1008  11.1008  12.6849  12.6849  13.1347  13.1347  13.1792  13.1792
    13.2921  13.2921  13.6921  13.6921  14.4517  14.4517  14.5088  14.5088
    14.5439  14.5439  14.9665  14.9665  15.7301  15.7301  18.2486  18.2486
    24.9467  24.9467  26.6989  26.6990  29.1544  29.1544

     occupation numbers 
     1.0000   1.0000   1.0000   1.0000   1.0000   1.0000   1.0000   1.0000
     1.0000   1.0000   1.0000   1.0000   1.0000   1.0000   1.0000   1.0000
     1.0000   1.0000   1.0000   1.0000   1.0000   1.0000   1.0000   1.0000
     1.0000   1.0000   1.0000   1.0000   1.0000   1.0000   1.0000   1.0000
     1.0000   1.0000   1.0000   1.0000   1.0000   1.0000   0.0000   0.0000
     0.0000   0.0000   0.0000   0.0000   0.0000   0.0000

          k = 0.0000 0.4167 0.4167 (  7722 PWs)   bands (ev):

   -95.7573 -95.7538 -95.7538 -95.7517 -53.1647 -53.1638 -53.1638 -53.1528
   -53.1433 -53.1276 -53.1276 -53.1134 -53.1005 -53.0971 -53.0971 -53.0885
    10.9902  12.0938  12.0938  12.6151  13.1761  13.1761  13.1798  13.2651
    13.3930  13.4312  13.4312  13.7417  14.3166  14.4343  14.4661  14.4689
    14.4689  14.7597  14.7597  14.8904  15.7262  16.6911  16.6911  18.1333
    24.7870  26.6123  26.9559  26.9559  28.1343  28.1343

     occupation numbers 
     1.0000   1.0000   1.0000   1.0000   1.0000   1.0000   1.0000   1.0000
     1.0000   1.0000   1.0000   1.0000   1.0000   1.0000   1.0000   1.0000
     1.0000   1.0000   1.0000   1.0000   1.0000   1.0000   1.0000   1.0000
     1.0000   1.0000   1.0000   1.0000   1.0000   1.0000   1.0000   1.0000
     1.0000   1.0000   1.0000   1.0000   1.0000   1.0000   1.0000   0.0000
     0.0000   0.0000   0.0000   0.0000   0.0000   0.0000

          k = 0.0000 0.4167-0.5000 (  7740 PWs)   bands (ev):

   -95.7555 -95.7555 -95.7528 -95.7527 -53.1651 -53.1651 -53.1591 -53.1591
   -53.1355 -53.1354 -53.1205 -53.1205 -53.0980 -53.0980 -53.0920 -53.0920
    11.5692  11.5692  12.4024  12.4024  13.2290  13.2290  13.2880  13.2880
    13.3185  13.3185  13.6020  13.6020  14.3563  14.3563  14.4052  14.4052
    14.5948  14.5948  14.8087  14.8087  16.1260  16.1260  17.3257  17.3257
    25.8149  25.8149  27.2961  27.2961  27.9297  27.9297

     occupation numbers 
     1.0000   1.0000   1.0000   1.0000   1.0000   1.0000   1.0000   1.0000
     1.0000   1.0000   1.0000   1.0000   1.0000   1.0000   1.0000   1.0000
     1.0000   1.0000   1.0000   1.0000   1.0000   1.0000   1.0000   1.0000
     1.0000   1.0000   1.0000   1.0000   1.0000   1.0000   1.0000   1.0000
     1.0000   1.0000   1.0000   1.0000   1.0000   1.0000   0.0000   0.0000
     0.0000   0.0000   0.0000   0.0000   0.0000   0.0000

          k = 0.0000-0.5000-0.5000 (  7692 PWs)   bands (ev):

   -95.7542 -95.7541 -95.7541 -95.7541 -53.1630 -53.1630 -53.1630 -53.1630
   -53.1280 -53.1280 -53.1280 -53.1280 -53.0942 -53.0942 -53.0942 -53.0942
    12.0222  12.0222  12.0222  12.0222  13.2672  13.2672  13.2672  13.2672
    13.4846  13.4846  13.4847  13.4847  14.3355  14.3355  14.3355  14.3355
    14.6821  14.6821  14.6821  14.6821  16.6360  16.6360  16.6360  16.6360
    26.8136  26.8136  26.8136  26.8136  28.0412  28.0412

     occupation numbers 
     1.0000   1.0000   1.0000   1.0000   1.0000   1.0000   1.0000   1.0000
     1.0000   1.0000   1.0000   1.0000   1.0000   1.0000   1.0000   1.0000
     1.0000   1.0000   1.0000   1.0000   1.0000   1.0000   1.0000   1.0000
     1.0000   1.0000   1.0000   1.0000   1.0000   1.0000   1.0000   1.0000
     1.0000   1.0000   1.0000   1.0000   1.0000   1.0000   1.0000   1.0000
     0.0000   0.0000   0.0000   0.0000   0.0000   0.0000

          k = 0.0833 0.0833 0.0833 (  7739 PWs)   bands (ev):

   -95.7692 -95.7492 -95.7491 -95.7491 -53.1872 -53.1872 -53.1872 -53.1249
   -53.1249 -53.1249 -53.1205 -53.1205 -53.1205 -53.0841 -53.0771 -53.0771
     7.5049  11.9160  11.9160  11.9160  12.3978  12.3978  12.3978  13.7532
    13.8585  13.8585  14.6657  14.6657  15.1016  15.1016  15.1016  15.1803
    15.1803  15.1803  15.3986  15.3986  15.3986  18.2865  18.2865  18.2865
    24.9854  24.9854  24.9854  28.6226  28.6226  28.6226

     occupation numbers 
     1.0000   1.0000   1.0000   1.0000   1.0000   1.0000   1.0000   1.0000
     1.0000   1.0000   1.0000   1.0000   1.0000   1.0000   1.0000   1.0000
     1.0000   1.0000   1.0000   1.0000   1.0000   1.0000   1.0000   1.0000
     1.0000   1.0000   1.0000   1.0000   1.0000   1.0000   1.0000   1.0000
     1.0000   1.0000   1.0000   1.0000   1.0000   0.0000   0.0000   0.0000
     0.0000   0.0000   0.0000   0.0000   0.0000   0.0000

          k = 0.0833 0.0833 0.1667 (  7749 PWs)   bands (ev):

   -95.7682 -95.7502 -95.7491 -95.7491 -53.1842 -53.1842 -53.1823 -53.1289
   -53.1289 -53.1222 -53.1197 -53.1197 -53.1183 -53.0910 -53.0794 -53.0782
     7.7607  11.9006  12.0346  12.0346  12.4652  12.4692  12.4692  13.6890
    13.9069  13.9114  14.6018  14.7021  14.7557  14.7557  14.9393  15.0995
    15.1001  15.1001  15.3505  15.3872  15.3872  17.2176  18.8308  18.8308
    25.1110  25.1110  26.6219  27.2545  27.2545  28.9541

     occupation numbers 
     1.0000   1.0000   1.0000   1.0000   1.0000   1.0000   1.0000   1.0000
     1.0000   1.0000   1.0000   1.0000   1.0000   1.0000   1.0000   1.0000
     1.0000   1.0000   1.0000   1.0000   1.0000   1.0000   1.0000   1.0000
     1.0000   1.0000   1.0000   1.0000   1.0000   1.0000   1.0000   1.0000
     1.0000   1.0000   1.0000   1.0000   1.0000   0.0000   0.0000   0.0000
     0.0000   0.0000   0.0000   0.0000   0.0000   0.0000

          k = 0.0833 0.0833 0.2500 (  7734 PWs)   bands (ev):

   -95.7665 -95.7518 -95.7491 -95.7491 -53.1794 -53.1794 -53.1744 -53.1342
   -53.1342 -53.1193 -53.1193 -53.1179 -53.1147 -53.1005 -53.0830 -53.0814
     8.1797  11.8077  12.2129  12.2129  12.5734  12.5882  12.5882  13.5750
    13.9927  13.9985  14.3399  14.3399  14.5118  14.6618  14.7598  14.9692
    14.9758  14.9758  15.2825  15.3777  15.3778  16.1858  19.5650  19.5650
    25.3046  25.3046  25.9518  25.9518  28.6636  29.4996

     occupation numbers 
     1.0000   1.0000   1.0000   1.0000   1.0000   1.0000   1.0000   1.0000
     1.0000   1.0000   1.0000   1.0000   1.0000   1.0000   1.0000   1.0000
     1.0000   1.0000   1.0000   1.0000   1.0000   1.0000   1.0000   1.0000
     1.0000   1.0000   1.0000   1.0000   1.0000   1.0000   1.0000   1.0000
     1.0000   1.0000   1.0000   1.0000   1.0000   1.0000   0.0000   0.0000
     0.0000   0.0000   0.0000   0.0000   0.0000   0.0000

          k = 0.0833 0.0833 0.3333 (  7746 PWs)   bands (ev):

   -95.7644 -95.7540 -95.7491 -95.7491 -53.1731 -53.1731 -53.1641 -53.1407
   -53.1407 -53.1192 -53.1192 -53.1122 -53.1120 -53.1101 -53.0876 -53.0862
     8.7490  11.5214  12.4192  12.4192  12.7159  12.7526  12.7526  13.4247
    13.9313  13.9313  14.0784  14.1181  14.3155  14.4435  14.8034  14.8230
    14.8230  14.8348  15.2013  15.3723  15.3723  15.4574  20.4125  20.4125
    24.6175  24.6175  25.7305  25.7305  28.5557  28.5557

     occupation numbers 
     1.0000   1.0000   1.0000   1.0000   1.0000   1.0000   1.0000   1.0000
     1.0000   1.0000   1.0000   1.0000   1.0000   1.0000   1.0000   1.0000
     1.0000   1.0000   1.0000   1.0000   1.0000   1.0000   1.0000   1.0000
     1.0000   1.0000   1.0000   1.0000   1.0000   1.0000   1.0000   1.0000
     1.0000   1.0000   1.0000   1.0000   1.0000   1.0000   0.0000   0.0000
     0.0000   0.0000   0.0000   0.0000   0.0000   0.0000

          k = 0.0833 0.0833 0.4167 (  7733 PWs)   bands (ev):

   -95.7619 -95.7565 -95.7491 -95.7491 -53.1662 -53.1662 -53.1518 -53.1478
   -53.1478 -53.1250 -53.1192 -53.1192 -53.1058 -53.1046 -53.0930 -53.0922
     9.4433  10.9588  12.6009  12.6009  12.8838  12.9569  12.9569  13.2507
    13.5639  13.5639  14.0787  14.0810  14.2663  14.5067  14.6203  14.6864
    14.6864  14.9222  15.0107  15.1110  15.3697  15.3698  21.3330  21.3330
    23.4814  23.4814  26.1891  26.1891  27.6489  27.6489

     occupation numbers 
     1.0000   1.0000   1.0000   1.0000   1.0000   1.0000   1.0000   1.0000
     1.0000   1.0000   1.0000   1.0000   1.0000   1.0000   1.0000   1.0000
     1.0000   1.0000   1.0000   1.0000   1.0000   1.0000   1.0000   1.0000
     1.0000   1.0000   1.0000   1.0000   1.0000   1.0000   1.0000   1.0000
     1.0000   1.0000   1.0000   1.0000   1.0000   1.0000   0.0000   0.0000
     0.0000   0.0000   0.0000   0.0000   0.0000   0.0000

          k = 0.0833 0.0833-0.5000 (  7736 PWs)   bands (ev):

   -95.7592 -95.7592 -95.7491 -95.7491 -53.1614 -53.1614 -53.1526 -53.1526
   -53.1385 -53.1385 -53.1192 -53.1192 -53.0989 -53.0989 -53.0988 -53.0988
    10.2132  10.2133  12.6776  12.6776  13.0661  13.0661  13.1460  13.1460
    13.3157  13.3158  14.0336  14.0336  14.4369  14.4369  14.6292  14.6292
    14.7102  14.7102  15.0161  15.0161  15.3690  15.3690  22.1163  22.1163
    22.6258  22.6258  26.6705  26.6705  27.0127  27.0127

     occupation numbers 
     1.0000   1.0000   1.0000   1.0000   1.0000   1.0000   1.0000   1.0000
     1.0000   1.0000   1.0000   1.0000   1.0000   1.0000   1.0000   1.0000
     1.0000   1.0000   1.0000   1.0000   1.0000   1.0000   1.0000   1.0000
     1.0000   1.0000   1.0000   1.0000   1.0000   1.0000   1.0000   1.0000
     1.0000   1.0000   1.0000   1.0000   1.0000   1.0000   0.0000   0.0000
     0.0000   0.0000   0.0000   0.0000   0.0000   0.0000

          k = 0.0833 0.1667 0.1667 (  7736 PWs)   bands (ev):

   -95.7672 -95.7501 -95.7501 -95.7492 -53.1813 -53.1803 -53.1803 -53.1337
   -53.1257 -53.1257 -53.1174 -53.1174 -53.1173 -53.0985 -53.0812 -53.0785
     8.0126  12.0267  12.0267  12.1438  12.5322  12.5330  12.5330  13.6485
    13.9373  13.9422  14.5429  14.5760  14.5760  14.5930  14.7047  14.9964
    15.0279  15.0279  15.3441  15.3441  15.3543  17.7279  17.7280  19.2966
    25.1954  25.8112  26.7762  26.7762  27.5800  27.5800

     occupation numbers 
     1.0000   1.0000   1.0000   1.0000   1.0000   1.0000   1.0000   1.0000
     1.0000   1.0000   1.0000   1.0000   1.0000   1.0000   1.0000   1.0000
     1.0000   1.0000   1.0000   1.0000   1.0000   1.0000   1.0000   1.0000
     1.0000   1.0000   1.0000   1.0000   1.0000   1.0000   1.0000   1.0000
     1.0000   1.0000   1.0000   1.0000   1.0000   0.0000   0.0000   0.0000
     0.0000   0.0000   0.0000   0.0000   0.0000   0.0000

          k = 0.0833 0.1667 0.2500 (  7728 PWs)   bands (ev):

   -95.7656 -95.7517 -95.7500 -95.7493 -53.1772 -53.1769 -53.1740 -53.1391
   -53.1306 -53.1208 -53.1166 -53.1157 -53.1136 -53.1084 -53.0848 -53.0804
     8.4248  11.9462  12.2169  12.3080  12.6354  12.6357  12.6456  13.5582
    13.9900  14.0087  14.1698  14.2255  14.3120  14.5335  14.7701  14.8821
    14.8982  14.9307  15.2791  15.3180  15.3214  16.6607  18.3832  19.9571
    24.3125  25.5518  26.1910  27.1070  28.0391  28.8964

     occupation numbers 
     1.0000   1.0000   1.0000   1.0000   1.0000   1.0000   1.0000   1.0000
     1.0000   1.0000   1.0000   1.0000   1.0000   1.0000   1.0000   1.0000
     1.0000   1.0000   1.0000   1.0000   1.0000   1.0000   1.0000   1.0000
     1.0000   1.0000   1.0000   1.0000   1.0000   1.0000   1.0000   1.0000
     1.0000   1.0000   1.0000   1.0000   1.0000   1.0000   0.0000   0.0000
     0.0000   0.0000   0.0000   0.0000   0.0000   0.0000

          k = 0.0833 0.1667 0.3333 (  7732 PWs)   bands (ev):

   -95.7636 -95.7537 -95.7499 -95.7494 -53.1731 -53.1714 -53.1656 -53.1445
   -53.1366 -53.1197 -53.1159 -53.1148 -53.1147 -53.1086 -53.0896 -53.0843
     8.9837  11.6767  12.4402  12.5036  12.7667  12.7709  12.7981  13.4270
    13.7896  13.8845  14.0230  14.0442  14.1115  14.5025  14.7325  14.7530
    14.7984  14.8684  15.1833  15.2972  15.2979  15.8593  19.1249  20.7314
    23.0946  24.9477  25.8991  27.5085  28.7214  28.8356

     occupation numbers 
     1.0000   1.0000   1.0000   1.0000   1.0000   1.0000   1.0000   1.0000
     1.0000   1.0000   1.0000   1.0000   1.0000   1.0000   1.0000   1.0000
     1.0000   1.0000   1.0000   1.0000   1.0000   1.0000   1.0000   1.0000
     1.0000   1.0000   1.0000   1.0000   1.0000   1.0000   1.0000   1.0000
     1.0000   1.0000   1.0000   1.0000   1.0000   1.0000   0.0000   0.0000
     0.0000   0.0000   0.0000   0.0000   0.0000   0.0000

          k = 0.0833 0.1667 0.4167 (  7739 PWs)   bands (ev):

   -95.7612 -95.7561 -95.7498 -95.7495 -53.1686 -53.1664 -53.1553 -53.1487
   -53.1430 -53.1317 -53.1152 -53.1145 -53.1081 -53.1026 -53.0952 -53.0897
     9.6633  11.1356  12.6504  12.6947  12.8975  12.9292  12.9660  13.2695
    13.4726  13.5729  13.9047  13.9859  14.2379  14.5562  14.5904  14.6395
    14.6680  14.9870  15.0268  15.2855  15.2856  15.3700  19.9367  21.3976
    22.2015  23.7992  26.3986  27.7926  28.1704  29.5396

     occupation numbers 
     1.0000   1.0000   1.0000   1.0000   1.0000   1.0000   1.0000   1.0000
     1.0000   1.0000   1.0000   1.0000   1.0000   1.0000   1.0000   1.0000
     1.0000   1.0000   1.0000   1.0000   1.0000   1.0000   1.0000   1.0000
     1.0000   1.0000   1.0000   1.0000   1.0000   1.0000   1.0000   1.0000
     1.0000   1.0000   1.0000   1.0000   1.0000   1.0000   0.0000   0.0000
     0.0000   0.0000   0.0000   0.0000   0.0000   0.0000

          k = 0.0833 0.1667-0.5000 (  7734 PWs)   bands (ev):

   -95.7587 -95.7587 -95.7497 -95.7496 -53.1653 -53.1653 -53.1483 -53.1483
   -53.1438 -53.1438 -53.1147 -53.1147 -53.1015 -53.1014 -53.0961 -53.0961
    10.4134  10.4134  12.7681  12.7681  13.0208  13.0208  13.0994  13.0994
    13.3615  13.3616  13.9138  13.9138  14.3876  14.3876  14.6014  14.6014
    14.7929  14.7929  15.1314  15.1314  15.2819  15.2819  20.8058  20.8058
    22.7688  22.7688  27.0495  27.0495  28.8040  28.8040

     occupation numbers 
[...]
     1.0000   1.0000   1.0000   1.0000   1.0000   1.0000   1.0000   1.0000
     1.0000   1.0000   1.0000   1.0000   1.0000   1.0000   1.0000   1.0000
     1.0000   1.0000   1.0000   1.0000   1.0000   1.0000   0.0000   0.0000
     0.0000   0.0000   0.0000   0.0000   0.0000   0.0000

          k = 0.2500 0.3333 0.3333 (  7728 PWs)   bands (ev):

   -95.7593 -95.7528 -95.7528 -95.7517 -53.1825 -53.1801 -53.1801 -53.1574
   -53.1228 -53.1151 -53.1151 -53.1036 -53.1029 -53.1029 -53.0908 -53.0872
    10.3388  12.1203  12.1203  12.3281  13.1764  13.2270  13.2270  13.5906
    13.7290  13.7290  13.8059  13.9173  13.9428  14.2384  14.2384  14.2562
    14.8407  15.0408  15.2764  15.2930  15.2930  17.1635  17.1635  18.5729
    21.5829  23.1773  23.1773  26.9965  30.6731  32.4662

     occupation numbers 
     1.0000   1.0000   1.0000   1.0000   1.0000   1.0000   1.0000   1.0000
     1.0000   1.0000   1.0000   1.0000   1.0000   1.0000   1.0000   1.0000
     1.0000   1.0000   1.0000   1.0000   1.0000   1.0000   1.0000   1.0000
     1.0000   1.0000   1.0000   1.0000   1.0000   1.0000   1.0000   1.0000
     1.0000   1.0000   1.0000   1.0000   1.0000   0.0000   0.0000   0.0000
     0.0000   0.0000   0.0000   0.0000   0.0000   0.0000

          k = 0.2500 0.3333 0.4167 (  7735 PWs)   bands (ev):

   -95.7577 -95.7544 -95.7525 -95.7519 -53.1845 -53.1833 -53.1782 -53.1663
   -53.1203 -53.1162 -53.1062 -53.1016 -53.1013 -53.0987 -53.0947 -53.0896
    10.8292  11.7658  12.1753  12.2755  13.2868  13.3286  13.4269  13.6332
    13.7348  13.7859  13.8480  13.8601  13.9563  14.1119  14.1753  14.1772
    14.9428  15.2335  15.2385  15.2386  15.2398  16.2253  17.6399  18.5457
    21.1650  22.1700  23.9243  25.8345  31.2951  32.7479

     occupation numbers 
     1.0000   1.0000   1.0000   1.0000   1.0000   1.0000   1.0000   1.0000
     1.0000   1.0000   1.0000   1.0000   1.0000   1.0000   1.0000   1.0000
     1.0000   1.0000   1.0000   1.0000   1.0000   1.0000   1.0000   1.0000
     1.0000   1.0000   1.0000   1.0000   1.0000   1.0000   1.0000   1.0000
     1.0000   1.0000   1.0000   1.0000   1.0000   1.0000   0.0000   0.0000
     0.0000   0.0000   0.0000   0.0000   0.0000   0.0000

          k = 0.2500 0.3333-0.5000 (  7740 PWs)   bands (ev):

   -95.7560 -95.7560 -95.7522 -95.7522 -53.1848 -53.1848 -53.1735 -53.1735
   -53.1181 -53.1180 -53.1008 -53.1008 -53.0995 -53.0995 -53.0938 -53.0938
    11.3233  11.3233  12.2249  12.2249  13.3402  13.3402  13.5886  13.5886
    13.7660  13.7660  13.8622  13.8622  14.0151  14.0151  14.1470  14.1470
    15.1181  15.1181  15.2120  15.2120  15.5819  15.5819  18.1553  18.1553
    21.4400  21.4400  24.8107  24.8107  32.0411  32.0411

     occupation numbers 
     1.0000   1.0000   1.0000   1.0000   1.0000   1.0000   1.0000   1.0000
     1.0000   1.0000   1.0000   1.0000   1.0000   1.0000   1.0000   1.0000
     1.0000   1.0000   1.0000   1.0000   1.0000   1.0000   1.0000   1.0000
     1.0000   1.0000   1.0000   1.0000   1.0000   1.0000   1.0000   1.0000
     1.0000   1.0000   1.0000   1.0000   1.0000   1.0000   0.0000   0.0000
     0.0000   0.0000   0.0000   0.0000   0.0000   0.0000

          k = 0.2500 0.4167 0.4167 (  7735 PWs)   bands (ev):

   -95.7565 -95.7538 -95.7538 -95.7525 -53.1863 -53.1830 -53.1830 -53.1741
   -53.1158 -53.1088 -53.1088 -53.0987 -53.0984 -53.0970 -53.0970 -53.0902
    11.2052  11.8916  11.8916  12.1388  13.4217  13.5263  13.5263  13.7929
    13.8024  13.8394  13.8394  13.9308  13.9627  14.0627  14.0627  14.0787
    14.9474  15.1736  15.1736  15.1843  15.5163  16.6583  16.6583  17.9125
    21.3668  22.8557  22.8557  24.6924  31.9390  33.6013

     occupation numbers 
     1.0000   1.0000   1.0000   1.0000   1.0000   1.0000   1.0000   1.0000
     1.0000   1.0000   1.0000   1.0000   1.0000   1.0000   1.0000   1.0000
     1.0000   1.0000   1.0000   1.0000   1.0000   1.0000   1.0000   1.0000
     1.0000   1.0000   1.0000   1.0000   1.0000   1.0000   1.0000   1.0000
     1.0000   1.0000   1.0000   1.0000   1.0000   1.0000   1.0000   0.0000
     0.0000   0.0000   0.0000   0.0000   0.0000   0.0000

          k = 0.2500 0.4167-0.5000 (  7742 PWs)   bands (ev):

   -95.7551 -95.7551 -95.7532 -95.7531 -53.1858 -53.1858 -53.1799 -53.1799
   -53.1120 -53.1120 -53.1030 -53.1030 -53.0970 -53.0970 -53.0930 -53.0929
    11.5670  11.5670  12.0128  12.0128  13.5074  13.5074  13.6948  13.6948
    13.8574  13.8574  13.9621  13.9621  13.9752  13.9752  14.0435  14.0435
    15.0529  15.0529  15.1482  15.1482  15.9503  15.9503  17.2274  17.2274
    21.9863  21.9863  23.6992  23.6992  32.7179  32.7179

     occupation numbers 
     1.0000   1.0000   1.0000   1.0000   1.0000   1.0000   1.0000   1.0000
     1.0000   1.0000   1.0000   1.0000   1.0000   1.0000   1.0000   1.0000
     1.0000   1.0000   1.0000   1.0000   1.0000   1.0000   1.0000   1.0000
     1.0000   1.0000   1.0000   1.0000   1.0000   1.0000   1.0000   1.0000
     1.0000   1.0000   1.0000   1.0000   1.0000   1.0000   0.0000   0.0000
     0.0000   0.0000   0.0000   0.0000   0.0000   0.0000

          k = 0.2500-0.5000-0.5000 (  7720 PWs)   bands (ev):

   -95.7541 -95.7541 -95.7541 -95.7541 -53.1841 -53.1841 -53.1841 -53.1841
   -53.1071 -53.1071 -53.1071 -53.1071 -53.0941 -53.0941 -53.0941 -53.0941
    11.7962  11.7962  11.7962  11.7962  13.6331  13.6331  13.6331  13.6331
    13.9702  13.9702  13.9702  13.9702  13.9914  13.9914  13.9914  13.9914
    15.0689  15.0689  15.0689  15.0690  16.4784  16.4784  16.4785  16.4785
    22.7540  22.7540  22.7540  22.7540  33.5255  33.5255

     occupation numbers 
     1.0000   1.0000   1.0000   1.0000   1.0000   1.0000   1.0000   1.0000
     1.0000   1.0000   1.0000   1.0000   1.0000   1.0000   1.0000   1.0000
     1.0000   1.0000   1.0000   1.0000   1.0000   1.0000   1.0000   1.0000
     1.0000   1.0000   1.0000   1.0000   1.0000   1.0000   1.0000   1.0000
     1.0000   1.0000   1.0000   1.0000   1.0000   1.0000   1.0000   1.0000
     0.0000   0.0000   0.0000   0.0000   0.0000   0.0000

          k = 0.3333 0.3333 0.3333 (  7748 PWs)   bands (ev):

   -95.7582 -95.7528 -95.7528 -95.7528 -53.1852 -53.1852 -53.1852 -53.1670
   -53.1118 -53.1118 -53.1118 -53.1012 -53.1012 -53.1012 -53.0896 -53.0896
    10.6918  12.0774  12.0774  12.0774  13.3685  13.3685  13.3685  13.7770
    13.8776  13.8776  13.8776  13.8936  13.8936  14.1160  14.1160  14.1160
    15.0011  15.0011  15.3088  15.3088  15.3088  17.3886  17.3886  17.3886
    22.0624  22.0624  22.0624  25.7060  32.9533  32.9533

     occupation numbers 
     1.0000   1.0000   1.0000   1.0000   1.0000   1.0000   1.0000   1.0000
     1.0000   1.0000   1.0000   1.0000   1.0000   1.0000   1.0000   1.0000
     1.0000   1.0000   1.0000   1.0000   1.0000   1.0000   1.0000   1.0000
     1.0000   1.0000   1.0000   1.0000   1.0000   1.0000   1.0000   1.0000
     1.0000   1.0000   1.0000   1.0000   1.0000   0.0000   0.0000   0.0000
     0.0000   0.0000   0.0000   0.0000   0.0000   0.0000

          k = 0.3333 0.3333 0.4167 (  7738 PWs)   bands (ev):

   -95.7569 -95.7541 -95.7528 -95.7528 -53.1885 -53.1885 -53.1848 -53.1753
   -53.1103 -53.1103 -53.1025 -53.0995 -53.0995 -53.0984 -53.0924 -53.0911
    11.0744  11.7833  12.0454  12.0454  13.4578  13.4578  13.5655  13.8377
    13.8871  13.9433  13.9439  14.0022  14.0179  14.0180  14.0555  14.0555
    15.1240  15.1366  15.2772  15.2772  15.2961  16.3600  17.6101  17.6101
    21.2880  21.2880  22.7392  24.5659  33.5421  33.5421

     occupation numbers 
     1.0000   1.0000   1.0000   1.0000   1.0000   1.0000   1.0000   1.0000
     1.0000   1.0000   1.0000   1.0000   1.0000   1.0000   1.0000   1.0000
     1.0000   1.0000   1.0000   1.0000   1.0000   1.0000   1.0000   1.0000
     1.0000   1.0000   1.0000   1.0000   1.0000   1.0000   1.0000   1.0000
     1.0000   1.0000   1.0000   1.0000   1.0000   1.0000   0.0000   0.0000
     0.0000   0.0000   0.0000   0.0000   0.0000   0.0000

          k = 0.3333 0.3333-0.5000 (  7758 PWs)   bands (ev):

   -95.7555 -95.7555 -95.7528 -95.7528 -53.1897 -53.1897 -53.1814 -53.1814
   -53.1099 -53.1099 -53.0988 -53.0988 -53.0955 -53.0955 -53.0954 -53.0954
    11.4465  11.4465  12.0337  12.0337  13.4857  13.4857  13.7304  13.7304
    13.9241  13.9241  13.9865  13.9865  14.0150  14.0150  14.1050  14.1050
    15.2374  15.2374  15.2541  15.2541  15.5773  15.5773  17.7109  17.7109
    20.9989  20.9989  23.5765  23.5765  34.0191  34.0191

     occupation numbers 
     1.0000   1.0000   1.0000   1.0000   1.0000   1.0000   1.0000   1.0000
     1.0000   1.0000   1.0000   1.0000   1.0000   1.0000   1.0000   1.0000
     1.0000   1.0000   1.0000   1.0000   1.0000   1.0000   1.0000   1.0000
     1.0000   1.0000   1.0000   1.0000   1.0000   1.0000   1.0000   1.0000
     1.0000   1.0000   1.0000   1.0000   1.0000   1.0000   0.0000   0.0000
     0.0000   0.0000   0.0000   0.0000   0.0000   0.0000

          k = 0.3333 0.4167 0.4167 (  7753 PWs)   bands (ev):

   -95.7559 -95.7538 -95.7538 -95.7531 -53.1915 -53.1896 -53.1896 -53.1826
   -53.1064 -53.1025 -53.1025 -53.0975 -53.0968 -53.0968 -53.0943 -53.0915
    11.3278  11.8119  11.8119  11.9392  13.5594  13.6178  13.6178  13.8173
    13.8474  13.9350  13.9350  13.9536  14.2016  14.2016  14.2430  14.2558
    15.0952  15.2618  15.2688  15.2688  15.3538  16.6234  16.6234  17.3834
    20.9473  21.7979  21.7979  23.4649  34.1758  35.5229

     occupation numbers 
     1.0000   1.0000   1.0000   1.0000   1.0000   1.0000   1.0000   1.0000
     1.0000   1.0000   1.0000   1.0000   1.0000   1.0000   1.0000   1.0000
     1.0000   1.0000   1.0000   1.0000   1.0000   1.0000   1.0000   1.0000
     1.0000   1.0000   1.0000   1.0000   1.0000   1.0000   1.0000   1.0000
     1.0000   1.0000   1.0000   1.0000   1.0000   1.0000   1.0000   0.0000
     0.0000   0.0000   0.0000   0.0000   0.0000   0.0000

          k = 0.3333 0.4167-0.5000 (  7734 PWs)   bands (ev):

   -95.7548 -95.7548 -95.7534 -95.7534 -53.1919 -53.1919 -53.1875 -53.1875
   -53.1040 -53.1040 -53.0975 -53.0975 -53.0963 -53.0963 -53.0936 -53.0936
    11.5740  11.5740  11.8617  11.8617  13.6146  13.6146  13.7408  13.7409
    13.8690  13.8690  13.9168  13.9168  14.3251  14.3251  14.3289  14.3289
    15.1961  15.1961  15.2395  15.2396  15.8160  15.8160  16.9985  16.9985
    21.1627  21.1627  22.5380  22.5380  34.9023  34.9023

     occupation numbers 
     1.0000   1.0000   1.0000   1.0000   1.0000   1.0000   1.0000   1.0000
     1.0000   1.0000   1.0000   1.0000   1.0000   1.0000   1.0000   1.0000
     1.0000   1.0000   1.0000   1.0000   1.0000   1.0000   1.0000   1.0000
     1.0000   1.0000   1.0000   1.0000   1.0000   1.0000   1.0000   1.0000
     1.0000   1.0000   1.0000   1.0000   1.0000   1.0000   0.0756   0.0756
     0.0000   0.0000   0.0000   0.0000   0.0000   0.0000

          k = 0.3333-0.5000-0.5000 (  7732 PWs)   bands (ev):

   -95.7541 -95.7541 -95.7541 -95.7541 -53.1911 -53.1911 -53.1911 -53.1911
   -53.1002 -53.1001 -53.1001 -53.1001 -53.0941 -53.0941 -53.0941 -53.0941
    11.7100  11.7100  11.7100  11.7100  13.7050  13.7050  13.7050  13.7050
    13.8632  13.8632  13.8632  13.8632  14.4567  14.4567  14.4567  14.4567
    15.1867  15.1867  15.1867  15.1867  16.3020  16.3020  16.3020  16.3020
    21.7175  21.7175  21.7175  21.7175  35.6853  35.6853

     occupation numbers 
     1.0000   1.0000   1.0000   1.0000   1.0000   1.0000   1.0000   1.0000
     1.0000   1.0000   1.0000   1.0000   1.0000   1.0000   1.0000   1.0000
     1.0000   1.0000   1.0000   1.0000   1.0000   1.0000   1.0000   1.0000
     1.0000   1.0000   1.0000   1.0000   1.0000   1.0000   1.0000   1.0000
     1.0000   1.0000   1.0000   1.0000   1.0000   1.0000   1.0000   1.0000
     0.0000   0.0000   0.0000   0.0000   0.0000   0.0000

          k = 0.4167 0.4167 0.4167 (  7742 PWs)   bands (ev):

   -95.7552 -95.7538 -95.7538 -95.7538 -53.1938 -53.1938 -53.1938 -53.1892
   -53.0991 -53.0991 -53.0991 -53.0960 -53.0960 -53.0960 -53.0929 -53.0929
    11.4581  11.7588  11.7588  11.7588  13.6783  13.6783  13.6783  13.8071
    13.8071  13.8623  13.8623  13.8623  14.5327  14.5327  14.5327  14.8177
    15.2074  15.2074  15.2936  15.2936  15.2936  16.5810  16.5810  16.5810
    21.1004  21.1004  21.1004  22.4379  36.3728  36.3728

     occupation numbers 
     1.0000   1.0000   1.0000   1.0000   1.0000   1.0000   1.0000   1.0000
     1.0000   1.0000   1.0000   1.0000   1.0000   1.0000   1.0000   1.0000
     1.0000   1.0000   1.0000   1.0000   1.0000   1.0000   1.0000   1.0000
     1.0000   1.0000   1.0000   1.0000   1.0000   1.0000   1.0000   1.0000
     1.0000   1.0000   1.0000   1.0000   1.0000   1.0000   1.0000   1.0000
     0.0000   0.0000   0.0000   0.0000   0.0000   0.0000

          k = 0.4167 0.4167-0.5000 (  7722 PWs)   bands (ev):

   -95.7545 -95.7545 -95.7538 -95.7538 -53.1953 -53.1953 -53.1930 -53.1930
   -53.0984 -53.0984 -53.0953 -53.0953 -53.0945 -53.0945 -53.0945 -53.0945
    11.5997  11.5997  11.7403  11.7403  13.7012  13.7012  13.7621  13.7621
    13.8122  13.8122  13.8349  13.8349  14.6888  14.6888  14.8045  14.8045
    15.2752  15.2752  15.2789  15.2789  15.7368  15.7368  16.5597  16.5597
    20.8541  20.8541  21.6347  21.6347  36.7773  36.7773

     occupation numbers 
     1.0000   1.0000   1.0000   1.0000   1.0000   1.0000   1.0000   1.0000
     1.0000   1.0000   1.0000   1.0000   1.0000   1.0000   1.0000   1.0000
     1.0000   1.0000   1.0000   1.0000   1.0000   1.0000   1.0000   1.0000
     1.0000   1.0000   1.0000   1.0000   1.0000   1.0000   1.0000   1.0000
     1.0000   1.0000   1.0000   1.0000   1.0000   1.0000   1.0000   1.0000
     0.0000   0.0000   0.0000   0.0000   0.0000   0.0000

          k = 0.4167-0.5000-0.5000 (  7724 PWs)   bands (ev):

   -95.7541 -95.7541 -95.7541 -95.7541 -53.1957 -53.1957 -53.1957 -53.1957
   -53.0957 -53.0957 -53.0957 -53.0957 -53.0941 -53.0941 -53.0941 -53.0941
    11.6532  11.6532  11.6532  11.6532  13.7548  13.7548  13.7548  13.7548
    13.7956  13.7957  13.7957  13.7957  14.9571  14.9571  14.9571  14.9571
    15.2622  15.2622  15.2622  15.2622  16.0237  16.0237  16.0237  16.0237
    21.0453  21.0453  21.0453  21.0453  37.6303  37.6303

     occupation numbers 
     1.0000   1.0000   1.0000   1.0000   1.0000   1.0000   1.0000   1.0000
     1.0000   1.0000   1.0000   1.0000   1.0000   1.0000   1.0000   1.0000
     1.0000   1.0000   1.0000   1.0000   1.0000   1.0000   1.0000   1.0000
     1.0000   1.0000   1.0000   1.0000   1.0000   1.0000   1.0000   1.0000
     1.0000   1.0000   1.0000   1.0000   1.0000   1.0000   1.0000   1.0000
     0.0000   0.0000   0.0000   0.0000   0.0000   0.0000

          k =-0.5000-0.5000-0.5000 (  7664 PWs)   bands (ev):

   -95.7541 -95.7541 -95.7541 -95.7541 -53.1972 -53.1972 -53.1972 -53.1972
   -53.0941 -53.0941 -53.0941 -53.0941 -53.0941 -53.0941 -53.0941 -53.0941
    11.6335  11.6335  11.6335  11.6335  13.7726  13.7726  13.7726  13.7726
    13.7726  13.7726  13.7726  13.7726  15.2881  15.2881  15.2881  15.2881
    15.2881  15.2881  15.2881  15.2881  15.7764  15.7764  15.7764  15.7764
    20.8114  20.8114  20.8114  20.8114  38.2921  38.2921

     occupation numbers 
     1.0000   1.0000   1.0000   1.0000   1.0000   1.0000   1.0000   1.0000
     1.0000   1.0000   1.0000   1.0000   1.0000   1.0000   1.0000   1.0000
     1.0000   1.0000   1.0000   1.0000   1.0000   1.0000   1.0000   1.0000
     1.0000   1.0000   1.0000   1.0000   1.0000   1.0000   1.0000   1.0000
     1.0000   1.0000   1.0000   1.0000   1.0000   1.0000   1.0000   1.0000
     0.0000   0.0000   0.0000   0.0000   0.0000   0.0000

     the Fermi energy is    16.9888 ev

!    total energy              =   -1947.54852561 Ry
     total all-electron energy =    -13239.894940 Ry
     estimated scf accuracy    <          1.0E-10 Ry
     smearing contrib. (-TS)   =      -0.00001350 Ry
     internal energy E=F+TS    =   -1947.54851210 Ry

     The total energy is F=E-TS. E is the sum of the following terms:
     one-electron contribution =    -968.03089303 Ry
     hartree contribution      =     548.54798484 Ry
     xc contribution           =    -153.30659019 Ry
     ewald contribution        =    -979.31718513 Ry
     one-center paw contrib.   =    -395.44182859 Ry
      -> PAW hartree energy AE =     319.36273196 Ry
      -> PAW hartree energy PS =    -321.34009397 Ry
      -> PAW xc energy AE      =    -133.83940248 Ry
      -> PAW xc energy PS      =      36.95631365 Ry
      -> total E_H with PAW    =     546.57062283 Ry
      -> total E_XC with PAW   =    -250.18967902 Ry

     convergence has been achieved in   3 iterations

     Writing all to output data dir ./out/Cu.save/

     init_run     :      1.26s CPU      1.50s WALL (       1 calls)
     electrons    :    116.00s CPU    120.28s WALL (       1 calls)

     Called by init_run:
     wfcinit      :      0.72s CPU      0.91s WALL (       1 calls)
     potinit      :      0.17s CPU      0.20s WALL (       1 calls)
     hinit0       :      0.24s CPU      0.24s WALL (       1 calls)

     Called by electrons:
     c_bands      :    104.07s CPU    107.63s WALL (       4 calls)
     sum_band     :     11.14s CPU     11.82s WALL (       4 calls)
     v_of_rho     :      0.06s CPU      0.06s WALL (       4 calls)
     v_h          :      0.00s CPU      0.00s WALL (       4 calls)
     v_xc         :      0.06s CPU      0.06s WALL (       4 calls)
     newd         :      0.29s CPU      0.31s WALL (       4 calls)
     PAW_pot      :      0.64s CPU      0.68s WALL (       4 calls)
     mix_rho      :      0.01s CPU      0.01s WALL (       4 calls)

     Called by c_bands:
     init_us_2    :      0.77s CPU      0.77s WALL (     672 calls)
     init_us_2:cp :      0.76s CPU      0.77s WALL (     672 calls)
     cegterg      :    101.48s CPU    105.00s WALL (     336 calls)

     Called by sum_band:
     sum_band:wei :      0.10s CPU      0.11s WALL (       4 calls)
     sum_band:loo :     10.83s CPU     11.45s WALL (       4 calls)
     sum_band:buf :      0.31s CPU      0.33s WALL (     336 calls)
     sum_band:ini :      0.33s CPU      0.34s WALL (     336 calls)
     sum_band:cal :      3.82s CPU      3.92s WALL (     336 calls)
     sum_band:bec :      0.06s CPU      0.06s WALL (     336 calls)
     addusdens    :      0.20s CPU      0.24s WALL (       4 calls)
                                        0.00s GPU  (       4 calls)
     addusd:skk   :      0.00s CPU      0.00s WALL (       4 calls)
                                        0.00s GPU  (       4 calls)

     Called by *egterg:
     cdiaghg      :      6.14s CPU      6.21s WALL (     833 calls)
     cegterg:over :     12.89s CPU     13.04s WALL (     665 calls)
     cegterg:upda :      6.16s CPU      6.21s WALL (     665 calls)
     cegterg:last :     13.77s CPU     13.88s WALL (     569 calls)
     h_psi        :     46.44s CPU     49.41s WALL (    1001 calls)
     s_psi        :      8.17s CPU      8.21s WALL (    1001 calls)
     g_psi        :      0.39s CPU      0.40s WALL (     665 calls)

     Called by h_psi:
     h_psi:calbec :      9.08s CPU      9.34s WALL (    1001 calls)
     vloc_psi     :     28.90s CPU     31.53s WALL (    1001 calls)
     add_vuspsi   :      8.04s CPU      8.12s WALL (    1001 calls)

     General routines
     calbec       :     12.89s CPU     13.25s WALL (    1337 calls)
     fft          :      0.17s CPU      0.17s WALL (      45 calls)
     ffts         :      0.00s CPU      0.00s WALL (       4 calls)
     fftw         :     30.62s CPU     33.40s WALL (   90448 calls)

     Parallel routines

     PAW routines
     PAW_pot      :      0.64s CPU      0.68s WALL (       4 calls)
     PAW_symme    :      0.00s CPU      0.00s WALL (       7 calls)

     PWSCF        :   1m57.99s CPU   2m 3.63s WALL


   This run was terminated on:  19:19:58  15Feb2024            

=------------------------------------------------------------------------------=
   JOB DONE.
=------------------------------------------------------------------------------=
