
     Program PWSCF v.7.2 starts on 18Jul2024 at  2: 9:41 

     This program is part of the open-source Quantum ESPRESSO suite
     for quantum simulation of materials; please cite
         "P. Giannozzi et al., J. Phys.:Condens. Matter 21 395502 (2009);
         "P. Giannozzi et al., J. Phys.:Condens. Matter 29 465901 (2017);
         "P. Giannozzi et al., J. Chem. Phys. 152 154105 (2020);
          URL http://www.quantum-espresso.org", 
     in publications or presentations arising from this work. More details at
     http://www.quantum-espresso.org/quote

     Parallel version (MPI), running on  1456 processors

     MPI processes distributed on    13 nodes
     221963 MiB available memory on the printing compute node when the environment starts
 
     Reading input from 2.Cu_vac_in_ZnS.nscf.q0.unrlxd.U3.in

     Current dimensions of program PWSCF are:
     Max number of different atomic species (ntypx) = 10
     Max number of k-points (npk) =  40000
     Max angular momentum in pseudopotentials (lmaxx) =  4

     Atomic positions and unit cell read from directory:
     ./out/Cu_vac_q0_U3_unrlxd.save/
 
     file S.pbe-n-kjpaw_psl.1.0.0.UPF: wavefunction(s)  3S 3P renormalized
     file Zn.pbe-dnl-kjpaw_psl.1.0.0.UPF: wavefunction(s)  4S 3D renormalized
     file Cu.pbe-spn-kjpaw_psl.1.0.0.UPF: wavefunction(s)  4S 3P 3D renormalized
     [opt_tetra]  Optimized tetrahedron method is used.
 
     K-points division:     npool     =      13
     R & G space division:  proc/nbgrp/npool/nimage =     112
     Subspace diagonalization in iterative solution of the eigenvalue problem:
     one sub-group per band group will be used
     scalapack distributed-memory algorithm (size of sub-group:  3*  3 procs)

 
     Parallelization info
     --------------------
     sticks:   dense  smooth     PW     G-vecs:    dense   smooth      PW
     Min         180     180     46                19282    19282    2562
     Max         181     181     47                19291    19291    2573
     Sum       20217   20217   5249              2160009  2160009  287777
 
     Using Slab Decomposition
 


     bravais-lattice index     =            1
     lattice parameter (alat)  =      20.5686  a.u.
     unit-cell volume          =    8701.8437 (a.u.)^3
     number of atoms/cell      =           63
     number of atomic types    =            3
     number of electrons       =       577.00
     number of Kohn-Sham states=          347
     kinetic-energy cutoff     =     150.0000  Ry
     charge density cutoff     =     600.0000  Ry
     Exchange-correlation= SLA  PW   PBX  PBC
                           (   1   4   3   4   0   0   0)
     Hubbard projectors: ortho-atomic
     Hubbard parameters of DFT+U (Dudarev formulation) in eV:
     U(Zn-3d) =  7.0000
     U(Cu-3d) =  3.0000

     Internal variables: lda_plus_u = T, lda_plus_u_kind = 0

     celldm(1)=  20.568554  celldm(2)=   0.000000  celldm(3)=   0.000000
     celldm(4)=   0.000000  celldm(5)=   0.000000  celldm(6)=   0.000000

     crystal axes: (cart. coord. in units of alat)
               a(1) = (   1.000000   0.000000   0.000000 )  
               a(2) = (   0.000000   1.000000   0.000000 )  
               a(3) = (   0.000000   0.000000   1.000000 )  

     reciprocal axes: (cart. coord. in units 2 pi/alat)
               b(1) = (  1.000000  0.000000  0.000000 )  
               b(2) = (  0.000000  1.000000  0.000000 )  
               b(3) = (  0.000000  0.000000  1.000000 )  


     PseudoPot. # 1 for S  read from file:
     /arf/home/amuhaymin/pseudo/S.pbe-n-kjpaw_psl.1.0.0.UPF
     MD5 check sum: fb45dfebcf3e72a4e1bd4a866ec2e262
     Pseudo is Projector augmented-wave + core cor, Zval =  6.0
     Generated using &quot;atomic&quot; code by A. Dal Corso  v.6.3
     Shape of augmentation charge: PSQ
     Using radial grid of 1151 points,  6 beta functions with: 
                l(1) =   0
                l(2) =   0
                l(3) =   1
                l(4) =   1
                l(5) =   2
                l(6) =   2
     Q(r) pseudized with 0 coefficients 


     PseudoPot. # 2 for Zn read from file:
     /arf/home/amuhaymin/pseudo/Zn.pbe-dnl-kjpaw_psl.1.0.0.UPF
     MD5 check sum: c608214d9520ac179f507641260889e3
     Pseudo is Projector augmented-wave + core cor, Zval = 12.0
     Generated using &quot;atomic&quot; code by A. Dal Corso  v.6.2.2
     Shape of augmentation charge: PSQ
     Using radial grid of 1201 points,  6 beta functions with: 
                l(1) =   0
                l(2) =   0
                l(3) =   1
                l(4) =   1
                l(5) =   2
                l(6) =   2
     Q(r) pseudized with 0 coefficients 


     PseudoPot. # 3 for Cu read from file:
     /arf/home/amuhaymin/pseudo/Cu.pbe-spn-kjpaw_psl.1.0.0.UPF
     MD5 check sum: e7cbaad2f97193e5fe23251a619a52b0
     Pseudo is Projector augmented-wave + core cor, Zval = 19.0
     Generated using &quot;atomic&quot; code by A. Dal Corso  v.6.3
     Shape of augmentation charge: PSQ
     Using radial grid of 1199 points,  6 beta functions with: 
                l(1) =   0
                l(2) =   0
                l(3) =   1
                l(4) =   1
                l(5) =   2
                l(6) =   2
     Q(r) pseudized with 0 coefficients 


     atomic species   valence    mass     pseudopotential
        S              6.00    32.06500     S ( 1.00)
        Zn            12.00    65.38000     Zn( 1.00)
        Cu            19.00    63.54600     Cu( 1.00)

     Starting magnetic structure 
     atomic species   magnetization
        S            0.000
        Zn           0.000
        Cu           0.053

      6 Sym. Ops. (no inversion) found


                                    s                        frac. trans.

      isym =  1     identity                                     

 cryst.   s( 1) = (     1          0          0      )
                  (     0          1          0      )
                  (     0          0          1      )

 cart.    s( 1) = (  1.0000000  0.0000000  0.0000000 )
                  (  0.0000000  1.0000000  0.0000000 )
                  (  0.0000000  0.0000000  1.0000000 )


      isym =  2     120 deg rotation - cart. axis [-1,-1,-1]     

 cryst.   s( 2) = (     0          0          1      )
                  (     1          0          0      )
                  (     0          1          0      )

 cart.    s( 2) = (  0.0000000  1.0000000  0.0000000 )
                  (  0.0000000  0.0000000  1.0000000 )
                  (  1.0000000  0.0000000  0.0000000 )


      isym =  3     120 deg rotation - cart. axis [1,1,1]        

 cryst.   s( 3) = (     0          1          0      )
                  (     0          0          1      )
                  (     1          0          0      )

 cart.    s( 3) = (  0.0000000  0.0000000  1.0000000 )
                  (  1.0000000  0.0000000  0.0000000 )
                  (  0.0000000  1.0000000  0.0000000 )


      isym =  4     inv. 180 deg rotation - cart. axis [1,-1,0]  

 cryst.   s( 4) = (     0          1          0      )
                  (     1          0          0      )
                  (     0          0          1      )

 cart.    s( 4) = (  0.0000000  1.0000000  0.0000000 )
                  (  1.0000000  0.0000000  0.0000000 )
                  (  0.0000000  0.0000000  1.0000000 )


      isym =  5     inv. 180 deg rotation - cart. axis [-1,0,1]  

 cryst.   s( 5) = (     0          0          1      )
                  (     0          1          0      )
                  (     1          0          0      )

 cart.    s( 5) = (  0.0000000  0.0000000  1.0000000 )
                  (  0.0000000  1.0000000  0.0000000 )
                  (  1.0000000  0.0000000  0.0000000 )


      isym =  6     inv. 180 deg rotation - cart. axis [0,1,-1]  

 cryst.   s( 6) = (     1          0          0      )
                  (     0          0          1      )
                  (     0          1          0      )

 cart.    s( 6) = (  1.0000000  0.0000000  0.0000000 )
                  (  0.0000000  0.0000000  1.0000000 )
                  (  0.0000000  1.0000000  0.0000000 )


     point group C_3v (3m)  
     there are  3 classes
     the character table:

       E     2C3   3s_v 
A_1    1.00  1.00  1.00
A_2    1.00  1.00 -1.00
E      2.00 -1.00  0.00

     the symmetry operations in each class and the name of the first element:

     E        1
          identity                                               
     2C3      2    3
          120 deg rotation - cart. axis [-1,-1,-1]               
     3s_v     4    5    6
          inv. 180 deg rotation - cart. axis [1,-1,0]            

   Cartesian axes

     site n.     atom                  positions (alat units)
         1           Zn  tau(   1) = (   0.0000000   0.0000000   0.0000000  )
         2           Zn  tau(   2) = (   0.0000000   0.2500000   0.2500000  )
         3           Zn  tau(   3) = (   0.2500000   0.0000000   0.2500000  )
         4           Zn  tau(   4) = (   0.2500000   0.2500000   0.0000000  )
         5           S   tau(   5) = (   0.1250000   0.3750000   0.3750000  )
         6           S   tau(   6) = (   0.1250000   0.1250000   0.1250000  )
         7           S   tau(   7) = (   0.3750000   0.3750000   0.1250000  )
         8           S   tau(   8) = (   0.3750000   0.1250000   0.3750000  )
         9           Zn  tau(   9) = (   0.0000000   0.0000000   0.5000000  )
        10           Zn  tau(  10) = (   0.0000000   0.2500000   0.7500000  )
        11           Zn  tau(  11) = (   0.2500000   0.0000000   0.7500000  )
        12           Zn  tau(  12) = (   0.2500000   0.2500000   0.5000000  )
        13           S   tau(  13) = (   0.1250000   0.3750000   0.8750000  )
        14           S   tau(  14) = (   0.1250000   0.1250000   0.6250000  )
        15           S   tau(  15) = (   0.3750000   0.3750000   0.6250000  )
        16           S   tau(  16) = (   0.3750000   0.1250000   0.8750000  )
        17           Zn  tau(  17) = (   0.0000000   0.5000000   0.0000000  )
        18           Zn  tau(  18) = (   0.0000000   0.7500000   0.2500000  )
        19           Zn  tau(  19) = (   0.2500000   0.5000000   0.2500000  )
        20           Zn  tau(  20) = (   0.2500000   0.7500000   0.0000000  )
        21           S   tau(  21) = (   0.1250000   0.8750000   0.3750000  )
        22           S   tau(  22) = (   0.1250000   0.6250000   0.1250000  )
        23           S   tau(  23) = (   0.3750000   0.8750000   0.1250000  )
        24           S   tau(  24) = (   0.3750000   0.6250000   0.3750000  )
        25           Zn  tau(  25) = (   0.0000000   0.5000000   0.5000000  )
        26           Zn  tau(  26) = (   0.0000000   0.7500000   0.7500000  )
        27           Zn  tau(  27) = (   0.2500000   0.5000000   0.7500000  )
        28           Zn  tau(  28) = (   0.2500000   0.7500000   0.5000000  )
        29           S   tau(  29) = (   0.1250000   0.8750000   0.8750000  )
        30           S   tau(  30) = (   0.1250000   0.6250000   0.6250000  )
        31           S   tau(  31) = (   0.3750000   0.8750000   0.6250000  )
        32           S   tau(  32) = (   0.3750000   0.6250000   0.8750000  )
        33           Zn  tau(  33) = (   0.5000000   0.0000000   0.0000000  )
        34           Zn  tau(  34) = (   0.5000000   0.2500000   0.2500000  )
        35           Zn  tau(  35) = (   0.7500000   0.0000000   0.2500000  )
        36           Zn  tau(  36) = (   0.7500000   0.2500000   0.0000000  )
        37           S   tau(  37) = (   0.6250000   0.3750000   0.3750000  )
        38           S   tau(  38) = (   0.6250000   0.1250000   0.1250000  )
        39           S   tau(  39) = (   0.8750000   0.3750000   0.1250000  )
        40           S   tau(  40) = (   0.8750000   0.1250000   0.3750000  )
        41           Zn  tau(  41) = (   0.5000000   0.0000000   0.5000000  )
        42           Zn  tau(  42) = (   0.5000000   0.2500000   0.7500000  )
        43           Zn  tau(  43) = (   0.7500000   0.0000000   0.7500000  )
        44           Zn  tau(  44) = (   0.7500000   0.2500000   0.5000000  )
        45           S   tau(  45) = (   0.6250000   0.3750000   0.8750000  )
        46           S   tau(  46) = (   0.6250000   0.1250000   0.6250000  )
        47           S   tau(  47) = (   0.8750000   0.3750000   0.6250000  )
        48           S   tau(  48) = (   0.8750000   0.1250000   0.8750000  )
        49           Zn  tau(  49) = (   0.5000000   0.5000000   0.0000000  )
        50           Zn  tau(  50) = (   0.5000000   0.7500000   0.2500000  )
        51           Zn  tau(  51) = (   0.7500000   0.5000000   0.2500000  )
        52           Zn  tau(  52) = (   0.7500000   0.7500000   0.0000000  )
        53           S   tau(  53) = (   0.6250000   0.8750000   0.3750000  )
        54           S   tau(  54) = (   0.6250000   0.6250000   0.1250000  )
        55           S   tau(  55) = (   0.8750000   0.8750000   0.1250000  )
        56           S   tau(  56) = (   0.8750000   0.6250000   0.3750000  )
        57           Cu  tau(  57) = (   0.5000000   0.5000000   0.5000000  )
        58           Zn  tau(  58) = (   0.5000000   0.7500000   0.7500000  )
        59           Zn  tau(  59) = (   0.7500000   0.5000000   0.7500000  )
        60           Zn  tau(  60) = (   0.7500000   0.7500000   0.5000000  )
        61           S   tau(  61) = (   0.6250000   0.8750000   0.8750000  )
        62           S   tau(  62) = (   0.8750000   0.8750000   0.6250000  )
        63           S   tau(  63) = (   0.8750000   0.6250000   0.8750000  )

   Crystallographic axes

     site n.     atom                  positions (cryst. coord.)
         1           Zn  tau(   1) = (  0.0000000  0.0000000  0.0000000  )
         2           Zn  tau(   2) = (  0.0000000  0.2500000  0.2500000  )
         3           Zn  tau(   3) = (  0.2500000  0.0000000  0.2500000  )
         4           Zn  tau(   4) = (  0.2500000  0.2500000  0.0000000  )
         5           S   tau(   5) = (  0.1250000  0.3750000  0.3750000  )
         6           S   tau(   6) = (  0.1250000  0.1250000  0.1250000  )
         7           S   tau(   7) = (  0.3750000  0.3750000  0.1250000  )
         8           S   tau(   8) = (  0.3750000  0.1250000  0.3750000  )
         9           Zn  tau(   9) = (  0.0000000  0.0000000  0.5000000  )
        10           Zn  tau(  10) = (  0.0000000  0.2500000  0.7500000  )
        11           Zn  tau(  11) = (  0.2500000  0.0000000  0.7500000  )
        12           Zn  tau(  12) = (  0.2500000  0.2500000  0.5000000  )
        13           S   tau(  13) = (  0.1250000  0.3750000  0.8750000  )
        14           S   tau(  14) = (  0.1250000  0.1250000  0.6250000  )
        15           S   tau(  15) = (  0.3750000  0.3750000  0.6250000  )
        16           S   tau(  16) = (  0.3750000  0.1250000  0.8750000  )
        17           Zn  tau(  17) = (  0.0000000  0.5000000  0.0000000  )
        18           Zn  tau(  18) = (  0.0000000  0.7500000  0.2500000  )
        19           Zn  tau(  19) = (  0.2500000  0.5000000  0.2500000  )
        20           Zn  tau(  20) = (  0.2500000  0.7500000  0.0000000  )
        21           S   tau(  21) = (  0.1250000  0.8750000  0.3750000  )
        22           S   tau(  22) = (  0.1250000  0.6250000  0.1250000  )
        23           S   tau(  23) = (  0.3750000  0.8750000  0.1250000  )
        24           S   tau(  24) = (  0.3750000  0.6250000  0.3750000  )
        25           Zn  tau(  25) = (  0.0000000  0.5000000  0.5000000  )
        26           Zn  tau(  26) = (  0.0000000  0.7500000  0.7500000  )
        27           Zn  tau(  27) = (  0.2500000  0.5000000  0.7500000  )
        28           Zn  tau(  28) = (  0.2500000  0.7500000  0.5000000  )
        29           S   tau(  29) = (  0.1250000  0.8750000  0.8750000  )
        30           S   tau(  30) = (  0.1250000  0.6250000  0.6250000  )
        31           S   tau(  31) = (  0.3750000  0.8750000  0.6250000  )
        32           S   tau(  32) = (  0.3750000  0.6250000  0.8750000  )
        33           Zn  tau(  33) = (  0.5000000  0.0000000  0.0000000  )
        34           Zn  tau(  34) = (  0.5000000  0.2500000  0.2500000  )
        35           Zn  tau(  35) = (  0.7500000  0.0000000  0.2500000  )
        36           Zn  tau(  36) = (  0.7500000  0.2500000  0.0000000  )
        37           S   tau(  37) = (  0.6250000  0.3750000  0.3750000  )
        38           S   tau(  38) = (  0.6250000  0.1250000  0.1250000  )
        39           S   tau(  39) = (  0.8750000  0.3750000  0.1250000  )
        40           S   tau(  40) = (  0.8750000  0.1250000  0.3750000  )
        41           Zn  tau(  41) = (  0.5000000  0.0000000  0.5000000  )
        42           Zn  tau(  42) = (  0.5000000  0.2500000  0.7500000  )
        43           Zn  tau(  43) = (  0.7500000  0.0000000  0.7500000  )
        44           Zn  tau(  44) = (  0.7500000  0.2500000  0.5000000  )
        45           S   tau(  45) = (  0.6250000  0.3750000  0.8750000  )
        46           S   tau(  46) = (  0.6250000  0.1250000  0.6250000  )
        47           S   tau(  47) = (  0.8750000  0.3750000  0.6250000  )
        48           S   tau(  48) = (  0.8750000  0.1250000  0.8750000  )
        49           Zn  tau(  49) = (  0.5000000  0.5000000  0.0000000  )
        50           Zn  tau(  50) = (  0.5000000  0.7500000  0.2500000  )
        51           Zn  tau(  51) = (  0.7500000  0.5000000  0.2500000  )
        52           Zn  tau(  52) = (  0.7500000  0.7500000  0.0000000  )
        53           S   tau(  53) = (  0.6250000  0.8750000  0.3750000  )
        54           S   tau(  54) = (  0.6250000  0.6250000  0.1250000  )
        55           S   tau(  55) = (  0.8750000  0.8750000  0.1250000  )
        56           S   tau(  56) = (  0.8750000  0.6250000  0.3750000  )
        57           Cu  tau(  57) = (  0.5000000  0.5000000  0.5000000  )
        58           Zn  tau(  58) = (  0.5000000  0.7500000  0.7500000  )
        59           Zn  tau(  59) = (  0.7500000  0.5000000  0.7500000  )
        60           Zn  tau(  60) = (  0.7500000  0.7500000  0.5000000  )
        61           S   tau(  61) = (  0.6250000  0.8750000  0.8750000  )
        62           S   tau(  62) = (  0.8750000  0.8750000  0.6250000  )
        63           S   tau(  63) = (  0.8750000  0.6250000  0.8750000  )

     number of k points=    13 (tetrahedron method)
                       cart. coord. in units 2pi/alat
        k(    1) = (   0.0000000   0.0000000   0.0000000), wk =   0.0156250
        k(    2) = (   0.0000000   0.0000000   0.2500000), wk =   0.0937500
        k(    3) = (   0.0000000   0.0000000  -0.5000000), wk =   0.0468750
        k(    4) = (   0.0000000   0.2500000   0.2500000), wk =   0.0937500
        k(    5) = (   0.0000000   0.2500000  -0.5000000), wk =   0.1875000
        k(    6) = (   0.0000000  -0.5000000  -0.5000000), wk =   0.0468750
        k(    7) = (   0.2500000   0.2500000   0.2500000), wk =   0.0312500
        k(    8) = (   0.2500000   0.2500000  -0.5000000), wk =   0.0937500
        k(    9) = (   0.2500000  -0.5000000  -0.5000000), wk =   0.0937500
        k(   10) = (  -0.5000000  -0.5000000  -0.5000000), wk =   0.0156250
        k(   11) = (  -0.2500000   0.0000000   0.2500000), wk =   0.0937500
        k(   12) = (   0.2500000  -0.2500000   0.2500000), wk =   0.0937500
        k(   13) = (   0.2500000  -0.2500000  -0.5000000), wk =   0.0937500

                       cryst. coord.
        k(    1) = (   0.0000000   0.0000000   0.0000000), wk =   0.0156250
        k(    2) = (   0.0000000   0.0000000   0.2500000), wk =   0.0937500
        k(    3) = (   0.0000000   0.0000000  -0.5000000), wk =   0.0468750
        k(    4) = (   0.0000000   0.2500000   0.2500000), wk =   0.0937500
        k(    5) = (   0.0000000   0.2500000  -0.5000000), wk =   0.1875000
        k(    6) = (   0.0000000  -0.5000000  -0.5000000), wk =   0.0468750
        k(    7) = (   0.2500000   0.2500000   0.2500000), wk =   0.0312500
        k(    8) = (   0.2500000   0.2500000  -0.5000000), wk =   0.0937500
        k(    9) = (   0.2500000  -0.5000000  -0.5000000), wk =   0.0937500
        k(   10) = (  -0.5000000  -0.5000000  -0.5000000), wk =   0.0156250
        k(   11) = (  -0.2500000   0.0000000   0.2500000), wk =   0.0937500
        k(   12) = (   0.2500000  -0.2500000   0.2500000), wk =   0.0937500
        k(   13) = (   0.2500000  -0.2500000  -0.5000000), wk =   0.0937500

     Dense  grid:  2160009 G-vectors     FFT dimensions: ( 162, 162, 162)

     Dynamical RAM for                 wfc:      12.76 MB

     Dynamical RAM for     wfc (w. buffer):      38.28 MB

     Dynamical RAM for             U proj.:       5.88 MB

     Dynamical RAM for  U proj. (w. buff.):      17.65 MB

     Dynamical RAM for           str. fact:       0.88 MB

     Dynamical RAM for           local pot:       0.00 MB

     Dynamical RAM for          nlocal pot:      41.70 MB

     Dynamical RAM for                qrad:       5.90 MB

     Dynamical RAM for          rho,v,vnew:       4.17 MB

     Dynamical RAM for           G-vectors:       1.25 MB

     Dynamical RAM for          h,s,v(r/c):       2.44 MB

     Dynamical RAM for          <psi|beta>:       6.00 MB

     Dynamical RAM for                 psi:      25.52 MB

     Dynamical RAM for                hpsi:      25.52 MB

     Dynamical RAM for                spsi:      25.52 MB

     Dynamical RAM for      wfcinit/wfcrot:      34.28 MB

     Dynamical RAM for           addusdens:       5.48 MB

     Estimated static dynamical RAM per process >     113.41 MB

     Estimated max dynamical RAM per process >     198.42 MB

     Estimated total dynamical RAM >     282.13 GB
     Generating pointlists ...
     new r_m :   0.0893 (alat units)  1.8370 (a.u.) for type    1
     new r_m :   0.0893 (alat units)  1.8370 (a.u.) for type    2
     new r_m :   0.0893 (alat units)  1.8370 (a.u.) for type    3

     The potential is recalculated from file :
     ./out/Cu_vac_q0_U3_unrlxd.save/charge-density


     HUBBARD ENERGY =    0.2686  (Ry)

     STARTING HUBBARD OCCUPATIONS:

     =================== HUBBARD OCCUPATIONS ===================
     ------------------------ ATOM    1 ------------------------
     Tr[ns(  1)] (up, down, total) =   4.98372  4.98369  9.96740
     Atomic magnetic moment for atom   1 =   0.00003
     SPIN  1
     eigenvalues:
       0.996  0.996  0.996  0.998  0.998
     eigenvectors (columns):
      -0.000  0.006 -0.004  0.000  1.000
      -0.577 -0.015 -0.816  0.005 -0.003
      -0.577  0.715  0.395 -0.005 -0.003
       0.000 -0.004 -0.006 -1.000  0.000
       0.577  0.699 -0.421  0.000 -0.006
     occupation matrix ns (before diag.):
       0.998 -0.000 -0.000  0.000 -0.000
      -0.000  0.996 -0.000 -0.000  0.000
      -0.000 -0.000  0.996  0.000  0.000
       0.000 -0.000  0.000  0.998 -0.000
      -0.000  0.000  0.000 -0.000  0.996
     SPIN  2
     eigenvalues:
       0.996  0.996  0.996  0.998  0.998
     eigenvectors (columns):
       0.000  0.005 -0.003 -0.164 -0.986
       0.577 -0.037 -0.816 -0.004  0.003
       0.577  0.725  0.376  0.005  0.002
      -0.000 -0.003 -0.005  0.986 -0.164
      -0.577  0.688 -0.440  0.001  0.005
     occupation matrix ns (before diag.):
       0.998 -0.000 -0.000  0.000 -0.000
      -0.000  0.996 -0.000 -0.000  0.000
      -0.000 -0.000  0.996  0.000  0.000
       0.000 -0.000  0.000  0.998 -0.000
      -0.000  0.000  0.000 -0.000  0.996
     ------------------------ ATOM    2 ------------------------
     Tr[ns(  2)] (up, down, total) =   4.98371  4.98368  9.96740
     Atomic magnetic moment for atom   2 =   0.00003
     SPIN  1
     eigenvalues:
       0.996  0.996  0.996  0.998  0.998
     eigenvectors (columns):
       0.001 -0.004 -0.000 -0.500  0.866
       0.617 -0.707  0.346  0.001 -0.004
       0.489 -0.000 -0.872  0.002 -0.000
      -0.002 -0.003  0.001  0.866  0.500
      -0.617 -0.707 -0.346 -0.001 -0.004
     occupation matrix ns (before diag.):
       0.998 -0.000 -0.000  0.000 -0.000
      -0.000  0.996 -0.000 -0.000  0.000
      -0.000 -0.000  0.996  0.000  0.000
       0.000 -0.000  0.000  0.998 -0.000
      -0.000  0.000  0.000 -0.000  0.996
     SPIN  2
     eigenvalues:
       0.996  0.996  0.996  0.998  0.998
     eigenvectors (columns):
       0.001 -0.005 -0.000 -0.500  0.866
       0.614 -0.707  0.350  0.001 -0.004
       0.496 -0.000 -0.869  0.001 -0.000
      -0.002 -0.003  0.000  0.866  0.500
      -0.614 -0.707 -0.350 -0.001 -0.004
     occupation matrix ns (before diag.):
       0.998 -0.000 -0.000  0.000 -0.000
      -0.000  0.996 -0.000 -0.000  0.000
      -0.000 -0.000  0.996  0.000  0.000
       0.000 -0.000  0.000  0.998 -0.000
      -0.000  0.000  0.000 -0.000  0.996
     ------------------------ ATOM    3 ------------------------
     Tr[ns(  3)] (up, down, total) =   4.98371  4.98368  9.96740
     Atomic magnetic moment for atom   3 =   0.00003
     SPIN  1
     eigenvalues:
       0.996  0.996  0.996  0.998  0.998
     eigenvectors (columns):
       0.001 -0.004 -0.000 -0.500  0.866
       0.489 -0.000 -0.872  0.002 -0.000
       0.617 -0.707  0.346  0.001 -0.004
       0.002  0.003 -0.001 -0.866 -0.500
      -0.617 -0.707 -0.346 -0.001 -0.004
     occupation matrix ns (before diag.):
       0.998 -0.000 -0.000 -0.000 -0.000
      -0.000  0.996 -0.000 -0.000  0.000
      -0.000 -0.000  0.996  0.000  0.000
      -0.000 -0.000  0.000  0.998  0.000
      -0.000  0.000  0.000  0.000  0.996
     SPIN  2
     eigenvalues:
       0.996  0.996  0.996  0.998  0.998
     eigenvectors (columns):
       0.001 -0.005 -0.000 -0.500  0.866
       0.496 -0.000 -0.869  0.001 -0.000
       0.614 -0.707  0.350  0.001 -0.004
       0.002  0.003 -0.000 -0.866 -0.500
      -0.614 -0.707 -0.350 -0.001 -0.004
     occupation matrix ns (before diag.):
       0.998 -0.000 -0.000 -0.000 -0.000
      -0.000  0.996 -0.000 -0.000  0.000
      -0.000 -0.000  0.996  0.000  0.000
      -0.000 -0.000  0.000  0.998  0.000
      -0.000  0.000  0.000  0.000  0.996
     ------------------------ ATOM    4 ------------------------
     Tr[ns(  4)] (up, down, total) =   4.98371  4.98368  9.96740
     Atomic magnetic moment for atom   4 =   0.00003
     SPIN  1
     eigenvalues:
       0.996  0.996  0.996  0.998  0.998
     eigenvectors (columns):
       0.003 -0.000 -0.001 -1.000  0.000
      -0.617  0.707 -0.346 -0.001 -0.004
      -0.617 -0.707 -0.346 -0.001  0.004
       0.000  0.005 -0.000  0.000  1.000
       0.489 -0.000 -0.872  0.002 -0.000
     occupation matrix ns (before diag.):
       0.998  0.000  0.000  0.000 -0.000
       0.000  0.996 -0.000 -0.000  0.000
       0.000 -0.000  0.996  0.000  0.000
       0.000 -0.000  0.000  0.998 -0.000
      -0.000  0.000  0.000 -0.000  0.996
     SPIN  2
     eigenvalues:
       0.996  0.996  0.996  0.998  0.998
     eigenvectors (columns):
       0.002 -0.000 -0.000 -1.000  0.000
      -0.614  0.707 -0.350 -0.001 -0.004
      -0.614 -0.707 -0.350 -0.001  0.004
       0.000  0.005 -0.000  0.000  1.000
       0.496 -0.000 -0.869  0.001 -0.000
     occupation matrix ns (before diag.):
       0.998  0.000  0.000  0.000 -0.000
       0.000  0.996 -0.000 -0.000  0.000
       0.000 -0.000  0.996  0.000  0.000
       0.000 -0.000  0.000  0.998 -0.000
      -0.000  0.000  0.000 -0.000  0.996
     ------------------------ ATOM    9 ------------------------
     Tr[ns(  9)] (up, down, total) =   4.98369  4.98342  9.96711
     Atomic magnetic moment for atom   9 =   0.00027
     SPIN  1
     eigenvalues:
       0.996  0.996  0.996  0.998  0.998
     eigenvectors (columns):
       0.030  0.000 -0.002  0.000  1.000
       0.616  0.707  0.346  0.007 -0.018
       0.616 -0.707  0.346 -0.007 -0.018
      -0.000  0.009  0.000 -1.000  0.000
      -0.489 -0.000  0.872  0.000  0.016
     occupation matrix ns (before diag.):
       0.998 -0.000 -0.000  0.000  0.000
      -0.000  0.996 -0.000 -0.000  0.000
      -0.000 -0.000  0.996  0.000  0.000
       0.000 -0.000  0.000  0.998 -0.000
       0.000  0.000  0.000 -0.000  0.996
     SPIN  2
     eigenvalues:
       0.996  0.996  0.996  0.998  0.998
     eigenvectors (columns):
       0.060  0.000 -0.005  0.998 -0.000
       0.696  0.707  0.115 -0.041  0.003
       0.696 -0.707  0.115 -0.041 -0.003
      -0.000  0.005  0.000 -0.000 -1.000
      -0.162  0.000  0.987  0.015  0.000
     occupation matrix ns (before diag.):
       0.998 -0.000 -0.000  0.000  0.000
      -0.000  0.996 -0.000 -0.000  0.000
      -0.000 -0.000  0.996  0.000  0.000
       0.000 -0.000  0.000  0.998 -0.000
       0.000  0.000  0.000 -0.000  0.996
     ------------------------ ATOM   10 ------------------------
     Tr[ns( 10)] (up, down, total) =   4.98370  4.98347  9.96718
     Atomic magnetic moment for atom  10 =   0.00023
     SPIN  1
     eigenvalues:
       0.996  0.996  0.996  0.998  0.998
     eigenvectors (columns):
      -0.023 -0.008  0.005  0.992 -0.121
       0.766 -0.572  0.293  0.012 -0.002
      -0.621 -0.776  0.111 -0.022 -0.007
       0.006  0.007 -0.004 -0.121 -0.993
      -0.163  0.267  0.950 -0.007 -0.003
     occupation matrix ns (before diag.):
       0.998  0.000 -0.000  0.000 -0.000
       0.000  0.996  0.000  0.000  0.000
      -0.000  0.000  0.996  0.000 -0.000
       0.000  0.000  0.000  0.998  0.000
      -0.000  0.000 -0.000  0.000  0.996
     SPIN  2
     eigenvalues:
       0.996  0.996  0.996  0.998  0.998
     eigenvectors (columns):
      -0.049 -0.007  0.003  0.998 -0.028
       0.731 -0.631  0.258  0.030 -0.000
      -0.672 -0.730  0.121 -0.039 -0.003
       0.004  0.002 -0.003 -0.028 -1.000
      -0.111  0.262  0.959 -0.007 -0.003
     occupation matrix ns (before diag.):
       0.998  0.000 -0.000  0.000 -0.000
       0.000  0.996  0.000 -0.000  0.000
      -0.000  0.000  0.996  0.000 -0.000
       0.000 -0.000  0.000  0.998  0.000
      -0.000  0.000 -0.000  0.000  0.996
     ------------------------ ATOM   11 ------------------------
     Tr[ns( 11)] (up, down, total) =   4.98370  4.98347  9.96718
     Atomic magnetic moment for atom  11 =   0.00023
     SPIN  1
     eigenvalues:
       0.996  0.996  0.996  0.998  0.998
     eigenvectors (columns):
      -0.023 -0.008  0.005  0.992 -0.121
      -0.621 -0.776  0.111 -0.022 -0.007
       0.766 -0.572  0.293  0.012 -0.002
      -0.006 -0.007  0.004  0.121  0.993
      -0.163  0.267  0.950 -0.007 -0.003
     occupation matrix ns (before diag.):
       0.998 -0.000  0.000 -0.000 -0.000
      -0.000  0.996  0.000 -0.000 -0.000
       0.000  0.000  0.996 -0.000  0.000
      -0.000 -0.000 -0.000  0.998 -0.000
      -0.000 -0.000  0.000 -0.000  0.996
     SPIN  2
     eigenvalues:
       0.996  0.996  0.996  0.998  0.998
     eigenvectors (columns):
      -0.049 -0.007  0.003  0.998 -0.028
      -0.672 -0.730  0.121 -0.039 -0.003
       0.731 -0.631  0.258  0.030 -0.000
      -0.004 -0.002  0.003  0.028  1.000
      -0.111  0.262  0.959 -0.007 -0.003
     occupation matrix ns (before diag.):
       0.998 -0.000  0.000 -0.000 -0.000
      -0.000  0.996  0.000 -0.000 -0.000
       0.000  0.000  0.996  0.000  0.000
      -0.000 -0.000  0.000  0.998 -0.000
      -0.000 -0.000  0.000 -0.000  0.996
     ------------------------ ATOM   12 ------------------------
     Tr[ns( 12)] (up, down, total) =   4.98375  4.98359  9.96733
     Atomic magnetic moment for atom  12 =   0.00016
     SPIN  1
     eigenvalues:
       0.996  0.996  0.996  0.998  0.998
     eigenvectors (columns):
      -0.012 -0.000  0.054 -0.000 -0.998
      -0.497  0.707  0.502 -0.022  0.033
      -0.497 -0.707  0.502  0.022  0.033
       0.000  0.032  0.000  0.999 -0.000
       0.711 -0.000  0.702 -0.000  0.030
     occupation matrix ns (before diag.):
       0.998 -0.000 -0.000  0.000 -0.000
      -0.000  0.996  0.000 -0.000  0.000
      -0.000  0.000  0.996  0.000  0.000
       0.000 -0.000  0.000  0.998 -0.000
      -0.000  0.000  0.000 -0.000  0.996
     SPIN  2
     eigenvalues:
       0.996  0.996  0.996  0.998  0.998
     eigenvectors (columns):
      -0.011  0.000 -0.043 -0.000 -0.999
      -0.604  0.707 -0.367 -0.025  0.023
      -0.604 -0.707 -0.367  0.025  0.023
       0.000  0.035 -0.000  0.999 -0.000
       0.521 -0.000 -0.853 -0.000  0.031
     occupation matrix ns (before diag.):
       0.998 -0.000 -0.000  0.000 -0.000
      -0.000  0.996 -0.000 -0.000  0.000
      -0.000 -0.000  0.996  0.000  0.000
       0.000 -0.000  0.000  0.998 -0.000
      -0.000  0.000  0.000 -0.000  0.996
     ------------------------ ATOM   17 ------------------------
     Tr[ns( 17)] (up, down, total) =   4.98369  4.98342  9.96711
     Atomic magnetic moment for atom  17 =   0.00027
     SPIN  1
     eigenvalues:
       0.996  0.996  0.996  0.998  0.998
     eigenvectors (columns):
       0.015 -0.008  0.001 -0.866 -0.500
      -0.489 -0.000 -0.872  0.000 -0.016
      -0.616 -0.707  0.346  0.007 -0.018
       0.026  0.005  0.002  0.500 -0.866
       0.616 -0.707 -0.346  0.007  0.018
     occupation matrix ns (before diag.):
       0.998  0.000  0.000  0.000 -0.000
       0.000  0.996 -0.000  0.000  0.000
       0.000 -0.000  0.996  0.000  0.000
       0.000  0.000  0.000  0.998 -0.000
      -0.000  0.000  0.000 -0.000  0.996
     SPIN  2
     eigenvalues:
       0.996  0.996  0.996  0.998  0.998
     eigenvectors (columns):
       0.030  0.004  0.003 -0.499 -0.866
      -0.162 -0.000 -0.987 -0.015  0.000
      -0.696  0.707  0.115 -0.041  0.003
       0.052 -0.002  0.005 -0.864  0.500
       0.696  0.707 -0.115  0.041  0.003
     occupation matrix ns (before diag.):
       0.998  0.000  0.000 -0.000 -0.000
       0.000  0.996 -0.000  0.000  0.000
       0.000 -0.000  0.996  0.000  0.000
      -0.000  0.000  0.000  0.998 -0.000
      -0.000  0.000  0.000 -0.000  0.996
     ------------------------ ATOM   18 ------------------------
     Tr[ns( 18)] (up, down, total) =   4.98370  4.98347  9.96718
     Atomic magnetic moment for atom  18 =   0.00023
     SPIN  1
     eigenvalues:
       0.996  0.996  0.996  0.998  0.998
     eigenvectors (columns):
      -0.006  0.002  0.001 -0.391 -0.920
      -0.163  0.267 -0.950  0.007 -0.003
       0.621  0.776  0.111 -0.022  0.007
      -0.023 -0.010 -0.006 -0.920  0.391
       0.766 -0.572 -0.293 -0.012 -0.002
     occupation matrix ns (before diag.):
       0.998 -0.000  0.000 -0.000  0.000
      -0.000  0.996  0.000 -0.000  0.000
       0.000  0.000  0.996  0.000 -0.000
      -0.000 -0.000  0.000  0.998  0.000
       0.000  0.000 -0.000  0.000  0.996
     SPIN  2
     eigenvalues:
       0.996  0.996  0.996  0.998  0.998
     eigenvectors (columns):
      -0.021 -0.002  0.001 -0.475 -0.880
      -0.111  0.262 -0.959  0.007 -0.003
       0.672  0.730  0.121 -0.039  0.003
      -0.044 -0.007 -0.005 -0.879  0.476
       0.731 -0.631 -0.258 -0.030 -0.000
     occupation matrix ns (before diag.):
       0.998 -0.000  0.000 -0.000  0.000
      -0.000  0.996  0.000 -0.000  0.000
       0.000  0.000  0.996  0.000 -0.000
      -0.000 -0.000  0.000  0.998  0.000
       0.000  0.000 -0.000  0.000  0.996
     ------------------------ ATOM   19 ------------------------
     Tr[ns( 19)] (up, down, total) =   4.98375  4.98359  9.96733
     Atomic magnetic moment for atom  19 =   0.00016
     SPIN  1
     eigenvalues:
       0.996  0.996  0.996  0.998  0.998
     eigenvectors (columns):
       0.006 -0.027  0.027 -0.866 -0.499
      -0.711 -0.000  0.702  0.000  0.030
      -0.497 -0.707 -0.502  0.022 -0.033
       0.010  0.016  0.047  0.500 -0.865
       0.497 -0.707  0.502  0.022  0.033
     occupation matrix ns (before diag.):
       0.998 -0.000 -0.000  0.000 -0.000
      -0.000  0.996 -0.000 -0.000  0.000
      -0.000 -0.000  0.996  0.000 -0.000
       0.000 -0.000  0.000  0.998 -0.000
      -0.000  0.000 -0.000 -0.000  0.996
     SPIN  2
     eigenvalues:
       0.996  0.996  0.996  0.998  0.998
     eigenvectors (columns):
       0.006 -0.030 -0.021  0.865  0.500
      -0.521  0.000 -0.853 -0.000 -0.031
      -0.604 -0.707  0.367 -0.025  0.023
       0.010  0.018 -0.037 -0.500  0.865
       0.604 -0.707 -0.367 -0.025 -0.023
     occupation matrix ns (before diag.):
       0.998 -0.000 -0.000  0.000 -0.000
      -0.000  0.996 -0.000 -0.000  0.000
      -0.000 -0.000  0.996  0.000  0.000
       0.000 -0.000  0.000  0.998 -0.000
      -0.000  0.000  0.000 -0.000  0.996
     ------------------------ ATOM   20 ------------------------
     Tr[ns( 20)] (up, down, total) =   4.98370  4.98347  9.96718
     Atomic magnetic moment for atom  20 =   0.00023
     SPIN  1
     eigenvalues:
       0.996  0.996  0.996  0.998  0.998
     eigenvectors (columns):
       0.017  0.010 -0.006 -0.601 -0.799
       0.163 -0.267 -0.950  0.007  0.003
       0.766 -0.572  0.293  0.012 -0.002
       0.017  0.003 -0.002 -0.799  0.601
       0.621  0.776 -0.111  0.022  0.007
     occupation matrix ns (before diag.):
       0.998 -0.000 -0.000 -0.000 -0.000
      -0.000  0.996 -0.000 -0.000 -0.000
      -0.000 -0.000  0.996 -0.000 -0.000
      -0.000 -0.000 -0.000  0.998 -0.000
      -0.000 -0.000 -0.000 -0.000  0.996
     SPIN  2
     eigenvalues:
       0.996  0.996  0.996  0.998  0.998
     eigenvectors (columns):
      -0.028 -0.005 -0.005  0.523 -0.852
      -0.111  0.262 -0.959 -0.007  0.003
      -0.731  0.631  0.258 -0.030 -0.000
      -0.041 -0.005 -0.001  0.851  0.524
      -0.672 -0.730 -0.121 -0.039  0.003
     occupation matrix ns (before diag.):
       0.998 -0.000 -0.000 -0.000 -0.000
      -0.000  0.996 -0.000 -0.000 -0.000
      -0.000 -0.000  0.996 -0.000 -0.000
      -0.000 -0.000 -0.000  0.998 -0.000
      -0.000 -0.000 -0.000 -0.000  0.996
     ------------------------ ATOM   25 ------------------------
     Tr[ns( 25)] (up, down, total) =   4.98381  4.98376  9.96757
     Atomic magnetic moment for atom  25 =   0.00004
     SPIN  1
     eigenvalues:
       0.996  0.996  0.996  0.998  0.998
     eigenvectors (columns):
       0.005 -0.006 -0.008 -0.866 -0.500
      -0.668 -0.707 -0.233  0.005 -0.003
       0.329  0.000 -0.944  0.000  0.019
      -0.009 -0.003  0.014 -0.500  0.866
       0.668 -0.707  0.233  0.005  0.003
     occupation matrix ns (before diag.):
       0.998 -0.000 -0.000 -0.000 -0.000
      -0.000  0.996  0.000 -0.000  0.000
      -0.000  0.000  0.996  0.000 -0.000
      -0.000 -0.000  0.000  0.998  0.000
      -0.000  0.000 -0.000  0.000  0.996
     SPIN  2
     eigenvalues:
       0.996  0.996  0.996  0.998  0.998
     eigenvectors (columns):
      -0.010  0.010 -0.005 -0.866 -0.500
       0.641  0.299 -0.707  0.004 -0.007
      -0.422  0.906 -0.000 -0.000  0.027
       0.018 -0.017 -0.003 -0.500  0.866
      -0.641 -0.299 -0.707  0.004  0.007
     occupation matrix ns (before diag.):
       0.998  0.000 -0.000 -0.000 -0.000
       0.000  0.996  0.000 -0.000  0.000
      -0.000  0.000  0.996  0.000 -0.000
      -0.000 -0.000  0.000  0.998  0.000
      -0.000  0.000 -0.000  0.000  0.996
     ------------------------ ATOM   26 ------------------------
     Tr[ns( 26)] (up, down, total) =   4.98376  4.98369  9.96745
     Atomic magnetic moment for atom  26 =   0.00006
     SPIN  1
     eigenvalues:
       0.996  0.996  0.996  0.998  0.998
     eigenvectors (columns):
      -0.001 -0.008  0.017 -0.866 -0.500
      -0.701 -0.090 -0.707 -0.014  0.003
       0.128 -0.992 -0.000 -0.000  0.015
       0.002  0.013  0.010 -0.500  0.866
       0.701  0.090 -0.707 -0.014 -0.003
     occupation matrix ns (before diag.):
       0.998  0.000 -0.000 -0.000  0.000
       0.000  0.996  0.000  0.000  0.000
      -0.000  0.000  0.996  0.000 -0.000
      -0.000  0.000  0.000  0.998  0.000
       0.000  0.000 -0.000  0.000  0.996
     SPIN  2
     eigenvalues:
       0.996  0.996  0.996  0.998  0.998
     eigenvectors (columns):
      -0.010 -0.011 -0.015  0.500  0.866
      -0.682  0.187  0.707 -0.009  0.013
      -0.264 -0.964  0.000 -0.027 -0.000
       0.017  0.019 -0.009 -0.866  0.500
       0.682 -0.187  0.707  0.009  0.013
     occupation matrix ns (before diag.):
       0.998  0.000 -0.000  0.000  0.000
       0.000  0.996 -0.000  0.000  0.000
      -0.000 -0.000  0.996  0.000  0.000
       0.000  0.000  0.000  0.998 -0.000
       0.000  0.000  0.000 -0.000  0.996
     ------------------------ ATOM   27 ------------------------
     Tr[ns( 27)] (up, down, total) =   4.98376  4.98372  9.96748
     Atomic magnetic moment for atom  27 =   0.00004
     SPIN  1
     eigenvalues:
       0.996  0.996  0.996  0.998  0.998
     eigenvectors (columns):
      -0.009 -0.038  0.052 -0.874 -0.482
      -0.755  0.012 -0.654 -0.003 -0.051
       0.510 -0.619 -0.596  0.010 -0.044
      -0.001  0.004  0.067  0.485 -0.872
       0.413  0.785 -0.458 -0.037 -0.052
     occupation matrix ns (before diag.):
       0.998  0.000  0.000  0.000  0.000
       0.000  0.996  0.000  0.000  0.000
       0.000  0.000  0.996  0.000 -0.000
       0.000  0.000  0.000  0.998  0.000
       0.000  0.000 -0.000  0.000  0.996
     SPIN  2
     eigenvalues:
       0.996  0.996  0.996  0.998  0.998
     eigenvectors (columns):
      -0.012 -0.035  0.059 -0.837 -0.542
      -0.740 -0.019 -0.671 -0.003 -0.050
       0.531 -0.631 -0.564  0.005 -0.040
       0.000  0.005  0.059  0.545 -0.836
       0.414  0.774 -0.474 -0.037 -0.053
     occupation matrix ns (before diag.):
       0.998  0.000  0.000  0.000  0.000
       0.000  0.996  0.000  0.000  0.000
       0.000  0.000  0.996  0.000 -0.000
       0.000  0.000  0.000  0.998  0.000
       0.000  0.000 -0.000  0.000  0.996
     ------------------------ ATOM   28 ------------------------
     Tr[ns( 28)] (up, down, total) =   4.98376  4.98372  9.96748
     Atomic magnetic moment for atom  28 =   0.00004
     SPIN  1
     eigenvalues:
       0.996  0.996  0.996  0.998  0.998
     eigenvectors (columns):
       0.006  0.015  0.084  0.017  0.996
      -0.413 -0.785 -0.458  0.037  0.052
       0.510 -0.619  0.596  0.010 -0.044
       0.008  0.035  0.012  0.999 -0.018
       0.755 -0.012 -0.654  0.003  0.051
     occupation matrix ns (before diag.):
       0.998  0.000 -0.000 -0.000  0.000
       0.000  0.996  0.000  0.000  0.000
      -0.000  0.000  0.996  0.000 -0.000
      -0.000  0.000  0.000  0.998  0.000
       0.000  0.000 -0.000  0.000  0.996
     SPIN  2
     eigenvalues:
       0.996  0.996  0.996  0.998  0.998
     eigenvectors (columns):
       0.006  0.013  0.080 -0.054  0.995
      -0.414 -0.774 -0.474  0.037  0.053
       0.531 -0.631  0.564  0.005 -0.040
       0.011  0.033  0.022  0.998  0.052
       0.740  0.019 -0.671  0.003  0.050
     occupation matrix ns (before diag.):
       0.998  0.000 -0.000  0.000  0.000
       0.000  0.996  0.000  0.000  0.000
      -0.000  0.000  0.996  0.000 -0.000
       0.000  0.000  0.000  0.998  0.000
       0.000  0.000 -0.000  0.000  0.996
     ------------------------ ATOM   33 ------------------------
     Tr[ns( 33)] (up, down, total) =   4.98369  4.98342  9.96711
     Atomic magnetic moment for atom  33 =   0.00027
     SPIN  1
     eigenvalues:
       0.996  0.996  0.996  0.998  0.998
     eigenvectors (columns):
       0.015  0.008 -0.001 -0.866 -0.500
      -0.616  0.707 -0.346  0.007 -0.018
      -0.489  0.000  0.872  0.000 -0.016
      -0.026  0.005  0.002 -0.500  0.866
       0.616  0.707  0.346  0.007  0.018
     occupation matrix ns (before diag.):
       0.998  0.000  0.000 -0.000 -0.000
       0.000  0.996 -0.000 -0.000  0.000
       0.000 -0.000  0.996 -0.000  0.000
      -0.000 -0.000 -0.000  0.998  0.000
      -0.000  0.000  0.000  0.000  0.996
     SPIN  2
     eigenvalues:
       0.996  0.996  0.996  0.998  0.998
     eigenvectors (columns):
      -0.030  0.004 -0.003 -0.499 -0.866
       0.696  0.707 -0.115 -0.041  0.003
       0.162 -0.000  0.987 -0.015 -0.000
       0.052  0.002  0.005  0.864 -0.500
      -0.696  0.707  0.115  0.041  0.003
     occupation matrix ns (before diag.):
       0.998  0.000  0.000  0.000 -0.000
       0.000  0.996 -0.000 -0.000  0.000
       0.000 -0.000  0.996 -0.000  0.000
       0.000 -0.000 -0.000  0.998  0.000
      -0.000  0.000  0.000  0.000  0.996
     ------------------------ ATOM   34 ------------------------
     Tr[ns( 34)] (up, down, total) =   4.98375  4.98359  9.96733
     Atomic magnetic moment for atom  34 =   0.00016
     SPIN  1
     eigenvalues:
       0.996  0.996  0.996  0.998  0.998
     eigenvectors (columns):
       0.006 -0.027  0.027 -0.866 -0.499
      -0.497 -0.707 -0.502  0.022 -0.033
      -0.711 -0.000  0.702  0.000  0.030
      -0.010 -0.016 -0.047 -0.500  0.865
       0.497 -0.707  0.502  0.022  0.033
     occupation matrix ns (before diag.):
       0.998 -0.000 -0.000 -0.000 -0.000
      -0.000  0.996 -0.000 -0.000 -0.000
      -0.000 -0.000  0.996  0.000  0.000
      -0.000 -0.000  0.000  0.998  0.000
      -0.000 -0.000  0.000  0.000  0.996
     SPIN  2
     eigenvalues:
       0.996  0.996  0.996  0.998  0.998
     eigenvectors (columns):
       0.006  0.030  0.021  0.865  0.500
      -0.604  0.707 -0.367 -0.025  0.023
      -0.521  0.000  0.853  0.000 -0.031
      -0.010  0.018 -0.037  0.500 -0.865
       0.604  0.707  0.367 -0.025 -0.023
     occupation matrix ns (before diag.):
       0.998 -0.000 -0.000 -0.000 -0.000
      -0.000  0.996 -0.000 -0.000  0.000
      -0.000 -0.000  0.996  0.000  0.000
      -0.000 -0.000  0.000  0.998  0.000
      -0.000  0.000  0.000  0.000  0.996
     ------------------------ ATOM   35 ------------------------
     Tr[ns( 35)] (up, down, total) =   4.98370  4.98347  9.96718
     Atomic magnetic moment for atom  35 =   0.00023
     SPIN  1
     eigenvalues:
       0.996  0.996  0.996  0.998  0.998
     eigenvectors (columns):
      -0.006 -0.002 -0.001 -0.391 -0.920
       0.621 -0.776 -0.111 -0.022  0.007
      -0.163 -0.267  0.950  0.007 -0.003
       0.023 -0.010 -0.006  0.920 -0.391
       0.766  0.572  0.293 -0.012 -0.002
     occupation matrix ns (before diag.):
       0.998  0.000 -0.000  0.000  0.000
       0.000  0.996  0.000 -0.000 -0.000
      -0.000  0.000  0.996  0.000  0.000
       0.000 -0.000  0.000  0.998 -0.000
       0.000 -0.000  0.000 -0.000  0.996
     SPIN  2
     eigenvalues:
       0.996  0.996  0.996  0.998  0.998
     eigenvectors (columns):
      -0.021  0.002 -0.001 -0.475 -0.880
       0.672 -0.730 -0.121 -0.039  0.003
      -0.111 -0.262  0.959  0.007 -0.003
       0.044 -0.007 -0.005  0.879 -0.476
       0.731  0.631  0.258 -0.030 -0.000
     occupation matrix ns (before diag.):
       0.998  0.000 -0.000  0.000  0.000
       0.000  0.996  0.000 -0.000 -0.000
      -0.000  0.000  0.996  0.000  0.000
       0.000 -0.000  0.000  0.998 -0.000
       0.000 -0.000  0.000 -0.000  0.996
     ------------------------ ATOM   36 ------------------------
     Tr[ns( 36)] (up, down, total) =   4.98370  4.98347  9.96718
     Atomic magnetic moment for atom  36 =   0.00023
     SPIN  1
     eigenvalues:
       0.996  0.996  0.996  0.998  0.998
     eigenvectors (columns):
      -0.017 -0.010 -0.006 -0.601 -0.799
      -0.766  0.572  0.293  0.012 -0.002
      -0.163  0.267 -0.950  0.007  0.003
       0.017  0.003  0.002  0.799 -0.601
      -0.621 -0.776 -0.111  0.022  0.007
     occupation matrix ns (before diag.):
       0.998 -0.000 -0.000  0.000 -0.000
      -0.000  0.996 -0.000  0.000 -0.000
      -0.000 -0.000  0.996  0.000 -0.000
       0.000  0.000  0.000  0.998  0.000
      -0.000 -0.000 -0.000  0.000  0.996
     SPIN  2
     eigenvalues:
       0.996  0.996  0.996  0.998  0.998
     eigenvectors (columns):
       0.028 -0.005 -0.005 -0.523 -0.852
       0.731  0.631  0.258  0.030 -0.000
       0.111  0.262 -0.959  0.007  0.003
      -0.041  0.005  0.001  0.851 -0.524
       0.672 -0.730 -0.121  0.039  0.003
     occupation matrix ns (before diag.):
       0.998 -0.000 -0.000  0.000 -0.000
      -0.000  0.996 -0.000  0.000 -0.000
      -0.000 -0.000  0.996  0.000 -0.000
       0.000  0.000  0.000  0.998  0.000
      -0.000 -0.000 -0.000  0.000  0.996
     ------------------------ ATOM   41 ------------------------
     Tr[ns( 41)] (up, down, total) =   4.98381  4.98376  9.96757
     Atomic magnetic moment for atom  41 =   0.00004
     SPIN  1
     eigenvalues:
       0.996  0.996  0.996  0.998  0.998
     eigenvectors (columns):
       0.005  0.006  0.008  0.866  0.500
       0.329 -0.000  0.944 -0.000 -0.019
      -0.668  0.707  0.233 -0.005  0.003
       0.009 -0.003  0.014 -0.500  0.866
       0.668  0.707 -0.233 -0.005 -0.003
     occupation matrix ns (before diag.):
       0.998 -0.000 -0.000  0.000 -0.000
      -0.000  0.996  0.000 -0.000 -0.000
      -0.000  0.000  0.996  0.000  0.000
       0.000 -0.000  0.000  0.998 -0.000
      -0.000 -0.000  0.000 -0.000  0.996
     SPIN  2
     eigenvalues:
       0.996  0.996  0.996  0.998  0.998
     eigenvectors (columns):
      -0.010  0.010 -0.005 -0.866 -0.500
      -0.422  0.906 -0.000  0.000  0.027
       0.641  0.299 -0.707  0.004 -0.007
      -0.018  0.017  0.003  0.500 -0.866
      -0.641 -0.299 -0.707  0.004  0.007
     occupation matrix ns (before diag.):
       0.998 -0.000  0.000  0.000 -0.000
      -0.000  0.996  0.000 -0.000 -0.000
       0.000  0.000  0.996  0.000  0.000
       0.000 -0.000  0.000  0.998 -0.000
      -0.000 -0.000  0.000 -0.000  0.996
     ------------------------ ATOM   42 ------------------------
     Tr[ns( 42)] (up, down, total) =   4.98376  4.98372  9.96748
     Atomic magnetic moment for atom  42 =   0.00004
     SPIN  1
     eigenvalues:
       0.996  0.996  0.996  0.998  0.998
     eigenvectors (columns):
      -0.009 -0.038  0.052 -0.874 -0.482
       0.510 -0.619 -0.596  0.010 -0.044
      -0.755  0.012 -0.654 -0.003 -0.051
       0.001 -0.004 -0.067 -0.485  0.872
       0.413  0.785 -0.458 -0.037 -0.052
     occupation matrix ns (before diag.):
       0.998  0.000  0.000 -0.000  0.000
       0.000  0.996  0.000 -0.000 -0.000
       0.000  0.000  0.996 -0.000  0.000
      -0.000 -0.000 -0.000  0.998 -0.000
       0.000 -0.000  0.000 -0.000  0.996
     SPIN  2
     eigenvalues:
       0.996  0.996  0.996  0.998  0.998
     eigenvectors (columns):
      -0.012 -0.035  0.059 -0.837 -0.542
       0.531 -0.631 -0.564  0.005 -0.040
      -0.740 -0.019 -0.671 -0.003 -0.050
      -0.000 -0.005 -0.059 -0.545  0.836
       0.414  0.774 -0.474 -0.037 -0.053
     occupation matrix ns (before diag.):
       0.998  0.000  0.000 -0.000  0.000
       0.000  0.996  0.000 -0.000 -0.000
       0.000  0.000  0.996 -0.000  0.000
      -0.000 -0.000 -0.000  0.998 -0.000
       0.000 -0.000  0.000 -0.000  0.996
     ------------------------ ATOM   43 ------------------------
     Tr[ns( 43)] (up, down, total) =   4.98376  4.98369  9.96745
     Atomic magnetic moment for atom  43 =   0.00006
     SPIN  1
     eigenvalues:
       0.996  0.996  0.996  0.998  0.998
     eigenvectors (columns):
      -0.001  0.008 -0.017 -0.866 -0.500
       0.128  0.992  0.000  0.000  0.015
      -0.701  0.090  0.707 -0.014  0.003
      -0.002  0.013  0.010  0.500 -0.866
       0.701 -0.090  0.707 -0.014 -0.003
     occupation matrix ns (before diag.):
       0.998 -0.000  0.000  0.000  0.000
      -0.000  0.996  0.000 -0.000 -0.000
       0.000  0.000  0.996 -0.000  0.000
       0.000 -0.000 -0.000  0.998 -0.000
       0.000 -0.000  0.000 -0.000  0.996
     SPIN  2
     eigenvalues:
       0.996  0.996  0.996  0.998  0.998
     eigenvectors (columns):
      -0.010 -0.011 -0.015  0.500  0.866
      -0.264 -0.964  0.000 -0.027 -0.000
      -0.682  0.187  0.707 -0.009  0.013
      -0.017 -0.019  0.009  0.866 -0.500
       0.682 -0.187  0.707  0.009  0.013
     occupation matrix ns (before diag.):
       0.998 -0.000  0.000 -0.000  0.000
      -0.000  0.996 -0.000 -0.000  0.000
       0.000 -0.000  0.996 -0.000  0.000
      -0.000 -0.000 -0.000  0.998  0.000
       0.000  0.000  0.000  0.000  0.996
     ------------------------ ATOM   44 ------------------------
     Tr[ns( 44)] (up, down, total) =   4.98376  4.98372  9.96748
     Atomic magnetic moment for atom  44 =   0.00004
     SPIN  1
     eigenvalues:
       0.996  0.996  0.996  0.998  0.998
     eigenvectors (columns):
       0.006 -0.015 -0.084 -0.017 -0.996
       0.510  0.619 -0.596 -0.010  0.044
      -0.413  0.785  0.458 -0.037 -0.052
      -0.008  0.035  0.012  0.999 -0.018
       0.755  0.012  0.654 -0.003 -0.051
     occupation matrix ns (before diag.):
       0.998 -0.000  0.000  0.000  0.000
      -0.000  0.996  0.000 -0.000 -0.000
       0.000  0.000  0.996 -0.000  0.000
       0.000 -0.000 -0.000  0.998 -0.000
       0.000 -0.000  0.000 -0.000  0.996
     SPIN  2
     eigenvalues:
       0.996  0.996  0.996  0.998  0.998
     eigenvectors (columns):
       0.006 -0.013 -0.080 -0.054  0.995
       0.531  0.631 -0.564  0.005 -0.040
      -0.414  0.774  0.474  0.037  0.053
      -0.011  0.033  0.022 -0.998 -0.052
       0.740 -0.019  0.671  0.003  0.050
     occupation matrix ns (before diag.):
       0.998 -0.000  0.000 -0.000  0.000
      -0.000  0.996  0.000 -0.000 -0.000
       0.000  0.000  0.996 -0.000  0.000
      -0.000 -0.000 -0.000  0.998 -0.000
       0.000 -0.000  0.000 -0.000  0.996
     ------------------------ ATOM   49 ------------------------
     Tr[ns( 49)] (up, down, total) =   4.98381  4.98376  9.96757
     Atomic magnetic moment for atom  49 =   0.00004
     SPIN  1
     eigenvalues:
       0.996  0.996  0.996  0.998  0.998
     eigenvectors (columns):
      -0.010  0.000  0.016 -0.000  1.000
      -0.668  0.707 -0.233 -0.005 -0.003
      -0.668 -0.707 -0.233  0.005 -0.003
       0.000  0.007  0.000  1.000  0.000
      -0.329  0.000  0.944 -0.000 -0.019
     occupation matrix ns (before diag.):
       0.998 -0.000 -0.000  0.000 -0.000
      -0.000  0.996 -0.000 -0.000 -0.000
      -0.000 -0.000  0.996  0.000 -0.000
       0.000 -0.000  0.000  0.998 -0.000
      -0.000 -0.000 -0.000 -0.000  0.996
     SPIN  2
     eigenvalues:
       0.996  0.996  0.996  0.998  0.998
     eigenvectors (columns):
      -0.020  0.020 -0.000 -0.000  1.000
      -0.641 -0.299  0.707 -0.004 -0.007
      -0.641 -0.299 -0.707  0.004 -0.007
       0.000  0.000  0.005  1.000  0.000
      -0.422  0.906 -0.000 -0.000 -0.027
     occupation matrix ns (before diag.):
       0.998 -0.000 -0.000  0.000 -0.000
      -0.000  0.996 -0.000 -0.000 -0.000
      -0.000 -0.000  0.996  0.000 -0.000
       0.000 -0.000  0.000  0.998 -0.000
      -0.000 -0.000 -0.000 -0.000  0.996
     ------------------------ ATOM   50 ------------------------
     Tr[ns( 50)] (up, down, total) =   4.98376  4.98372  9.96748
     Atomic magnetic moment for atom  50 =   0.00004
     SPIN  1
     eigenvalues:
       0.996  0.996  0.996  0.998  0.998
     eigenvectors (columns):
       0.004 -0.023  0.032 -0.857 -0.514
      -0.413  0.785  0.458 -0.037  0.052
      -0.755 -0.012 -0.654  0.003 -0.051
       0.009 -0.031 -0.079 -0.514  0.854
      -0.510 -0.619  0.596  0.010  0.044
     occupation matrix ns (before diag.):
       0.998  0.000  0.000 -0.000 -0.000
       0.000  0.996 -0.000  0.000 -0.000
       0.000 -0.000  0.996 -0.000 -0.000
      -0.000  0.000 -0.000  0.998  0.000
      -0.000 -0.000 -0.000  0.000  0.996
     SPIN  2
     eigenvalues:
       0.996  0.996  0.996  0.998  0.998
     eigenvectors (columns):
       0.006 -0.022  0.022 -0.891 -0.453
      -0.414  0.774  0.474 -0.037  0.053
      -0.740  0.019 -0.671  0.003 -0.050
       0.011 -0.028 -0.080 -0.452  0.888
      -0.531 -0.631  0.564  0.005  0.040
     occupation matrix ns (before diag.):
       0.998  0.000  0.000 -0.000 -0.000
       0.000  0.996 -0.000  0.000 -0.000
       0.000 -0.000  0.996 -0.000 -0.000
      -0.000  0.000 -0.000  0.998  0.000
      -0.000 -0.000 -0.000  0.000  0.996
     ------------------------ ATOM   51 ------------------------
     Tr[ns( 51)] (up, down, total) =   4.98376  4.98372  9.96748
     Atomic magnetic moment for atom  51 =   0.00004
     SPIN  1
     eigenvalues:
       0.996  0.996  0.996  0.998  0.998
     eigenvectors (columns):
       0.004 -0.023  0.032 -0.857 -0.514
      -0.755 -0.012 -0.654  0.003 -0.051
      -0.413  0.785  0.458 -0.037  0.052
      -0.009  0.031  0.079  0.514 -0.854
      -0.510 -0.619  0.596  0.010  0.044
     occupation matrix ns (before diag.):
       0.998  0.000  0.000  0.000 -0.000
       0.000  0.996 -0.000  0.000 -0.000
       0.000 -0.000  0.996 -0.000 -0.000
       0.000  0.000 -0.000  0.998 -0.000
      -0.000 -0.000 -0.000 -0.000  0.996
     SPIN  2
     eigenvalues:
       0.996  0.996  0.996  0.998  0.998
     eigenvectors (columns):
       0.006 -0.022  0.022 -0.891 -0.453
      -0.740  0.019 -0.671  0.003 -0.050
      -0.414  0.774  0.474 -0.037  0.053
      -0.011  0.028  0.080  0.452 -0.888
      -0.531 -0.631  0.564  0.005  0.040
     occupation matrix ns (before diag.):
       0.998  0.000  0.000  0.000 -0.000
       0.000  0.996 -0.000  0.000 -0.000
       0.000 -0.000  0.996 -0.000 -0.000
       0.000  0.000 -0.000  0.998 -0.000
      -0.000 -0.000 -0.000 -0.000  0.996
     ------------------------ ATOM   52 ------------------------
     Tr[ns( 52)] (up, down, total) =   4.98376  4.98369  9.96745
     Atomic magnetic moment for atom  52 =   0.00006
     SPIN  1
     eigenvalues:
       0.996  0.996  0.996  0.998  0.998
     eigenvectors (columns):
       0.003  0.015 -0.000 -0.000  1.000
      -0.701 -0.090  0.707  0.014  0.003
      -0.701 -0.090 -0.707 -0.014  0.003
       0.000  0.000 -0.020  1.000  0.000
      -0.128  0.992 -0.000 -0.000 -0.015
     occupation matrix ns (before diag.):
       0.998  0.000  0.000  0.000 -0.000
       0.000  0.996 -0.000  0.000 -0.000
       0.000 -0.000  0.996 -0.000 -0.000
       0.000  0.000 -0.000  0.998 -0.000
      -0.000 -0.000 -0.000 -0.000  0.996
     SPIN  2
     eigenvalues:
       0.996  0.996  0.996  0.998  0.998
     eigenvectors (columns):
       0.019  0.022 -0.000  1.000  0.000
      -0.682  0.187  0.707  0.009  0.013
      -0.682  0.187 -0.707  0.009 -0.013
       0.000  0.000 -0.018 -0.000  1.000
       0.264  0.964 -0.000 -0.027 -0.000
     occupation matrix ns (before diag.):
       0.998  0.000  0.000  0.000 -0.000
       0.000  0.996 -0.000  0.000  0.000
       0.000 -0.000  0.996 -0.000  0.000
       0.000  0.000 -0.000  0.998 -0.000
      -0.000  0.000  0.000 -0.000  0.996
     ------------------------ ATOM   57 ------------------------
     Tr[ns( 57)] (up, down, total) =   4.94145  4.93235  9.87380
     Atomic magnetic moment for atom  57 =   0.00910
     SPIN  1
     eigenvalues:
       0.983  0.983  0.990  0.992  0.992
     eigenvectors (columns):
       0.023  0.012 -0.000  0.202  0.979
      -0.032 -0.816 -0.577 -0.016  0.014
      -0.690  0.436 -0.577  0.020  0.007
      -0.012  0.023  0.000 -0.979  0.202
      -0.722 -0.380  0.577  0.004  0.021
     occupation matrix ns (before diag.):
       0.992  0.000  0.000  0.000  0.000
       0.000  0.986  0.002  0.000 -0.002
       0.000  0.002  0.986 -0.000 -0.002
       0.000  0.000 -0.000  0.992 -0.000
       0.000 -0.002 -0.002 -0.000  0.986
     SPIN  2
     eigenvalues:
       0.979  0.984  0.984  0.993  0.993
     eigenvectors (columns):
       0.000  0.033 -0.015 -0.195 -0.980
       0.577  0.080 -0.812 -0.022  0.019
       0.577  0.663  0.475  0.028  0.009
      -0.000 -0.015 -0.033  0.980 -0.195
      -0.577  0.743 -0.337  0.006  0.029
     occupation matrix ns (before diag.):
       0.993 -0.000 -0.000  0.000 -0.000
      -0.000  0.982 -0.002 -0.000  0.002
      -0.000 -0.002  0.982  0.000  0.002
       0.000 -0.000  0.000  0.993 -0.000
      -0.000  0.002  0.002 -0.000  0.982
     ------------------------ ATOM   58 ------------------------
     Tr[ns( 58)] (up, down, total) =   4.98646  4.98672  9.97318
     Atomic magnetic moment for atom  58 =  -0.00026
     SPIN  1
     eigenvalues:
       0.996  0.996  0.998  0.998  0.998
     eigenvectors (columns):
       0.016  0.025  0.002 -0.866 -0.499
      -0.707  0.396  0.586 -0.013  0.022
       0.000  0.827 -0.561 -0.000  0.039
       0.009 -0.043 -0.003 -0.500  0.865
      -0.707 -0.396 -0.586 -0.013 -0.022
     occupation matrix ns (before diag.):
       0.998  0.000 -0.000 -0.000  0.000
       0.000  0.997 -0.001  0.000 -0.001
      -0.000 -0.001  0.997  0.000  0.001
      -0.000  0.000  0.000  0.998 -0.000
       0.000 -0.001  0.001 -0.000  0.997
     SPIN  2
     eigenvalues:
       0.996  0.996  0.997  0.998  0.998
     eigenvectors (columns):
       0.071 -0.050  0.029 -0.863 -0.497
      -0.705 -0.443 -0.551 -0.058  0.013
       0.000 -0.773  0.624 -0.000  0.115
       0.041  0.087 -0.050 -0.498  0.860
      -0.705  0.443  0.551 -0.058 -0.013
     occupation matrix ns (before diag.):
       0.998  0.000 -0.000 -0.000  0.000
       0.000  0.997 -0.000  0.000 -0.000
      -0.000 -0.000  0.997  0.000  0.000
      -0.000  0.000  0.000  0.998  0.000
       0.000 -0.000  0.000  0.000  0.997
     ------------------------ ATOM   59 ------------------------
     Tr[ns( 59)] (up, down, total) =   4.98646  4.98672  9.97318
     Atomic magnetic moment for atom  59 =  -0.00026
     SPIN  1
     eigenvalues:
       0.996  0.996  0.998  0.998  0.998
     eigenvectors (columns):
      -0.016 -0.025 -0.002 -0.866  0.499
      -0.000 -0.827  0.561 -0.000 -0.039
       0.707 -0.396 -0.586 -0.013 -0.022
       0.009 -0.043 -0.003  0.500  0.865
       0.707  0.396  0.586 -0.013  0.022
     occupation matrix ns (before diag.):
       0.998 -0.000  0.000  0.000  0.000
      -0.000  0.997 -0.001 -0.000  0.001
       0.000 -0.001  0.997 -0.000 -0.001
       0.000 -0.000 -0.000  0.998  0.000
       0.000  0.001 -0.001  0.000  0.997
     SPIN  2
     eigenvalues:
       0.996  0.996  0.997  0.998  0.998
     eigenvectors (columns):
       0.071 -0.050  0.029 -0.863 -0.497
       0.000 -0.773  0.624 -0.000  0.115
      -0.705 -0.443 -0.551 -0.058  0.013
      -0.041 -0.087  0.050  0.498 -0.860
      -0.705  0.443  0.551 -0.058 -0.013
     occupation matrix ns (before diag.):
       0.998 -0.000  0.000  0.000  0.000
      -0.000  0.997 -0.000 -0.000  0.000
       0.000 -0.000  0.997 -0.000 -0.000
       0.000 -0.000 -0.000  0.998 -0.000
       0.000  0.000 -0.000 -0.000  0.997
     ------------------------ ATOM   60 ------------------------
     Tr[ns( 60)] (up, down, total) =   4.98646  4.98672  9.97318
     Atomic magnetic moment for atom  60 =  -0.00026
     SPIN  1
     eigenvalues:
       0.996  0.996  0.998  0.998  0.998
     eigenvectors (columns):
       0.000  0.050 -0.004 -0.000 -0.999
       0.707 -0.396  0.586  0.013 -0.022
      -0.707 -0.396  0.586 -0.013 -0.022
      -0.019  0.000 -0.000  1.000 -0.000
       0.000  0.827  0.561 -0.000  0.039
     occupation matrix ns (before diag.):
       0.998  0.000  0.000  0.000 -0.000
       0.000  0.997  0.001  0.000  0.001
       0.000  0.001  0.997 -0.000  0.001
       0.000  0.000 -0.000  0.998 -0.000
      -0.000  0.001  0.001 -0.000  0.997
     SPIN  2
     eigenvalues:
       0.996  0.996  0.997  0.998  0.998
     eigenvectors (columns):
       0.000  0.101  0.058 -0.000 -0.993
       0.705 -0.443  0.551  0.058 -0.013
      -0.705 -0.443  0.551 -0.058 -0.013
      -0.082  0.000 -0.000  0.997 -0.000
       0.000  0.773  0.624  0.000  0.115
     occupation matrix ns (before diag.):
       0.998  0.000  0.000  0.000 -0.000
       0.000  0.997  0.000  0.000  0.000
       0.000  0.000  0.997 -0.000  0.000
       0.000  0.000 -0.000  0.998 -0.000
      -0.000  0.000  0.000 -0.000  0.997

     Number of occupied Hubbard levels =  318.8793

     Atomic wfc used for Hubbard projectors are orthogonalized

     Starting wfcs are  413 randomized atomic wfcs
     Checking if some PAW data can be deallocated... 
       PAW data deallocated on  740 nodes for type:  1
       PAW data deallocated on  739 nodes for type:  2
       PAW data deallocated on 1433 nodes for type:  3

     Band Structure Calculation
     Davidson diagonalization with overlap

     Computing kpt #:     1  of     2 on this pool
     total cpu time spent up to now is       91.6 secs

     Computing kpt #:     2  of     2 on this pool
     c_bands:  1 eigenvalues not converged
     total cpu time spent up to now is      167.0 secs

     ethr =  1.73E-12,  avg # of iterations = 92.3

     total cpu time spent up to now is      167.4 secs

     End of band structure calculation

 ------ SPIN UP ------------


          k = 0.0000 0.0000 0.0000 (269825 PWs)   bands (ev):

  -104.1565 -61.6309 -61.5419 -61.5419  -7.6041  -7.2272  -7.2272  -7.1905
    -7.1825  -7.1825  -7.1232  -7.0531  -7.0531  -7.0137  -6.9973  -6.9586
    -6.9586  -6.9269  -6.9252  -6.9252  -6.9099  -6.9099  -6.8941  -6.8556
    -6.8556  -6.8224  -6.7748  -6.7748  -6.7267  -6.7063  -6.6856  -6.6856
    -6.4678  -6.3262  -6.3262  -3.9821  -3.9653  -3.9653  -3.9623  -3.9488
    -3.9488  -3.9398  -3.9398  -3.9321  -3.9313  -3.9204  -3.9204  -3.9058
    -3.9017  -3.9017  -3.7950  -3.7950  -3.7928  -3.7697  -3.7697  -3.7640
    -3.7606  -3.7578  -3.7578  -3.7506  -3.7506  -3.7445  -3.7445  -3.7429
    -3.7376  -3.7376  -3.7355  -3.7320  -3.7291  -3.7291  -3.7263  -3.7185
    -3.7185  -3.7180  -3.7121  -3.7121  -3.7040  -3.6967  -3.6967  -3.6915
    -3.6862  -3.6862  -3.6836  -3.6783  -3.6783  -3.6769  -3.6678  -3.6638
    -3.6638  -3.6561  -3.6561  -3.6540  -3.6540  -3.6513  -3.6446  -3.6436
    -3.6436  -3.6374  -3.6374  -3.6269  -3.6269  -3.6249  -3.6238  -3.6114
    -3.6114  -3.6102  -3.6047  -3.5995  -3.5978  -3.5978  -3.5946  -3.5865
    -3.5865  -3.5849  -3.5849  -3.5841  -3.5828  -3.5818  -3.5766  -3.5766
    -3.5737  -3.5737  -3.5731  -3.5731  -3.5634  -3.5610  -3.5603  -3.5603
    -3.5519  -3.5519  -3.5500  -3.5423  -3.5392  -3.5392  -3.5291  -3.5277
    -3.5276  -3.5151  -3.5151  -3.5034  -3.5034  -3.4999  -3.4999  -3.4970
    -3.4960  -3.4960  -3.4858  -3.4793  -3.4562  -3.4548  -3.4548  -3.4391
    -3.4391  -3.4359  -3.4262  -3.4239  -3.4239  -3.4180  -3.4180  -3.4150
    -3.4150  -3.4112  -3.4037  -3.3983  -3.3983  -3.3874  -3.2497  -3.2465
    -3.2465  -3.2332  -3.2332  -3.2282  -3.2003  -3.2003  -3.1848  -3.1848
    -3.1795  -3.1256  -3.1060  -3.1060  -3.0738  -3.0129  -3.0129  -2.9805
    -2.8947  -2.8657  -2.8657  -2.8644  -2.8411  -2.8411   0.2369   0.2832
     0.3074   0.3074   0.6403   0.6488   0.6488   0.8453   0.8579   0.8579
     0.8666   0.9087   0.9087   1.0886   1.2403   1.2403   1.2448   1.2448
     1.3003   1.3076   1.3076   1.3115   1.4271   1.4271   1.8976   2.3159
     2.4573   2.4573   2.5050   2.5155   2.5155   2.5400   2.5400   2.5516
     2.5967   2.5967   2.6848   2.6875   2.6875   2.7130   2.7586   2.7586
     2.7662   2.7806   2.7806   2.7959   2.7959   2.8029   2.8092   2.8684
     2.8684   2.9668   3.0203   3.0203   3.0968   3.1814   3.1906   3.1906
     3.3975   3.3975   3.4444   3.6604   3.6604   3.9451   3.9451   3.9616
     4.0165   4.0165   4.0235   4.0353   4.0782   4.0782   4.1612   4.1612
     4.1649   4.2779   4.2779   4.2938   4.2938   4.2992   4.3231   4.3231
     4.3399   4.3787   4.3898   4.3898   4.3961   4.3998   4.4075   4.4075
     4.5255   4.7564   4.7564   4.9931   4.9931   5.1605   5.5964   5.5964
     5.9201   7.7356   8.2581   8.2581   8.7353   8.7582   8.7582   8.8114
     8.9112   8.9112   9.0714   9.3298   9.5207   9.5293   9.5293   9.8697
     9.8697   9.9637   9.9700   9.9700  10.0043  10.0156  10.0156  10.0253
    10.0463  10.0463  10.1883  10.1883  10.1974  10.2180  10.2180  10.2383
    10.2405  10.2405  10.2811  10.6013  10.6013  10.6921  11.0688  11.1451
    11.1451  11.1819  11.1819  11.3082  11.3570  11.3570  11.3702  11.6394
    11.6629  11.6629  11.8515  11.8664  11.8707  11.8707  12.0410  12.0410
    12.0477  12.0623  12.0623

     occupation numbers 
     1.0000   1.0000   1.0000   1.0000   1.0000   1.0000   1.0000   1.0000
     1.0000   1.0000   1.0000   1.0000   1.0000   1.0000   1.0000   1.0000
     1.0000   1.0000   1.0000   1.0000   1.0000   1.0000   1.0000   1.0000
     1.0000   1.0000   1.0000   1.0000   1.0000   1.0000   1.0000   1.0000
     1.0000   1.0000   1.0000   1.0000   1.0000   1.0000   1.0000   1.0000
     1.0000   1.0000   1.0000   1.0000   1.0000   1.0000   1.0000   1.0000
     1.0000   1.0000   1.0000   1.0000   1.0000   1.0000   1.0000   1.0000
     1.0000   1.0000   1.0000   1.0000   1.0000   1.0000   1.0000   1.0000
     1.0000   1.0000   1.0000   1.0000   1.0000   1.0000   1.0000   1.0000
     1.0000   1.0000   1.0000   1.0000   1.0000   1.0000   1.0000   1.0000
     1.0000   1.0000   1.0000   1.0000   1.0000   1.0000   1.0000   1.0000
     1.0000   1.0000   1.0000   1.0000   1.0000   1.0000   1.0000   1.0000
     1.0000   1.0000   1.0000   1.0000   1.0000   1.0000   1.0000   1.0000
     1.0000   1.0000   1.0000   1.0000   1.0000   1.0000   1.0000   1.0000
     1.0000   1.0000   1.0000   1.0000   1.0000   1.0000   1.0000   1.0000
     1.0000   1.0000   1.0000   1.0000   1.0000   1.0000   1.0000   1.0000
     1.0000   1.0000   1.0000   1.0000   1.0000   1.0000   1.0000   1.0000
     1.0000   1.0000   1.0000   1.0000   1.0000   1.0000   1.0000   1.0000
     1.0000   1.0000   1.0000   1.0000   1.0000   1.0000   1.0000   1.0000
     1.0000   1.0000   1.0000   1.0000   1.0000   1.0000   1.0000   1.0000
     1.0000   1.0000   1.0000   1.0000   1.0000   1.0000   1.0000   1.0000
     1.0000   1.0000   1.0000   1.0000   1.0000   1.0000   1.0000   1.0000
     1.0000   1.0000   1.0000   1.0000   1.0000   1.0000   1.0000   1.0000
     1.0000   1.0000   1.0000   1.0000   1.0000   1.0000   1.0000   1.0000
     1.0000   1.0000   1.0000   1.0000   1.0000   1.0000   1.0000   1.0000
     1.0000   1.0000   1.0000   1.0000   1.0000   1.0000   1.0000   1.0000
     1.0000   1.0000   1.0000   1.0000   1.0000   1.0000   1.0000   1.0000
     1.0000   1.0000   1.0000   1.0000   1.0000   1.0000   1.0000   1.0000
     1.0000   1.0000   1.0000   1.0000   1.0000   1.0000   1.0000   1.0000
     1.0000   1.0000   1.0000   1.0000   1.0000   1.0000   1.0000   1.0000
     1.0000   1.0000   1.0000   1.0000   1.0000   1.0000   1.0000   1.0000
     1.0000   1.0000   1.0000   1.0000   1.0000   1.0000   1.0000   1.0000
     1.0000   1.0000   1.0000   1.0000   1.0000   1.0000   1.0000   1.0000
     1.0000   1.0000   1.0000   1.0000   1.0000   1.0000   1.0000   1.0000
     1.0000   1.0000   1.0000   1.0000   1.0000   1.0000   1.0000   1.0000
     1.0000   1.0000   1.0000   1.0000   1.0000   1.0000   1.0000   1.0000
     1.0000   0.0000   0.0000   0.0000   0.0000   0.0000   0.0000   0.0000
     0.0000   0.0000   0.0000   0.0000   0.0000   0.0000   0.0000   0.0000
     0.0000   0.0000   0.0000   0.0000   0.0000   0.0000   0.0000   0.0000
     0.0000   0.0000   0.0000   0.0000   0.0000   0.0000   0.0000   0.0000
     0.0000   0.0000   0.0000   0.0000   0.0000   0.0000   0.0000   0.0000
     0.0000   0.0000   0.0000   0.0000   0.0000   0.0000   0.0000   0.0000
     0.0000   0.0000   0.0000   0.0000   0.0000   0.0000   0.0000   0.0000
     0.0000   0.0000   0.0000

          k = 0.0000 0.0000 0.2500 (269876 PWs)   bands (ev):

  -104.1565 -61.6309 -61.5419 -61.5419  -7.5746  -7.3466  -7.2131  -7.1819
    -7.1704  -7.1409  -7.0855  -7.0840  -7.0532  -7.0267  -7.0058  -6.9818
    -6.9780  -6.9270  -6.9165  -6.9082  -6.9004  -6.8905  -6.8710  -6.8487
    -6.8414  -6.8093  -6.7829  -6.7710  -6.7336  -6.7187  -6.6950  -6.6917
    -6.4648  -6.3294  -6.3266  -3.9817  -3.9657  -3.9652  -3.9615  -3.9490
    -3.9484  -3.9400  -3.9397  -3.9325  -3.9306  -3.9202  -3.9198  -3.9059
    -3.9018  -3.9015  -3.7937  -3.7930  -3.7889  -3.7703  -3.7686  -3.7654
    -3.7629  -3.7609  -3.7564  -3.7546  -3.7526  -3.7511  -3.7505  -3.7455
    -3.7431  -3.7373  -3.7353  -3.7313  -3.7308  -3.7261  -3.7232  -3.7205
    -3.7138  -3.7132  -3.7090  -3.7090  -3.7044  -3.6992  -3.6986  -3.6952
    -3.6890  -3.6877  -3.6793  -3.6793  -3.6754  -3.6731  -3.6699  -3.6646
    -3.6603  -3.6588  -3.6574  -3.6551  -3.6495  -3.6488  -3.6465  -3.6432
    -3.6396  -3.6381  -3.6351  -3.6284  -3.6265  -3.6233  -3.6232  -3.6175
    -3.6154  -3.6103  -3.6091  -3.6021  -3.5998  -3.5994  -3.5970  -3.5935
    -3.5861  -3.5851  -3.5848  -3.5817  -3.5808  -3.5779  -3.5753  -3.5731
    -3.5708  -3.5699  -3.5675  -3.5654  -3.5648  -3.5610  -3.5585  -3.5580
    -3.5520  -3.5485  -3.5452  -3.5425  -3.5375  -3.5375  -3.5320  -3.5286
    -3.5265  -3.5122  -3.5105  -3.5072  -3.5064  -3.5004  -3.4980  -3.4954
    -3.4894  -3.4829  -3.4766  -3.4644  -3.4552  -3.4530  -3.4477  -3.4399
    -3.4374  -3.4311  -3.4262  -3.4258  -3.4181  -3.4168  -3.4153  -3.4152
    -3.4110  -3.4047  -3.4022  -3.3979  -3.3893  -3.3824  -3.3373  -3.3366
    -3.3315  -3.2843  -3.2190  -3.2140  -3.2120  -3.1620  -3.1463  -3.1322
    -3.1233  -3.0847  -3.0752  -3.0704  -3.0689  -3.0486  -2.9954  -2.9710
    -2.9077  -2.8897  -2.8858  -2.8829  -2.8618  -2.8615   0.3327   0.3813
     0.4029   0.4093   0.6606   0.6734   0.7379   0.7961   0.8335   0.8605
     0.8626   0.8875   0.9151   1.0067   1.0332   1.0361   1.0588   1.0751
     1.1108   1.1494   1.3875   1.5737   1.6155   1.6551   1.7656   2.0330
     2.2368   2.3158   2.3514   2.3709   2.3918   2.4062   2.4321   2.4947
     2.5030   2.5360   2.5713   2.6563   2.7055   2.7591   2.7766   2.8401
     3.0082   3.0094   3.0426   3.0476   3.0718   3.0837   3.0846   3.0910
     3.1234   3.1308   3.1393   3.1827   3.1911   3.2264   3.2379   3.2682
     3.3695   3.4448   3.4888   3.6563   3.6872   3.7537   3.8071   3.8815
     3.9104   3.9414   3.9809   4.0085   4.0259   4.0604   4.0670   4.0960
     4.1407   4.1432   4.1626   4.1922   4.2065   4.2884   4.2916   4.3198
     4.3229   4.3384   4.3743   4.3915   4.4024   4.4188   4.4609   4.4734
     4.5238   4.6831   4.7538   4.7588   4.9324   5.0298   5.5020   5.5716
     6.1111   7.8995   8.2281   8.2653   8.8894   8.9317   8.9646   8.9737
     9.0594   9.1289   9.1369   9.4001   9.5057   9.6072   9.6505   9.7186
     9.7355   9.9245   9.9293   9.9703   9.9768   9.9943  10.0744  10.0892
    10.1023  10.1571  10.1619  10.2092  10.2126  10.2489  10.2783  10.2911
    10.3481  10.3545  10.4990  10.5488  10.5658  10.6637  10.6932  10.7961
    10.9116  10.9592  10.9811  11.1265  11.2145  11.2631  11.4583  11.5313
    11.5988  11.6058  11.6716  11.7265  11.7466  11.7774  11.8022  11.8824
    11.8984  11.9156  11.9265

     occupation numbers 
     1.0000   1.0000   1.0000   1.0000   1.0000   1.0000   1.0000   1.0000
     1.0000   1.0000   1.0000   1.0000   1.0000   1.0000   1.0000   1.0000
     1.0000   1.0000   1.0000   1.0000   1.0000   1.0000   1.0000   1.0000
     1.0000   1.0000   1.0000   1.0000   1.0000   1.0000   1.0000   1.0000
     1.0000   1.0000   1.0000   1.0000   1.0000   1.0000   1.0000   1.0000
     1.0000   1.0000   1.0000   1.0000   1.0000   1.0000   1.0000   1.0000
     1.0000   1.0000   1.0000   1.0000   1.0000   1.0000   1.0000   1.0000
     1.0000   1.0000   1.0000   1.0000   1.0000   1.0000   1.0000   1.0000
     1.0000   1.0000   1.0000   1.0000   1.0000   1.0000   1.0000   1.0000
     1.0000   1.0000   1.0000   1.0000   1.0000   1.0000   1.0000   1.0000
     1.0000   1.0000   1.0000   1.0000   1.0000   1.0000   1.0000   1.0000
     1.0000   1.0000   1.0000   1.0000   1.0000   1.0000   1.0000   1.0000
     1.0000   1.0000   1.0000   1.0000   1.0000   1.0000   1.0000   1.0000
     1.0000   1.0000   1.0000   1.0000   1.0000   1.0000   1.0000   1.0000
     1.0000   1.0000   1.0000   1.0000   1.0000   1.0000   1.0000   1.0000
     1.0000   1.0000   1.0000   1.0000   1.0000   1.0000   1.0000   1.0000
     1.0000   1.0000   1.0000   1.0000   1.0000   1.0000   1.0000   1.0000
     1.0000   1.0000   1.0000   1.0000   1.0000   1.0000   1.0000   1.0000
     1.0000   1.0000   1.0000   1.0000   1.0000   1.0000   1.0000   1.0000
     1.0000   1.0000   1.0000   1.0000   1.0000   1.0000   1.0000   1.0000
     1.0000   1.0000   1.0000   1.0000   1.0000   1.0000   1.0000   1.0000
     1.0000   1.0000   1.0000   1.0000   1.0000   1.0000   1.0000   1.0000
     1.0000   1.0000   1.0000   1.0000   1.0000   1.0000   1.0000   1.0000
     1.0000   1.0000   1.0000   1.0000   1.0000   1.0000   1.0000   1.0000
     1.0000   1.0000   1.0000   1.0000   1.0000   1.0000   1.0000   1.0000
     1.0000   1.0000   1.0000   1.0000   1.0000   1.0000   1.0000   1.0000
     1.0000   1.0000   1.0000   1.0000   1.0000   1.0000   1.0000   1.0000
     1.0000   1.0000   1.0000   1.0000   1.0000   1.0000   1.0000   1.0000
     1.0000   1.0000   1.0000   1.0000   1.0000   1.0000   1.0000   1.0000
     1.0000   1.0000   1.0000   1.0000   1.0000   1.0000   1.0000   1.0000
     1.0000   1.0000   1.0000   1.0000   1.0000   1.0000   1.0000   1.0000
     1.0000   1.0000   1.0000   1.0000   1.0000   1.0000   1.0000   1.0000
     1.0000   1.0000   1.0000   1.0000   1.0000   1.0000   1.0000   1.0000
     1.0000   1.0000   1.0000   1.0000   1.0000   1.0000   1.0000   1.0000
     1.0000   1.0000   1.0000   1.0000   1.0000   1.0000   1.0000   1.0000
     1.0000   1.0000   1.0000   1.0000   1.0000   1.0000   1.0000   1.0000
     1.0000   0.0000   0.0000   0.0000   0.0000   0.0000   0.0000   0.0000
     0.0000   0.0000   0.0000   0.0000   0.0000   0.0000   0.0000   0.0000
     0.0000   0.0000   0.0000   0.0000   0.0000   0.0000   0.0000   0.0000
     0.0000   0.0000   0.0000   0.0000   0.0000   0.0000   0.0000   0.0000
     0.0000   0.0000   0.0000   0.0000   0.0000   0.0000   0.0000   0.0000
     0.0000   0.0000   0.0000   0.0000   0.0000   0.0000   0.0000   0.0000
     0.0000   0.0000   0.0000   0.0000   0.0000   0.0000   0.0000   0.0000
     0.0000   0.0000   0.0000

          k = 0.0000 0.0000-0.5000 (270152 PWs)   bands (ev):

  -104.1565 -61.6309 -61.5419 -61.5419  -7.5134  -7.4498  -7.1912  -7.1623
    -7.1519  -7.1246  -7.1228  -7.1112  -7.0561  -7.0552  -6.9963  -6.9900
    -6.9458  -6.9310  -6.9133  -6.9001  -6.8964  -6.8840  -6.8528  -6.8421
    -6.8267  -6.8007  -6.7683  -6.7651  -6.7542  -6.7374  -6.7093  -6.6948
    -6.4616  -6.3328  -6.3269  -3.9814  -3.9661  -3.9651  -3.9609  -3.9493
    -3.9480  -3.9402  -3.9395  -3.9328  -3.9298  -3.9201  -3.9191  -3.9060
    -3.9020  -3.9014  -3.7919  -3.7908  -3.7804  -3.7724  -3.7716  -3.7674
    -3.7642  -3.7626  -3.7609  -3.7573  -3.7535  -3.7535  -3.7520  -3.7517
    -3.7454  -3.7385  -3.7356  -3.7323  -3.7318  -3.7277  -3.7250  -3.7199
    -3.7129  -3.7109  -3.7064  -3.7061  -3.7032  -3.6972  -3.6921  -3.6913
    -3.6902  -3.6888  -3.6852  -3.6781  -3.6770  -3.6702  -3.6672  -3.6655
    -3.6600  -3.6587  -3.6574  -3.6566  -3.6501  -3.6496  -3.6483  -3.6400
    -3.6371  -3.6369  -3.6299  -3.6279  -3.6256  -3.6243  -3.6219  -3.6195
    -3.6173  -3.6130  -3.6123  -3.6097  -3.6046  -3.5986  -3.5962  -3.5938
    -3.5885  -3.5853  -3.5832  -3.5788  -3.5778  -3.5752  -3.5746  -3.5696
    -3.5693  -3.5652  -3.5650  -3.5625  -3.5603  -3.5584  -3.5566  -3.5522
    -3.5507  -3.5495  -3.5432  -3.5420  -3.5393  -3.5391  -3.5345  -3.5235
    -3.5232  -3.5158  -3.5150  -3.5052  -3.5052  -3.4998  -3.4922  -3.4830
    -3.4812  -3.4700  -3.4648  -3.4533  -3.4517  -3.4496  -3.4483  -3.4396
    -3.4382  -3.4336  -3.4304  -3.4278  -3.4208  -3.4135  -3.4128  -3.4110
    -3.4090  -3.4062  -3.4026  -3.3988  -3.3956  -3.3887  -3.3887  -3.3836
    -3.3631  -3.2405  -3.2095  -3.2052  -3.2018  -3.1929  -3.1551  -3.1545
    -3.1375  -3.1242  -3.0453  -3.0090  -2.9906  -2.9834  -2.9531  -2.9507
    -2.9474  -2.9291  -2.9280  -2.9181  -2.8911  -2.8870   0.4934   0.6022
     0.6360   0.6519   0.6651   0.6898   0.6904   0.7021   0.7302   0.7526
     0.7656   0.8150   0.8862   0.8919   0.9124   0.9188   0.9604   1.0087
     1.0323   1.1656   1.1932   1.5491   1.7847   1.9643   1.9916   2.0122
     2.0147   2.0598   2.0743   2.3077   2.3146   2.3354   2.3468   2.3789
     2.4123   2.4216   2.5294   2.6349   2.8408   2.8542   2.8603   2.9259
[...]
    10.0358  10.0887  10.1221  10.1425  10.2066  10.2227  10.2971  10.3276
    10.4330  10.5502  10.5832  10.6191  10.6426  10.7412  10.7645  10.7800
    10.8228  10.9115  10.9309  10.9942  11.1509  11.2539  11.3279  11.3770
    11.4390  11.5190  11.5697  11.6317  11.6859  11.7082  11.7125  11.7823
    11.8137  11.8319  11.8504

     occupation numbers 
     1.0000   1.0000   1.0000   1.0000   1.0000   1.0000   1.0000   1.0000
     1.0000   1.0000   1.0000   1.0000   1.0000   1.0000   1.0000   1.0000
     1.0000   1.0000   1.0000   1.0000   1.0000   1.0000   1.0000   1.0000
     1.0000   1.0000   1.0000   1.0000   1.0000   1.0000   1.0000   1.0000
     1.0000   1.0000   1.0000   1.0000   1.0000   1.0000   1.0000   1.0000
     1.0000   1.0000   1.0000   1.0000   1.0000   1.0000   1.0000   1.0000
     1.0000   1.0000   1.0000   1.0000   1.0000   1.0000   1.0000   1.0000
     1.0000   1.0000   1.0000   1.0000   1.0000   1.0000   1.0000   1.0000
     1.0000   1.0000   1.0000   1.0000   1.0000   1.0000   1.0000   1.0000
     1.0000   1.0000   1.0000   1.0000   1.0000   1.0000   1.0000   1.0000
     1.0000   1.0000   1.0000   1.0000   1.0000   1.0000   1.0000   1.0000
     1.0000   1.0000   1.0000   1.0000   1.0000   1.0000   1.0000   1.0000
     1.0000   1.0000   1.0000   1.0000   1.0000   1.0000   1.0000   1.0000
     1.0000   1.0000   1.0000   1.0000   1.0000   1.0000   1.0000   1.0000
     1.0000   1.0000   1.0000   1.0000   1.0000   1.0000   1.0000   1.0000
     1.0000   1.0000   1.0000   1.0000   1.0000   1.0000   1.0000   1.0000
     1.0000   1.0000   1.0000   1.0000   1.0000   1.0000   1.0000   1.0000
     1.0000   1.0000   1.0000   1.0000   1.0000   1.0000   1.0000   1.0000
     1.0000   1.0000   1.0000   1.0000   1.0000   1.0000   1.0000   1.0000
     1.0000   1.0000   1.0000   1.0000   1.0000   1.0000   1.0000   1.0000
     1.0000   1.0000   1.0000   1.0000   1.0000   1.0000   1.0000   1.0000
     1.0000   1.0000   1.0000   1.0000   1.0000   1.0000   1.0000   1.0000
     1.0000   1.0000   1.0000   1.0000   1.0000   1.0000   1.0000   1.0000
     1.0000   1.0000   1.0000   1.0000   1.0000   1.0000   1.0000   1.0000
     1.0000   1.0000   1.0000   1.0000   1.0000   1.0000   1.0000   1.0000
     1.0000   1.0000   1.0000   1.0000   1.0000   1.0000   1.0000   1.0000
     1.0000   1.0000   1.0000   1.0000   1.0000   1.0000   1.0000   1.0000
     1.0000   1.0000   1.0000   1.0000   1.0000   1.0000   1.0000   1.0000
     1.0000   1.0000   1.0000   1.0000   1.0000   1.0000   1.0000   1.0000
     1.0000   1.0000   1.0000   1.0000   1.0000   1.0000   1.0000   1.0000
     1.0000   1.0000   1.0000   1.0000   1.0000   1.0000   1.0000   1.0000
     1.0000   1.0000   1.0000   1.0000   1.0000   1.0000   1.0000   1.0000
     1.0000   1.0000   1.0000   1.0000   1.0000   1.0000   1.0000   1.0000
     1.0000   1.0000   1.0000   1.0000   1.0000   1.0000   1.0000   1.0000
     1.0000   1.0000   1.0000   1.0000   1.0000   1.0000   1.0000   1.0000
     1.0000   1.0000   1.0000   1.0000   1.0000   1.0000   1.0000   1.0000
     0.0000   0.0000   0.0000   0.0000   0.0000   0.0000   0.0000   0.0000
     0.0000   0.0000   0.0000   0.0000   0.0000   0.0000   0.0000   0.0000
     0.0000   0.0000   0.0000   0.0000   0.0000   0.0000   0.0000   0.0000
     0.0000   0.0000   0.0000   0.0000   0.0000   0.0000   0.0000   0.0000
     0.0000   0.0000   0.0000   0.0000   0.0000   0.0000   0.0000   0.0000
     0.0000   0.0000   0.0000   0.0000   0.0000   0.0000   0.0000   0.0000
     0.0000   0.0000   0.0000   0.0000   0.0000   0.0000   0.0000   0.0000
     0.0000   0.0000   0.0000

          k = 0.2500-0.2500 0.2500 (269935 PWs)   bands (ev):

  -104.1432 -61.6029 -61.5359 -61.5359  -7.5086  -7.3118  -7.3043  -7.2647
    -7.1604  -7.1430  -7.0935  -7.0248  -7.0226  -7.0005  -6.9890  -6.9727
    -6.9421  -6.9259  -6.8884  -6.8810  -6.8733  -6.8611  -6.8607  -6.8285
    -6.8273  -6.7993  -6.7830  -6.7710  -6.7435  -6.7315  -6.7118  -6.7110
    -6.4518  -6.3234  -6.3233  -3.9487  -3.9458  -3.9452  -3.9395  -3.9355
    -3.9349  -3.9230  -3.9116  -3.9105  -3.9100  -3.9022  -3.9015  -3.8889
    -3.8877  -3.8869  -3.7890  -3.7890  -3.7826  -3.7701  -3.7692  -3.7675
    -3.7643  -3.7611  -3.7577  -3.7563  -3.7519  -3.7517  -3.7490  -3.7483
    -3.7401  -3.7355  -3.7328  -3.7263  -3.7243  -3.7188  -3.7182  -3.7163
    -3.7129  -3.7083  -3.7077  -3.7004  -3.6967  -3.6948  -3.6931  -3.6901
    -3.6898  -3.6859  -3.6836  -3.6787  -3.6738  -3.6694  -3.6690  -3.6644
    -3.6640  -3.6575  -3.6551  -3.6510  -3.6504  -3.6494  -3.6468  -3.6398
    -3.6382  -3.6350  -3.6325  -3.6309  -3.6249  -3.6225  -3.6207  -3.6193
    -3.6181  -3.6123  -3.6090  -3.6056  -3.6052  -3.6020  -3.5983  -3.5954
    -3.5917  -3.5896  -3.5866  -3.5831  -3.5812  -3.5779  -3.5731  -3.5691
    -3.5674  -3.5660  -3.5657  -3.5620  -3.5607  -3.5588  -3.5544  -3.5538
    -3.5522  -3.5497  -3.5461  -3.5413  -3.5404  -3.5371  -3.5365  -3.5337
    -3.5272  -3.5153  -3.5148  -3.5124  -3.5110  -3.5065  -3.5000  -3.4993
    -3.4834  -3.4725  -3.4669  -3.4560  -3.4556  -3.4445  -3.4443  -3.4405
    -3.4391  -3.4306  -3.4262  -3.4262  -3.4185  -3.4165  -3.4096  -3.4075
    -3.4070  -3.4013  -3.4002  -3.3937  -3.3891  -3.3889  -3.3478  -3.3419
    -3.3135  -3.2896  -3.2089  -3.2010  -3.1769  -3.1622  -3.1492  -3.1212
    -3.1039  -3.0764  -3.0454  -3.0386  -3.0372  -2.9972  -2.9920  -2.9783
    -2.9285  -2.9245  -2.9196  -2.9066  -2.9009  -2.8989   0.4288   0.4776
     0.4942   0.6921   0.7292   0.7400   0.7757   0.7833   0.7915   0.8395
     0.8469   0.8630   0.8770   0.8963   0.9148   0.9969   1.0527   1.0965
     1.0969   1.1209   1.2182   1.4149   1.5957   1.6390   1.7468   1.8477
     1.8597   2.1615   2.4430   2.4694   2.4739   2.5094   2.5333   2.5414
     2.5941   2.6102   2.6159   2.7161   2.7652   2.8757   2.8838   2.9238
     2.9679   3.0330   3.0870   3.0876   3.1261   3.1552   3.1713   3.2451
     3.2558   3.2786   3.2844   3.3072   3.3347   3.3401   3.4019   3.4454
     3.4845   3.5614   3.5866   3.6618   3.6930   3.7581   3.7827   3.8110
     3.8198   3.8378   3.8604   3.9054   3.9122   3.9223   3.9544   3.9820
     3.9913   4.0156   4.0537   4.0808   4.0851   4.0969   4.2000   4.2678
     4.2853   4.3607   4.3923   4.4308   4.4496   4.5092   4.5221   4.5726
     4.5914   4.6573   4.7736   4.8216   4.9714   5.0517   5.4453   5.5671
     6.7385   8.0533   8.4598   8.6179   8.8746   9.0811   9.2602   9.2622
     9.2848   9.3847   9.3948   9.4558   9.4928   9.5539   9.6000   9.6087
     9.6552   9.7899   9.8318   9.8900   9.9247  10.0227  10.0242  10.0786
    10.1210  10.1310  10.2036  10.2089  10.2245  10.2434  10.2640  10.2759
    10.2869  10.3120  10.3277  10.3565  10.4313  10.5246  10.7441  10.8191
    10.9899  11.0548  11.0865  11.1363  11.3117  11.3134  11.3443  11.3707
    11.3883  11.4198  11.4425  11.5377  11.5379  11.5967  11.7360  11.7456
    11.7734  11.8185  11.8331

     occupation numbers 
     1.0000   1.0000   1.0000   1.0000   1.0000   1.0000   1.0000   1.0000
     1.0000   1.0000   1.0000   1.0000   1.0000   1.0000   1.0000   1.0000
     1.0000   1.0000   1.0000   1.0000   1.0000   1.0000   1.0000   1.0000
     1.0000   1.0000   1.0000   1.0000   1.0000   1.0000   1.0000   1.0000
     1.0000   1.0000   1.0000   1.0000   1.0000   1.0000   1.0000   1.0000
     1.0000   1.0000   1.0000   1.0000   1.0000   1.0000   1.0000   1.0000
     1.0000   1.0000   1.0000   1.0000   1.0000   1.0000   1.0000   1.0000
     1.0000   1.0000   1.0000   1.0000   1.0000   1.0000   1.0000   1.0000
     1.0000   1.0000   1.0000   1.0000   1.0000   1.0000   1.0000   1.0000
     1.0000   1.0000   1.0000   1.0000   1.0000   1.0000   1.0000   1.0000
     1.0000   1.0000   1.0000   1.0000   1.0000   1.0000   1.0000   1.0000
     1.0000   1.0000   1.0000   1.0000   1.0000   1.0000   1.0000   1.0000
     1.0000   1.0000   1.0000   1.0000   1.0000   1.0000   1.0000   1.0000
     1.0000   1.0000   1.0000   1.0000   1.0000   1.0000   1.0000   1.0000
     1.0000   1.0000   1.0000   1.0000   1.0000   1.0000   1.0000   1.0000
     1.0000   1.0000   1.0000   1.0000   1.0000   1.0000   1.0000   1.0000
     1.0000   1.0000   1.0000   1.0000   1.0000   1.0000   1.0000   1.0000
     1.0000   1.0000   1.0000   1.0000   1.0000   1.0000   1.0000   1.0000
     1.0000   1.0000   1.0000   1.0000   1.0000   1.0000   1.0000   1.0000
     1.0000   1.0000   1.0000   1.0000   1.0000   1.0000   1.0000   1.0000
     1.0000   1.0000   1.0000   1.0000   1.0000   1.0000   1.0000   1.0000
     1.0000   1.0000   1.0000   1.0000   1.0000   1.0000   1.0000   1.0000
     1.0000   1.0000   1.0000   1.0000   1.0000   1.0000   1.0000   1.0000
     1.0000   1.0000   1.0000   1.0000   1.0000   1.0000   1.0000   1.0000
     1.0000   1.0000   1.0000   1.0000   1.0000   1.0000   1.0000   1.0000
     1.0000   1.0000   1.0000   1.0000   1.0000   1.0000   1.0000   1.0000
     1.0000   1.0000   1.0000   1.0000   1.0000   1.0000   1.0000   1.0000
     1.0000   1.0000   1.0000   1.0000   1.0000   1.0000   1.0000   1.0000
     1.0000   1.0000   1.0000   1.0000   1.0000   1.0000   1.0000   1.0000
     1.0000   1.0000   1.0000   1.0000   1.0000   1.0000   1.0000   1.0000
     1.0000   1.0000   1.0000   1.0000   1.0000   1.0000   1.0000   1.0000
     1.0000   1.0000   1.0000   1.0000   1.0000   1.0000   1.0000   1.0000
     1.0000   1.0000   1.0000   1.0000   1.0000   1.0000   1.0000   1.0000
     1.0000   1.0000   1.0000   1.0000   1.0000   1.0000   1.0000   1.0000
     1.0000   1.0000   1.0000   1.0000   1.0000   1.0000   1.0000   1.0000
     1.0000   1.0000   1.0000   1.0000   1.0000   1.0000   1.0000   1.0000
     0.0000   0.0000   0.0000   0.0000   0.0000   0.0000   0.0000   0.0000
     0.0000   0.0000   0.0000   0.0000   0.0000   0.0000   0.0000   0.0000
     0.0000   0.0000   0.0000   0.0000   0.0000   0.0000   0.0000   0.0000
     0.0000   0.0000   0.0000   0.0000   0.0000   0.0000   0.0000   0.0000
     0.0000   0.0000   0.0000   0.0000   0.0000   0.0000   0.0000   0.0000
     0.0000   0.0000   0.0000   0.0000   0.0000   0.0000   0.0000   0.0000
     0.0000   0.0000   0.0000   0.0000   0.0000   0.0000   0.0000   0.0000
     0.0000   0.0000   0.0000

          k = 0.2500-0.2500-0.5000 (269988 PWs)   bands (ev):

  -104.1432 -61.6029 -61.5359 -61.5359  -7.4506  -7.3953  -7.2609  -7.2523
    -7.2301  -7.1648  -7.1114  -7.0207  -7.0161  -6.9909  -6.9788  -6.9588
    -6.9335  -6.8993  -6.8913  -6.8689  -6.8654  -6.8458  -6.8416  -6.8359
    -6.8237  -6.8030  -6.7748  -6.7697  -6.7585  -6.7483  -6.7251  -6.7182
    -6.4492  -6.3267  -6.3236  -3.9482  -3.9460  -3.9449  -3.9393  -3.9358
    -3.9346  -3.9235  -3.9111  -3.9104  -3.9097  -3.9017  -3.9010  -3.8889
    -3.8877  -3.8869  -3.7895  -3.7871  -3.7786  -3.7732  -3.7715  -3.7676
    -3.7667  -3.7619  -3.7603  -3.7532  -3.7509  -3.7492  -3.7480  -3.7443
    -3.7412  -3.7366  -3.7346  -3.7274  -3.7248  -3.7185  -3.7176  -3.7148
    -3.7125  -3.7077  -3.7027  -3.6996  -3.6972  -3.6937  -3.6897  -3.6881
    -3.6863  -3.6843  -3.6817  -3.6778  -3.6768  -3.6694  -3.6687  -3.6656
    -3.6639  -3.6607  -3.6550  -3.6543  -3.6511  -3.6466  -3.6448  -3.6432
    -3.6385  -3.6368  -3.6309  -3.6275  -3.6266  -3.6255  -3.6213  -3.6176
    -3.6157  -3.6136  -3.6095  -3.6078  -3.6065  -3.6012  -3.5992  -3.5954
    -3.5923  -3.5889  -3.5864  -3.5829  -3.5797  -3.5762  -3.5743  -3.5694
    -3.5676  -3.5668  -3.5652  -3.5609  -3.5592  -3.5576  -3.5560  -3.5524
    -3.5511  -3.5488  -3.5454  -3.5428  -3.5414  -3.5383  -3.5358  -3.5335
    -3.5288  -3.5217  -3.5183  -3.5175  -3.5100  -3.5059  -3.5015  -3.4991
    -3.4955  -3.4894  -3.4793  -3.4668  -3.4477  -3.4471  -3.4445  -3.4431
    -3.4420  -3.4301  -3.4277  -3.4258  -3.4164  -3.4159  -3.4103  -3.4070
    -3.4061  -3.4023  -3.3993  -3.3949  -3.3916  -3.3905  -3.3660  -3.2996
    -3.2697  -3.2607  -3.2438  -3.1800  -3.1712  -3.1598  -3.1227  -3.1105
    -3.1031  -3.0560  -3.0460  -3.0289  -3.0092  -2.9990  -2.9970  -2.9842
    -2.9664  -2.9536  -2.9327  -2.9234  -2.9182  -2.9088   0.5086   0.5630
     0.6155   0.6990   0.7162   0.7438   0.7557   0.7716   0.7822   0.7932
     0.8119   0.8493   0.8533   0.8838   0.8956   0.9415   0.9794   1.1010
     1.1604   1.2417   1.2937   1.3470   1.3655   1.4156   1.5467   1.9050
     2.2060   2.3004   2.3414   2.3897   2.4211   2.4709   2.5022   2.5794
     2.6061   2.6709   2.6745   2.6829   2.7526   2.7867   2.8439   2.8764
     3.0793   3.0849   3.1784   3.2039   3.2188   3.2676   3.3106   3.3371
     3.3478   3.3622   3.3668   3.3927   3.4264   3.4543   3.4594   3.4784
     3.5023   3.5221   3.5419   3.5518   3.5723   3.6038   3.6196   3.6355
     3.6764   3.7555   3.7671   3.8009   3.8302   3.8381   3.9258   3.9589
     3.9907   3.9947   4.0402   4.0776   4.1649   4.1764   4.1876   4.2252
     4.2717   4.3098   4.3408   4.4096   4.5017   4.5354   4.6016   4.6800
     4.6896   4.7450   4.8201   4.8546   4.9134   4.9270   5.4841   5.5405
     6.7582   8.2050   8.3079   8.8673   8.9570   9.0681   9.1394   9.2218
     9.3504   9.3870   9.4496   9.5260   9.5443   9.5936   9.6143   9.6326
     9.6640   9.7420   9.7528   9.8000   9.8328   9.8660   9.8819   9.9561
     9.9851   9.9938  10.0623  10.0947  10.1034  10.1815  10.1992  10.3265
    10.3550  10.3915  10.4397  10.6030  10.6987  10.7485  10.7787  10.8263
    10.8524  10.9585  11.0425  11.1396  11.2320  11.2866  11.3507  11.4144
    11.4670  11.4950  11.5034  11.5322  11.5867  11.5982  11.6276  11.6411
    11.6549  11.6787  11.6909

     occupation numbers 
     1.0000   1.0000   1.0000   1.0000   1.0000   1.0000   1.0000   1.0000
     1.0000   1.0000   1.0000   1.0000   1.0000   1.0000   1.0000   1.0000
     1.0000   1.0000   1.0000   1.0000   1.0000   1.0000   1.0000   1.0000
     1.0000   1.0000   1.0000   1.0000   1.0000   1.0000   1.0000   1.0000
     1.0000   1.0000   1.0000   1.0000   1.0000   1.0000   1.0000   1.0000
     1.0000   1.0000   1.0000   1.0000   1.0000   1.0000   1.0000   1.0000
     1.0000   1.0000   1.0000   1.0000   1.0000   1.0000   1.0000   1.0000
     1.0000   1.0000   1.0000   1.0000   1.0000   1.0000   1.0000   1.0000
     1.0000   1.0000   1.0000   1.0000   1.0000   1.0000   1.0000   1.0000
     1.0000   1.0000   1.0000   1.0000   1.0000   1.0000   1.0000   1.0000
     1.0000   1.0000   1.0000   1.0000   1.0000   1.0000   1.0000   1.0000
     1.0000   1.0000   1.0000   1.0000   1.0000   1.0000   1.0000   1.0000
     1.0000   1.0000   1.0000   1.0000   1.0000   1.0000   1.0000   1.0000
     1.0000   1.0000   1.0000   1.0000   1.0000   1.0000   1.0000   1.0000
     1.0000   1.0000   1.0000   1.0000   1.0000   1.0000   1.0000   1.0000
     1.0000   1.0000   1.0000   1.0000   1.0000   1.0000   1.0000   1.0000
     1.0000   1.0000   1.0000   1.0000   1.0000   1.0000   1.0000   1.0000
     1.0000   1.0000   1.0000   1.0000   1.0000   1.0000   1.0000   1.0000
     1.0000   1.0000   1.0000   1.0000   1.0000   1.0000   1.0000   1.0000
     1.0000   1.0000   1.0000   1.0000   1.0000   1.0000   1.0000   1.0000
     1.0000   1.0000   1.0000   1.0000   1.0000   1.0000   1.0000   1.0000
     1.0000   1.0000   1.0000   1.0000   1.0000   1.0000   1.0000   1.0000
     1.0000   1.0000   1.0000   1.0000   1.0000   1.0000   1.0000   1.0000
     1.0000   1.0000   1.0000   1.0000   1.0000   1.0000   1.0000   1.0000
     1.0000   1.0000   1.0000   1.0000   1.0000   1.0000   1.0000   1.0000
     1.0000   1.0000   1.0000   1.0000   1.0000   1.0000   1.0000   1.0000
     1.0000   1.0000   1.0000   1.0000   1.0000   1.0000   1.0000   1.0000
     1.0000   1.0000   1.0000   1.0000   1.0000   1.0000   1.0000   1.0000
     1.0000   1.0000   1.0000   1.0000   1.0000   1.0000   1.0000   1.0000
     1.0000   1.0000   1.0000   1.0000   1.0000   1.0000   1.0000   1.0000
     1.0000   1.0000   1.0000   1.0000   1.0000   1.0000   1.0000   1.0000
     1.0000   1.0000   1.0000   1.0000   1.0000   1.0000   1.0000   1.0000
     1.0000   1.0000   1.0000   1.0000   1.0000   1.0000   1.0000   1.0000
     1.0000   1.0000   1.0000   1.0000   1.0000   1.0000   1.0000   1.0000
     1.0000   1.0000   1.0000   1.0000   1.0000   1.0000   1.0000   1.0000
     1.0000   1.0000   1.0000   1.0000   1.0000   1.0000   1.0000   1.0000
     0.0000   0.0000   0.0000   0.0000   0.0000   0.0000   0.0000   0.0000
     0.0000   0.0000   0.0000   0.0000   0.0000   0.0000   0.0000   0.0000
     0.0000   0.0000   0.0000   0.0000   0.0000   0.0000   0.0000   0.0000
     0.0000   0.0000   0.0000   0.0000   0.0000   0.0000   0.0000   0.0000
     0.0000   0.0000   0.0000   0.0000   0.0000   0.0000   0.0000   0.0000
     0.0000   0.0000   0.0000   0.0000   0.0000   0.0000   0.0000   0.0000
     0.0000   0.0000   0.0000   0.0000   0.0000   0.0000   0.0000   0.0000
     0.0000   0.0000   0.0000

     the Fermi energy is     6.2792 ev
     (compare with:     6.3461 eV, computed in scf)

     Writing all to output data dir ./out/Cu_vac_q0_U3_unrlxd.save/
 
     init_run     :      5.64s CPU      6.63s WALL (       1 calls)
     electrons    :    149.99s CPU    151.50s WALL (       1 calls)

     Called by init_run:
     wfcinit      :      2.01s CPU      2.10s WALL (       1 calls)
     wfcinit:atom :      0.03s CPU      0.03s WALL (       2 calls)
     wfcinit:wfcr :      3.14s CPU      3.24s WALL (       2 calls)
     potinit      :      0.59s CPU      1.22s WALL (       1 calls)
     hinit0       :      0.44s CPU      0.52s WALL (       1 calls)

     Called by electrons:
     c_bands      :    149.67s CPU    151.16s WALL (       1 calls)
     v_of_rho     :      0.30s CPU      0.36s WALL (       1 calls)
     v_h          :      0.01s CPU      0.01s WALL (       1 calls)
     v_xc         :      0.29s CPU      0.35s WALL (       1 calls)
     newd         :      0.04s CPU      0.04s WALL (       1 calls)
     PAW_pot      :      0.12s CPU      0.13s WALL (       1 calls)

     Called by c_bands:
     init_us_2    :      0.11s CPU      0.13s WALL (       4 calls)
     init_us_2:cp :      0.11s CPU      0.13s WALL (       4 calls)
     cegterg      :    140.48s CPU    141.83s WALL (      12 calls)

     Called by sum_band:

     Called by *egterg:
     cdiaghg      :     13.99s CPU     14.08s WALL (     224 calls)
     cegterg:over :     10.88s CPU     10.98s WALL (     222 calls)
     cegterg:upda :     10.86s CPU     10.92s WALL (     222 calls)
     cegterg:last :     19.67s CPU     19.78s WALL (      67 calls)
     cdiaghg:chol :      0.91s CPU      0.92s WALL (     224 calls)
     cdiaghg:inve :      1.35s CPU      1.35s WALL (     224 calls)
     cdiaghg:para :      2.10s CPU      2.12s WALL (     448 calls)
     h_psi        :     73.21s CPU     74.03s WALL (     236 calls)
     s_psi        :     12.66s CPU     12.74s WALL (     238 calls)
     g_psi        :      0.39s CPU      0.39s WALL (     222 calls)

     Called by h_psi:
     h_psi:calbec :     12.23s CPU     12.32s WALL (     236 calls)
     vloc_psi     :     29.74s CPU     30.06s WALL (     236 calls)
     add_vuspsi   :     12.81s CPU     12.94s WALL (     236 calls)
     vhpsi        :     17.84s CPU     17.98s WALL (     236 calls)

     General routines
     calbec       :     14.88s CPU     15.00s WALL (     474 calls)
     fft          :      0.48s CPU      0.63s WALL (      21 calls)
     fftw         :     27.59s CPU     27.89s WALL (   50740 calls)
     davcio       :      0.00s CPU      0.01s WALL (       2 calls)
 
     Parallel routines

     Hubbard U routines
     vhpsi        :     17.84s CPU     17.98s WALL (     236 calls)

     PAW routines
     PAW_pot      :      0.12s CPU      0.13s WALL (       1 calls)
 
     PWSCF        :   3m 4.27s CPU   3m36.11s WALL

 
   This run was terminated on:   2:13:17  18Jul2024            

=------------------------------------------------------------------------------=
   JOB DONE.
=------------------------------------------------------------------------------=
