### Running on host: unam-asus

     Program PWSCF v.7.2 starts on 16Feb2024 at  9:18:18 

     This program is part of the open-source Quantum ESPRESSO suite
     for quantum simulation of materials; please cite
         "P. Giannozzi et al., J. Phys.:Condens. Matter 21 395502 (2009);
         "P. Giannozzi et al., J. Phys.:Condens. Matter 29 465901 (2017);
         "P. Giannozzi et al., J. Chem. Phys. 152 154105 (2020);
          URL http://www.quantum-espresso.org", 
     in publications or presentations arising from this work. More details at
     http://www.quantum-espresso.org/quote

     Parallel version (MPI), running on    10 processors

     MPI processes distributed on     1 nodes
     660 MiB available memory on the printing compute node when the environment starts

     Reading input from scf.k-10.in

     Current dimensions of program PWSCF are:
     Max number of different atomic species (ntypx) = 10
     Max number of k-points (npk) =  40000
     Max angular momentum in pseudopotentials (lmaxx) =  4
     file Zn.pbe-dnl-kjpaw_psl.1.0.0.UPF: wavefunction(s)  4S 3D renormalized
     Message from routine setup:
     using ibrav=0 with symmetry is DISCOURAGED, use correct ibrav instead

     R & G space division:  proc/nbgrp/npool/nimage =      10
     Subspace diagonalization in iterative solution of the eigenvalue problem:
     a serial algorithm will be used


     Parallelization info
     --------------------
     sticks:   dense  smooth     PW     G-vecs:    dense   smooth      PW
     Min          47      47     15                 1539     1539     258
     Max          48      48     16                 1543     1543     259
     Sum         475     475    151                15415    15415    2589

     Using Slab Decomposition



     bravais-lattice index     =            0
     lattice parameter (alat)  =       4.9404  a.u.
     unit-cell volume          =     194.6564 (a.u.)^3
     number of atoms/cell      =            2
     number of atomic types    =            1
     number of electrons       =        24.00
     number of Kohn-Sham states=           16
     kinetic-energy cutoff     =      70.0000  Ry
     charge density cutoff     =     280.0000  Ry
     scf convergence threshold =      4.0E-08
     mixing beta               =       0.7000
     number of iterations used =            8  plain     mixing
     Exchange-correlation= SLA  PW   PBX  PBC
                           (   1   4   3   4   0   0   0)

     celldm(1)=   4.940424  celldm(2)=   0.000000  celldm(3)=   0.000000
     celldm(4)=   0.000000  celldm(5)=   0.000000  celldm(6)=   0.000000

     crystal axes: (cart. coord. in units of alat)
               a(1) = (   1.000000   0.000000   0.000000 )  
               a(2) = (  -0.500000   0.866025   0.000000 )  
               a(3) = (   0.000000   0.000000   1.863998 )  

     reciprocal axes: (cart. coord. in units 2 pi/alat)
               b(1) = (  1.000000  0.577350 -0.000000 )  
               b(2) = (  0.000000  1.154701  0.000000 )  
               b(3) = (  0.000000 -0.000000  0.536481 )  


     PseudoPot. # 1 for Zn read from file:
     /home/abdul/git_repo/ZnS_Cu-Vacancy/pseudo/QE/Zn.pbe-dnl-kjpaw_psl.1.0.0.UPF
     MD5 check sum: c608214d9520ac179f507641260889e3
     Pseudo is Projector augmented-wave + core cor, Zval = 12.0
     Generated using &quot;atomic&quot; code by A. Dal Corso  v.6.2.2
     Shape of augmentation charge: PSQ
     Using radial grid of 1201 points,  6 beta functions with: 
                l(1) =   0
                l(2) =   0
                l(3) =   1
                l(4) =   1
                l(5) =   2
                l(6) =   2
     Q(r) pseudized with 0 coefficients 


     atomic species   valence    mass     pseudopotential
        Zn            12.00    65.38000     Zn( 1.00)

     24 Sym. Ops., with inversion, found (12 have fractional translation)


                                    s                        frac. trans.

      isym =  1     identity                                     

 cryst.   s( 1) = (     1          0          0      )
                  (     0          1          0      )
                  (     0          0          1      )

 cart.    s( 1) = (  1.0000000  0.0000000  0.0000000 )
                  (  0.0000000  1.0000000  0.0000000 )
                  (  0.0000000  0.0000000  1.0000000 )


      isym =  2     180 deg rotation - cart. axis [0,0,1]        

 cryst.   s( 2) = (    -1          0          0      )    f =(  0.0000000 )
                  (     0         -1          0      )       (  0.0000000 )
                  (     0          0          1      )       ( -0.5000000 )

 cart.    s( 2) = ( -1.0000000  0.0000000  0.0000000 )    f =(  0.0000000 )
                  (  0.0000000 -1.0000000  0.0000000 )       (  0.0000000 )
                  (  0.0000000  0.0000000  1.0000000 )       ( -0.9319989 )


      isym =  3     180 deg rotation - cart. axis [0,1,0]        

 cryst.   s( 3) = (    -1          0          0      )    f =(  0.0000000 )
                  (     1          1          0      )       (  0.0000000 )
                  (     0          0         -1      )       (  0.5000000 )

 cart.    s( 3) = ( -1.0000000  0.0000000  0.0000000 )    f =(  0.0000000 )
                  (  0.0000000  1.0000000  0.0000000 )       (  0.0000000 )
                  (  0.0000000  0.0000000 -1.0000000 )       (  0.9319989 )


      isym =  4     180 deg rotation - cart. axis [1,0,0]        

 cryst.   s( 4) = (     1          0          0      )
                  (    -1         -1          0      )
                  (     0          0         -1      )

 cart.    s( 4) = (  1.0000000  0.0000000  0.0000000 )
                  (  0.0000000 -1.0000000  0.0000000 )
                  (  0.0000000  0.0000000 -1.0000000 )


      isym =  5      60 deg rotation - cryst. axis [0,0,1]       

 cryst.   s( 5) = (     1          1          0      )    f =(  0.0000000 )
                  (    -1          0          0      )       ( -0.0000000 )
                  (     0          0          1      )       ( -0.5000000 )

 cart.    s( 5) = (  0.5000000 -0.8660254  0.0000000 )    f =(  0.0000000 )
                  (  0.8660254  0.5000000  0.0000000 )       ( -0.0000000 )
                  (  0.0000000  0.0000000  1.0000000 )       ( -0.9319989 )


      isym =  6      60 deg rotation - cryst. axis [0,0,-1]      

 cryst.   s( 6) = (     0         -1          0      )    f =(  0.0000000 )
                  (     1          1          0      )       ( -0.0000000 )
                  (     0          0          1      )       ( -0.5000000 )

 cart.    s( 6) = (  0.5000000  0.8660254  0.0000000 )    f =(  0.0000000 )
                  ( -0.8660254  0.5000000  0.0000000 )       ( -0.0000000 )
                  (  0.0000000  0.0000000  1.0000000 )       ( -0.9319989 )


      isym =  7     120 deg rotation - cryst. axis [0,0,1]       

 cryst.   s( 7) = (     0          1          0      )
                  (    -1         -1          0      )
                  (     0          0          1      )

 cart.    s( 7) = ( -0.5000000 -0.8660254  0.0000000 )
                  (  0.8660254 -0.5000000  0.0000000 )
                  (  0.0000000  0.0000000  1.0000000 )


      isym =  8     120 deg rotation - cryst. axis [0,0,-1]      

 cryst.   s( 8) = (    -1         -1          0      )
                  (     1          0          0      )
                  (     0          0          1      )

 cart.    s( 8) = ( -0.5000000  0.8660254  0.0000000 )
                  ( -0.8660254 -0.5000000  0.0000000 )
                  (  0.0000000  0.0000000  1.0000000 )


      isym =  9     180 deg rotation - cryst. axis [1,-1,0]      

 cryst.   s( 9) = (     0         -1          0      )    f =(  0.0000000 )
                  (    -1          0          0      )       (  0.0000000 )
                  (     0          0         -1      )       (  0.5000000 )

 cart.    s( 9) = (  0.5000000 -0.8660254  0.0000000 )    f =(  0.0000000 )
                  ( -0.8660254 -0.5000000  0.0000000 )       (  0.0000000 )
                  (  0.0000000  0.0000000 -1.0000000 )       (  0.9319989 )


      isym = 10     180 deg rotation - cryst. axis [2,1,0]       

 cryst.   s(10) = (     1          1          0      )    f =(  0.0000000 )
                  (     0         -1          0      )       ( -0.0000000 )
                  (     0          0         -1      )       (  0.5000000 )

 cart.    s(10) = (  0.5000000  0.8660254  0.0000000 )    f =(  0.0000000 )
                  (  0.8660254 -0.5000000  0.0000000 )       ( -0.0000000 )
                  (  0.0000000  0.0000000 -1.0000000 )       (  0.9319989 )


      isym = 11     180 deg rotation - cryst. axis [0,1,0]       

 cryst.   s(11) = (    -1         -1          0      )
                  (     0          1          0      )
                  (     0          0         -1      )

 cart.    s(11) = ( -0.5000000 -0.8660254  0.0000000 )
                  ( -0.8660254  0.5000000  0.0000000 )
                  (  0.0000000  0.0000000 -1.0000000 )


      isym = 12     180 deg rotation - cryst. axis [1,1,0]       

 cryst.   s(12) = (     0          1          0      )
                  (     1          0          0      )
                  (     0          0         -1      )

 cart.    s(12) = ( -0.5000000  0.8660254  0.0000000 )
                  (  0.8660254  0.5000000  0.0000000 )
                  (  0.0000000  0.0000000 -1.0000000 )


      isym = 13     inversion                                    

 cryst.   s(13) = (    -1          0          0      )
                  (     0         -1          0      )
                  (     0          0         -1      )

 cart.    s(13) = ( -1.0000000  0.0000000  0.0000000 )
                  (  0.0000000 -1.0000000  0.0000000 )
                  (  0.0000000  0.0000000 -1.0000000 )


      isym = 14     inv. 180 deg rotation - cart. axis [0,0,1]   

 cryst.   s(14) = (     1          0          0      )    f =(  0.0000000 )
                  (     0          1          0      )       (  0.0000000 )
                  (     0          0         -1      )       (  0.5000000 )

 cart.    s(14) = (  1.0000000  0.0000000  0.0000000 )    f =(  0.0000000 )
                  (  0.0000000  1.0000000  0.0000000 )       (  0.0000000 )
                  (  0.0000000  0.0000000 -1.0000000 )       (  0.9319989 )


      isym = 15     inv. 180 deg rotation - cart. axis [0,1,0]   

 cryst.   s(15) = (     1          0          0      )    f =(  0.0000000 )
                  (    -1         -1          0      )       (  0.0000000 )
                  (     0          0          1      )       ( -0.5000000 )

 cart.    s(15) = (  1.0000000  0.0000000  0.0000000 )    f =(  0.0000000 )
                  (  0.0000000 -1.0000000  0.0000000 )       (  0.0000000 )
                  (  0.0000000  0.0000000  1.0000000 )       ( -0.9319989 )


      isym = 16     inv. 180 deg rotation - cart. axis [1,0,0]   

 cryst.   s(16) = (    -1          0          0      )
                  (     1          1          0      )
                  (     0          0          1      )

 cart.    s(16) = ( -1.0000000  0.0000000  0.0000000 )
                  (  0.0000000  1.0000000  0.0000000 )
                  (  0.0000000  0.0000000  1.0000000 )


      isym = 17     inv.  60 deg rotation - cryst. axis [0,0,1]  

 cryst.   s(17) = (    -1         -1          0      )    f =(  0.0000000 )
                  (     1          0          0      )       (  0.0000000 )
                  (     0          0         -1      )       (  0.5000000 )

 cart.    s(17) = ( -0.5000000  0.8660254  0.0000000 )    f =(  0.0000000 )
                  ( -0.8660254 -0.5000000  0.0000000 )       (  0.0000000 )
                  (  0.0000000  0.0000000 -1.0000000 )       (  0.9319989 )


      isym = 18     inv.  60 deg rotation - cryst. axis [0,0,-1] 

 cryst.   s(18) = (     0          1          0      )    f =(  0.0000000 )
                  (    -1         -1          0      )       ( -0.0000000 )
                  (     0          0         -1      )       (  0.5000000 )

 cart.    s(18) = ( -0.5000000 -0.8660254  0.0000000 )    f =(  0.0000000 )
                  (  0.8660254 -0.5000000  0.0000000 )       ( -0.0000000 )
                  (  0.0000000  0.0000000 -1.0000000 )       (  0.9319989 )


      isym = 19     inv. 120 deg rotation - cryst. axis [0,0,1]  

 cryst.   s(19) = (     0         -1          0      )
                  (     1          1          0      )
                  (     0          0         -1      )

 cart.    s(19) = (  0.5000000  0.8660254  0.0000000 )
                  ( -0.8660254  0.5000000  0.0000000 )
                  (  0.0000000  0.0000000 -1.0000000 )


      isym = 20     inv. 120 deg rotation - cryst. axis [0,0,-1] 

 cryst.   s(20) = (     1          1          0      )
                  (    -1          0          0      )
                  (     0          0         -1      )

 cart.    s(20) = (  0.5000000 -0.8660254  0.0000000 )
                  (  0.8660254  0.5000000  0.0000000 )
                  (  0.0000000  0.0000000 -1.0000000 )


      isym = 21     inv. 180 deg rotation - cryst. axis [1,-1,0] 

 cryst.   s(21) = (     0          1          0      )    f =(  0.0000000 )
                  (     1          0          0      )       ( -0.0000000 )
                  (     0          0          1      )       ( -0.5000000 )

 cart.    s(21) = ( -0.5000000  0.8660254  0.0000000 )    f =(  0.0000000 )
                  (  0.8660254  0.5000000  0.0000000 )       ( -0.0000000 )
                  (  0.0000000  0.0000000  1.0000000 )       ( -0.9319989 )


      isym = 22     inv. 180 deg rotation - cryst. axis [2,1,0]  

 cryst.   s(22) = (    -1         -1          0      )    f =(  0.0000000 )
                  (     0          1          0      )       ( -0.0000000 )
                  (     0          0          1      )       ( -0.5000000 )

 cart.    s(22) = ( -0.5000000 -0.8660254  0.0000000 )    f =(  0.0000000 )
                  ( -0.8660254  0.5000000  0.0000000 )       ( -0.0000000 )
                  (  0.0000000  0.0000000  1.0000000 )       ( -0.9319989 )


      isym = 23     inv. 180 deg rotation - cryst. axis [0,1,0]  

 cryst.   s(23) = (     1          1          0      )
                  (     0         -1          0      )
                  (     0          0          1      )

 cart.    s(23) = (  0.5000000  0.8660254  0.0000000 )
                  (  0.8660254 -0.5000000  0.0000000 )
                  (  0.0000000  0.0000000  1.0000000 )


      isym = 24     inv. 180 deg rotation - cryst. axis [1,1,0]  

 cryst.   s(24) = (     0         -1          0      )
                  (    -1          0          0      )
                  (     0          0          1      )

 cart.    s(24) = (  0.5000000 -0.8660254  0.0000000 )
                  ( -0.8660254 -0.5000000  0.0000000 )
                  (  0.0000000  0.0000000  1.0000000 )


   Cartesian axes

     site n.     atom                  positions (alat units)
         1           Zn  tau(   1) = (  -0.0000000   0.5773503   0.4659995  )
         2           Zn  tau(   2) = (   0.5000000   0.2886751   1.3979984  )

   Crystallographic axes

     site n.     atom                  positions (cryst. coord.)
         1           Zn  tau(   1) = (  0.3333333  0.6666667  0.2500000  )
         2           Zn  tau(   2) = (  0.6666667  0.3333333  0.7500000  )

     number of k points=    42  Gaussian smearing, width (Ry)=  0.0073
                       cart. coord. in units 2pi/alat
        k(    1) = (   0.0000000   0.0000000   0.0000000), wk =   0.0040000
        k(    2) = (   0.0000000   0.0000000   0.1072963), wk =   0.0080000
        k(    3) = (   0.0000000   0.0000000   0.2145925), wk =   0.0080000
        k(    4) = (   0.0000000   0.1154701   0.0000000), wk =   0.0240000
        k(    5) = (   0.0000000   0.1154701   0.1072963), wk =   0.0480000
        k(    6) = (   0.0000000   0.1154701   0.2145925), wk =   0.0480000
        k(    7) = (   0.0000000   0.2309401   0.0000000), wk =   0.0240000
        k(    8) = (   0.0000000   0.2309401   0.1072963), wk =   0.0480000
        k(    9) = (   0.0000000   0.2309401   0.2145925), wk =   0.0480000
        k(   10) = (   0.0000000   0.3464102   0.0000000), wk =   0.0240000
        k(   11) = (   0.0000000   0.3464102   0.1072963), wk =   0.0480000
        k(   12) = (   0.0000000   0.3464102   0.2145925), wk =   0.0480000
        k(   13) = (   0.0000000   0.4618802   0.0000000), wk =   0.0240000
        k(   14) = (   0.0000000   0.4618802   0.1072963), wk =   0.0480000
        k(   15) = (   0.0000000   0.4618802   0.2145925), wk =   0.0480000
        k(   16) = (   0.0000000  -0.5773503   0.0000000), wk =   0.0120000
        k(   17) = (   0.0000000  -0.5773503   0.1072963), wk =   0.0240000
        k(   18) = (   0.0000000  -0.5773503   0.2145925), wk =   0.0240000
        k(   19) = (   0.1000000   0.1732051   0.0000000), wk =   0.0240000
        k(   20) = (   0.1000000   0.1732051   0.1072963), wk =   0.0480000
        k(   21) = (   0.1000000   0.1732051   0.2145925), wk =   0.0480000
        k(   22) = (   0.1000000   0.2886751   0.0000000), wk =   0.0480000
        k(   23) = (   0.1000000   0.2886751   0.1072963), wk =   0.0960000
        k(   24) = (   0.1000000   0.2886751   0.2145925), wk =   0.0960000
        k(   25) = (   0.1000000   0.4041452   0.0000000), wk =   0.0480000
        k(   26) = (   0.1000000   0.4041452   0.1072963), wk =   0.0960000
        k(   27) = (   0.1000000   0.4041452   0.2145925), wk =   0.0960000
        k(   28) = (   0.1000000   0.5196152   0.0000000), wk =   0.0480000
        k(   29) = (   0.1000000   0.5196152   0.1072963), wk =   0.0960000
        k(   30) = (   0.1000000   0.5196152   0.2145925), wk =   0.0960000
        k(   31) = (   0.2000000   0.3464102   0.0000000), wk =   0.0240000
        k(   32) = (   0.2000000   0.3464102   0.1072963), wk =   0.0480000
        k(   33) = (   0.2000000   0.3464102   0.2145925), wk =   0.0480000
        k(   34) = (   0.2000000   0.4618802   0.0000000), wk =   0.0480000
        k(   35) = (   0.2000000   0.4618802   0.1072963), wk =   0.0960000
        k(   36) = (   0.2000000   0.4618802   0.2145925), wk =   0.0960000
        k(   37) = (   0.2000000   0.5773503   0.0000000), wk =   0.0240000
        k(   38) = (   0.2000000   0.5773503   0.1072963), wk =   0.0480000
        k(   39) = (   0.2000000   0.5773503   0.2145925), wk =   0.0480000
        k(   40) = (   0.3000000   0.5196152   0.0000000), wk =   0.0240000
        k(   41) = (   0.3000000   0.5196152   0.1072963), wk =   0.0480000
        k(   42) = (   0.3000000   0.5196152   0.2145925), wk =   0.0480000

                       cryst. coord.
        k(    1) = (   0.0000000   0.0000000   0.0000000), wk =   0.0040000
        k(    2) = (   0.0000000   0.0000000   0.2000000), wk =   0.0080000
        k(    3) = (   0.0000000   0.0000000   0.4000000), wk =   0.0080000
        k(    4) = (   0.0000000   0.1000000   0.0000000), wk =   0.0240000
        k(    5) = (   0.0000000   0.1000000   0.2000000), wk =   0.0480000
        k(    6) = (   0.0000000   0.1000000   0.4000000), wk =   0.0480000
        k(    7) = (   0.0000000   0.2000000   0.0000000), wk =   0.0240000
        k(    8) = (   0.0000000   0.2000000   0.2000000), wk =   0.0480000
        k(    9) = (   0.0000000   0.2000000   0.4000000), wk =   0.0480000
        k(   10) = (   0.0000000   0.3000000   0.0000000), wk =   0.0240000
        k(   11) = (   0.0000000   0.3000000   0.2000000), wk =   0.0480000
        k(   12) = (   0.0000000   0.3000000   0.4000000), wk =   0.0480000
        k(   13) = (   0.0000000   0.4000000   0.0000000), wk =   0.0240000
        k(   14) = (   0.0000000   0.4000000   0.2000000), wk =   0.0480000
        k(   15) = (   0.0000000   0.4000000   0.4000000), wk =   0.0480000
        k(   16) = (   0.0000000  -0.5000000   0.0000000), wk =   0.0120000
        k(   17) = (   0.0000000  -0.5000000   0.2000000), wk =   0.0240000
        k(   18) = (   0.0000000  -0.5000000   0.4000000), wk =   0.0240000
        k(   19) = (   0.1000000   0.1000000   0.0000000), wk =   0.0240000
        k(   20) = (   0.1000000   0.1000000   0.2000000), wk =   0.0480000
        k(   21) = (   0.1000000   0.1000000   0.4000000), wk =   0.0480000
        k(   22) = (   0.1000000   0.2000000   0.0000000), wk =   0.0480000
        k(   23) = (   0.1000000   0.2000000   0.2000000), wk =   0.0960000
        k(   24) = (   0.1000000   0.2000000   0.4000000), wk =   0.0960000
        k(   25) = (   0.1000000   0.3000000   0.0000000), wk =   0.0480000
        k(   26) = (   0.1000000   0.3000000   0.2000000), wk =   0.0960000
        k(   27) = (   0.1000000   0.3000000   0.4000000), wk =   0.0960000
        k(   28) = (   0.1000000   0.4000000   0.0000000), wk =   0.0480000
        k(   29) = (   0.1000000   0.4000000   0.2000000), wk =   0.0960000
        k(   30) = (   0.1000000   0.4000000   0.4000000), wk =   0.0960000
        k(   31) = (   0.2000000   0.2000000   0.0000000), wk =   0.0240000
        k(   32) = (   0.2000000   0.2000000   0.2000000), wk =   0.0480000
        k(   33) = (   0.2000000   0.2000000   0.4000000), wk =   0.0480000
        k(   34) = (   0.2000000   0.3000000   0.0000000), wk =   0.0480000
        k(   35) = (   0.2000000   0.3000000   0.2000000), wk =   0.0960000
        k(   36) = (   0.2000000   0.3000000   0.4000000), wk =   0.0960000
        k(   37) = (   0.2000000   0.4000000   0.0000000), wk =   0.0240000
        k(   38) = (   0.2000000   0.4000000   0.2000000), wk =   0.0480000
        k(   39) = (   0.2000000   0.4000000   0.4000000), wk =   0.0480000
        k(   40) = (   0.3000000   0.3000000   0.0000000), wk =   0.0240000
        k(   41) = (   0.3000000   0.3000000   0.2000000), wk =   0.0480000
        k(   42) = (   0.3000000   0.3000000   0.4000000), wk =   0.0480000

     Dense  grid:    15415 G-vectors     FFT dimensions: (  27,  27,  50)

     Dynamical RAM for                 wfc:       0.05 MB

     Dynamical RAM for     wfc (w. buffer):       2.02 MB

     Dynamical RAM for           str. fact:       0.02 MB

     Dynamical RAM for           local pot:       0.00 MB

     Dynamical RAM for          nlocal pot:       0.11 MB

     Dynamical RAM for                qrad:       1.34 MB

     Dynamical RAM for          rho,v,vnew:       0.15 MB

     Dynamical RAM for               rhoin:       0.05 MB

     Dynamical RAM for            rho*nmix:       0.38 MB

     Dynamical RAM for           G-vectors:       0.10 MB

     Dynamical RAM for          h,s,v(r/c):       0.05 MB

     Dynamical RAM for          <psi|beta>:       0.01 MB

     Dynamical RAM for                 psi:       0.09 MB

     Dynamical RAM for                hpsi:       0.09 MB

     Dynamical RAM for                spsi:       0.09 MB

     Dynamical RAM for      wfcinit/wfcrot:       0.10 MB

     Dynamical RAM for           addusdens:       4.43 MB

     Estimated static dynamical RAM per process >       3.98 MB

     Estimated max dynamical RAM per process >       8.78 MB

     Estimated total dynamical RAM >      87.83 MB

     Check: negative core charge=   -0.000003
     Cannot read rho : file not found

     Initial potential from superposition of free atoms

     starting charge      23.9926, renormalised to      24.0000
     Message from routine qexsd_readschema :
     xml data file ./out/Zn.save/data-file-schema.xml not found
     Cannot read wfcs: file not found
     Starting wfcs are   18 randomized atomic wfcs
     Checking if some PAW data can be deallocated... 

     total cpu time spent up to now is        0.7 secs

     Self-consistent Calculation

     iteration #  1     ecut=    70.00 Ry     beta= 0.70
     Davidson diagonalization with overlap

---- Real-time Memory Report at c_bands before calling an iterative solver
            46 MiB given to the printing process from OS
             0 MiB allocation reported by mallinfo(arena+hblkhd)
           466 MiB available memory on the node where the printing process lives
------------------
     c_bands:  1 eigenvalues not converged
     ethr =  1.00E-05,  avg # of iterations = 10.7

     total cpu time spent up to now is        2.8 secs

     total energy              =    -487.44691881 Ry
     estimated scf accuracy    <       0.00422538 Ry

     iteration #  2     ecut=    70.00 Ry     beta= 0.70
     Davidson diagonalization with overlap

---- Real-time Memory Report at c_bands before calling an iterative solver
            50 MiB given to the printing process from OS
             0 MiB allocation reported by mallinfo(arena+hblkhd)
           435 MiB available memory on the node where the printing process lives
------------------
     ethr =  1.76E-05,  avg # of iterations =  2.0

     total cpu time spent up to now is        3.5 secs

     total energy              =    -487.44700452 Ry
     estimated scf accuracy    <       0.00110749 Ry

     iteration #  3     ecut=    70.00 Ry     beta= 0.70
     Davidson diagonalization with overlap

---- Real-time Memory Report at c_bands before calling an iterative solver
            50 MiB given to the printing process from OS
             0 MiB allocation reported by mallinfo(arena+hblkhd)
           431 MiB available memory on the node where the printing process lives
------------------
     ethr =  4.61E-06,  avg # of iterations =  2.0

     total cpu time spent up to now is        4.5 secs

     total energy              =    -487.44729084 Ry
     estimated scf accuracy    <       0.00049303 Ry

     iteration #  4     ecut=    70.00 Ry     beta= 0.70
     Davidson diagonalization with overlap

---- Real-time Memory Report at c_bands before calling an iterative solver
            50 MiB given to the printing process from OS
             0 MiB allocation reported by mallinfo(arena+hblkhd)
           397 MiB available memory on the node where the printing process lives
------------------
     ethr =  2.05E-06,  avg # of iterations =  2.0

     total cpu time spent up to now is        5.4 secs

     total energy              =    -487.44737992 Ry
     estimated scf accuracy    <       0.00000166 Ry

     iteration #  5     ecut=    70.00 Ry     beta= 0.70
     Davidson diagonalization with overlap

---- Real-time Memory Report at c_bands before calling an iterative solver
            50 MiB given to the printing process from OS
             0 MiB allocation reported by mallinfo(arena+hblkhd)
           408 MiB available memory on the node where the printing process lives
------------------
     ethr =  6.90E-09,  avg # of iterations =  5.0

     total cpu time spent up to now is        6.5 secs

     total energy              =    -487.44738231 Ry
     estimated scf accuracy    <       0.00000151 Ry

     iteration #  6     ecut=    70.00 Ry     beta= 0.70
     Davidson diagonalization with overlap

---- Real-time Memory Report at c_bands before calling an iterative solver
            50 MiB given to the printing process from OS
             0 MiB allocation reported by mallinfo(arena+hblkhd)
           398 MiB available memory on the node where the printing process lives
------------------
     ethr =  6.28E-09,  avg # of iterations =  2.0

     total cpu time spent up to now is        7.4 secs

     total energy              =    -487.44738279 Ry
     estimated scf accuracy    <       0.00000030 Ry

     iteration #  7     ecut=    70.00 Ry     beta= 0.70
     Davidson diagonalization with overlap

---- Real-time Memory Report at c_bands before calling an iterative solver
            50 MiB given to the printing process from OS
             0 MiB allocation reported by mallinfo(arena+hblkhd)
           399 MiB available memory on the node where the printing process lives
------------------
     ethr =  1.25E-09,  avg # of iterations =  2.0

     total cpu time spent up to now is        8.2 secs

     End of self-consistent calculation

          k = 0.0000 0.0000 0.0000 (  1933 PWs)   bands (ev):

     1.0686   3.0944   3.8974   4.1632   4.1632   4.2184   4.2184   4.5869
     4.5869   4.8136   4.8136   7.9795   8.8880  25.8237  30.0639  30.0646

     occupation numbers 
     1.0000   1.0000   1.0000   1.0000   1.0000   1.0000   1.0000   1.0000
     1.0000   1.0000   1.0000   1.0000   1.0000   0.0000   0.0000   0.0000

          k = 0.0000 0.0000 0.1073 (  1951 PWs)   bands (ev):

     1.3168   3.0497   3.9031   4.1607   4.1607   4.2070   4.2070   4.6164
     4.6164   4.7982   4.7982   6.0592  11.3705  22.6551  30.3154  30.3154

     occupation numbers 
     1.0000   1.0000   1.0000   1.0000   1.0000   1.0000   1.0000   1.0000
     1.0000   1.0000   1.0000   1.0000   1.0000   0.0000   0.0000   0.0000

          k = 0.0000 0.0000 0.2146 (  1956 PWs)   bands (ev):

     2.0009   2.7600   3.9867   4.1640   4.1640   4.1826   4.1826   4.5230
     4.6837   4.6837   4.7523   4.7523  14.7333  18.5356  31.0039  31.0039

     occupation numbers 
     1.0000   1.0000   1.0000   1.0000   1.0000   1.0000   1.0000   1.0000
     1.0000   1.0000   1.0000   1.0000   0.0000   0.0000   0.0000   0.0000

          k = 0.0000 0.1155 0.0000 (  1939 PWs)   bands (ev):

     1.3756   3.2331   3.9286   4.1328   4.1867   4.2393   4.2908   4.5049
     4.5573   4.6395   4.8167   8.4842   9.0422  25.9964  26.1621  27.9744

     occupation numbers 
     1.0000   1.0000   1.0000   1.0000   1.0000   1.0000   1.0000   1.0000
     1.0000   1.0000   1.0000   1.0000   1.0000   0.0000   0.0000   0.0000

          k = 0.0000 0.1155 0.1073 (  1942 PWs)   bands (ev):

     1.6200   3.2062   3.9300   4.1220   4.1682   4.2350   4.2789   4.5261
     4.5917   4.6157   4.7984   6.4500  11.6591  22.9350  26.2778  28.2469

     occupation numbers 
     1.0000   1.0000   1.0000   1.0000   1.0000   1.0000   1.0000   1.0000
     1.0000   1.0000   1.0000   1.0000   0.8354   0.0000   0.0000   0.0000

          k = 0.0000 0.1155 0.2146 (  1952 PWs)   bands (ev):

     2.2868   2.9837   3.9744   4.1166   4.1296   4.2361   4.2540   4.3055
     4.6680   4.7097   4.7455   5.0694  15.0224  18.8197  27.0255  28.2489

     occupation numbers 
     1.0000   1.0000   1.0000   1.0000   1.0000   1.0000   1.0000   1.0000
     1.0000   1.0000   1.0000   1.0000   0.0000   0.0000   0.0000   0.0000

          k = 0.0000 0.2309 0.0000 (  1941 PWs)   bands (ev):

     2.2442   3.5065   3.9712   4.0738   4.1772   4.2571   4.4444   4.4574
     4.4849   4.4871   4.8176   9.5748   9.7546  21.2119  25.6933  26.7447

     occupation numbers 
     1.0000   1.0000   1.0000   1.0000   1.0000   1.0000   1.0000   1.0000
     1.0000   1.0000   1.0000   1.0000   1.0000   0.0000   0.0000   0.0000

          k = 0.0000 0.2309 0.1073 (  1934 PWs)   bands (ev):

     2.4617   3.5152   3.9711   4.0350   4.1277   4.2592   4.4222   4.4675
     4.5391   4.5486   4.7944   7.3384  12.5323  21.4409  23.7904  25.2292

     occupation numbers 
     1.0000   1.0000   1.0000   1.0000   1.0000   1.0000   1.0000   1.0000
     1.0000   1.0000   1.0000   1.0000   0.0000   0.0000   0.0000   0.0000

          k = 0.0000 0.2309 0.2146 (  1934 PWs)   bands (ev):

     3.0103   3.4493   3.9307   3.9522   4.1218   4.2000   4.4191   4.4406
     4.6406   4.7302   4.8402   5.6801  15.8746  19.6177  22.3081  23.5340

     occupation numbers 
     1.0000   1.0000   1.0000   1.0000   1.0000   1.0000   1.0000   1.0000
     1.0000   1.0000   1.0000   1.0000   0.0000   0.0000   0.0000   0.0000

          k = 0.0000 0.3464 0.0000 (  1923 PWs)   bands (ev):

     3.2084   3.5292   3.8582   4.0987   4.2597   4.3028   4.4084   4.7095
     4.7350   4.7989   4.8110  10.6459  11.5337  16.8612  22.6794  23.5126

     occupation numbers 
     1.0000   1.0000   1.0000   1.0000   1.0000   1.0000   1.0000   1.0000
     1.0000   1.0000   1.0000   1.0000   0.9970   0.0000   0.0000   0.0000

          k = 0.0000 0.3464 0.1073 (  1924 PWs)   bands (ev):

     3.2680   3.5416   3.8545   3.9798   4.2367   4.4389   4.5546   4.7004
     4.7229   4.7988   4.8844   8.6884  13.9658  17.1100  20.9537  24.2316

     occupation numbers 
     1.0000   1.0000   1.0000   1.0000   1.0000   1.0000   1.0000   1.0000
     1.0000   1.0000   1.0000   1.0000   0.0000   0.0000   0.0000   0.0000

          k = 0.0000 0.3464 0.2146 (  1925 PWs)   bands (ev):

     3.4037   3.5264   3.8176   3.8389   4.4047   4.5196   4.5512   4.6210
     4.7433   4.7723   5.5646   6.8579  17.1294  17.8168  19.3599  21.0969

     occupation numbers 
     1.0000   1.0000   1.0000   1.0000   1.0000   1.0000   1.0000   1.0000
     1.0000   1.0000   1.0000   1.0000   0.0000   0.0000   0.0000   0.0000

          k = 0.0000 0.4619 0.0000 (  1904 PWs)   bands (ev):

     3.3653   3.4466   3.6630   4.1823   4.2601   4.3486   4.5635   4.8021
     4.9310   4.9499   6.6057  11.9033  13.5319  13.7011  18.8633  19.9931

     occupation numbers 
     1.0000   1.0000   1.0000   1.0000   1.0000   1.0000   1.0000   1.0000
     1.0000   1.0000   1.0000   0.0066   0.0000   0.0000   0.0000   0.0000

          k = 0.0000 0.4619 0.1073 (  1920 PWs)   bands (ev):

     3.3588   3.4193   3.7091   3.9654   4.3835   4.3885   4.7171   4.7527
     4.9342   4.9518   6.8043  10.4928  13.3926  15.6273  17.5515  21.9118

     occupation numbers 
     1.0000   1.0000   1.0000   1.0000   1.0000   1.0000   1.0000   1.0000
     1.0000   1.0000   1.0000   1.0000   0.0000   0.0000   0.0000   0.0000

          k = 0.0000 0.4619 0.2146 (  1923 PWs)   bands (ev):

     3.3653   3.4131   3.7196   3.7602   4.4954   4.6159   4.6334   4.7769
     4.9418   4.9494   7.4997   8.7604  14.0679  15.1915  19.4321  22.4571

     occupation numbers 
     1.0000   1.0000   1.0000   1.0000   1.0000   1.0000   1.0000   1.0000
     1.0000   1.0000   1.0000   1.0000   0.0000   0.0000   0.0000   0.0000

          k = 0.0000-0.5774 0.0000 (  1902 PWs)   bands (ev):

     3.3329   3.4184   3.5991   4.1366   4.3236   4.3265   4.6600   4.7981
     5.0158   5.0370   8.9193   9.7480  14.6379  15.5036  16.3008  17.7339

     occupation numbers 
     1.0000   1.0000   1.0000   1.0000   1.0000   1.0000   1.0000   1.0000
     1.0000   1.0000   1.0000   1.0000   0.0000   0.0000   0.0000   0.0000

          k = 0.0000-0.5774 0.1073 (  1910 PWs)   bands (ev):

     3.3493   3.3517   3.6596   3.9483   4.3688   4.4284   4.7498   4.7918
     5.0184   5.0352   9.1184   9.8357  13.5600  13.7597  18.5954  19.2635

     occupation numbers 
     1.0000   1.0000   1.0000   1.0000   1.0000   1.0000   1.0000   1.0000
     1.0000   1.0000   1.0000   1.0000   0.0000   0.0000   0.0000   0.0000

          k = 0.0000-0.5774 0.2146 (  1926 PWs)   bands (ev):

     3.3295   3.3623   3.6808   3.7321   4.4820   4.6272   4.6727   4.8438
     5.0243   5.0305   9.6397   9.9706  12.3396  12.4235  21.4566  21.7664

     occupation numbers 
     1.0000   1.0000   1.0000   1.0000   1.0000   1.0000   1.0000   1.0000
     1.0000   1.0000   1.0000   1.0000   0.0000   0.0000   0.0000   0.0000

          k = 0.1000 0.1732 0.0000 (  1933 PWs)   bands (ev):

     1.9691   3.4582   3.9433   4.1205   4.1216   4.2964   4.3966   4.4250
     4.4562   4.5725   4.8070   9.3584   9.3879  23.6597  23.7971  26.7534

     occupation numbers 
     1.0000   1.0000   1.0000   1.0000   1.0000   1.0000   1.0000   1.0000
     1.0000   1.0000   1.0000   1.0000   1.0000   0.0000   0.0000   0.0000

          k = 0.1000 0.1732 0.1073 (  1929 PWs)   bands (ev):

     2.2003   3.4599   3.9551   4.0699   4.0825   4.2786   4.3817   4.4404
     4.5188   4.5959   4.7891   7.0633  12.2419  23.3491  23.9217  24.2365

     occupation numbers 
     1.0000   1.0000   1.0000   1.0000   1.0000   1.0000   1.0000   1.0000
     1.0000   1.0000   1.0000   1.0000   0.0000   0.0000   0.0000   0.0000

          k = 0.1000 0.1732 0.2146 (  1940 PWs)   bands (ev):

     2.8091   3.3547   3.9532   3.9897   4.0500   4.1589   4.3859   4.4125
     4.6571   4.7131   4.8007   5.4849  15.5949  19.3708  24.6968  24.8664

     occupation numbers 
     1.0000   1.0000   1.0000   1.0000   1.0000   1.0000   1.0000   1.0000
     1.0000   1.0000   1.0000   1.0000   0.0000   0.0000   0.0000   0.0000

          k = 0.1000 0.2887 0.0000 (  1931 PWs)   bands (ev):

     2.9882   3.6507   3.9679   3.9835   4.0613   4.2839   4.3012   4.4841
     4.6527   4.7893   4.8288  10.2117  10.8583  19.1617  21.9248  24.9700

     occupation numbers 
     1.0000   1.0000   1.0000   1.0000   1.0000   1.0000   1.0000   1.0000
     1.0000   1.0000   1.0000   1.0000   1.0000   0.0000   0.0000   0.0000

          k = 0.1000 0.2887 0.1073 (  1924 PWs)   bands (ev):

     3.1364   3.6763   3.9141   4.0065   4.0207   4.2277   4.4675   4.4943
     4.6806   4.7231   4.8904   8.1653  13.4092  19.4098  22.1686  23.2254

     occupation numbers 
     1.0000   1.0000   1.0000   1.0000   1.0000   1.0000   1.0000   1.0000
     1.0000   1.0000   1.0000   1.0000   0.0000   0.0000   0.0000   0.0000

          k = 0.1000 0.2887 0.2146 (  1931 PWs)   bands (ev):

     3.4501   3.6760   3.8450   3.9204   4.0876   4.1674   4.5005   4.5955
     4.7178   4.7462   5.2541   6.3862  16.7024  19.8845  20.7870  21.5278

     occupation numbers 
     1.0000   1.0000   1.0000   1.0000   1.0000   1.0000   1.0000   1.0000
     1.0000   1.0000   1.0000   1.0000   0.0000   0.0000   0.0000   0.0000

          k = 0.1000 0.4041 0.0000 (  1927 PWs)   bands (ev):

     3.4906   3.5714   3.7543   4.1959   4.2032   4.3149   4.3747   4.6352
     4.7725   4.8731   5.9048  11.6242  12.8256  15.1188  20.6391  20.9171

     occupation numbers 
     1.0000   1.0000   1.0000   1.0000   1.0000   1.0000   1.0000   1.0000
     1.0000   1.0000   1.0000   0.9293   0.0000   0.0000   0.0000   0.0000

          k = 0.1000 0.4041 0.1073 (  1923 PWs)   bands (ev):

     3.4760   3.5698   3.8025   3.9599   4.2564   4.4092   4.5726   4.6248
     4.7195   4.8877   6.0751   9.8154  14.9935  15.4337  19.2417  20.9184

     occupation numbers 
     1.0000   1.0000   1.0000   1.0000   1.0000   1.0000   1.0000   1.0000
     1.0000   1.0000   1.0000   1.0000   0.0000   0.0000   0.0000   0.0000

          k = 0.1000 0.4041 0.2146 (  1921 PWs)   bands (ev):

     3.4970   3.5671   3.7888   3.8168   4.3882   4.4888   4.5530   4.5962
     4.8126   4.8938   6.7353   8.0069  16.0626  17.0541  18.7843  21.5427

     occupation numbers 
     1.0000   1.0000   1.0000   1.0000   1.0000   1.0000   1.0000   1.0000
     1.0000   1.0000   1.0000   1.0000   0.0000   0.0000   0.0000   0.0000

          k = 0.1000 0.5196 0.0000 (  1914 PWs)   bands (ev):

     3.4319   3.5267   3.6410   4.1510   4.2996   4.3128   4.5522   4.7615
     4.8906   4.9619   8.1522  11.1590  14.1521  15.0808  17.4345  18.7070

     occupation numbers 
     1.0000   1.0000   1.0000   1.0000   1.0000   1.0000   1.0000   1.0000
     1.0000   1.0000   1.0000   1.0000   0.0000   0.0000   0.0000   0.0000

          k = 0.1000 0.5196 0.1073 (  1921 PWs)   bands (ev):

     3.4392   3.4602   3.7237   3.9607   4.2823   4.4566   4.7036   4.7082
     4.8790   4.9607   8.3598  11.0414  12.8441  15.2359  17.8833  20.2577

     occupation numbers 
     1.0000   1.0000   1.0000   1.0000   1.0000   1.0000   1.0000   1.0000
     1.0000   1.0000   1.0000   1.0000   0.0000   0.0000   0.0000   0.0000

          k = 0.1000 0.5196 0.2146 (  1910 PWs)   bands (ev):

     3.4277   3.4708   3.7395   3.7631   4.3963   4.5661   4.6650   4.8059
     4.8726   4.9377   9.0132  10.0894  12.7794  13.7967  20.6746  21.0479

     occupation numbers 
     1.0000   1.0000   1.0000   1.0000   1.0000   1.0000   1.0000   1.0000
     1.0000   1.0000   1.0000   1.0000   0.0000   0.0000   0.0000   0.0000

          k = 0.2000 0.3464 0.0000 (  1919 PWs)   bands (ev):

     3.7343   3.8200   3.8256   3.8796   4.1311   4.1774   4.3479   4.4124
     4.7347   4.8639   5.7982  11.4503  12.5286  17.5301  17.7664  23.4166

     occupation numbers 
     1.0000   1.0000   1.0000   1.0000   1.0000   1.0000   1.0000   1.0000
     1.0000   1.0000   1.0000   1.0000   0.0000   0.0000   0.0000   0.0000

          k = 0.2000 0.3464 0.1073 (  1928 PWs)   bands (ev):

     3.7343   3.7536   3.8337   3.9178   4.1112   4.1958   4.4024   4.5185
     4.6806   4.8841   5.9492   9.5892  14.8552  17.7932  18.0151  21.5914

     occupation numbers 
     1.0000   1.0000   1.0000   1.0000   1.0000   1.0000   1.0000   1.0000
     1.0000   1.0000   1.0000   1.0000   0.0000   0.0000   0.0000   0.0000

          k = 0.2000 0.3464 0.2146 (  1926 PWs)   bands (ev):

     3.7047   3.7127   3.8925   3.9746   4.0828   4.1467   4.4384   4.5537
     4.7915   4.8934   6.5551   7.7894  17.9437  18.5733  18.6961  19.8520

     occupation numbers 
     1.0000   1.0000   1.0000   1.0000   1.0000   1.0000   1.0000   1.0000
     1.0000   1.0000   1.0000   1.0000   0.0000   0.0000   0.0000   0.0000

          k = 0.2000 0.4619 0.0000 (  1924 PWs)   bands (ev):

     3.6919   3.7259   3.7871   4.1315   4.2322   4.2881   4.2918   4.5636
     4.6922   4.9202   7.6987  13.0205  14.1859  14.6537  16.7023  19.6889

     occupation numbers 
     1.0000   1.0000   1.0000   1.0000   1.0000   1.0000   1.0000   1.0000
     1.0000   1.0000   1.0000   0.0000   0.0000   0.0000   0.0000   0.0000

          k = 0.2000 0.4619 0.1073 (  1926 PWs)   bands (ev):

     3.6554   3.7210   3.8809   3.9518   4.1740   4.3612   4.4463   4.6040
     4.6351   4.9303   7.9158  11.5587  14.1556  16.5931  16.9543  18.2583

     occupation numbers 
     1.0000   1.0000   1.0000   1.0000   1.0000   1.0000   1.0000   1.0000
     1.0000   1.0000   1.0000   0.9917   0.0000   0.0000   0.0000   0.0000

          k = 0.2000 0.4619 0.2146 (  1918 PWs)   bands (ev):

     3.6459   3.7252   3.8287   3.9174   4.2234   4.3731   4.4655   4.5254
     4.7974   4.9144   8.6115   9.8408  14.8732  16.0531  17.7376  18.8604

     occupation numbers 
     1.0000   1.0000   1.0000   1.0000   1.0000   1.0000   1.0000   1.0000
     1.0000   1.0000   1.0000   1.0000   0.0000   0.0000   0.0000   0.0000

          k = 0.2000 0.5774 0.0000 (  1924 PWs)   bands (ev):

     3.6450   3.6972   3.7631   4.1571   4.2003   4.3375   4.3522   4.6767
     4.7677   4.8366  10.1586  10.5779  15.6454  16.2806  16.5447  17.0674

     occupation numbers 
     1.0000   1.0000   1.0000   1.0000   1.0000   1.0000   1.0000   1.0000
     1.0000   1.0000   1.0000   1.0000   0.0000   0.0000   0.0000   0.0000

          k = 0.2000 0.5774 0.1073 (  1917 PWs)   bands (ev):

     3.6230   3.6717   3.8805   3.9834   4.1277   4.4616   4.4719   4.6190
     4.7692   4.8456  10.3931  10.7399  14.4661  14.5510  16.6503  19.4620

     occupation numbers 
     1.0000   1.0000   1.0000   1.0000   1.0000   1.0000   1.0000   1.0000
     1.0000   1.0000   1.0000   1.0000   0.0000   0.0000   0.0000   0.0000

          k = 0.2000 0.5774 0.2146 (  1915 PWs)   bands (ev):

     3.6221   3.7010   3.8255   3.8859   4.2077   4.4065   4.5965   4.6094
     4.7918   4.8402  10.9898  11.1426  13.0594  13.0738  17.4254  18.6560

     occupation numbers 
     1.0000   1.0000   1.0000   1.0000   1.0000   1.0000   1.0000   1.0000
     1.0000   1.0000   1.0000   1.0000   0.0000   0.0000   0.0000   0.0000

          k = 0.3000 0.5196 0.0000 (  1932 PWs)   bands (ev):

     3.7507   3.8738   3.9266   4.1201   4.1287   4.1837   4.3399   4.6240
     4.6289   4.8023  10.1133  12.9701  13.2077  15.8863  16.8967  18.8491

     occupation numbers 
     1.0000   1.0000   1.0000   1.0000   1.0000   1.0000   1.0000   1.0000
     1.0000   1.0000   1.0000   0.0000   0.0000   0.0000   0.0000   0.0000

          k = 0.3000 0.5196 0.1073 (  1922 PWs)   bands (ev):

     3.7639   3.8808   3.9592   3.9804   4.1352   4.2411   4.3639   4.5685
     4.6740   4.8221  10.3469  13.0152  13.4702  14.4378  17.0023  17.1850

     occupation numbers 
     1.0000   1.0000   1.0000   1.0000   1.0000   1.0000   1.0000   1.0000
     1.0000   1.0000   1.0000   0.0000   0.0000   0.0000   0.0000   0.0000

          k = 0.3000 0.5196 0.2146 (  1917 PWs)   bands (ev):

     3.7898   3.8379   3.9576   4.0037   4.1204   4.2315   4.3974   4.4556
     4.7780   4.8350  11.0478  12.1724  14.2187  14.2796  15.5089  15.5541

     occupation numbers 
     1.0000   1.0000   1.0000   1.0000   1.0000   1.0000   1.0000   1.0000
     1.0000   1.0000   1.0000   0.0000   0.0000   0.0000   0.0000   0.0000

     the Fermi energy is    11.7282 ev

!    total energy              =    -487.44738286 Ry
     total all-electron energy =     -7184.241428 Ry
     estimated scf accuracy    <          3.0E-10 Ry
     smearing contrib. (-TS)   =      -0.00011031 Ry
     internal energy E=F+TS    =    -487.44727255 Ry

     The total energy is F=E-TS. E is the sum of the following terms:
     one-electron contribution =    -111.39593824 Ry
     hartree contribution      =      89.55594879 Ry
     xc contribution           =     -94.40402566 Ry
     ewald contribution        =    -180.32404734 Ry
     one-center paw contrib.   =    -190.87921009 Ry
      -> PAW hartree energy AE =     122.78658463 Ry
      -> PAW hartree energy PS =    -122.16607396 Ry
      -> PAW xc energy AE      =    -143.12992359 Ry
      -> PAW xc energy PS      =      47.06980788 Ry
      -> total E_H with PAW    =      90.17645946 Ry
      -> total E_XC with PAW   =    -190.46414137 Ry

     convergence has been achieved in   7 iterations

     Writing all to output data dir ./out/Zn.save/

     init_run     :      0.45s CPU      0.50s WALL (       1 calls)
     electrons    :      7.17s CPU      7.58s WALL (       1 calls)

     Called by init_run:
     wfcinit      :      0.22s CPU      0.22s WALL (       1 calls)
     wfcinit:atom :      0.00s CPU      0.00s WALL (      42 calls)
     wfcinit:wfcr :      0.20s CPU      0.20s WALL (      42 calls)
     potinit      :      0.10s CPU      0.12s WALL (       1 calls)
     hinit0       :      0.12s CPU      0.12s WALL (       1 calls)

     Called by electrons:
     c_bands      :      5.70s CPU      5.87s WALL (       7 calls)
     sum_band     :      0.65s CPU      0.67s WALL (       7 calls)
     v_of_rho     :      0.02s CPU      0.02s WALL (       8 calls)
     v_h          :      0.00s CPU      0.00s WALL (       8 calls)
     v_xc         :      0.02s CPU      0.02s WALL (       8 calls)
     newd         :      0.10s CPU      0.12s WALL (       8 calls)
     PAW_pot      :      0.78s CPU      1.01s WALL (       8 calls)
     mix_rho      :      0.01s CPU      0.01s WALL (       7 calls)

     Called by c_bands:
     init_us_2    :      0.06s CPU      0.06s WALL (     630 calls)
     init_us_2:cp :      0.06s CPU      0.06s WALL (     630 calls)
     cegterg      :      5.55s CPU      5.71s WALL (     294 calls)

     Called by sum_band:
     sum_band:wei :      0.00s CPU      0.00s WALL (       7 calls)
     sum_band:loo :      0.56s CPU      0.57s WALL (       7 calls)
     sum_band:buf :      0.01s CPU      0.01s WALL (     294 calls)
     sum_band:ini :      0.02s CPU      0.02s WALL (     294 calls)
     sum_band:cal :      0.10s CPU      0.10s WALL (     294 calls)
     sum_band:bec :      0.01s CPU      0.01s WALL (     294 calls)
     addusdens    :      0.08s CPU      0.09s WALL (       7 calls)
                                        0.00s GPU  (       7 calls)
     addusd:skk   :      0.00s CPU      0.00s WALL (       7 calls)
                                        0.00s GPU  (       7 calls)

     Called by *egterg:
     cdiaghg      :      0.51s CPU      0.53s WALL (    1372 calls)
     cegterg:over :      0.51s CPU      0.52s WALL (    1078 calls)
     cegterg:upda :      0.16s CPU      0.17s WALL (    1078 calls)
     cegterg:last :      0.41s CPU      0.42s WALL (     786 calls)
     h_psi        :      3.50s CPU      3.60s WALL (    1414 calls)
     s_psi        :      0.29s CPU      0.29s WALL (    1414 calls)
     g_psi        :      0.03s CPU      0.03s WALL (    1078 calls)

     Called by h_psi:
     h_psi:calbec :      0.40s CPU      0.41s WALL (    1414 calls)
     vloc_psi     :      2.78s CPU      2.86s WALL (    1414 calls)
     add_vuspsi   :      0.29s CPU      0.30s WALL (    1414 calls)

     General routines
     calbec       :      0.50s CPU      0.51s WALL (    1708 calls)
     fft          :      0.07s CPU      0.07s WALL (      88 calls)
     ffts         :      0.00s CPU      0.00s WALL (       7 calls)
     fftw         :      2.76s CPU      2.84s WALL (   36258 calls)

     Parallel routines

     PAW routines
     PAW_pot      :      0.78s CPU      1.01s WALL (       8 calls)
     PAW_symme    :      0.00s CPU      0.00s WALL (      15 calls)

     PWSCF        :      7.81s CPU      8.33s WALL


   This run was terminated on:   9:18:26  16Feb2024            

=------------------------------------------------------------------------------=
   JOB DONE.
=------------------------------------------------------------------------------=
