### Running on host: unam-asus

     Program PWSCF v.7.3.1 starts on 15Apr2024 at 18:14:14 

     This program is part of the open-source Quantum ESPRESSO suite
     for quantum simulation of materials; please cite
         "P. Giannozzi et al., J. Phys.:Condens. Matter 21 395502 (2009);
         "P. Giannozzi et al., J. Phys.:Condens. Matter 29 465901 (2017);
         "P. Giannozzi et al., J. Chem. Phys. 152 154105 (2020);
          URL http://www.quantum-espresso.org", 
     in publications or presentations arising from this work. More details at
     http://www.quantum-espresso.org/quote

     Parallel version (MPI), running on    10 processors

     MPI processes distributed on     1 nodes
     1065 MiB available memory on the printing compute node when the environment starts

     Reading input from scf.120.in

     Current dimensions of program PWSCF are:
     Max number of different atomic species (ntypx) = 10
     Max number of k-points (npk) =  40000
     Max angular momentum in pseudopotentials (lmaxx) =  4
     file Fe.pbe-spn-kjpaw_psl.1.0.0.UPF: wavefunction(s)  3P 3D renormalized
     Found identity + ( -0.5000 -0.5000 -0.5000) symmetry
     This is a supercell, fractional translations are disabled
     Message from routine setup:
     using ibrav=0 with symmetry is DISCOURAGED, use correct ibrav instead

     R & G space division:  proc/nbgrp/npool/nimage =      10
     Subspace diagonalization in iterative solution of the eigenvalue problem:
     a serial algorithm will be used


     Parallelization info
     --------------------
     sticks:   dense  smooth     PW     G-vecs:    dense   smooth      PW
     Min         251     110     34                 9461     2810     462
     Max         253     111     35                 9462     2813     464
     Sum        2521    1109    341                94617    28113    4625

     Using Slab Decomposition



     bravais-lattice index     =            0
     lattice parameter (alat)  =       5.4104  a.u.
     unit-cell volume          =     158.3714 (a.u.)^3
     number of atoms/cell      =            2
     number of atomic types    =            1
     number of electrons       =        32.00
     number of Kohn-Sham states=           20
     kinetic-energy cutoff     =     120.0000  Ry
     charge density cutoff     =    1080.0000  Ry
     scf convergence threshold =      4.0E-10
     mixing beta               =       0.4000
     number of iterations used =            8  plain     mixing
     Exchange-correlation= SLA  PW   PBX  PBC
                           (   1   4   3   4   0   0   0)

     celldm(1)=   5.410353  celldm(2)=   0.000000  celldm(3)=   0.000000
     celldm(4)=   0.000000  celldm(5)=   0.000000  celldm(6)=   0.000000

     crystal axes: (cart. coord. in units of alat)
               a(1) = (   1.000000   0.000000   0.000000 )  
               a(2) = (   0.000000   1.000000   0.000000 )  
               a(3) = (   0.000000   0.000000   1.000000 )  

     reciprocal axes: (cart. coord. in units 2 pi/alat)
               b(1) = (  1.000000  0.000000  0.000000 )  
               b(2) = (  0.000000  1.000000  0.000000 )  
               b(3) = (  0.000000  0.000000  1.000000 )  


     PseudoPot. # 1 for Fe read from file:
     /home/abdul/git_repo/ZnS/pseudo/QE/Fe.pbe-spn-kjpaw_psl.1.0.0.UPF
     MD5 check sum: fc81f059e5c5069939230b1155715ae8
     Pseudo is Projector augmented-wave + core cor, Zval = 16.0
     Generated using &quot;atomic&quot; code by A. Dal Corso  v.6.3
     Shape of augmentation charge: PSQ
     Using radial grid of 1191 points,  6 beta functions with: 
                l(1) =   0
                l(2) =   0
                l(3) =   1
                l(4) =   1
                l(5) =   2
                l(6) =   2
     Q(r) pseudized with 0 coefficients 


     atomic species   valence    mass     pseudopotential
     Fe               16.00    55.84500     Fe( 1.00)

     Starting magnetic structure 
     atomic species   magnetization
     Fe              0.312

     48 Sym. Ops., with inversion, found


                                    s                        frac. trans.

      isym =  1     identity                                     

 cryst.   s( 1) = (     1          0          0      )
                  (     0          1          0      )
                  (     0          0          1      )

 cart.    s( 1) = (  1.0000000  0.0000000  0.0000000 )
                  (  0.0000000  1.0000000  0.0000000 )
                  (  0.0000000  0.0000000  1.0000000 )


      isym =  2     180 deg rotation - cart. axis [0,0,1]        

 cryst.   s( 2) = (    -1          0          0      )
                  (     0         -1          0      )
                  (     0          0          1      )

 cart.    s( 2) = ( -1.0000000  0.0000000  0.0000000 )
                  (  0.0000000 -1.0000000  0.0000000 )
                  (  0.0000000  0.0000000  1.0000000 )


      isym =  3     180 deg rotation - cart. axis [0,1,0]        

 cryst.   s( 3) = (    -1          0          0      )
                  (     0          1          0      )
                  (     0          0         -1      )

 cart.    s( 3) = ( -1.0000000  0.0000000  0.0000000 )
                  (  0.0000000  1.0000000  0.0000000 )
                  (  0.0000000  0.0000000 -1.0000000 )


      isym =  4     180 deg rotation - cart. axis [1,0,0]        

 cryst.   s( 4) = (     1          0          0      )
                  (     0         -1          0      )
                  (     0          0         -1      )

 cart.    s( 4) = (  1.0000000  0.0000000  0.0000000 )
                  (  0.0000000 -1.0000000  0.0000000 )
                  (  0.0000000  0.0000000 -1.0000000 )


      isym =  5     180 deg rotation - cart. axis [1,1,0]        

 cryst.   s( 5) = (     0          1          0      )
                  (     1          0          0      )
                  (     0          0         -1      )

 cart.    s( 5) = (  0.0000000  1.0000000  0.0000000 )
                  (  1.0000000  0.0000000  0.0000000 )
                  (  0.0000000  0.0000000 -1.0000000 )


      isym =  6     180 deg rotation - cart. axis [1,-1,0]       

 cryst.   s( 6) = (     0         -1          0      )
                  (    -1          0          0      )
                  (     0          0         -1      )

 cart.    s( 6) = (  0.0000000 -1.0000000  0.0000000 )
                  ( -1.0000000  0.0000000  0.0000000 )
                  (  0.0000000  0.0000000 -1.0000000 )


      isym =  7      90 deg rotation - cart. axis [0,0,-1]       

 cryst.   s( 7) = (     0         -1          0      )
                  (     1          0          0      )
                  (     0          0          1      )

 cart.    s( 7) = (  0.0000000  1.0000000  0.0000000 )
                  ( -1.0000000  0.0000000  0.0000000 )
                  (  0.0000000  0.0000000  1.0000000 )


      isym =  8      90 deg rotation - cart. axis [0,0,1]        

 cryst.   s( 8) = (     0          1          0      )
                  (    -1          0          0      )
                  (     0          0          1      )

 cart.    s( 8) = (  0.0000000 -1.0000000  0.0000000 )
                  (  1.0000000  0.0000000  0.0000000 )
                  (  0.0000000  0.0000000  1.0000000 )


      isym =  9     180 deg rotation - cart. axis [1,0,1]        

 cryst.   s( 9) = (     0          0          1      )
                  (     0         -1          0      )
                  (     1          0          0      )

 cart.    s( 9) = (  0.0000000  0.0000000  1.0000000 )
                  (  0.0000000 -1.0000000  0.0000000 )
                  (  1.0000000  0.0000000  0.0000000 )


      isym = 10     180 deg rotation - cart. axis [-1,0,1]       

 cryst.   s(10) = (     0          0         -1      )
                  (     0         -1          0      )
                  (    -1          0          0      )

 cart.    s(10) = (  0.0000000  0.0000000 -1.0000000 )
                  (  0.0000000 -1.0000000  0.0000000 )
                  ( -1.0000000  0.0000000  0.0000000 )


      isym = 11      90 deg rotation - cart. axis [0,1,0]        

 cryst.   s(11) = (     0          0         -1      )
                  (     0          1          0      )
                  (     1          0          0      )

 cart.    s(11) = (  0.0000000  0.0000000  1.0000000 )
                  (  0.0000000  1.0000000  0.0000000 )
                  ( -1.0000000  0.0000000  0.0000000 )


      isym = 12      90 deg rotation - cart. axis [0,-1,0]       

 cryst.   s(12) = (     0          0          1      )
                  (     0          1          0      )
                  (    -1          0          0      )

 cart.    s(12) = (  0.0000000  0.0000000 -1.0000000 )
                  (  0.0000000  1.0000000  0.0000000 )
                  (  1.0000000  0.0000000  0.0000000 )


      isym = 13     180 deg rotation - cart. axis [0,1,1]        

 cryst.   s(13) = (    -1          0          0      )
                  (     0          0          1      )
                  (     0          1          0      )

 cart.    s(13) = ( -1.0000000  0.0000000  0.0000000 )
                  (  0.0000000  0.0000000  1.0000000 )
                  (  0.0000000  1.0000000  0.0000000 )


      isym = 14     180 deg rotation - cart. axis [0,1,-1]       

 cryst.   s(14) = (    -1          0          0      )
                  (     0          0         -1      )
                  (     0         -1          0      )

 cart.    s(14) = ( -1.0000000  0.0000000  0.0000000 )
                  (  0.0000000  0.0000000 -1.0000000 )
                  (  0.0000000 -1.0000000  0.0000000 )


      isym = 15      90 deg rotation - cart. axis [-1,0,0]       

 cryst.   s(15) = (     1          0          0      )
                  (     0          0         -1      )
                  (     0          1          0      )

 cart.    s(15) = (  1.0000000  0.0000000  0.0000000 )
                  (  0.0000000  0.0000000  1.0000000 )
                  (  0.0000000 -1.0000000  0.0000000 )


      isym = 16      90 deg rotation - cart. axis [1,0,0]        

 cryst.   s(16) = (     1          0          0      )
                  (     0          0          1      )
                  (     0         -1          0      )

 cart.    s(16) = (  1.0000000  0.0000000  0.0000000 )
                  (  0.0000000  0.0000000 -1.0000000 )
                  (  0.0000000  1.0000000  0.0000000 )


      isym = 17     120 deg rotation - cart. axis [-1,-1,-1]     

 cryst.   s(17) = (     0          0          1      )
                  (     1          0          0      )
                  (     0          1          0      )

 cart.    s(17) = (  0.0000000  1.0000000  0.0000000 )
                  (  0.0000000  0.0000000  1.0000000 )
                  (  1.0000000  0.0000000  0.0000000 )


      isym = 18     120 deg rotation - cart. axis [-1,1,1]       

 cryst.   s(18) = (     0          0         -1      )
                  (    -1          0          0      )
                  (     0          1          0      )

 cart.    s(18) = (  0.0000000 -1.0000000  0.0000000 )
                  (  0.0000000  0.0000000  1.0000000 )
                  ( -1.0000000  0.0000000  0.0000000 )


      isym = 19     120 deg rotation - cart. axis [1,1,-1]       

 cryst.   s(19) = (     0          0         -1      )
                  (     1          0          0      )
                  (     0         -1          0      )

 cart.    s(19) = (  0.0000000  1.0000000  0.0000000 )
                  (  0.0000000  0.0000000 -1.0000000 )
                  ( -1.0000000  0.0000000  0.0000000 )


      isym = 20     120 deg rotation - cart. axis [1,-1,1]       

 cryst.   s(20) = (     0          0          1      )
                  (    -1          0          0      )
                  (     0         -1          0      )

 cart.    s(20) = (  0.0000000 -1.0000000  0.0000000 )
                  (  0.0000000  0.0000000 -1.0000000 )
                  (  1.0000000  0.0000000  0.0000000 )


      isym = 21     120 deg rotation - cart. axis [1,1,1]        

 cryst.   s(21) = (     0          1          0      )
                  (     0          0          1      )
                  (     1          0          0      )

 cart.    s(21) = (  0.0000000  0.0000000  1.0000000 )
                  (  1.0000000  0.0000000  0.0000000 )
                  (  0.0000000  1.0000000  0.0000000 )


      isym = 22     120 deg rotation - cart. axis [-1,1,-1]      

 cryst.   s(22) = (     0         -1          0      )
                  (     0          0         -1      )
                  (     1          0          0      )

 cart.    s(22) = (  0.0000000  0.0000000  1.0000000 )
                  ( -1.0000000  0.0000000  0.0000000 )
                  (  0.0000000 -1.0000000  0.0000000 )


      isym = 23     120 deg rotation - cart. axis [1,-1,-1]      

 cryst.   s(23) = (     0         -1          0      )
                  (     0          0          1      )
                  (    -1          0          0      )

 cart.    s(23) = (  0.0000000  0.0000000 -1.0000000 )
                  ( -1.0000000  0.0000000  0.0000000 )
                  (  0.0000000  1.0000000  0.0000000 )


      isym = 24     120 deg rotation - cart. axis [-1,-1,1]      

 cryst.   s(24) = (     0          1          0      )
                  (     0          0         -1      )
                  (    -1          0          0      )

 cart.    s(24) = (  0.0000000  0.0000000 -1.0000000 )
                  (  1.0000000  0.0000000  0.0000000 )
                  (  0.0000000 -1.0000000  0.0000000 )


      isym = 25     inversion                                    

 cryst.   s(25) = (    -1          0          0      )
                  (     0         -1          0      )
                  (     0          0         -1      )

 cart.    s(25) = ( -1.0000000  0.0000000  0.0000000 )
                  (  0.0000000 -1.0000000  0.0000000 )
                  (  0.0000000  0.0000000 -1.0000000 )


      isym = 26     inv. 180 deg rotation - cart. axis [0,0,1]   

 cryst.   s(26) = (     1          0          0      )
                  (     0          1          0      )
                  (     0          0         -1      )

 cart.    s(26) = (  1.0000000  0.0000000  0.0000000 )
                  (  0.0000000  1.0000000  0.0000000 )
                  (  0.0000000  0.0000000 -1.0000000 )


      isym = 27     inv. 180 deg rotation - cart. axis [0,1,0]   

 cryst.   s(27) = (     1          0          0      )
                  (     0         -1          0      )
                  (     0          0          1      )

 cart.    s(27) = (  1.0000000  0.0000000  0.0000000 )
                  (  0.0000000 -1.0000000  0.0000000 )
                  (  0.0000000  0.0000000  1.0000000 )


      isym = 28     inv. 180 deg rotation - cart. axis [1,0,0]   

 cryst.   s(28) = (    -1          0          0      )
                  (     0          1          0      )
                  (     0          0          1      )

 cart.    s(28) = ( -1.0000000  0.0000000  0.0000000 )
                  (  0.0000000  1.0000000  0.0000000 )
                  (  0.0000000  0.0000000  1.0000000 )


      isym = 29     inv. 180 deg rotation - cart. axis [1,1,0]   

 cryst.   s(29) = (     0         -1          0      )
                  (    -1          0          0      )
                  (     0          0          1      )

 cart.    s(29) = (  0.0000000 -1.0000000  0.0000000 )
                  ( -1.0000000  0.0000000  0.0000000 )
                  (  0.0000000  0.0000000  1.0000000 )


      isym = 30     inv. 180 deg rotation - cart. axis [1,-1,0]  

 cryst.   s(30) = (     0          1          0      )
                  (     1          0          0      )
                  (     0          0          1      )

 cart.    s(30) = (  0.0000000  1.0000000  0.0000000 )
                  (  1.0000000  0.0000000  0.0000000 )
                  (  0.0000000  0.0000000  1.0000000 )


      isym = 31     inv.  90 deg rotation - cart. axis [0,0,-1]  

 cryst.   s(31) = (     0          1          0      )
                  (    -1          0          0      )
                  (     0          0         -1      )

 cart.    s(31) = (  0.0000000 -1.0000000  0.0000000 )
                  (  1.0000000  0.0000000  0.0000000 )
                  (  0.0000000  0.0000000 -1.0000000 )


      isym = 32     inv.  90 deg rotation - cart. axis [0,0,1]   

 cryst.   s(32) = (     0         -1          0      )
                  (     1          0          0      )
                  (     0          0         -1      )

 cart.    s(32) = (  0.0000000  1.0000000  0.0000000 )
                  ( -1.0000000  0.0000000  0.0000000 )
                  (  0.0000000  0.0000000 -1.0000000 )


      isym = 33     inv. 180 deg rotation - cart. axis [1,0,1]   

 cryst.   s(33) = (     0          0         -1      )
                  (     0          1          0      )
                  (    -1          0          0      )

 cart.    s(33) = (  0.0000000  0.0000000 -1.0000000 )
                  (  0.0000000  1.0000000  0.0000000 )
                  ( -1.0000000  0.0000000  0.0000000 )


      isym = 34     inv. 180 deg rotation - cart. axis [-1,0,1]  

 cryst.   s(34) = (     0          0          1      )
                  (     0          1          0      )
                  (     1          0          0      )

 cart.    s(34) = (  0.0000000  0.0000000  1.0000000 )
                  (  0.0000000  1.0000000  0.0000000 )
                  (  1.0000000  0.0000000  0.0000000 )


      isym = 35     inv.  90 deg rotation - cart. axis [0,1,0]   

 cryst.   s(35) = (     0          0          1      )
                  (     0         -1          0      )
                  (    -1          0          0      )

 cart.    s(35) = (  0.0000000  0.0000000 -1.0000000 )
                  (  0.0000000 -1.0000000  0.0000000 )
                  (  1.0000000  0.0000000  0.0000000 )


      isym = 36     inv.  90 deg rotation - cart. axis [0,-1,0]  

 cryst.   s(36) = (     0          0         -1      )
                  (     0         -1          0      )
                  (     1          0          0      )

 cart.    s(36) = (  0.0000000  0.0000000  1.0000000 )
                  (  0.0000000 -1.0000000  0.0000000 )
                  ( -1.0000000  0.0000000  0.0000000 )


      isym = 37     inv. 180 deg rotation - cart. axis [0,1,1]   

 cryst.   s(37) = (     1          0          0      )
                  (     0          0         -1      )
                  (     0         -1          0      )

 cart.    s(37) = (  1.0000000  0.0000000  0.0000000 )
                  (  0.0000000  0.0000000 -1.0000000 )
                  (  0.0000000 -1.0000000  0.0000000 )


      isym = 38     inv. 180 deg rotation - cart. axis [0,1,-1]  

 cryst.   s(38) = (     1          0          0      )
                  (     0          0          1      )
                  (     0          1          0      )

 cart.    s(38) = (  1.0000000  0.0000000  0.0000000 )
                  (  0.0000000  0.0000000  1.0000000 )
                  (  0.0000000  1.0000000  0.0000000 )


      isym = 39     inv.  90 deg rotation - cart. axis [-1,0,0]  

 cryst.   s(39) = (    -1          0          0      )
                  (     0          0          1      )
                  (     0         -1          0      )

 cart.    s(39) = ( -1.0000000  0.0000000  0.0000000 )
                  (  0.0000000  0.0000000 -1.0000000 )
                  (  0.0000000  1.0000000  0.0000000 )


      isym = 40     inv.  90 deg rotation - cart. axis [1,0,0]   

 cryst.   s(40) = (    -1          0          0      )
                  (     0          0         -1      )
                  (     0          1          0      )

 cart.    s(40) = ( -1.0000000  0.0000000  0.0000000 )
                  (  0.0000000  0.0000000  1.0000000 )
                  (  0.0000000 -1.0000000  0.0000000 )


      isym = 41     inv. 120 deg rotation - cart. axis [-1,-1,-1]

 cryst.   s(41) = (     0          0         -1      )
                  (    -1          0          0      )
                  (     0         -1          0      )

 cart.    s(41) = (  0.0000000 -1.0000000  0.0000000 )
                  (  0.0000000  0.0000000 -1.0000000 )
                  ( -1.0000000  0.0000000  0.0000000 )


      isym = 42     inv. 120 deg rotation - cart. axis [-1,1,1]  

 cryst.   s(42) = (     0          0          1      )
                  (     1          0          0      )
                  (     0         -1          0      )

 cart.    s(42) = (  0.0000000  1.0000000  0.0000000 )
                  (  0.0000000  0.0000000 -1.0000000 )
                  (  1.0000000  0.0000000  0.0000000 )


      isym = 43     inv. 120 deg rotation - cart. axis [1,1,-1]  

 cryst.   s(43) = (     0          0          1      )
                  (    -1          0          0      )
                  (     0          1          0      )

 cart.    s(43) = (  0.0000000 -1.0000000  0.0000000 )
                  (  0.0000000  0.0000000  1.0000000 )
                  (  1.0000000  0.0000000  0.0000000 )


      isym = 44     inv. 120 deg rotation - cart. axis [1,-1,1]  

 cryst.   s(44) = (     0          0         -1      )
                  (     1          0          0      )
                  (     0          1          0      )

 cart.    s(44) = (  0.0000000  1.0000000  0.0000000 )
                  (  0.0000000  0.0000000  1.0000000 )
                  ( -1.0000000  0.0000000  0.0000000 )


      isym = 45     inv. 120 deg rotation - cart. axis [1,1,1]   

 cryst.   s(45) = (     0         -1          0      )
                  (     0          0         -1      )
                  (    -1          0          0      )

 cart.    s(45) = (  0.0000000  0.0000000 -1.0000000 )
                  ( -1.0000000  0.0000000  0.0000000 )
                  (  0.0000000 -1.0000000  0.0000000 )


      isym = 46     inv. 120 deg rotation - cart. axis [-1,1,-1] 

 cryst.   s(46) = (     0          1          0      )
                  (     0          0          1      )
                  (    -1          0          0      )

 cart.    s(46) = (  0.0000000  0.0000000 -1.0000000 )
                  (  1.0000000  0.0000000  0.0000000 )
                  (  0.0000000  1.0000000  0.0000000 )


      isym = 47     inv. 120 deg rotation - cart. axis [1,-1,-1] 

 cryst.   s(47) = (     0          1          0      )
                  (     0          0         -1      )
                  (     1          0          0      )

 cart.    s(47) = (  0.0000000  0.0000000  1.0000000 )
                  (  1.0000000  0.0000000  0.0000000 )
                  (  0.0000000 -1.0000000  0.0000000 )


      isym = 48     inv. 120 deg rotation - cart. axis [-1,-1,1] 

 cryst.   s(48) = (     0         -1          0      )
                  (     0          0          1      )
                  (     1          0          0      )

 cart.    s(48) = (  0.0000000  0.0000000  1.0000000 )
                  ( -1.0000000  0.0000000  0.0000000 )
                  (  0.0000000  1.0000000  0.0000000 )


   Cartesian axes

     site n.     atom                  positions (alat units)
         1        Fe     tau(   1) = (   0.0000000   0.0000000   0.0000000  )
         2        Fe     tau(   2) = (   0.5000000   0.5000000   0.5000000  )

   Crystallographic axes

     site n.     atom                  positions (cryst. coord.)
         1        Fe     tau(   1) = (  0.0000000  0.0000000  0.0000000  )
         2        Fe     tau(   2) = (  0.5000000  0.5000000  0.5000000  )

     number of k points=    56  Gaussian smearing, width (Ry)=  0.0100
                       cart. coord. in units 2pi/alat
        k(    1) = (   0.0000000   0.0000000   0.0000000), wk =   0.0010000
        k(    2) = (   0.0000000   0.0000000   0.1000000), wk =   0.0060000
        k(    3) = (   0.0000000   0.0000000   0.2000000), wk =   0.0060000
        k(    4) = (   0.0000000   0.0000000   0.3000000), wk =   0.0060000
        k(    5) = (   0.0000000   0.0000000   0.4000000), wk =   0.0060000
        k(    6) = (   0.0000000   0.0000000  -0.5000000), wk =   0.0030000
        k(    7) = (   0.0000000   0.1000000   0.1000000), wk =   0.0120000
        k(    8) = (   0.0000000   0.1000000   0.2000000), wk =   0.0240000
        k(    9) = (   0.0000000   0.1000000   0.3000000), wk =   0.0240000
        k(   10) = (   0.0000000   0.1000000   0.4000000), wk =   0.0240000
        k(   11) = (   0.0000000   0.1000000  -0.5000000), wk =   0.0120000
        k(   12) = (   0.0000000   0.2000000   0.2000000), wk =   0.0120000
        k(   13) = (   0.0000000   0.2000000   0.3000000), wk =   0.0240000
        k(   14) = (   0.0000000   0.2000000   0.4000000), wk =   0.0240000
        k(   15) = (   0.0000000   0.2000000  -0.5000000), wk =   0.0120000
        k(   16) = (   0.0000000   0.3000000   0.3000000), wk =   0.0120000
        k(   17) = (   0.0000000   0.3000000   0.4000000), wk =   0.0240000
        k(   18) = (   0.0000000   0.3000000  -0.5000000), wk =   0.0120000
        k(   19) = (   0.0000000   0.4000000   0.4000000), wk =   0.0120000
        k(   20) = (   0.0000000   0.4000000  -0.5000000), wk =   0.0120000
        k(   21) = (   0.0000000  -0.5000000  -0.5000000), wk =   0.0030000
        k(   22) = (   0.1000000   0.1000000   0.1000000), wk =   0.0080000
        k(   23) = (   0.1000000   0.1000000   0.2000000), wk =   0.0240000
        k(   24) = (   0.1000000   0.1000000   0.3000000), wk =   0.0240000
        k(   25) = (   0.1000000   0.1000000   0.4000000), wk =   0.0240000
        k(   26) = (   0.1000000   0.1000000  -0.5000000), wk =   0.0120000
        k(   27) = (   0.1000000   0.2000000   0.2000000), wk =   0.0240000
        k(   28) = (   0.1000000   0.2000000   0.3000000), wk =   0.0480000
        k(   29) = (   0.1000000   0.2000000   0.4000000), wk =   0.0480000
        k(   30) = (   0.1000000   0.2000000  -0.5000000), wk =   0.0240000
        k(   31) = (   0.1000000   0.3000000   0.3000000), wk =   0.0240000
        k(   32) = (   0.1000000   0.3000000   0.4000000), wk =   0.0480000
        k(   33) = (   0.1000000   0.3000000  -0.5000000), wk =   0.0240000
        k(   34) = (   0.1000000   0.4000000   0.4000000), wk =   0.0240000
        k(   35) = (   0.1000000   0.4000000  -0.5000000), wk =   0.0240000
        k(   36) = (   0.1000000  -0.5000000  -0.5000000), wk =   0.0060000
        k(   37) = (   0.2000000   0.2000000   0.2000000), wk =   0.0080000
        k(   38) = (   0.2000000   0.2000000   0.3000000), wk =   0.0240000
        k(   39) = (   0.2000000   0.2000000   0.4000000), wk =   0.0240000
        k(   40) = (   0.2000000   0.2000000  -0.5000000), wk =   0.0120000
        k(   41) = (   0.2000000   0.3000000   0.3000000), wk =   0.0240000
        k(   42) = (   0.2000000   0.3000000   0.4000000), wk =   0.0480000
        k(   43) = (   0.2000000   0.3000000  -0.5000000), wk =   0.0240000
        k(   44) = (   0.2000000   0.4000000   0.4000000), wk =   0.0240000
        k(   45) = (   0.2000000   0.4000000  -0.5000000), wk =   0.0240000
        k(   46) = (   0.2000000  -0.5000000  -0.5000000), wk =   0.0060000
        k(   47) = (   0.3000000   0.3000000   0.3000000), wk =   0.0080000
        k(   48) = (   0.3000000   0.3000000   0.4000000), wk =   0.0240000
        k(   49) = (   0.3000000   0.3000000  -0.5000000), wk =   0.0120000
        k(   50) = (   0.3000000   0.4000000   0.4000000), wk =   0.0240000
        k(   51) = (   0.3000000   0.4000000  -0.5000000), wk =   0.0240000
        k(   52) = (   0.3000000  -0.5000000  -0.5000000), wk =   0.0060000
        k(   53) = (   0.4000000   0.4000000   0.4000000), wk =   0.0080000
        k(   54) = (   0.4000000   0.4000000  -0.5000000), wk =   0.0120000
        k(   55) = (   0.4000000  -0.5000000  -0.5000000), wk =   0.0060000
        k(   56) = (  -0.5000000  -0.5000000  -0.5000000), wk =   0.0010000

                       cryst. coord.
        k(    1) = (   0.0000000   0.0000000   0.0000000), wk =   0.0010000
        k(    2) = (   0.0000000   0.0000000   0.1000000), wk =   0.0060000
        k(    3) = (   0.0000000   0.0000000   0.2000000), wk =   0.0060000
        k(    4) = (   0.0000000   0.0000000   0.3000000), wk =   0.0060000
        k(    5) = (   0.0000000   0.0000000   0.4000000), wk =   0.0060000
        k(    6) = (   0.0000000   0.0000000  -0.5000000), wk =   0.0030000
        k(    7) = (   0.0000000   0.1000000   0.1000000), wk =   0.0120000
        k(    8) = (   0.0000000   0.1000000   0.2000000), wk =   0.0240000
        k(    9) = (   0.0000000   0.1000000   0.3000000), wk =   0.0240000
        k(   10) = (   0.0000000   0.1000000   0.4000000), wk =   0.0240000
        k(   11) = (   0.0000000   0.1000000  -0.5000000), wk =   0.0120000
        k(   12) = (   0.0000000   0.2000000   0.2000000), wk =   0.0120000
        k(   13) = (   0.0000000   0.2000000   0.3000000), wk =   0.0240000
        k(   14) = (   0.0000000   0.2000000   0.4000000), wk =   0.0240000
        k(   15) = (   0.0000000   0.2000000  -0.5000000), wk =   0.0120000
        k(   16) = (   0.0000000   0.3000000   0.3000000), wk =   0.0120000
        k(   17) = (   0.0000000   0.3000000   0.4000000), wk =   0.0240000
        k(   18) = (   0.0000000   0.3000000  -0.5000000), wk =   0.0120000
        k(   19) = (   0.0000000   0.4000000   0.4000000), wk =   0.0120000
        k(   20) = (   0.0000000   0.4000000  -0.5000000), wk =   0.0120000
        k(   21) = (   0.0000000  -0.5000000  -0.5000000), wk =   0.0030000
        k(   22) = (   0.1000000   0.1000000   0.1000000), wk =   0.0080000
        k(   23) = (   0.1000000   0.1000000   0.2000000), wk =   0.0240000
        k(   24) = (   0.1000000   0.1000000   0.3000000), wk =   0.0240000
        k(   25) = (   0.1000000   0.1000000   0.4000000), wk =   0.0240000
        k(   26) = (   0.1000000   0.1000000  -0.5000000), wk =   0.0120000
        k(   27) = (   0.1000000   0.2000000   0.2000000), wk =   0.0240000
        k(   28) = (   0.1000000   0.2000000   0.3000000), wk =   0.0480000
        k(   29) = (   0.1000000   0.2000000   0.4000000), wk =   0.0480000
        k(   30) = (   0.1000000   0.2000000  -0.5000000), wk =   0.0240000
        k(   31) = (   0.1000000   0.3000000   0.3000000), wk =   0.0240000
        k(   32) = (   0.1000000   0.3000000   0.4000000), wk =   0.0480000
        k(   33) = (   0.1000000   0.3000000  -0.5000000), wk =   0.0240000
        k(   34) = (   0.1000000   0.4000000   0.4000000), wk =   0.0240000
        k(   35) = (   0.1000000   0.4000000  -0.5000000), wk =   0.0240000
        k(   36) = (   0.1000000  -0.5000000  -0.5000000), wk =   0.0060000
        k(   37) = (   0.2000000   0.2000000   0.2000000), wk =   0.0080000
        k(   38) = (   0.2000000   0.2000000   0.3000000), wk =   0.0240000
        k(   39) = (   0.2000000   0.2000000   0.4000000), wk =   0.0240000
        k(   40) = (   0.2000000   0.2000000  -0.5000000), wk =   0.0120000
        k(   41) = (   0.2000000   0.3000000   0.3000000), wk =   0.0240000
        k(   42) = (   0.2000000   0.3000000   0.4000000), wk =   0.0480000
        k(   43) = (   0.2000000   0.3000000  -0.5000000), wk =   0.0240000
        k(   44) = (   0.2000000   0.4000000   0.4000000), wk =   0.0240000
        k(   45) = (   0.2000000   0.4000000  -0.5000000), wk =   0.0240000
        k(   46) = (   0.2000000  -0.5000000  -0.5000000), wk =   0.0060000
        k(   47) = (   0.3000000   0.3000000   0.3000000), wk =   0.0080000
        k(   48) = (   0.3000000   0.3000000   0.4000000), wk =   0.0240000
        k(   49) = (   0.3000000   0.3000000  -0.5000000), wk =   0.0120000
        k(   50) = (   0.3000000   0.4000000   0.4000000), wk =   0.0240000
        k(   51) = (   0.3000000   0.4000000  -0.5000000), wk =   0.0240000
        k(   52) = (   0.3000000  -0.5000000  -0.5000000), wk =   0.0060000
        k(   53) = (   0.4000000   0.4000000   0.4000000), wk =   0.0080000
        k(   54) = (   0.4000000   0.4000000  -0.5000000), wk =   0.0120000
        k(   55) = (   0.4000000  -0.5000000  -0.5000000), wk =   0.0060000
        k(   56) = (  -0.5000000  -0.5000000  -0.5000000), wk =   0.0010000

     Dense  grid:    94617 G-vectors     FFT dimensions: (  60,  60,  60)

     Smooth grid:    28113 G-vectors     FFT dimensions: (  40,  40,  40)

     Dynamical RAM for                 wfc:       0.11 MB

     Dynamical RAM for     wfc (w. buffer):      12.10 MB

     Dynamical RAM for           str. fact:       0.14 MB

     Dynamical RAM for           local pot:       0.00 MB

     Dynamical RAM for          nlocal pot:       0.19 MB

     Dynamical RAM for                qrad:       2.64 MB

     Dynamical RAM for          rho,v,vnew:       1.86 MB

     Dynamical RAM for               rhoin:       0.62 MB

     Dynamical RAM for            rho*nmix:       4.62 MB

     Dynamical RAM for           G-vectors:       0.56 MB

     Dynamical RAM for          h,s,v(r/c):       0.07 MB

     Dynamical RAM for          <psi|beta>:       0.01 MB

     Dynamical RAM for                 psi:       0.21 MB

     Dynamical RAM for                hpsi:       0.21 MB

     Dynamical RAM for                spsi:       0.21 MB

     Dynamical RAM for      wfcinit/wfcrot:       0.22 MB

     Dynamical RAM for           addusdens:      27.29 MB

     Estimated static dynamical RAM per process >      19.39 MB

     Estimated max dynamical RAM per process >      51.30 MB

     Estimated total dynamical RAM >     512.98 MB
     Generating pointlists ...
     new r_m :   0.3572 (alat units)  1.9328 (a.u.) for type    1

     The initial density is read from file :
     ./out/Fe.save/charge-density


     negative rho (up, down):  0.000E+00 9.888E-05
     Starting wfcs from file
     Checking if some PAW data can be deallocated... 

     total cpu time spent up to now is        2.0 secs

     Self-consistent Calculation

     iteration #  1     ecut=   120.00 Ry     beta= 0.40
     Davidson diagonalization with overlap

---- Real-time Memory Report at c_bands before calling an iterative solver
            73 MiB given to the printing process from OS
             0 MiB allocation reported by mallinfo(arena+hblkhd)
           768 MiB available memory on the node where the printing process lives
------------------
     ethr =  1.00E-05,  avg # of iterations =  2.0

     Threshold (ethr) on eigenvalues was too large:
     Diagonalizing with lowered threshold

     Davidson diagonalization with overlap

---- Real-time Memory Report at c_bands before calling an iterative solver
            89 MiB given to the printing process from OS
             0 MiB allocation reported by mallinfo(arena+hblkhd)
           514 MiB available memory on the node where the printing process lives
------------------
     ethr =  1.45E-09,  avg # of iterations =  2.2

     negative rho (up, down):  0.000E+00 9.844E-05

     total cpu time spent up to now is       16.2 secs

     total energy              =    -658.54151623 Ry
     estimated scf accuracy    <       0.00000048 Ry

     total magnetization       =     4.43 Bohr mag/cell
     absolute magnetization    =     4.70 Bohr mag/cell

     iteration #  2     ecut=   120.00 Ry     beta= 0.40
     Davidson diagonalization with overlap

---- Real-time Memory Report at c_bands before calling an iterative solver
            90 MiB given to the printing process from OS
             0 MiB allocation reported by mallinfo(arena+hblkhd)
           506 MiB available memory on the node where the printing process lives
------------------
     ethr =  1.49E-09,  avg # of iterations =  1.6

     negative rho (up, down):  0.000E+00 9.840E-05

     total cpu time spent up to now is       22.2 secs

     total energy              =    -658.54151604 Ry
     estimated scf accuracy    <       0.00000270 Ry

     total magnetization       =     4.43 Bohr mag/cell
     absolute magnetization    =     4.70 Bohr mag/cell

     iteration #  3     ecut=   120.00 Ry     beta= 0.40
     Davidson diagonalization with overlap

---- Real-time Memory Report at c_bands before calling an iterative solver
            90 MiB given to the printing process from OS
             0 MiB allocation reported by mallinfo(arena+hblkhd)
           464 MiB available memory on the node where the printing process lives
------------------
     ethr =  1.49E-09,  avg # of iterations =  1.5

     negative rho (up, down):  0.000E+00 9.785E-05

     total cpu time spent up to now is       27.7 secs

     total energy              =    -658.54151671 Ry
     estimated scf accuracy    <       0.00000047 Ry

     total magnetization       =     4.43 Bohr mag/cell
     absolute magnetization    =     4.70 Bohr mag/cell

     iteration #  4     ecut=   120.00 Ry     beta= 0.40
     Davidson diagonalization with overlap

---- Real-time Memory Report at c_bands before calling an iterative solver
            90 MiB given to the printing process from OS
             0 MiB allocation reported by mallinfo(arena+hblkhd)
           456 MiB available memory on the node where the printing process lives
------------------
     ethr =  1.45E-09,  avg # of iterations =  1.0

     negative rho (up, down):  0.000E+00 9.777E-05

     total cpu time spent up to now is       32.8 secs

     total energy              =    -658.54151674 Ry
     estimated scf accuracy    <       0.00000002 Ry

     total magnetization       =     4.43 Bohr mag/cell
     absolute magnetization    =     4.70 Bohr mag/cell

     iteration #  5     ecut=   120.00 Ry     beta= 0.40
     Davidson diagonalization with overlap

---- Real-time Memory Report at c_bands before calling an iterative solver
            91 MiB given to the printing process from OS
             0 MiB allocation reported by mallinfo(arena+hblkhd)
           452 MiB available memory on the node where the printing process lives
------------------
     ethr =  4.93E-11,  avg # of iterations =  2.0

     negative rho (up, down):  0.000E+00 9.776E-05

     total cpu time spent up to now is       39.3 secs

     total energy              =    -658.54151675 Ry
     estimated scf accuracy    <          6.4E-10 Ry

     total magnetization       =     4.43 Bohr mag/cell
     absolute magnetization    =     4.70 Bohr mag/cell

     iteration #  6     ecut=   120.00 Ry     beta= 0.40
     Davidson diagonalization with overlap

---- Real-time Memory Report at c_bands before calling an iterative solver
            91 MiB given to the printing process from OS
             0 MiB allocation reported by mallinfo(arena+hblkhd)
           364 MiB available memory on the node where the printing process lives
------------------
     ethr =  1.99E-12,  avg # of iterations =  2.4

     negative rho (up, down):  0.000E+00 9.775E-05

     Magnetic moment per site  (integrated on atomic sphere of radius R)
     atom   1 (R=0.357)  charge= 14.4176  magn=  2.2726
     atom   2 (R=0.357)  charge= 14.4176  magn=  2.2726

     total cpu time spent up to now is       46.3 secs

     End of self-consistent calculation

 ------ SPIN UP ------------


          k = 0.0000 0.0000 0.0000 (  3431 PWs)   bands (ev):

   -70.4800 -70.3603 -36.5678 -36.5678 -36.5678 -36.3011 -36.3011 -36.3011
     9.2423  12.8890  12.8890  15.3437  15.3437  15.3437  16.4931  16.4931
    17.6725  17.6725  17.6725  27.1979

     occupation numbers 
     1.0000   1.0000   1.0000   1.0000   1.0000   1.0000   1.0000   1.0000
     1.0000   1.0000   1.0000   1.0000   1.0000   1.0000   1.0000   1.0000
     0.1865   0.1865   0.1865   0.0000

          k = 0.0000 0.0000 0.1000 (  3511 PWs)   bands (ev):

   -70.4767 -70.3629 -36.5668 -36.5610 -36.5610 -36.3132 -36.3072 -36.3072
     9.4449  12.9737  12.9748  15.3424  15.3424  15.3981  16.4045  16.5278
    17.5069  17.5069  17.6129  25.8760

     occupation numbers 
     1.0000   1.0000   1.0000   1.0000   1.0000   1.0000   1.0000   1.0000
     1.0000   1.0000   1.0000   1.0000   1.0000   1.0000   1.0000   1.0000
     0.7969   0.7969   0.3933   0.0000

          k = 0.0000 0.0000 0.2000 (  3535 PWs)   bands (ev):

   -70.4671 -70.3703 -36.5622 -36.5412 -36.5412 -36.3466 -36.3253 -36.3253
    10.0347  13.1945  13.2213  15.3509  15.3509  15.5566  16.1463  16.6274
    17.0937  17.0937  17.4408  23.4508

     occupation numbers 
     1.0000   1.0000   1.0000   1.0000   1.0000   1.0000   1.0000   1.0000
     1.0000   1.0000   1.0000   1.0000   1.0000   1.0000   1.0000   1.0000
     1.0000   1.0000   0.9355   0.0000

          k = 0.0000 0.0000 0.3000 (  3515 PWs)   bands (ev):

   -70.4525 -70.3822 -36.5503 -36.5105 -36.5105 -36.3939 -36.3536 -36.3536
    10.9482  13.4283  13.6112  15.4007  15.4007  15.7422  15.8058  16.5931
    16.5931  16.7914  17.1749  21.0465

     occupation numbers 
     1.0000   1.0000   1.0000   1.0000   1.0000   1.0000   1.0000   1.0000
     1.0000   1.0000   1.0000   1.0000   1.0000   1.0000   1.0000   1.0000
     1.0000   1.0000   1.0000   0.0000

          k = 0.0000 0.0000 0.4000 (  3511 PWs)   bands (ev):

   -70.4348 -70.3978 -36.5274 -36.4723 -36.4723 -36.4453 -36.3898 -36.3898
    12.0382  13.4556  14.1090  15.2318  15.5297  15.5297  16.1236  16.1298
    16.1298  16.8434  17.0804  19.0458

     occupation numbers 
     1.0000   1.0000   1.0000   1.0000   1.0000   1.0000   1.0000   1.0000
     1.0000   1.0000   1.0000   1.0000   1.0000   1.0000   1.0000   1.0000
     1.0000   1.0000   1.0000   0.0000

          k = 0.0000 0.0000-0.5000 (  3514 PWs)   bands (ev):

   -70.4159 -70.4158 -36.4918 -36.4918 -36.4307 -36.4307 -36.4307 -36.4307
    12.9963  12.9963  14.6678  14.6679  15.7689  15.7689  15.7689  15.7689
    16.4809  16.4809  17.7226  17.7226

     occupation numbers 
     1.0000   1.0000   1.0000   1.0000   1.0000   1.0000   1.0000   1.0000
     1.0000   1.0000   1.0000   1.0000   1.0000   1.0000   1.0000   1.0000
     1.0000   1.0000   0.0791   0.0791

          k = 0.0000 0.1000 0.1000 (  3535 PWs)   bands (ev):

   -70.4735 -70.3652 -36.5777 -36.5545 -36.5428 -36.3370 -36.3131 -36.3011
     9.6441  13.0508  13.0650  15.2376  15.3293  15.5548  16.3977  16.5019
    17.2228  17.3423  17.6969  25.9429

     occupation numbers 
     1.0000   1.0000   1.0000   1.0000   1.0000   1.0000   1.0000   1.0000
     1.0000   1.0000   1.0000   1.0000   1.0000   1.0000   1.0000   1.0000
     0.9999   0.9945   0.1263   0.0000

          k = 0.0000 0.1000 0.2000 (  3530 PWs)   bands (ev):

   -70.4643 -70.3722 -36.5830 -36.5355 -36.5147 -36.3786 -36.3301 -36.3088
    10.2220  13.2605  13.3105  15.1638  15.3032  15.7914  16.2159  16.5874
    16.7561  16.9410  17.6344  23.6930

     occupation numbers 
     1.0000   1.0000   1.0000   1.0000   1.0000   1.0000   1.0000   1.0000
     1.0000   1.0000   1.0000   1.0000   1.0000   1.0000   1.0000   1.0000
     1.0000   1.0000   0.3106   0.0000

          k = 0.0000 0.1000 0.3000 (  3524 PWs)   bands (ev):

   -70.4504 -70.3835 -36.5779 -36.5062 -36.4800 -36.4297 -36.3570 -36.3302
    11.1102  13.4913  13.6740  15.1609  15.2616  15.9451  16.0845  16.2533
    16.4851  16.7554  17.4295  21.2681

     occupation numbers 
     1.0000   1.0000   1.0000   1.0000   1.0000   1.0000   1.0000   1.0000
     1.0000   1.0000   1.0000   1.0000   1.0000   1.0000   1.0000   1.0000
     1.0000   1.0000   0.9490   0.0000

          k = 0.0000 0.1000 0.4000 (  3521 PWs)   bands (ev):

   -70.4334 -70.3982 -36.5597 -36.4819 -36.4699 -36.4407 -36.3914 -36.3619
    12.1538  13.5052  14.1310  15.0582  15.2545  15.8060  15.8167  16.1272
    16.4221  17.0608  17.1304  19.2100

     occupation numbers 
     1.0000   1.0000   1.0000   1.0000   1.0000   1.0000   1.0000   1.0000
     1.0000   1.0000   1.0000   1.0000   1.0000   1.0000   1.0000   1.0000
     1.0000   1.0000   1.0000   0.0000

          k = 0.0000 0.1000-0.5000 (  3506 PWs)   bands (ev):

   -70.4154 -70.4154 -36.5271 -36.5271 -36.4303 -36.4303 -36.4001 -36.4000
    13.0570  13.0570  14.6259  14.6259  15.4671  15.4671  15.9161  15.9161
    16.7816  16.7816  17.7809  17.7809

     occupation numbers 
     1.0000   1.0000   1.0000   1.0000   1.0000   1.0000   1.0000   1.0000
     1.0000   1.0000   1.0000   1.0000   1.0000   1.0000   1.0000   1.0000
     1.0000   1.0000   0.0219   0.0218

          k = 0.0000 0.2000 0.2000 (  3541 PWs)   bands (ev):

   -70.4564 -70.3780 -36.6034 -36.5191 -36.4766 -36.4301 -36.3444 -36.3009
    10.7580  13.3905  13.5931  14.9672  15.2252  16.1366  16.2343  16.3094
    16.5332  16.5966  17.7614  23.6994

     occupation numbers 
     1.0000   1.0000   1.0000   1.0000   1.0000   1.0000   1.0000   1.0000
     1.0000   1.0000   1.0000   1.0000   1.0000   1.0000   1.0000   1.0000
     1.0000   1.0000   0.0348   0.0000

          k = 0.0000 0.2000 0.3000 (  3528 PWs)   bands (ev):

   -70.4443 -70.3873 -36.6120 -36.4940 -36.4865 -36.4361 -36.3670 -36.3082
    11.5519  13.5087  13.9829  14.8584  15.1785  15.7259  16.2339  16.2811
    16.5068  16.6592  17.7149  21.7068

     occupation numbers 
     1.0000   1.0000   1.0000   1.0000   1.0000   1.0000   1.0000   1.0000
     1.0000   1.0000   1.0000   1.0000   1.0000   1.0000   1.0000   1.0000
     1.0000   1.0000   0.0915   0.0000

          k = 0.0000 0.2000 0.4000 (  3506 PWs)   bands (ev):

   -70.4296 -70.3997 -36.6049 -36.5390 -36.4628 -36.3961 -36.3960 -36.3286
    12.4162  13.4562  14.4001  14.8675  15.0736  15.3057  16.1549  16.1989
    16.8804  17.0002  17.5234  19.5842

     occupation numbers 
     1.0000   1.0000   1.0000   1.0000   1.0000   1.0000   1.0000   1.0000
     1.0000   1.0000   1.0000   1.0000   1.0000   1.0000   1.0000   1.0000
     1.0000   1.0000   0.7453   0.0000

          k = 0.0000 0.2000-0.5000 (  3512 PWs)   bands (ev):

   -70.4143 -70.4143 -36.5801 -36.5801 -36.4291 -36.4290 -36.3590 -36.3590
    13.0980  13.0980  14.7903  14.7904  15.0147  15.0147  16.1837  16.1837
    17.2310  17.2310  17.9340  17.9340

     occupation numbers 
     1.0000   1.0000   1.0000   1.0000   1.0000   1.0000   1.0000   1.0000
     1.0000   1.0000   1.0000   1.0000   1.0000   1.0000   1.0000   1.0000
     0.9999   0.9999   0.0002   0.0002

          k = 0.0000 0.3000 0.3000 (  3515 PWs)   bands (ev):

   -70.4351 -70.3937 -36.6349 -36.5441 -36.4752 -36.3939 -36.3830 -36.3007
    12.1279  13.4216  14.4672  14.6466  15.2400  15.3493  16.1774  16.4205
    16.5883  16.9258  17.8417  21.4304

     occupation numbers 
     1.0000   1.0000   1.0000   1.0000   1.0000   1.0000   1.0000   1.0000
     1.0000   1.0000   1.0000   1.0000   1.0000   1.0000   1.0000   1.0000
     1.0000   1.0000   0.0040   0.0000

          k = 0.0000 0.3000 0.4000 (  3514 PWs)   bands (ev):

   -70.4242 -70.4024 -36.6409 -36.5933 -36.4522 -36.4037 -36.3567 -36.3076
    12.6324  13.2412  14.5649  14.8647  14.9788  15.5877  16.2466  16.4793
    16.8929  17.3034  17.7973  19.8308

     occupation numbers 
     1.0000   1.0000   1.0000   1.0000   1.0000   1.0000   1.0000   1.0000
     1.0000   1.0000   1.0000   1.0000   1.0000   1.0000   1.0000   1.0000
     1.0000   0.9984   0.0143   0.0000

          k = 0.0000 0.3000-0.5000 (  3522 PWs)   bands (ev):

   -70.4129 -70.4129 -36.6270 -36.6270 -36.4276 -36.4276 -36.3271 -36.3271
    12.9856  12.9856  14.6356  14.6356  15.3998  15.3998  16.4008  16.4008
    17.6059  17.6059  18.0965  18.0965

     occupation numbers 
     1.0000   1.0000   1.0000   1.0000   1.0000   1.0000   1.0000   1.0000
     1.0000   1.0000   1.0000   1.0000   1.0000   1.0000   1.0000   1.0000
     0.4213   0.4213   0.0000   0.0000

          k = 0.0000 0.4000 0.4000 (  3512 PWs)   bands (ev):

   -70.4179 -70.4064 -36.6604 -36.6354 -36.4395 -36.4140 -36.3265 -36.3006
    12.7430  13.0140  14.3971  14.5486  15.6505  16.3850  16.3902  16.6470
    16.8826  17.6381  17.9072  19.3699

     occupation numbers 
     1.0000   1.0000   1.0000   1.0000   1.0000   1.0000   1.0000   1.0000
     1.0000   1.0000   1.0000   1.0000   1.0000   1.0000   1.0000   1.0000
     1.0000   0.2970   0.0004   0.0000

          k = 0.0000 0.4000-0.5000 (  3502 PWs)   bands (ev):

   -70.4117 -70.4117 -36.6588 -36.6588 -36.4263 -36.4263 -36.3073 -36.3073
    12.8474  12.8474  14.3892  14.3892  16.2097  16.2097  16.5296  16.5296
    17.8487  17.8487  18.1276  18.1276

     occupation numbers 
     1.0000   1.0000   1.0000   1.0000   1.0000   1.0000   1.0000   1.0000
     1.0000   1.0000   1.0000   1.0000   1.0000   1.0000   1.0000   1.0000
     0.0032   0.0032   0.0000   0.0000

          k = 0.0000-0.5000-0.5000 (  3532 PWs)   bands (ev):

   -70.4113 -70.4113 -36.6701 -36.6701 -36.4259 -36.4258 -36.3006 -36.3006
    12.7915  12.7915  14.3041  14.3041  16.5599  16.5599  16.6730  16.6730
    17.9324  17.9324  18.0492  18.0492

     occupation numbers 
     1.0000   1.0000   1.0000   1.0000   1.0000   1.0000   1.0000   1.0000
     1.0000   1.0000   1.0000   1.0000   1.0000   1.0000   1.0000   1.0000
     0.0002   0.0002   0.0000   0.0000

          k = 0.1000 0.1000 0.1000 (  3548 PWs)   bands (ev):

   -70.4704 -70.3675 -36.5706 -36.5706 -36.5207 -36.3586 -36.3075 -36.3075
     9.8403  13.1405  13.1405  15.2190  15.2190  15.7157  16.4404  16.4404
    16.8549  17.5319  17.5319  26.2828

     occupation numbers 
     1.0000   1.0000   1.0000   1.0000   1.0000   1.0000   1.0000   1.0000
     1.0000   1.0000   1.0000   1.0000   1.0000   1.0000   1.0000   1.0000
     1.0000   0.7161   0.7161   0.0000

          k = 0.1000 0.1000 0.2000 (  3529 PWs)   bands (ev):

   -70.4617 -70.3741 -36.5835 -36.5500 -36.4892 -36.4012 -36.3261 -36.3097
    10.4081  13.3591  13.3677  15.1077  15.1678  15.9962  16.2694  16.3473
    16.5543  17.1265  17.5698  23.9480

     occupation numbers 
     1.0000   1.0000   1.0000   1.0000   1.0000   1.0000   1.0000   1.0000
     1.0000   1.0000   1.0000   1.0000   1.0000   1.0000   1.0000   1.0000
     1.0000   1.0000   0.5703   0.0000

          k = 0.1000 0.1000 0.3000 (  3537 PWs)   bands (ev):

   -70.4483 -70.3847 -36.5853 -36.5183 -36.4540 -36.4522 -36.3556 -36.3245
    11.2744  13.5966  13.6973  15.0785  15.0930  15.8757  16.0443  16.3290
    16.6505  16.7287  17.4372  21.5090

     occupation numbers 
     1.0000   1.0000   1.0000   1.0000   1.0000   1.0000   1.0000   1.0000
     1.0000   1.0000   1.0000   1.0000   1.0000   1.0000   1.0000   1.0000
     1.0000   1.0000   0.9400   0.0000

          k = 0.1000 0.1000 0.4000 (  3505 PWs)   bands (ev):

   -70.4321 -70.3987 -36.5729 -36.5027 -36.4787 -36.4172 -36.3932 -36.3493
    12.2778  13.5890  14.1136  14.8892  15.2000  15.5585  15.8982  16.2358
    16.6437  17.0916  17.1910  19.4239

     occupation numbers 
     1.0000   1.0000   1.0000   1.0000   1.0000   1.0000   1.0000   1.0000
     1.0000   1.0000   1.0000   1.0000   1.0000   1.0000   1.0000   1.0000
     1.0000   1.0000   1.0000   0.0000

          k = 0.1000 0.1000-0.5000 (  3500 PWs)   bands (ev):

   -70.4150 -70.4150 -36.5447 -36.5447 -36.4356 -36.4355 -36.3813 -36.3813
    13.1375  13.1375  14.5431  14.5431  15.3742  15.3742  15.9646  15.9647
    16.9066  16.9066  17.9280  17.9280

     occupation numbers 
     1.0000   1.0000   1.0000   1.0000   1.0000   1.0000   1.0000   1.0000
     1.0000   1.0000   1.0000   1.0000   1.0000   1.0000   1.0000   1.0000
     1.0000   1.0000   0.0002   0.0002

          k = 0.1000 0.2000 0.2000 (  3532 PWs)   bands (ev):

   -70.4540 -70.3795 -36.5956 -36.5420 -36.4531 -36.4469 -36.3378 -36.3079
    10.9396  13.4984  13.6405  14.9295  15.0643  15.8220  16.3384  16.3711
    16.5134  16.9139  17.5908  24.0362

     occupation numbers 
     1.0000   1.0000   1.0000   1.0000   1.0000   1.0000   1.0000   1.0000
     1.0000   1.0000   1.0000   1.0000   1.0000   1.0000   1.0000   1.0000
     1.0000   1.0000   0.4835   0.0000

          k = 0.1000 0.2000 0.3000 (  3530 PWs)   bands (ev):

   -70.4424 -70.3883 -36.6063 -36.5140 -36.4987 -36.4168 -36.3636 -36.3132
    11.7222  13.6365  13.9899  14.8105  15.0061  15.3949  16.2599  16.5450
    16.6310  16.7937  17.5553  22.0098

     occupation numbers 
     1.0000   1.0000   1.0000   1.0000   1.0000   1.0000   1.0000   1.0000
     1.0000   1.0000   1.0000   1.0000   1.0000   1.0000   1.0000   1.0000
     1.0000   1.0000   0.6285   0.0000

          k = 0.1000 0.2000 0.4000 (  3501 PWs)   bands (ev):

   -70.4285 -70.4000 -36.6033 -36.5467 -36.4773 -36.3978 -36.3825 -36.3285
    12.5631  13.5877  14.3129  14.7299  15.0294  15.1817  16.1860  16.2876
    16.8134  17.3535  17.3737  19.9036

     occupation numbers 
     1.0000   1.0000   1.0000   1.0000   1.0000   1.0000   1.0000   1.0000
     1.0000   1.0000   1.0000   1.0000   1.0000   1.0000   1.0000   1.0000
     1.0000   0.9924   0.9866   0.0000

          k = 0.1000 0.2000-0.5000 (  3504 PWs)   bands (ev):

   -70.4138 -70.4138 -36.5832 -36.5832 -36.4370 -36.4370 -36.3523 -36.3523
    13.2223  13.2223  14.5730  14.5730  15.1016  15.1016  16.1967  16.1967
    17.0866  17.0866  18.3058  18.3058

     occupation numbers 
     1.0000   1.0000   1.0000   1.0000   1.0000   1.0000   1.0000   1.0000
     1.0000   1.0000   1.0000   1.0000   1.0000   1.0000   1.0000   1.0000
     1.0000   1.0000   0.0000   0.0000

          k = 0.1000 0.3000 0.3000 (  3512 PWs)   bands (ev):

   -70.4337 -70.3943 -36.6264 -36.5493 -36.4936 -36.3818 -36.3811 -36.3085
    12.3022  13.5506  14.4660  14.6110  15.0075  15.1129  16.3727  16.4211
    16.5892  17.2624  17.6311  21.8390

     occupation numbers 
     1.0000   1.0000   1.0000   1.0000   1.0000   1.0000   1.0000   1.0000
     1.0000   1.0000   1.0000   1.0000   1.0000   1.0000   1.0000   1.0000
     1.0000   0.9996   0.3227   0.0000

          k = 0.1000 0.3000 0.4000 (  3505 PWs)   bands (ev):

   -70.4232 -70.4025 -36.6334 -36.5931 -36.4654 -36.4057 -36.3519 -36.3139
    12.7935  13.3703  14.5224  14.6886  15.0042  15.3764  16.3402  16.4417
    16.7544  17.5307  17.8190  20.2964

     occupation numbers 
     1.0000   1.0000   1.0000   1.0000   1.0000   1.0000   1.0000   1.0000
     1.0000   1.0000   1.0000   1.0000   1.0000   1.0000   1.0000   1.0000
     1.0000   0.7203   0.0079   0.0000

          k = 0.1000 0.3000-0.5000 (  3504 PWs)   bands (ev):

   -70.4124 -70.4124 -36.6224 -36.6224 -36.4348 -36.4348 -36.3288 -36.3288
    13.1245  13.1245  14.5533  14.5533  15.3403  15.3403  16.4131  16.4131
    17.1965  17.1965  18.7517  18.7517

     occupation numbers 
     1.0000   1.0000   1.0000   1.0000   1.0000   1.0000   1.0000   1.0000
     1.0000   1.0000   1.0000   1.0000   1.0000   1.0000   1.0000   1.0000
     1.0000   1.0000   0.0000   0.0000

          k = 0.1000 0.4000 0.4000 (  3514 PWs)   bands (ev):

   -70.4172 -70.4063 -36.6512 -36.6301 -36.4491 -36.4173 -36.3286 -36.3090
    12.8950  13.1435  14.3730  14.4943  15.5732  16.1184  16.4376  16.5718
    16.6512  17.5052  18.3526  20.0377

     occupation numbers 
     1.0000   1.0000   1.0000   1.0000   1.0000   1.0000   1.0000   1.0000
     1.0000   1.0000   1.0000   1.0000   1.0000   1.0000   1.0000   1.0000
     1.0000   0.8020   0.0000   0.0000

          k = 0.1000 0.4000-0.5000 (  3510 PWs)   bands (ev):

   -70.4113 -70.4113 -36.6505 -36.6505 -36.4322 -36.4322 -36.3141 -36.3141
    12.9853  12.9853  14.3611  14.3611  16.0921  16.0921  16.5405  16.5405
    17.1474  17.1474  19.1195  19.1195

     occupation numbers 
     1.0000   1.0000   1.0000   1.0000   1.0000   1.0000   1.0000   1.0000
     1.0000   1.0000   1.0000   1.0000   1.0000   1.0000   1.0000   1.0000
     1.0000   1.0000   0.0000   0.0000

          k = 0.1000-0.5000-0.5000 (  3524 PWs)   bands (ev):

   -70.4109 -70.4108 -36.6607 -36.6607 -36.4312 -36.4312 -36.3092 -36.3092
    12.9286  12.9286  14.2857  14.2857  16.5771  16.5771  16.6762  16.6763
    16.8917  16.8917  19.2725  19.2725

     occupation numbers 
     1.0000   1.0000   1.0000   1.0000   1.0000   1.0000   1.0000   1.0000
     1.0000   1.0000   1.0000   1.0000   1.0000   1.0000   1.0000   1.0000
     1.0000   1.0000   0.0000   0.0000

          k = 0.2000 0.2000 0.2000 (  3524 PWs)   bands (ev):

   -70.4473 -70.3839 -36.5732 -36.5732 -36.4848 -36.4188 -36.3284 -36.3284
    11.4535  13.7738  13.7738  14.8296  14.8296  15.2834  16.4558  16.4558
    16.8024  17.1965  17.1965  24.9288

     occupation numbers 
     1.0000   1.0000   1.0000   1.0000   1.0000   1.0000   1.0000   1.0000
     1.0000   1.0000   1.0000   1.0000   1.0000   1.0000   1.0000   1.0000
     1.0000   1.0000   1.0000   0.0000

          k = 0.2000 0.2000 0.3000 (  3527 PWs)   bands (ev):

   -70.4373 -70.3912 -36.5956 -36.5385 -36.5283 -36.3874 -36.3607 -36.3250
    12.1892  13.9669  14.0086  14.6956  14.7347  14.9254  16.3731  16.6022
    16.7774  17.2834  17.3149  22.7032

     occupation numbers 
     1.0000   1.0000   1.0000   1.0000   1.0000   1.0000   1.0000   1.0000
     1.0000   1.0000   1.0000   1.0000   1.0000   1.0000   1.0000   1.0000
     1.0000   0.9992   0.9976   0.0000

          k = 0.2000 0.2000 0.4000 (  3508 PWs)   bands (ev):

   -70.4252 -70.4010 -36.6035 -36.5672 -36.4954 -36.4019 -36.3613 -36.3294
    12.9256  13.8519  14.1808  14.5465  14.8576  14.9752  16.3037  16.4654
    16.7635  17.1829  17.9654  20.5956

     occupation numbers 
     1.0000   1.0000   1.0000   1.0000   1.0000   1.0000   1.0000   1.0000
     1.0000   1.0000   1.0000   1.0000   1.0000   1.0000   1.0000   1.0000
     1.0000   1.0000   0.0000   0.0000

          k = 0.2000 0.2000-0.5000 (  3508 PWs)   bands (ev):

   -70.4127 -70.4127 -36.5938 -36.5938 -36.4483 -36.4482 -36.3417 -36.3417
    13.4673  13.4673  14.3784  14.3784  15.0329  15.0329  16.3131  16.3131
    16.9673  16.9673  18.9881  18.9881

     occupation numbers 
     1.0000   1.0000   1.0000   1.0000   1.0000   1.0000   1.0000   1.0000
     1.0000   1.0000   1.0000   1.0000   1.0000   1.0000   1.0000   1.0000
     1.0000   1.0000   0.0000   0.0000

          k = 0.2000 0.3000 0.3000 (  3515 PWs)   bands (ev):

   -70.4296 -70.3961 -36.6017 -36.5632 -36.5291 -36.3757 -36.3628 -36.3313
    12.7876  13.9007  14.4549  14.5220  14.5986  14.6994  16.4823  16.5876
    16.6727  17.2175  17.9193  22.8486

     occupation numbers 
     1.0000   1.0000   1.0000   1.0000   1.0000   1.0000   1.0000   1.0000
     1.0000   1.0000   1.0000   1.0000   1.0000   1.0000   1.0000   1.0000
     1.0000   0.9999   0.0003   0.0000

          k = 0.2000 0.3000 0.4000 (  3508 PWs)   bands (ev):

   -70.4205 -70.4029 -36.6129 -36.5933 -36.4935 -36.4094 -36.3456 -36.3319
    13.2331  13.7017  14.4268  14.4285  14.9238  14.9320  16.4747  16.5264
    16.7015  17.1291  18.6496  21.2777

     occupation numbers 
     1.0000   1.0000   1.0000   1.0000   1.0000   1.0000   1.0000   1.0000
     1.0000   1.0000   1.0000   1.0000   1.0000   1.0000   1.0000   1.0000
     1.0000   1.0000   0.0000   0.0000

          k = 0.2000 0.3000-0.5000 (  3500 PWs)   bands (ev):

   -70.4113 -70.4113 -36.6110 -36.6110 -36.4509 -36.4509 -36.3356 -36.3356
    13.4822  13.4822  14.3956  14.3956  15.1200  15.1200  16.4768  16.4768
    16.9063  16.9064  19.7206  19.7206

     occupation numbers 
     1.0000   1.0000   1.0000   1.0000   1.0000   1.0000   1.0000   1.0000
     1.0000   1.0000   1.0000   1.0000   1.0000   1.0000   1.0000   1.0000
     1.0000   1.0000   0.0000   0.0000

          k = 0.2000 0.4000 0.4000 (  3513 PWs)   bands (ev):

   -70.4152 -70.4060 -36.6247 -36.6157 -36.4735 -36.4243 -36.3372 -36.3336
    13.3156  13.4855  14.3171  14.3857  15.3295  15.4222  16.5558  16.5774
    16.6610  17.0375  19.4232  21.3109

     occupation numbers 
     1.0000   1.0000   1.0000   1.0000   1.0000   1.0000   1.0000   1.0000
     1.0000   1.0000   1.0000   1.0000   1.0000   1.0000   1.0000   1.0000
     1.0000   1.0000   0.0000   0.0000

          k = 0.2000 0.4000-0.5000 (  3514 PWs)   bands (ev):

   -70.4102 -70.4102 -36.6270 -36.6270 -36.4475 -36.4474 -36.3343 -36.3343
    13.3593  13.3593  14.3015  14.3015  15.6424  15.6424  16.5856  16.5856
    16.8043  16.8043  20.3909  20.3909

     occupation numbers 
     1.0000   1.0000   1.0000   1.0000   1.0000   1.0000   1.0000   1.0000
     1.0000   1.0000   1.0000   1.0000   1.0000   1.0000   1.0000   1.0000
     1.0000   1.0000   0.0000   0.0000

          k = 0.2000-0.5000-0.5000 (  3516 PWs)   bands (ev):

   -70.4097 -70.4097 -36.6335 -36.6335 -36.4451 -36.4451 -36.3345 -36.3345
    13.3041  13.3041  14.2458  14.2458  15.9875  15.9875  16.6205  16.6205
    16.6847  16.6848  20.7229  20.7229

     occupation numbers 
     1.0000   1.0000   1.0000   1.0000   1.0000   1.0000   1.0000   1.0000
     1.0000   1.0000   1.0000   1.0000   1.0000   1.0000   1.0000   1.0000
     1.0000   1.0000   0.0000   0.0000

          k = 0.3000 0.3000 0.3000 (  3512 PWs)   bands (ev):

   -70.4236 -70.3993 -36.5809 -36.5635 -36.5635 -36.3670 -36.3670 -36.3501
    13.4244  14.1746  14.4214  14.4214  14.4216  14.4216  16.5779  16.5779
    16.8635  16.8635  18.6722  24.1938

     occupation numbers 
     1.0000   1.0000   1.0000   1.0000   1.0000   1.0000   1.0000   1.0000
     1.0000   1.0000   1.0000   1.0000   1.0000   1.0000   1.0000   1.0000
     1.0000   1.0000   0.0000   0.0000

          k = 0.3000 0.3000 0.4000 (  3517 PWs)   bands (ev):

   -70.4167 -70.4039 -36.5950 -36.5882 -36.5160 -36.4126 -36.3572 -36.3460
    13.7535  13.9309  14.3521  14.3717  14.6036  14.8096  16.5654  16.6564
    16.6772  16.8894  19.5553  22.3646

     occupation numbers 
     1.0000   1.0000   1.0000   1.0000   1.0000   1.0000   1.0000   1.0000
     1.0000   1.0000   1.0000   1.0000   1.0000   1.0000   1.0000   1.0000
     1.0000   1.0000   0.0000   0.0000

          k = 0.3000 0.3000-0.5000 (  3516 PWs)   bands (ev):

   -70.4099 -70.4099 -36.5988 -36.5988 -36.4639 -36.4639 -36.3492 -36.3492
    13.8002  13.8002  14.3376  14.3376  14.9140  14.9140  16.5758  16.5758
    16.7903  16.7903  20.7447  20.7447

     occupation numbers 
     1.0000   1.0000   1.0000   1.0000   1.0000   1.0000   1.0000   1.0000
     1.0000   1.0000   1.0000   1.0000   1.0000   1.0000   1.0000   1.0000
     1.0000   1.0000   0.0000   0.0000

          k = 0.3000 0.4000 0.4000 (  3508 PWs)   bands (ev):

   -70.4126 -70.4059 -36.5962 -36.5837 -36.5038 -36.4282 -36.3722 -36.3539
    13.8537  13.8884  14.2707  14.3842  14.8370  14.9721  16.6333  16.6655
    16.6713  16.8027  20.5566  22.8272

     occupation numbers 
     1.0000   1.0000   1.0000   1.0000   1.0000   1.0000   1.0000   1.0000
     1.0000   1.0000   1.0000   1.0000   1.0000   1.0000   1.0000   1.0000
     1.0000   1.0000   0.0000   0.0000

          k = 0.3000 0.4000-0.5000 (  3508 PWs)   bands (ev):

   -70.4088 -70.4088 -36.5925 -36.5925 -36.4653 -36.4653 -36.3656 -36.3656
    13.8283  13.8283  14.2858  14.2858  15.0986  15.0986  16.6471  16.6471
    16.7269  16.7269  21.7460  21.7460

     occupation numbers 
     1.0000   1.0000   1.0000   1.0000   1.0000   1.0000   1.0000   1.0000
     1.0000   1.0000   1.0000   1.0000   1.0000   1.0000   1.0000   1.0000
     1.0000   1.0000   0.0000   0.0000

          k = 0.3000-0.5000-0.5000 (  3488 PWs)   bands (ev):

   -70.4084 -70.4083 -36.5914 -36.5914 -36.4623 -36.4622 -36.3741 -36.3741
    13.8084  13.8084  14.2248  14.2248  15.2807  15.2807  16.6687  16.6687
    16.6953  16.6953  22.3323  22.3323

     occupation numbers 
     1.0000   1.0000   1.0000   1.0000   1.0000   1.0000   1.0000   1.0000
     1.0000   1.0000   1.0000   1.0000   1.0000   1.0000   1.0000   1.0000
     1.0000   1.0000   0.0000   0.0000

          k = 0.4000 0.4000 0.4000 (  3512 PWs)   bands (ev):

   -70.4099 -70.4063 -36.5763 -36.5326 -36.5326 -36.4214 -36.4214 -36.3774
    13.9923  14.2838  14.2838  14.5619  14.6335  14.6335  16.6790  16.6790
    16.7155  16.7155  21.7598  24.5204

     occupation numbers 
     1.0000   1.0000   1.0000   1.0000   1.0000   1.0000   1.0000   1.0000
     1.0000   1.0000   1.0000   1.0000   1.0000   1.0000   1.0000   1.0000
     1.0000   1.0000   0.0000   0.0000

          k = 0.4000 0.4000-0.5000 (  3514 PWs)   bands (ev):

   -70.4077 -70.4077 -36.5562 -36.5562 -36.4766 -36.4766 -36.4024 -36.4024
    14.1065  14.1065  14.3979  14.3979  14.7523  14.7523  16.6882  16.6882
    16.7081  16.7081  23.1152  23.1152

     occupation numbers 
     1.0000   1.0000   1.0000   1.0000   1.0000   1.0000   1.0000   1.0000
     1.0000   1.0000   1.0000   1.0000   1.0000   1.0000   1.0000   1.0000
     1.0000   1.0000   0.0000   0.0000

          k = 0.4000-0.5000-0.5000 (  3500 PWs)   bands (ev):

   -70.4073 -70.4072 -36.5389 -36.5389 -36.4762 -36.4761 -36.4247 -36.4247
    14.2583  14.2583  14.2740  14.2740  14.7699  14.7699  16.6990  16.6990
    16.7038  16.7038  24.0881  24.0881

     occupation numbers 
     1.0000   1.0000   1.0000   1.0000   1.0000   1.0000   1.0000   1.0000
     1.0000   1.0000   1.0000   1.0000   1.0000   1.0000   1.0000   1.0000
     1.0000   1.0000   0.0000   0.0000

          k =-0.5000-0.5000-0.5000 (  3544 PWs)   bands (ev):

   -70.4068 -70.4068 -36.4815 -36.4815 -36.4815 -36.4815 -36.4815 -36.4815
    14.4427  14.4427  14.4427  14.4427  14.4427  14.4427  16.7070  16.7070
    16.7071  16.7071  25.9783  25.9783

     occupation numbers 
     1.0000   1.0000   1.0000   1.0000   1.0000   1.0000   1.0000   1.0000
     1.0000   1.0000   1.0000   1.0000   1.0000   1.0000   1.0000   1.0000
     1.0000   1.0000   0.0000   0.0000

 ------ SPIN DOWN ----------


          k = 0.0000 0.0000 0.0000 (  3431 PWs)   bands (ev):

   -67.7998 -67.6693 -33.9620 -33.9620 -33.9620 -33.6673 -33.6673 -33.6673
     9.3770  14.7376  14.7376  17.2834  17.2834  17.2834  19.3014  19.3014
    19.8991  19.8991  19.8991  27.4519

     occupation numbers 
     1.0000   1.0000   1.0000   1.0000   1.0000   1.0000   1.0000   1.0000
     1.0000   1.0000   1.0000   0.9992   0.9992   0.9992   0.0000   0.0000
     0.0000   0.0000   0.0000   0.0000

          k = 0.0000 0.0000 0.1000 (  3511 PWs)   bands (ev):

   -67.7961 -67.6720 -33.9612 -33.9545 -33.9545 -33.6810 -33.6741 -33.6741
     9.5810  14.8025  14.8395  17.2743  17.2743  17.3437  19.1837  19.3457
    19.6776  19.6776  19.8314  26.3492

     occupation numbers 
     1.0000   1.0000   1.0000   1.0000   1.0000   1.0000   1.0000   1.0000
     1.0000   1.0000   1.0000   0.9994   0.9994   0.9942   0.0000   0.0000
     0.0000   0.0000   0.0000   0.0000

          k = 0.0000 0.0000 0.2000 (  3535 PWs)   bands (ev):

   -67.7856 -67.6801 -33.9567 -33.9325 -33.9325 -33.7186 -33.6939 -33.6939
    10.1777  14.9355  15.1387  17.2627  17.2627  17.5200  18.8421  19.1524
    19.1524  19.4660  19.6361  24.2495

     occupation numbers 
     1.0000   1.0000   1.0000   1.0000   1.0000   1.0000   1.0000   1.0000
     1.0000   1.0000   1.0000   0.9996   0.9996   0.7565   0.0000   0.0000
     0.0000   0.0000   0.0000   0.0000

          k = 0.0000 0.0000 0.3000 (  3515 PWs)   bands (ev):

   -67.7697 -67.6930 -33.9444 -33.8985 -33.8985 -33.7717 -33.7251 -33.7251
    11.1186  14.9391  15.6139  17.2891  17.2891  17.7976  18.3115  18.5546
    18.5546  19.3350  19.6321  22.2641

     occupation numbers 
     1.0000   1.0000   1.0000   1.0000   1.0000   1.0000   1.0000   1.0000
     1.0000   1.0000   1.0000   0.9990   0.9990   0.0142   0.0000   0.0000
     0.0000   0.0000   0.0000   0.0000

          k = 0.0000 0.0000 0.4000 (  3511 PWs)   bands (ev):

   -67.7503 -67.7100 -33.9198 -33.8563 -33.8563 -33.8291 -33.7651 -33.7651
    12.3050  14.5143  16.2286  17.4020  17.4020  17.6496  18.0302  18.0302
    18.1526  18.9609  19.8317  20.8653

     occupation numbers 
     1.0000   1.0000   1.0000   1.0000   1.0000   1.0000   1.0000   1.0000
     1.0000   1.0000   1.0000   0.9727   0.9727   0.2571   0.0000   0.0000
     0.0000   0.0000   0.0000   0.0000

          k = 0.0000 0.0000-0.5000 (  3514 PWs)   bands (ev):

   -67.7297 -67.7297 -33.8807 -33.8807 -33.8103 -33.8103 -33.8103 -33.8103
    13.5455  13.5455  16.9298  16.9298  17.6422  17.6422  17.6422  17.6422
    18.5531  18.5531  20.1509  20.1509

     occupation numbers 
     1.0000   1.0000   1.0000   1.0000   1.0000   1.0000   1.0000   1.0000
     1.0000   1.0000   1.0000   1.0000   0.2827   0.2827   0.2827   0.2827
     0.0000   0.0000   0.0000   0.0000

          k = 0.0000 0.1000 0.1000 (  3535 PWs)   bands (ev):

   -67.7926 -67.6746 -33.9733 -33.9472 -33.9345 -33.7074 -33.6805 -33.6673
     9.7819  14.8941  14.9114  17.1540  17.2532  17.5147  19.1681  19.3113
    19.3341  19.4596  19.9265  26.4846

     occupation numbers 
     1.0000   1.0000   1.0000   1.0000   1.0000   1.0000   1.0000   1.0000
     1.0000   1.0000   1.0000   1.0000   0.9997   0.7732   0.0000   0.0000
     0.0000   0.0000   0.0000   0.0000

          k = 0.0000 0.1000 0.2000 (  3530 PWs)   bands (ev):

   -67.7826 -67.6822 -33.9796 -33.9262 -33.9035 -33.7539 -33.6993 -33.6759
    10.3691  15.0344  15.1878  17.0565  17.2077  17.7745  18.7709  18.9094
    18.9625  19.4142  19.8515  24.5276

     occupation numbers 
     1.0000   1.0000   1.0000   1.0000   1.0000   1.0000   1.0000   1.0000
     1.0000   1.0000   1.0000   1.0000   1.0000   0.0255   0.0000   0.0000
     0.0000   0.0000   0.0000   0.0000

          k = 0.0000 0.1000 0.3000 (  3524 PWs)   bands (ev):

   -67.7673 -67.6944 -33.9746 -33.8938 -33.8652 -33.8111 -33.7289 -33.6997
    11.2918  15.0294  15.6297  17.0305  17.1663  18.0978  18.1861  18.4571
    18.4825  19.5907  19.6131  22.4868

     occupation numbers 
     1.0000   1.0000   1.0000   1.0000   1.0000   1.0000   1.0000   1.0000
     1.0000   1.0000   1.0000   1.0000   1.0000   0.0000   0.0000   0.0000
     0.0000   0.0000   0.0000   0.0000

          k = 0.0000 0.1000 0.4000 (  3521 PWs)   bands (ev):

   -67.7488 -67.7105 -33.9551 -33.8693 -33.8535 -33.8218 -33.7668 -33.7347
    12.4482  14.5949  16.1793  17.0817  17.1091  17.6858  18.0593  18.1108
    18.4732  19.2708  19.8038  20.9814

     occupation numbers 
     1.0000   1.0000   1.0000   1.0000   1.0000   1.0000   1.0000   1.0000
     1.0000   1.0000   1.0000   1.0000   1.0000   0.1517   0.0000   0.0000
     0.0000   0.0000   0.0000   0.0000

          k = 0.0000 0.1000-0.5000 (  3506 PWs)   bands (ev):

   -67.7292 -67.7292 -33.9193 -33.9193 -33.8097 -33.8097 -33.7769 -33.7769
    13.6495  13.6495  16.7356  16.7356  17.3227  17.3227  17.9392  17.9392
    18.8762  18.8762  20.1649  20.1649

     occupation numbers 
     1.0000   1.0000   1.0000   1.0000   1.0000   1.0000   1.0000   1.0000
     1.0000   1.0000   1.0000   1.0000   0.9970   0.9970   0.0001   0.0001
     0.0000   0.0000   0.0000   0.0000

          k = 0.0000 0.2000 0.2000 (  3541 PWs)   bands (ev):

   -67.7739 -67.6884 -34.0025 -33.9080 -33.8615 -33.8114 -33.7150 -33.6673
    10.9250  15.2159  15.3664  16.8267  17.0908  18.1566  18.1702  18.5801
    18.9784  19.3504  19.9991  24.5856

     occupation numbers 
     1.0000   1.0000   1.0000   1.0000   1.0000   1.0000   1.0000   1.0000
     1.0000   1.0000   1.0000   1.0000   1.0000   0.0000   0.0000   0.0000
     0.0000   0.0000   0.0000   0.0000

          k = 0.0000 0.2000 0.3000 (  3528 PWs)   bands (ev):

   -67.7606 -67.6986 -34.0126 -33.8801 -33.8742 -33.8169 -33.7398 -33.6754
    11.7850  15.1465  15.7618  16.6890  16.9798  17.5966  18.3219  18.5681
    18.7982  19.4851  19.9425  22.8856

     occupation numbers 
     1.0000   1.0000   1.0000   1.0000   1.0000   1.0000   1.0000   1.0000
     1.0000   1.0000   1.0000   1.0000   1.0000   0.4598   0.0000   0.0000
     0.0000   0.0000   0.0000   0.0000

          k = 0.0000 0.2000 0.4000 (  3506 PWs)   bands (ev):

   -67.7447 -67.7121 -34.0053 -33.9327 -33.8456 -33.7726 -33.7719 -33.6981
    12.8329  14.7030  16.2168  16.6799  16.8604  17.1344  18.3151  18.5578
    18.9864  19.7186  19.7199  21.2230

     occupation numbers 
     1.0000   1.0000   1.0000   1.0000   1.0000   1.0000   1.0000   1.0000
     1.0000   1.0000   1.0000   1.0000   1.0000   1.0000   0.0000   0.0000
     0.0000   0.0000   0.0000   0.0000

          k = 0.0000 0.2000-0.5000 (  3512 PWs)   bands (ev):

   -67.7279 -67.7279 -33.9782 -33.9782 -33.8083 -33.8083 -33.7317 -33.7317
    13.8802  13.8802  16.6178  16.6178  16.8249  16.8249  18.4141  18.4141
    19.3831  19.3831  20.1830  20.1830

     occupation numbers 
     1.0000   1.0000   1.0000   1.0000   1.0000   1.0000   1.0000   1.0000
     1.0000   1.0000   1.0000   1.0000   1.0000   1.0000   0.0000   0.0000
     0.0000   0.0000   0.0000   0.0000

          k = 0.0000 0.3000 0.3000 (  3515 PWs)   bands (ev):

   -67.7506 -67.7055 -34.0384 -33.9384 -33.8593 -33.7703 -33.7574 -33.6672
    12.5125  14.9906  16.1551  16.4430  16.9060  17.0573  18.3630  18.9935
    19.0391  19.4258  20.0896  22.5721

     occupation numbers 
     1.0000   1.0000   1.0000   1.0000   1.0000   1.0000   1.0000   1.0000
     1.0000   1.0000   1.0000   1.0000   1.0000   1.0000   0.0000   0.0000
     0.0000   0.0000   0.0000   0.0000

          k = 0.0000 0.3000 0.4000 (  3514 PWs)   bands (ev):

   -67.7387 -67.7149 -34.0455 -33.9931 -33.8338 -33.7802 -33.7292 -33.6749
    13.3228  14.6031  16.3395  16.6176  16.6478  16.9578  18.5836  18.9422
    19.4670  19.5909  20.0362  21.2684

     occupation numbers 
     1.0000   1.0000   1.0000   1.0000   1.0000   1.0000   1.0000   1.0000
     1.0000   1.0000   1.0000   1.0000   1.0000   1.0000   0.0000   0.0000
     0.0000   0.0000   0.0000   0.0000

          k = 0.0000 0.3000-0.5000 (  3522 PWs)   bands (ev):

   -67.7263 -67.7263 -34.0304 -34.0304 -33.8065 -33.8065 -33.6965 -33.6965
    14.0456  14.0456  16.4048  16.4048  16.9243  16.9243  18.8147  18.8147
    19.8138  19.8138  20.1205  20.1205

     occupation numbers 
     1.0000   1.0000   1.0000   1.0000   1.0000   1.0000   1.0000   1.0000
     1.0000   1.0000   1.0000   1.0000   1.0000   1.0000   0.0000   0.0000
     0.0000   0.0000   0.0000   0.0000

          k = 0.0000 0.4000 0.4000 (  3512 PWs)   bands (ev):

   -67.7318 -67.7193 -34.0674 -34.0399 -33.8197 -33.7915 -33.6958 -33.6672
    13.7519  14.3562  16.1474  16.3023  17.2249  17.3820  18.8603  19.1104
    19.5108  19.8510  20.1635  20.7123

     occupation numbers 
     1.0000   1.0000   1.0000   1.0000   1.0000   1.0000   1.0000   1.0000
     1.0000   1.0000   1.0000   1.0000   0.9999   0.9834   0.0000   0.0000
     0.0000   0.0000   0.0000   0.0000

          k = 0.0000 0.4000-0.5000 (  3502 PWs)   bands (ev):

   -67.7250 -67.7250 -34.0658 -34.0658 -33.8050 -33.8050 -33.6746 -33.6746
    14.0761  14.0761  16.1319  16.1319  17.6188  17.6188  19.0659  19.0659
    19.8472  19.8472  20.0947  20.0947

     occupation numbers 
     1.0000   1.0000   1.0000   1.0000   1.0000   1.0000   1.0000   1.0000
     1.0000   1.0000   1.0000   1.0000   0.3700   0.3700   0.0000   0.0000
     0.0000   0.0000   0.0000   0.0000

          k = 0.0000-0.5000-0.5000 (  3532 PWs)   bands (ev):

   -67.7246 -67.7246 -34.0785 -34.0785 -33.8045 -33.8045 -33.6672 -33.6672
    14.0685  14.0685  16.0377  16.0377  18.1163  18.1163  19.1492  19.1492
    19.5494  19.5494  20.1919  20.1919

     occupation numbers 
     1.0000   1.0000   1.0000   1.0000   1.0000   1.0000   1.0000   1.0000
     1.0000   1.0000   1.0000   1.0000   0.0000   0.0000   0.0000   0.0000
     0.0000   0.0000   0.0000   0.0000

          k = 0.1000 0.1000 0.1000 (  3548 PWs)   bands (ev):

   -67.7893 -67.6770 -33.9654 -33.9654 -33.9099 -33.7315 -33.6744 -33.6744
     9.9803  14.9836  14.9836  17.1284  17.1284  17.6871  18.8670  19.2232
    19.2232  19.7112  19.7112  26.8804

     occupation numbers 
     1.0000   1.0000   1.0000   1.0000   1.0000   1.0000   1.0000   1.0000
     1.0000   1.0000   1.0000   1.0000   1.0000   0.1487   0.0000   0.0000
     0.0000   0.0000   0.0000   0.0000

          k = 0.1000 0.1000 0.2000 (  3529 PWs)   bands (ev):

   -67.7797 -67.6842 -33.9801 -33.9426 -33.8751 -33.7790 -33.6950 -33.6770
    10.5591  15.1311  15.2430  16.9862  17.0633  17.9891  18.2622  18.9717
    19.2127  19.3673  19.7666  24.8186

     occupation numbers 
     1.0000   1.0000   1.0000   1.0000   1.0000   1.0000   1.0000   1.0000
     1.0000   1.0000   1.0000   1.0000   1.0000   0.0000   0.0000   0.0000
     0.0000   0.0000   0.0000   0.0000

          k = 0.1000 0.1000 0.3000 (  3537 PWs)   bands (ev):

   -67.7651 -67.6957 -33.9828 -33.9074 -33.8363 -33.8360 -33.7274 -33.6933
    11.4653  15.1308  15.6421  16.9319  16.9772  17.7484  18.3491  18.6043
    18.6739  19.5559  19.6252  22.7373

     occupation numbers 
     1.0000   1.0000   1.0000   1.0000   1.0000   1.0000   1.0000   1.0000
     1.0000   1.0000   1.0000   1.0000   1.0000   0.0465   0.0000   0.0000
     0.0000   0.0000   0.0000   0.0000

          k = 0.1000 0.1000 0.4000 (  3505 PWs)   bands (ev):

   -67.7474 -67.7109 -33.9696 -33.8922 -33.8636 -33.7957 -33.7689 -33.7208
    12.5946  14.6876  16.1211  16.8478  17.0012  17.4241  18.2394  18.2597
    18.7412  19.3800  19.7860  21.1520

     occupation numbers 
     1.0000   1.0000   1.0000   1.0000   1.0000   1.0000   1.0000   1.0000
     1.0000   1.0000   1.0000   1.0000   1.0000   0.9547   0.0000   0.0000
     0.0000   0.0000   0.0000   0.0000

          k = 0.1000 0.1000-0.5000 (  3500 PWs)   bands (ev):

   -67.7287 -67.7287 -33.9388 -33.9388 -33.8158 -33.8158 -33.7561 -33.7561
    13.7607  13.7607  16.5688  16.5688  17.1863  17.1863  18.0876  18.0876
    19.0970  19.0970  20.2159  20.2159

     occupation numbers 
     1.0000   1.0000   1.0000   1.0000   1.0000   1.0000   1.0000   1.0000
     1.0000   1.0000   1.0000   1.0000   1.0000   1.0000   0.0000   0.0000
     0.0000   0.0000   0.0000   0.0000

          k = 0.1000 0.2000 0.2000 (  3532 PWs)   bands (ev):

   -67.7713 -67.6901 -33.9939 -33.9338 -33.8353 -33.8299 -33.7079 -33.6750
    11.1096  15.3221  15.4186  16.7795  16.9227  17.6530  18.3794  18.9911
    19.0406  19.3136  19.7945  24.9614

     occupation numbers 
     1.0000   1.0000   1.0000   1.0000   1.0000   1.0000   1.0000   1.0000
     1.0000   1.0000   1.0000   1.0000   1.0000   0.2460   0.0000   0.0000
     0.0000   0.0000   0.0000   0.0000

          k = 0.1000 0.2000 0.3000 (  3530 PWs)   bands (ev):

   -67.7587 -67.6996 -34.0063 -33.9028 -33.8877 -33.7952 -33.7362 -33.6809
    11.9589  15.2765  15.7613  16.6309  16.8025  17.2103  18.6392  18.8063
    18.8717  19.4670  19.7701  23.2114

     occupation numbers 
     1.0000   1.0000   1.0000   1.0000   1.0000   1.0000   1.0000   1.0000
     1.0000   1.0000   1.0000   1.0000   1.0000   1.0000   0.0000   0.0000
     0.0000   0.0000   0.0000   0.0000

          k = 0.1000 0.2000 0.4000 (  3501 PWs)   bands (ev):

   -67.7434 -67.7124 -34.0035 -33.9411 -33.8620 -33.7740 -33.7574 -33.6978
    12.9880  14.8267  16.1217  16.5562  16.7442  16.9857  18.4691  18.6254
    19.2191  19.6192  19.7459  21.5175

     occupation numbers 
     1.0000   1.0000   1.0000   1.0000   1.0000   1.0000   1.0000   1.0000
     1.0000   1.0000   1.0000   1.0000   1.0000   1.0000   0.0000   0.0000
     0.0000   0.0000   0.0000   0.0000

          k = 0.1000 0.2000-0.5000 (  3504 PWs)   bands (ev):

   -67.7274 -67.7274 -33.9815 -33.9815 -33.8174 -33.8174 -33.7242 -33.7242
    14.0117  14.0117  16.4058  16.4058  16.8284  16.8284  18.4807  18.4807
    19.4449  19.4449  20.3729  20.3729

     occupation numbers 
     1.0000   1.0000   1.0000   1.0000   1.0000   1.0000   1.0000   1.0000
     1.0000   1.0000   1.0000   1.0000   1.0000   1.0000   0.0000   0.0000
     0.0000   0.0000   0.0000   0.0000

          k = 0.1000 0.3000 0.3000 (  3512 PWs)   bands (ev):

   -67.7490 -67.7061 -34.0289 -33.9440 -33.8801 -33.7566 -33.7556 -33.6759
    12.6851  15.1249  16.1391  16.3928  16.7170  16.7941  18.5894  19.0358
    19.3122  19.4202  19.8752  23.0026

     occupation numbers 
     1.0000   1.0000   1.0000   1.0000   1.0000   1.0000   1.0000   1.0000
     1.0000   1.0000   1.0000   1.0000   1.0000   1.0000   0.0000   0.0000
     0.0000   0.0000   0.0000   0.0000

          k = 0.1000 0.3000 0.4000 (  3505 PWs)   bands (ev):

   -67.7376 -67.7150 -34.0372 -33.9927 -33.8488 -33.7826 -33.7237 -33.6818
    13.4873  14.7390  16.2808  16.4079  16.6499  16.7628  18.6993  18.9748
    19.5087  19.8131  19.8611  21.7322

     occupation numbers 
     1.0000   1.0000   1.0000   1.0000   1.0000   1.0000   1.0000   1.0000
     1.0000   1.0000   1.0000   1.0000   1.0000   1.0000   0.0000   0.0000
     0.0000   0.0000   0.0000   0.0000

          k = 0.1000 0.3000-0.5000 (  3504 PWs)   bands (ev):

   -67.7258 -67.7258 -34.0253 -34.0253 -33.8148 -33.8148 -33.6982 -33.6982
    14.1939  14.1939  16.3007  16.3007  16.8044  16.8044  18.8573  18.8573
    19.6449  19.6449  20.5902  20.5902

     occupation numbers 
     1.0000   1.0000   1.0000   1.0000   1.0000   1.0000   1.0000   1.0000
     1.0000   1.0000   1.0000   1.0000   1.0000   1.0000   0.0000   0.0000
     0.0000   0.0000   0.0000   0.0000

          k = 0.1000 0.4000 0.4000 (  3514 PWs)   bands (ev):

   -67.7310 -67.7191 -34.0572 -34.0340 -33.8306 -33.7953 -33.6982 -33.6766
    13.9143  14.4952  16.1050  16.2274  17.0722  17.1047  18.9341  19.1391
    19.5144  19.8266  20.2531  21.3905

     occupation numbers 
     1.0000   1.0000   1.0000   1.0000   1.0000   1.0000   1.0000   1.0000
     1.0000   1.0000   1.0000   1.0000   1.0000   1.0000   0.0000   0.0000
     0.0000   0.0000   0.0000   0.0000

          k = 0.1000 0.4000-0.5000 (  3510 PWs)   bands (ev):

   -67.7246 -67.7246 -34.0566 -34.0566 -33.8118 -33.8118 -33.6822 -33.6822
    14.2255  14.2255  16.0840  16.0840  17.3513  17.3513  19.1027  19.1027
    19.6403  19.6403  20.7384  20.7384

     occupation numbers 
     1.0000   1.0000   1.0000   1.0000   1.0000   1.0000   1.0000   1.0000
     1.0000   1.0000   1.0000   1.0000   0.9928   0.9928   0.0000   0.0000
     0.0000   0.0000   0.0000   0.0000

          k = 0.1000-0.5000-0.5000 (  3524 PWs)   bands (ev):

   -67.7241 -67.7241 -34.0680 -34.0680 -33.8106 -33.8106 -33.6768 -33.6768
    14.2162  14.2162  15.9998  15.9998  17.7125  17.7125  19.1849  19.1849
    19.5538  19.5538  20.7766  20.7766

     occupation numbers 
     1.0000   1.0000   1.0000   1.0000   1.0000   1.0000   1.0000   1.0000
     1.0000   1.0000   1.0000   1.0000   0.0958   0.0958   0.0000   0.0000
     0.0000   0.0000   0.0000   0.0000

          k = 0.2000 0.2000 0.2000 (  3524 PWs)   bands (ev):

   -67.7640 -67.6949 -33.9689 -33.9689 -33.8720 -33.7972 -33.6977 -33.6977
    11.6422  15.5626  15.5626  16.6550  16.6550  17.0063  18.8238  19.2049
    19.2049  19.3613  19.3613  25.9083

     occupation numbers 
     1.0000   1.0000   1.0000   1.0000   1.0000   1.0000   1.0000   1.0000
     1.0000   1.0000   1.0000   1.0000   1.0000   1.0000   0.0000   0.0000
     0.0000   0.0000   0.0000   0.0000

          k = 0.2000 0.2000 0.3000 (  3527 PWs)   bands (ev):

   -67.7530 -67.7028 -33.9944 -33.9305 -33.9204 -33.7626 -33.7333 -33.6940
    12.4525  15.5852  15.7632  16.4924  16.4932  16.6564  18.9620  19.0367
    19.3059  19.4313  19.5187  23.9035

     occupation numbers 
     1.0000   1.0000   1.0000   1.0000   1.0000   1.0000   1.0000   1.0000
     1.0000   1.0000   1.0000   1.0000   1.0000   1.0000   0.0000   0.0000
     0.0000   0.0000   0.0000   0.0000

          k = 0.2000 0.2000 0.4000 (  3508 PWs)   bands (ev):

   -67.7398 -67.7134 -34.0037 -33.9637 -33.8826 -33.7789 -33.7339 -33.6989
    13.4085  15.0848  15.9723  16.3249  16.5045  16.6966  18.7371  18.8491
    19.4881  19.5314  19.9943  22.1243

     occupation numbers 
     1.0000   1.0000   1.0000   1.0000   1.0000   1.0000   1.0000   1.0000
     1.0000   1.0000   1.0000   1.0000   1.0000   1.0000   0.0000   0.0000
     0.0000   0.0000   0.0000   0.0000

          k = 0.2000 0.2000-0.5000 (  3508 PWs)   bands (ev):

   -67.7262 -67.7261 -33.9932 -33.9932 -33.8303 -33.8303 -33.7123 -33.7123
    14.3289  14.3289  16.1577  16.1577  16.6407  16.6407  18.7180  18.7180
    19.5205  19.5205  20.8482  20.8482

     occupation numbers 
     1.0000   1.0000   1.0000   1.0000   1.0000   1.0000   1.0000   1.0000
     1.0000   1.0000   1.0000   1.0000   1.0000   1.0000   0.0000   0.0000
     0.0000   0.0000   0.0000   0.0000

          k = 0.2000 0.3000 0.3000 (  3515 PWs)   bands (ev):

   -67.7446 -67.7081 -34.0014 -33.9593 -33.9201 -33.7499 -33.7355 -33.7011
    13.1714  15.4804  16.0894  16.2642  16.3045  16.3660  18.9727  19.1710
    19.3983  19.5176  19.8944  24.0031

     occupation numbers 
     1.0000   1.0000   1.0000   1.0000   1.0000   1.0000   1.0000   1.0000
     1.0000   1.0000   1.0000   1.0000   1.0000   1.0000   0.0000   0.0000
     0.0000   0.0000   0.0000   0.0000

          k = 0.2000 0.3000 0.4000 (  3508 PWs)   bands (ev):

   -67.7347 -67.7155 -34.0142 -33.9928 -33.8807 -33.7872 -33.7166 -33.7018
    13.9427  15.0875  16.1002  16.1364  16.3829  16.4838  18.9523  19.1063
    19.5100  19.5578  20.5256  22.6489

     occupation numbers 
     1.0000   1.0000   1.0000   1.0000   1.0000   1.0000   1.0000   1.0000
     1.0000   1.0000   1.0000   1.0000   1.0000   1.0000   0.0000   0.0000
     0.0000   0.0000   0.0000   0.0000

          k = 0.2000 0.3000-0.5000 (  3500 PWs)   bands (ev):

   -67.7246 -67.7246 -34.0124 -34.0124 -33.8334 -33.8334 -33.7058 -33.7058
    14.5869  14.5869  16.0808  16.0808  16.5198  16.5198  19.0092  19.0092
    19.5588  19.5588  21.3875  21.3875

     occupation numbers 
     1.0000   1.0000   1.0000   1.0000   1.0000   1.0000   1.0000   1.0000
     1.0000   1.0000   1.0000   1.0000   1.0000   1.0000   0.0000   0.0000
     0.0000   0.0000   0.0000   0.0000

          k = 0.2000 0.4000 0.4000 (  3513 PWs)   bands (ev):

   -67.7288 -67.7188 -34.0276 -34.0178 -33.8584 -33.8037 -33.7075 -33.7038
    14.3674  14.8650  15.9989  16.0578  16.5796  16.7119  19.1143  19.2413
    19.5218  19.5858  21.1109  22.5534

     occupation numbers 
     1.0000   1.0000   1.0000   1.0000   1.0000   1.0000   1.0000   1.0000
     1.0000   1.0000   1.0000   1.0000   1.0000   1.0000   0.0000   0.0000
     0.0000   0.0000   0.0000   0.0000

          k = 0.2000 0.4000-0.5000 (  3514 PWs)   bands (ev):

   -67.7233 -67.7233 -34.0304 -34.0304 -33.8293 -33.8293 -33.7045 -33.7045
    14.6339  14.6339  15.9685  15.9685  16.8222  16.8222  19.2169  19.2169
    19.5668  19.5668  21.8132  21.8132

     occupation numbers 
     1.0000   1.0000   1.0000   1.0000   1.0000   1.0000   1.0000   1.0000
     1.0000   1.0000   1.0000   1.0000   1.0000   1.0000   0.0000   0.0000
     0.0000   0.0000   0.0000   0.0000

          k = 0.2000-0.5000-0.5000 (  3516 PWs)   bands (ev):

   -67.7228 -67.7228 -34.0376 -34.0376 -33.8266 -33.8266 -33.7049 -33.7049
    14.6212  14.6212  15.9060  15.9060  17.0455  17.0455  19.2835  19.2835
    19.5653  19.5653  21.9842  21.9842

     occupation numbers 
     1.0000   1.0000   1.0000   1.0000   1.0000   1.0000   1.0000   1.0000
     1.0000   1.0000   1.0000   1.0000   1.0000   1.0000   0.0000   0.0000
     0.0000   0.0000   0.0000   0.0000

          k = 0.3000 0.3000 0.3000 (  3512 PWs)   bands (ev):

   -67.7380 -67.7115 -33.9789 -33.9590 -33.9590 -33.7407 -33.7407 -33.7215
    13.8641  15.7374  16.0141  16.0141  16.1094  16.1094  19.2776  19.2776
    19.3522  19.3522  20.5598  25.2866

     occupation numbers 
     1.0000   1.0000   1.0000   1.0000   1.0000   1.0000   1.0000   1.0000
     1.0000   1.0000   1.0000   1.0000   1.0000   1.0000   0.0000   0.0000
     0.0000   0.0000   0.0000   0.0000

          k = 0.3000 0.3000 0.4000 (  3517 PWs)   bands (ev):

   -67.7305 -67.7165 -33.9946 -33.9868 -33.9061 -33.7913 -33.7299 -33.7171
    14.5479  15.3754  15.9457  15.9846  16.0882  16.2819  19.1933  19.2841
    19.4615  19.5021  21.2892  23.6210

     occupation numbers 
     1.0000   1.0000   1.0000   1.0000   1.0000   1.0000   1.0000   1.0000
     1.0000   1.0000   1.0000   1.0000   1.0000   1.0000   0.0000   0.0000
     0.0000   0.0000   0.0000   0.0000

          k = 0.3000 0.3000-0.5000 (  3516 PWs)   bands (ev):

   -67.7230 -67.7230 -33.9988 -33.9988 -33.8482 -33.8482 -33.7208 -33.7208
    15.0190  15.0190  15.9275  15.9275  16.2647  16.2647  19.2161  19.2161
    19.5412  19.5412  22.2480  22.2480

     occupation numbers 
     1.0000   1.0000   1.0000   1.0000   1.0000   1.0000   1.0000   1.0000
     1.0000   1.0000   1.0000   1.0000   1.0000   1.0000   0.0000   0.0000
     0.0000   0.0000   0.0000   0.0000

          k = 0.3000 0.4000 0.4000 (  3508 PWs)   bands (ev):

   -67.7259 -67.7186 -33.9960 -33.9820 -33.8927 -33.8085 -33.7467 -33.7261
    15.0002  15.2963  15.8813  15.9321  16.1037  16.3220  19.3226  19.3879
    19.5023  19.5258  22.0926  23.9493

     occupation numbers 
     1.0000   1.0000   1.0000   1.0000   1.0000   1.0000   1.0000   1.0000
     1.0000   1.0000   1.0000   1.0000   1.0000   1.0000   0.0000   0.0000
     0.0000   0.0000   0.0000   0.0000

          k = 0.3000 0.4000-0.5000 (  3508 PWs)   bands (ev):

   -67.7218 -67.7218 -33.9919 -33.9919 -33.8498 -33.8498 -33.7393 -33.7393
    15.1681  15.1681  15.8588  15.8588  16.3304  16.3304  19.3728  19.3728
    19.5568  19.5568  23.0348  23.0348

     occupation numbers 
     1.0000   1.0000   1.0000   1.0000   1.0000   1.0000   1.0000   1.0000
     1.0000   1.0000   1.0000   1.0000   1.0000   1.0000   0.0000   0.0000
     0.0000   0.0000   0.0000   0.0000

          k = 0.3000-0.5000-0.5000 (  3488 PWs)   bands (ev):

   -67.7213 -67.7213 -33.9907 -33.9907 -33.8463 -33.8463 -33.7489 -33.7489
    15.1643  15.1643  15.8072  15.8072  16.4739  16.4739  19.4183  19.4183
    19.5795  19.5796  23.4494  23.4494

     occupation numbers 
     1.0000   1.0000   1.0000   1.0000   1.0000   1.0000   1.0000   1.0000
     1.0000   1.0000   1.0000   1.0000   1.0000   1.0000   0.0000   0.0000
     0.0000   0.0000   0.0000   0.0000

          k = 0.4000 0.4000 0.4000 (  3512 PWs)   bands (ev):

   -67.7229 -67.7191 -33.9737 -33.9250 -33.9250 -33.8013 -33.8013 -33.7523
    15.4872  15.5753  15.8143  15.8143  16.0195  16.0195  19.4919  19.4919
    19.5205  19.5205  23.1134  25.5238

     occupation numbers 
     1.0000   1.0000   1.0000   1.0000   1.0000   1.0000   1.0000   1.0000
     1.0000   1.0000   1.0000   1.0000   1.0000   1.0000   0.0000   0.0000
     0.0000   0.0000   0.0000   0.0000

          k = 0.4000 0.4000-0.5000 (  3514 PWs)   bands (ev):

   -67.7205 -67.7205 -33.9515 -33.9515 -33.8627 -33.8627 -33.7803 -33.7803
    15.5506  15.5506  15.8502  15.8502  16.0272  16.0272  19.5059  19.5059
    19.5674  19.5674  24.2594  24.2594

     occupation numbers 
     1.0000   1.0000   1.0000   1.0000   1.0000   1.0000   1.0000   1.0000
     1.0000   1.0000   1.0000   1.0000   1.0000   1.0000   0.0000   0.0000
     0.0000   0.0000   0.0000   0.0000

          k = 0.4000-0.5000-0.5000 (  3500 PWs)   bands (ev):

   -67.7200 -67.7200 -33.9323 -33.9323 -33.8622 -33.8622 -33.8051 -33.8051
    15.6452  15.6452  15.7664  15.7664  16.0696  16.0696  19.5428  19.5428
    19.5911  19.5911  25.0856  25.0856

     occupation numbers 
     1.0000   1.0000   1.0000   1.0000   1.0000   1.0000   1.0000   1.0000
     1.0000   1.0000   1.0000   1.0000   1.0000   1.0000   0.0000   0.0000
     0.0000   0.0000   0.0000   0.0000

          k =-0.5000-0.5000-0.5000 (  3544 PWs)   bands (ev):

   -67.7196 -67.7196 -33.8683 -33.8683 -33.8683 -33.8683 -33.8683 -33.8683
    15.8403  15.8403  15.8403  15.8403  15.8403  15.8403  19.5955  19.5955
    19.5955  19.5955  26.8579  26.8579

     occupation numbers 
     1.0000   1.0000   1.0000   1.0000   1.0000   1.0000   1.0000   1.0000
     1.0000   1.0000   1.0000   1.0000   1.0000   1.0000   0.0000   0.0000
     0.0000   0.0000   0.0000   0.0000

     the Fermi energy is    17.5868 ev

!    total energy              =    -658.54151675 Ry
     total all-electron energy =     -5091.134583 Ry
     estimated scf accuracy    <          2.0E-10 Ry
     smearing contrib. (-TS)   =      -0.00132652 Ry
     internal energy E=F+TS    =    -658.54019023 Ry

     The total energy is F=E-TS. E is the sum of the following terms:
     one-electron contribution =    -225.21117417 Ry
     hartree contribution      =     132.13142277 Ry
     xc contribution           =     -55.48324349 Ry
     ewald contribution        =    -344.39296900 Ry
     one-center paw contrib.   =    -165.58422633 Ry
      -> PAW hartree energy AE =     182.97566019 Ry
      -> PAW hartree energy PS =    -181.67774615 Ry
      -> PAW xc energy AE      =    -110.16059269 Ry
      -> PAW xc energy PS      =      26.07056538 Ry
      -> total E_H with PAW    =     133.42933681 Ry
      -> total E_XC with PAW   =    -139.57327081 Ry

     total magnetization       =     4.43 Bohr mag/cell
     absolute magnetization    =     4.70 Bohr mag/cell

     convergence has been achieved in   6 iterations

     Writing all to output data dir ./out/Fe.save/ :
     XML data file, charge density, pseudopotentials, collected wavefunctions

     init_run     :      1.63s CPU      1.84s WALL (       1 calls)
     electrons    :     43.61s CPU     44.46s WALL (       1 calls)

     Called by init_run:
     wfcinit      :      0.40s CPU      0.49s WALL (       1 calls)
     potinit      :      0.55s CPU      0.59s WALL (       1 calls)
     hinit0       :      0.40s CPU      0.40s WALL (       1 calls)

     Called by electrons:
     c_bands      :     33.74s CPU     34.25s WALL (       7 calls)
     sum_band     :      6.68s CPU      6.79s WALL (       7 calls)
     v_of_rho     :      0.48s CPU      0.51s WALL (       7 calls)
     v_h          :      0.02s CPU      0.03s WALL (       7 calls)
     v_xc         :      0.45s CPU      0.48s WALL (       7 calls)
     newd         :      0.94s CPU      0.97s WALL (       7 calls)
     PAW_pot      :      2.16s CPU      2.27s WALL (       7 calls)
     mix_rho      :      0.05s CPU      0.05s WALL (       7 calls)

     Called by c_bands:
     init_us_2    :      0.47s CPU      0.48s WALL (    1568 calls)
     cegterg      :     32.60s CPU     33.09s WALL (     784 calls)

     Called by sum_band:
     sum_band:wei :      0.02s CPU      0.02s WALL (       7 calls)
     sum_band:loo :      5.26s CPU      5.33s WALL (       7 calls)
     sum_band:buf :      0.07s CPU      0.07s WALL (     784 calls)
     sum_band:ini :      0.21s CPU      0.22s WALL (     784 calls)
     sum_band:cal :      0.82s CPU      0.84s WALL (     784 calls)
     sum_band:bec :      0.03s CPU      0.03s WALL (     784 calls)
     addusdens    :      1.29s CPU      1.32s WALL (       7 calls)
                                        0.00s GPU  (       7 calls)
     addusd:skk   :      0.00s CPU      0.00s WALL (       7 calls)
                                        0.00s GPU  (       7 calls)

     Called by *egterg:
     cdiaghg      :      1.70s CPU      1.72s WALL (    1994 calls)
     cegterg:over :      2.60s CPU      2.66s WALL (    1434 calls)
     cegterg:upda :      1.08s CPU      1.08s WALL (    1434 calls)
     cegterg:last :      2.43s CPU      2.44s WALL (    1366 calls)
     h_psi        :     21.18s CPU     21.50s WALL (    2218 calls)
     s_psi        :      1.66s CPU      1.69s WALL (    2218 calls)
     g_psi        :      0.17s CPU      0.17s WALL (    1434 calls)

     Called by h_psi:
     h_psi:calbec :      2.25s CPU      2.30s WALL (    2218 calls)
     vloc_psi     :     17.09s CPU     17.33s WALL (    2218 calls)
     add_vuspsi   :      1.67s CPU      1.70s WALL (    2218 calls)

     General routines
     calbec       :      3.06s CPU      3.13s WALL (    3002 calls)
     fft          :      0.46s CPU      0.47s WALL (     171 calls)
     ffts         :      0.18s CPU      0.18s WALL (      28 calls)
     fftw         :     14.96s CPU     15.15s WALL (   89090 calls)
     interpolate  :      0.20s CPU      0.20s WALL (      14 calls)

     Parallel routines

     PAW routines
     PAW_pot      :      2.16s CPU      2.27s WALL (       7 calls)
     PAW_symme    :      0.02s CPU      0.02s WALL (      13 calls)

     PWSCF        :     45.90s CPU     47.60s WALL


   This run was terminated on:  18:15: 2  15Apr2024            

=------------------------------------------------------------------------------=
   JOB DONE.
=------------------------------------------------------------------------------=
