### Running on host: unam-asus

     Program PWSCF v.7.3.1 starts on 15Apr2024 at 18:15:48 

     This program is part of the open-source Quantum ESPRESSO suite
     for quantum simulation of materials; please cite
         "P. Giannozzi et al., J. Phys.:Condens. Matter 21 395502 (2009);
         "P. Giannozzi et al., J. Phys.:Condens. Matter 29 465901 (2017);
         "P. Giannozzi et al., J. Chem. Phys. 152 154105 (2020);
          URL http://www.quantum-espresso.org", 
     in publications or presentations arising from this work. More details at
     http://www.quantum-espresso.org/quote

     Parallel version (MPI), running on    10 processors

     MPI processes distributed on     1 nodes
     1008 MiB available memory on the printing compute node when the environment starts

     Reading input from scf.140.in

     Current dimensions of program PWSCF are:
     Max number of different atomic species (ntypx) = 10
     Max number of k-points (npk) =  40000
     Max angular momentum in pseudopotentials (lmaxx) =  4
     file Fe.pbe-spn-kjpaw_psl.1.0.0.UPF: wavefunction(s)  3P 3D renormalized
     Found identity + ( -0.5000 -0.5000 -0.5000) symmetry
     This is a supercell, fractional translations are disabled
     Message from routine setup:
     using ibrav=0 with symmetry is DISCOURAGED, use correct ibrav instead

     R & G space division:  proc/nbgrp/npool/nimage =      10
     Subspace diagonalization in iterative solution of the eigenvalue problem:
     a serial algorithm will be used


     Parallelization info
     --------------------
     sticks:   dense  smooth     PW     G-vecs:    dense   smooth      PW
     Min         251     130     38                 9461     3548     569
     Max         253     131     39                 9462     3553     570
     Sum        2521    1305    385                94617    35513    5695

     Using Slab Decomposition



     bravais-lattice index     =            0
     lattice parameter (alat)  =       5.4104  a.u.
     unit-cell volume          =     158.3714 (a.u.)^3
     number of atoms/cell      =            2
     number of atomic types    =            1
     number of electrons       =        32.00
     number of Kohn-Sham states=           20
     kinetic-energy cutoff     =     140.0000  Ry
     charge density cutoff     =    1080.0000  Ry
     scf convergence threshold =      4.0E-10
     mixing beta               =       0.4000
     number of iterations used =            8  plain     mixing
     Exchange-correlation= SLA  PW   PBX  PBC
                           (   1   4   3   4   0   0   0)

     celldm(1)=   5.410353  celldm(2)=   0.000000  celldm(3)=   0.000000
     celldm(4)=   0.000000  celldm(5)=   0.000000  celldm(6)=   0.000000

     crystal axes: (cart. coord. in units of alat)
               a(1) = (   1.000000   0.000000   0.000000 )  
               a(2) = (   0.000000   1.000000   0.000000 )  
               a(3) = (   0.000000   0.000000   1.000000 )  

     reciprocal axes: (cart. coord. in units 2 pi/alat)
               b(1) = (  1.000000  0.000000  0.000000 )  
               b(2) = (  0.000000  1.000000  0.000000 )  
               b(3) = (  0.000000  0.000000  1.000000 )  


     PseudoPot. # 1 for Fe read from file:
     /home/abdul/git_repo/ZnS/pseudo/QE/Fe.pbe-spn-kjpaw_psl.1.0.0.UPF
     MD5 check sum: fc81f059e5c5069939230b1155715ae8
     Pseudo is Projector augmented-wave + core cor, Zval = 16.0
     Generated using &quot;atomic&quot; code by A. Dal Corso  v.6.3
     Shape of augmentation charge: PSQ
     Using radial grid of 1191 points,  6 beta functions with: 
                l(1) =   0
                l(2) =   0
                l(3) =   1
                l(4) =   1
                l(5) =   2
                l(6) =   2
     Q(r) pseudized with 0 coefficients 


     atomic species   valence    mass     pseudopotential
     Fe               16.00    55.84500     Fe( 1.00)

     Starting magnetic structure 
     atomic species   magnetization
     Fe              0.312

     48 Sym. Ops., with inversion, found


                                    s                        frac. trans.

      isym =  1     identity                                     

 cryst.   s( 1) = (     1          0          0      )
                  (     0          1          0      )
                  (     0          0          1      )

 cart.    s( 1) = (  1.0000000  0.0000000  0.0000000 )
                  (  0.0000000  1.0000000  0.0000000 )
                  (  0.0000000  0.0000000  1.0000000 )


      isym =  2     180 deg rotation - cart. axis [0,0,1]        

 cryst.   s( 2) = (    -1          0          0      )
                  (     0         -1          0      )
                  (     0          0          1      )

 cart.    s( 2) = ( -1.0000000  0.0000000  0.0000000 )
                  (  0.0000000 -1.0000000  0.0000000 )
                  (  0.0000000  0.0000000  1.0000000 )


      isym =  3     180 deg rotation - cart. axis [0,1,0]        

 cryst.   s( 3) = (    -1          0          0      )
                  (     0          1          0      )
                  (     0          0         -1      )

 cart.    s( 3) = ( -1.0000000  0.0000000  0.0000000 )
                  (  0.0000000  1.0000000  0.0000000 )
                  (  0.0000000  0.0000000 -1.0000000 )


      isym =  4     180 deg rotation - cart. axis [1,0,0]        

 cryst.   s( 4) = (     1          0          0      )
                  (     0         -1          0      )
                  (     0          0         -1      )

 cart.    s( 4) = (  1.0000000  0.0000000  0.0000000 )
                  (  0.0000000 -1.0000000  0.0000000 )
                  (  0.0000000  0.0000000 -1.0000000 )


      isym =  5     180 deg rotation - cart. axis [1,1,0]        

 cryst.   s( 5) = (     0          1          0      )
                  (     1          0          0      )
                  (     0          0         -1      )

 cart.    s( 5) = (  0.0000000  1.0000000  0.0000000 )
                  (  1.0000000  0.0000000  0.0000000 )
                  (  0.0000000  0.0000000 -1.0000000 )


      isym =  6     180 deg rotation - cart. axis [1,-1,0]       

 cryst.   s( 6) = (     0         -1          0      )
                  (    -1          0          0      )
                  (     0          0         -1      )

 cart.    s( 6) = (  0.0000000 -1.0000000  0.0000000 )
                  ( -1.0000000  0.0000000  0.0000000 )
                  (  0.0000000  0.0000000 -1.0000000 )


      isym =  7      90 deg rotation - cart. axis [0,0,-1]       

 cryst.   s( 7) = (     0         -1          0      )
                  (     1          0          0      )
                  (     0          0          1      )

 cart.    s( 7) = (  0.0000000  1.0000000  0.0000000 )
                  ( -1.0000000  0.0000000  0.0000000 )
                  (  0.0000000  0.0000000  1.0000000 )


      isym =  8      90 deg rotation - cart. axis [0,0,1]        

 cryst.   s( 8) = (     0          1          0      )
                  (    -1          0          0      )
                  (     0          0          1      )

 cart.    s( 8) = (  0.0000000 -1.0000000  0.0000000 )
                  (  1.0000000  0.0000000  0.0000000 )
                  (  0.0000000  0.0000000  1.0000000 )


      isym =  9     180 deg rotation - cart. axis [1,0,1]        

 cryst.   s( 9) = (     0          0          1      )
                  (     0         -1          0      )
                  (     1          0          0      )

 cart.    s( 9) = (  0.0000000  0.0000000  1.0000000 )
                  (  0.0000000 -1.0000000  0.0000000 )
                  (  1.0000000  0.0000000  0.0000000 )


      isym = 10     180 deg rotation - cart. axis [-1,0,1]       

 cryst.   s(10) = (     0          0         -1      )
                  (     0         -1          0      )
                  (    -1          0          0      )

 cart.    s(10) = (  0.0000000  0.0000000 -1.0000000 )
                  (  0.0000000 -1.0000000  0.0000000 )
                  ( -1.0000000  0.0000000  0.0000000 )


      isym = 11      90 deg rotation - cart. axis [0,1,0]        

 cryst.   s(11) = (     0          0         -1      )
                  (     0          1          0      )
                  (     1          0          0      )

 cart.    s(11) = (  0.0000000  0.0000000  1.0000000 )
                  (  0.0000000  1.0000000  0.0000000 )
                  ( -1.0000000  0.0000000  0.0000000 )


      isym = 12      90 deg rotation - cart. axis [0,-1,0]       

 cryst.   s(12) = (     0          0          1      )
                  (     0          1          0      )
                  (    -1          0          0      )

 cart.    s(12) = (  0.0000000  0.0000000 -1.0000000 )
                  (  0.0000000  1.0000000  0.0000000 )
                  (  1.0000000  0.0000000  0.0000000 )


      isym = 13     180 deg rotation - cart. axis [0,1,1]        

 cryst.   s(13) = (    -1          0          0      )
                  (     0          0          1      )
                  (     0          1          0      )

 cart.    s(13) = ( -1.0000000  0.0000000  0.0000000 )
                  (  0.0000000  0.0000000  1.0000000 )
                  (  0.0000000  1.0000000  0.0000000 )


      isym = 14     180 deg rotation - cart. axis [0,1,-1]       

 cryst.   s(14) = (    -1          0          0      )
                  (     0          0         -1      )
                  (     0         -1          0      )

 cart.    s(14) = ( -1.0000000  0.0000000  0.0000000 )
                  (  0.0000000  0.0000000 -1.0000000 )
                  (  0.0000000 -1.0000000  0.0000000 )


      isym = 15      90 deg rotation - cart. axis [-1,0,0]       

 cryst.   s(15) = (     1          0          0      )
                  (     0          0         -1      )
                  (     0          1          0      )

 cart.    s(15) = (  1.0000000  0.0000000  0.0000000 )
                  (  0.0000000  0.0000000  1.0000000 )
                  (  0.0000000 -1.0000000  0.0000000 )


      isym = 16      90 deg rotation - cart. axis [1,0,0]        

 cryst.   s(16) = (     1          0          0      )
                  (     0          0          1      )
                  (     0         -1          0      )

 cart.    s(16) = (  1.0000000  0.0000000  0.0000000 )
                  (  0.0000000  0.0000000 -1.0000000 )
                  (  0.0000000  1.0000000  0.0000000 )


      isym = 17     120 deg rotation - cart. axis [-1,-1,-1]     

 cryst.   s(17) = (     0          0          1      )
                  (     1          0          0      )
                  (     0          1          0      )

 cart.    s(17) = (  0.0000000  1.0000000  0.0000000 )
                  (  0.0000000  0.0000000  1.0000000 )
                  (  1.0000000  0.0000000  0.0000000 )


      isym = 18     120 deg rotation - cart. axis [-1,1,1]       

 cryst.   s(18) = (     0          0         -1      )
                  (    -1          0          0      )
                  (     0          1          0      )

 cart.    s(18) = (  0.0000000 -1.0000000  0.0000000 )
                  (  0.0000000  0.0000000  1.0000000 )
                  ( -1.0000000  0.0000000  0.0000000 )


      isym = 19     120 deg rotation - cart. axis [1,1,-1]       

 cryst.   s(19) = (     0          0         -1      )
                  (     1          0          0      )
                  (     0         -1          0      )

 cart.    s(19) = (  0.0000000  1.0000000  0.0000000 )
                  (  0.0000000  0.0000000 -1.0000000 )
                  ( -1.0000000  0.0000000  0.0000000 )


      isym = 20     120 deg rotation - cart. axis [1,-1,1]       

 cryst.   s(20) = (     0          0          1      )
                  (    -1          0          0      )
                  (     0         -1          0      )

 cart.    s(20) = (  0.0000000 -1.0000000  0.0000000 )
                  (  0.0000000  0.0000000 -1.0000000 )
                  (  1.0000000  0.0000000  0.0000000 )


      isym = 21     120 deg rotation - cart. axis [1,1,1]        

 cryst.   s(21) = (     0          1          0      )
                  (     0          0          1      )
                  (     1          0          0      )

 cart.    s(21) = (  0.0000000  0.0000000  1.0000000 )
                  (  1.0000000  0.0000000  0.0000000 )
                  (  0.0000000  1.0000000  0.0000000 )


      isym = 22     120 deg rotation - cart. axis [-1,1,-1]      

 cryst.   s(22) = (     0         -1          0      )
                  (     0          0         -1      )
                  (     1          0          0      )

 cart.    s(22) = (  0.0000000  0.0000000  1.0000000 )
                  ( -1.0000000  0.0000000  0.0000000 )
                  (  0.0000000 -1.0000000  0.0000000 )


      isym = 23     120 deg rotation - cart. axis [1,-1,-1]      

 cryst.   s(23) = (     0         -1          0      )
                  (     0          0          1      )
                  (    -1          0          0      )

 cart.    s(23) = (  0.0000000  0.0000000 -1.0000000 )
                  ( -1.0000000  0.0000000  0.0000000 )
                  (  0.0000000  1.0000000  0.0000000 )


      isym = 24     120 deg rotation - cart. axis [-1,-1,1]      

 cryst.   s(24) = (     0          1          0      )
                  (     0          0         -1      )
                  (    -1          0          0      )

 cart.    s(24) = (  0.0000000  0.0000000 -1.0000000 )
                  (  1.0000000  0.0000000  0.0000000 )
                  (  0.0000000 -1.0000000  0.0000000 )


      isym = 25     inversion                                    

 cryst.   s(25) = (    -1          0          0      )
                  (     0         -1          0      )
                  (     0          0         -1      )

 cart.    s(25) = ( -1.0000000  0.0000000  0.0000000 )
                  (  0.0000000 -1.0000000  0.0000000 )
                  (  0.0000000  0.0000000 -1.0000000 )


      isym = 26     inv. 180 deg rotation - cart. axis [0,0,1]   

 cryst.   s(26) = (     1          0          0      )
                  (     0          1          0      )
                  (     0          0         -1      )

 cart.    s(26) = (  1.0000000  0.0000000  0.0000000 )
                  (  0.0000000  1.0000000  0.0000000 )
                  (  0.0000000  0.0000000 -1.0000000 )


      isym = 27     inv. 180 deg rotation - cart. axis [0,1,0]   

 cryst.   s(27) = (     1          0          0      )
                  (     0         -1          0      )
                  (     0          0          1      )

 cart.    s(27) = (  1.0000000  0.0000000  0.0000000 )
                  (  0.0000000 -1.0000000  0.0000000 )
                  (  0.0000000  0.0000000  1.0000000 )


      isym = 28     inv. 180 deg rotation - cart. axis [1,0,0]   

 cryst.   s(28) = (    -1          0          0      )
                  (     0          1          0      )
                  (     0          0          1      )

 cart.    s(28) = ( -1.0000000  0.0000000  0.0000000 )
                  (  0.0000000  1.0000000  0.0000000 )
                  (  0.0000000  0.0000000  1.0000000 )


      isym = 29     inv. 180 deg rotation - cart. axis [1,1,0]   

 cryst.   s(29) = (     0         -1          0      )
                  (    -1          0          0      )
                  (     0          0          1      )

 cart.    s(29) = (  0.0000000 -1.0000000  0.0000000 )
                  ( -1.0000000  0.0000000  0.0000000 )
                  (  0.0000000  0.0000000  1.0000000 )


      isym = 30     inv. 180 deg rotation - cart. axis [1,-1,0]  

 cryst.   s(30) = (     0          1          0      )
                  (     1          0          0      )
                  (     0          0          1      )

 cart.    s(30) = (  0.0000000  1.0000000  0.0000000 )
                  (  1.0000000  0.0000000  0.0000000 )
                  (  0.0000000  0.0000000  1.0000000 )


      isym = 31     inv.  90 deg rotation - cart. axis [0,0,-1]  

 cryst.   s(31) = (     0          1          0      )
                  (    -1          0          0      )
                  (     0          0         -1      )

 cart.    s(31) = (  0.0000000 -1.0000000  0.0000000 )
                  (  1.0000000  0.0000000  0.0000000 )
                  (  0.0000000  0.0000000 -1.0000000 )


      isym = 32     inv.  90 deg rotation - cart. axis [0,0,1]   

 cryst.   s(32) = (     0         -1          0      )
                  (     1          0          0      )
                  (     0          0         -1      )

 cart.    s(32) = (  0.0000000  1.0000000  0.0000000 )
                  ( -1.0000000  0.0000000  0.0000000 )
                  (  0.0000000  0.0000000 -1.0000000 )


      isym = 33     inv. 180 deg rotation - cart. axis [1,0,1]   

 cryst.   s(33) = (     0          0         -1      )
                  (     0          1          0      )
                  (    -1          0          0      )

 cart.    s(33) = (  0.0000000  0.0000000 -1.0000000 )
                  (  0.0000000  1.0000000  0.0000000 )
                  ( -1.0000000  0.0000000  0.0000000 )


      isym = 34     inv. 180 deg rotation - cart. axis [-1,0,1]  

 cryst.   s(34) = (     0          0          1      )
                  (     0          1          0      )
                  (     1          0          0      )

 cart.    s(34) = (  0.0000000  0.0000000  1.0000000 )
                  (  0.0000000  1.0000000  0.0000000 )
                  (  1.0000000  0.0000000  0.0000000 )


      isym = 35     inv.  90 deg rotation - cart. axis [0,1,0]   

 cryst.   s(35) = (     0          0          1      )
                  (     0         -1          0      )
                  (    -1          0          0      )

 cart.    s(35) = (  0.0000000  0.0000000 -1.0000000 )
                  (  0.0000000 -1.0000000  0.0000000 )
                  (  1.0000000  0.0000000  0.0000000 )


      isym = 36     inv.  90 deg rotation - cart. axis [0,-1,0]  

 cryst.   s(36) = (     0          0         -1      )
                  (     0         -1          0      )
                  (     1          0          0      )

 cart.    s(36) = (  0.0000000  0.0000000  1.0000000 )
                  (  0.0000000 -1.0000000  0.0000000 )
                  ( -1.0000000  0.0000000  0.0000000 )


      isym = 37     inv. 180 deg rotation - cart. axis [0,1,1]   

 cryst.   s(37) = (     1          0          0      )
                  (     0          0         -1      )
                  (     0         -1          0      )

 cart.    s(37) = (  1.0000000  0.0000000  0.0000000 )
                  (  0.0000000  0.0000000 -1.0000000 )
                  (  0.0000000 -1.0000000  0.0000000 )


      isym = 38     inv. 180 deg rotation - cart. axis [0,1,-1]  

 cryst.   s(38) = (     1          0          0      )
                  (     0          0          1      )
                  (     0          1          0      )

 cart.    s(38) = (  1.0000000  0.0000000  0.0000000 )
                  (  0.0000000  0.0000000  1.0000000 )
                  (  0.0000000  1.0000000  0.0000000 )


      isym = 39     inv.  90 deg rotation - cart. axis [-1,0,0]  

 cryst.   s(39) = (    -1          0          0      )
                  (     0          0          1      )
                  (     0         -1          0      )

 cart.    s(39) = ( -1.0000000  0.0000000  0.0000000 )
                  (  0.0000000  0.0000000 -1.0000000 )
                  (  0.0000000  1.0000000  0.0000000 )


      isym = 40     inv.  90 deg rotation - cart. axis [1,0,0]   

 cryst.   s(40) = (    -1          0          0      )
                  (     0          0         -1      )
                  (     0          1          0      )

 cart.    s(40) = ( -1.0000000  0.0000000  0.0000000 )
                  (  0.0000000  0.0000000  1.0000000 )
                  (  0.0000000 -1.0000000  0.0000000 )


      isym = 41     inv. 120 deg rotation - cart. axis [-1,-1,-1]

 cryst.   s(41) = (     0          0         -1      )
                  (    -1          0          0      )
                  (     0         -1          0      )

 cart.    s(41) = (  0.0000000 -1.0000000  0.0000000 )
                  (  0.0000000  0.0000000 -1.0000000 )
                  ( -1.0000000  0.0000000  0.0000000 )


      isym = 42     inv. 120 deg rotation - cart. axis [-1,1,1]  

 cryst.   s(42) = (     0          0          1      )
                  (     1          0          0      )
                  (     0         -1          0      )

 cart.    s(42) = (  0.0000000  1.0000000  0.0000000 )
                  (  0.0000000  0.0000000 -1.0000000 )
                  (  1.0000000  0.0000000  0.0000000 )


      isym = 43     inv. 120 deg rotation - cart. axis [1,1,-1]  

 cryst.   s(43) = (     0          0          1      )
                  (    -1          0          0      )
                  (     0          1          0      )

 cart.    s(43) = (  0.0000000 -1.0000000  0.0000000 )
                  (  0.0000000  0.0000000  1.0000000 )
                  (  1.0000000  0.0000000  0.0000000 )


      isym = 44     inv. 120 deg rotation - cart. axis [1,-1,1]  

 cryst.   s(44) = (     0          0         -1      )
                  (     1          0          0      )
                  (     0          1          0      )

 cart.    s(44) = (  0.0000000  1.0000000  0.0000000 )
                  (  0.0000000  0.0000000  1.0000000 )
                  ( -1.0000000  0.0000000  0.0000000 )


      isym = 45     inv. 120 deg rotation - cart. axis [1,1,1]   

 cryst.   s(45) = (     0         -1          0      )
                  (     0          0         -1      )
                  (    -1          0          0      )

 cart.    s(45) = (  0.0000000  0.0000000 -1.0000000 )
                  ( -1.0000000  0.0000000  0.0000000 )
                  (  0.0000000 -1.0000000  0.0000000 )


      isym = 46     inv. 120 deg rotation - cart. axis [-1,1,-1] 

 cryst.   s(46) = (     0          1          0      )
                  (     0          0          1      )
                  (    -1          0          0      )

 cart.    s(46) = (  0.0000000  0.0000000 -1.0000000 )
                  (  1.0000000  0.0000000  0.0000000 )
                  (  0.0000000  1.0000000  0.0000000 )


      isym = 47     inv. 120 deg rotation - cart. axis [1,-1,-1] 

 cryst.   s(47) = (     0          1          0      )
                  (     0          0         -1      )
                  (     1          0          0      )

 cart.    s(47) = (  0.0000000  0.0000000  1.0000000 )
                  (  1.0000000  0.0000000  0.0000000 )
                  (  0.0000000 -1.0000000  0.0000000 )


      isym = 48     inv. 120 deg rotation - cart. axis [-1,-1,1] 

 cryst.   s(48) = (     0         -1          0      )
                  (     0          0          1      )
                  (     1          0          0      )

 cart.    s(48) = (  0.0000000  0.0000000  1.0000000 )
                  ( -1.0000000  0.0000000  0.0000000 )
                  (  0.0000000  1.0000000  0.0000000 )


   Cartesian axes

     site n.     atom                  positions (alat units)
         1        Fe     tau(   1) = (   0.0000000   0.0000000   0.0000000  )
         2        Fe     tau(   2) = (   0.5000000   0.5000000   0.5000000  )

   Crystallographic axes

     site n.     atom                  positions (cryst. coord.)
         1        Fe     tau(   1) = (  0.0000000  0.0000000  0.0000000  )
         2        Fe     tau(   2) = (  0.5000000  0.5000000  0.5000000  )

     number of k points=    56  Gaussian smearing, width (Ry)=  0.0100
                       cart. coord. in units 2pi/alat
        k(    1) = (   0.0000000   0.0000000   0.0000000), wk =   0.0010000
        k(    2) = (   0.0000000   0.0000000   0.1000000), wk =   0.0060000
        k(    3) = (   0.0000000   0.0000000   0.2000000), wk =   0.0060000
        k(    4) = (   0.0000000   0.0000000   0.3000000), wk =   0.0060000
        k(    5) = (   0.0000000   0.0000000   0.4000000), wk =   0.0060000
        k(    6) = (   0.0000000   0.0000000  -0.5000000), wk =   0.0030000
        k(    7) = (   0.0000000   0.1000000   0.1000000), wk =   0.0120000
        k(    8) = (   0.0000000   0.1000000   0.2000000), wk =   0.0240000
        k(    9) = (   0.0000000   0.1000000   0.3000000), wk =   0.0240000
        k(   10) = (   0.0000000   0.1000000   0.4000000), wk =   0.0240000
        k(   11) = (   0.0000000   0.1000000  -0.5000000), wk =   0.0120000
        k(   12) = (   0.0000000   0.2000000   0.2000000), wk =   0.0120000
        k(   13) = (   0.0000000   0.2000000   0.3000000), wk =   0.0240000
        k(   14) = (   0.0000000   0.2000000   0.4000000), wk =   0.0240000
        k(   15) = (   0.0000000   0.2000000  -0.5000000), wk =   0.0120000
        k(   16) = (   0.0000000   0.3000000   0.3000000), wk =   0.0120000
        k(   17) = (   0.0000000   0.3000000   0.4000000), wk =   0.0240000
        k(   18) = (   0.0000000   0.3000000  -0.5000000), wk =   0.0120000
        k(   19) = (   0.0000000   0.4000000   0.4000000), wk =   0.0120000
        k(   20) = (   0.0000000   0.4000000  -0.5000000), wk =   0.0120000
        k(   21) = (   0.0000000  -0.5000000  -0.5000000), wk =   0.0030000
        k(   22) = (   0.1000000   0.1000000   0.1000000), wk =   0.0080000
        k(   23) = (   0.1000000   0.1000000   0.2000000), wk =   0.0240000
        k(   24) = (   0.1000000   0.1000000   0.3000000), wk =   0.0240000
        k(   25) = (   0.1000000   0.1000000   0.4000000), wk =   0.0240000
        k(   26) = (   0.1000000   0.1000000  -0.5000000), wk =   0.0120000
        k(   27) = (   0.1000000   0.2000000   0.2000000), wk =   0.0240000
        k(   28) = (   0.1000000   0.2000000   0.3000000), wk =   0.0480000
        k(   29) = (   0.1000000   0.2000000   0.4000000), wk =   0.0480000
        k(   30) = (   0.1000000   0.2000000  -0.5000000), wk =   0.0240000
        k(   31) = (   0.1000000   0.3000000   0.3000000), wk =   0.0240000
        k(   32) = (   0.1000000   0.3000000   0.4000000), wk =   0.0480000
        k(   33) = (   0.1000000   0.3000000  -0.5000000), wk =   0.0240000
        k(   34) = (   0.1000000   0.4000000   0.4000000), wk =   0.0240000
        k(   35) = (   0.1000000   0.4000000  -0.5000000), wk =   0.0240000
        k(   36) = (   0.1000000  -0.5000000  -0.5000000), wk =   0.0060000
        k(   37) = (   0.2000000   0.2000000   0.2000000), wk =   0.0080000
        k(   38) = (   0.2000000   0.2000000   0.3000000), wk =   0.0240000
        k(   39) = (   0.2000000   0.2000000   0.4000000), wk =   0.0240000
        k(   40) = (   0.2000000   0.2000000  -0.5000000), wk =   0.0120000
        k(   41) = (   0.2000000   0.3000000   0.3000000), wk =   0.0240000
        k(   42) = (   0.2000000   0.3000000   0.4000000), wk =   0.0480000
        k(   43) = (   0.2000000   0.3000000  -0.5000000), wk =   0.0240000
        k(   44) = (   0.2000000   0.4000000   0.4000000), wk =   0.0240000
        k(   45) = (   0.2000000   0.4000000  -0.5000000), wk =   0.0240000
        k(   46) = (   0.2000000  -0.5000000  -0.5000000), wk =   0.0060000
        k(   47) = (   0.3000000   0.3000000   0.3000000), wk =   0.0080000
        k(   48) = (   0.3000000   0.3000000   0.4000000), wk =   0.0240000
        k(   49) = (   0.3000000   0.3000000  -0.5000000), wk =   0.0120000
        k(   50) = (   0.3000000   0.4000000   0.4000000), wk =   0.0240000
        k(   51) = (   0.3000000   0.4000000  -0.5000000), wk =   0.0240000
        k(   52) = (   0.3000000  -0.5000000  -0.5000000), wk =   0.0060000
        k(   53) = (   0.4000000   0.4000000   0.4000000), wk =   0.0080000
        k(   54) = (   0.4000000   0.4000000  -0.5000000), wk =   0.0120000
        k(   55) = (   0.4000000  -0.5000000  -0.5000000), wk =   0.0060000
        k(   56) = (  -0.5000000  -0.5000000  -0.5000000), wk =   0.0010000

                       cryst. coord.
        k(    1) = (   0.0000000   0.0000000   0.0000000), wk =   0.0010000
        k(    2) = (   0.0000000   0.0000000   0.1000000), wk =   0.0060000
        k(    3) = (   0.0000000   0.0000000   0.2000000), wk =   0.0060000
        k(    4) = (   0.0000000   0.0000000   0.3000000), wk =   0.0060000
        k(    5) = (   0.0000000   0.0000000   0.4000000), wk =   0.0060000
        k(    6) = (   0.0000000   0.0000000  -0.5000000), wk =   0.0030000
        k(    7) = (   0.0000000   0.1000000   0.1000000), wk =   0.0120000
        k(    8) = (   0.0000000   0.1000000   0.2000000), wk =   0.0240000
        k(    9) = (   0.0000000   0.1000000   0.3000000), wk =   0.0240000
        k(   10) = (   0.0000000   0.1000000   0.4000000), wk =   0.0240000
        k(   11) = (   0.0000000   0.1000000  -0.5000000), wk =   0.0120000
        k(   12) = (   0.0000000   0.2000000   0.2000000), wk =   0.0120000
        k(   13) = (   0.0000000   0.2000000   0.3000000), wk =   0.0240000
        k(   14) = (   0.0000000   0.2000000   0.4000000), wk =   0.0240000
        k(   15) = (   0.0000000   0.2000000  -0.5000000), wk =   0.0120000
        k(   16) = (   0.0000000   0.3000000   0.3000000), wk =   0.0120000
        k(   17) = (   0.0000000   0.3000000   0.4000000), wk =   0.0240000
        k(   18) = (   0.0000000   0.3000000  -0.5000000), wk =   0.0120000
        k(   19) = (   0.0000000   0.4000000   0.4000000), wk =   0.0120000
        k(   20) = (   0.0000000   0.4000000  -0.5000000), wk =   0.0120000
        k(   21) = (   0.0000000  -0.5000000  -0.5000000), wk =   0.0030000
        k(   22) = (   0.1000000   0.1000000   0.1000000), wk =   0.0080000
        k(   23) = (   0.1000000   0.1000000   0.2000000), wk =   0.0240000
        k(   24) = (   0.1000000   0.1000000   0.3000000), wk =   0.0240000
        k(   25) = (   0.1000000   0.1000000   0.4000000), wk =   0.0240000
        k(   26) = (   0.1000000   0.1000000  -0.5000000), wk =   0.0120000
        k(   27) = (   0.1000000   0.2000000   0.2000000), wk =   0.0240000
        k(   28) = (   0.1000000   0.2000000   0.3000000), wk =   0.0480000
        k(   29) = (   0.1000000   0.2000000   0.4000000), wk =   0.0480000
        k(   30) = (   0.1000000   0.2000000  -0.5000000), wk =   0.0240000
        k(   31) = (   0.1000000   0.3000000   0.3000000), wk =   0.0240000
        k(   32) = (   0.1000000   0.3000000   0.4000000), wk =   0.0480000
        k(   33) = (   0.1000000   0.3000000  -0.5000000), wk =   0.0240000
        k(   34) = (   0.1000000   0.4000000   0.4000000), wk =   0.0240000
        k(   35) = (   0.1000000   0.4000000  -0.5000000), wk =   0.0240000
        k(   36) = (   0.1000000  -0.5000000  -0.5000000), wk =   0.0060000
        k(   37) = (   0.2000000   0.2000000   0.2000000), wk =   0.0080000
        k(   38) = (   0.2000000   0.2000000   0.3000000), wk =   0.0240000
        k(   39) = (   0.2000000   0.2000000   0.4000000), wk =   0.0240000
        k(   40) = (   0.2000000   0.2000000  -0.5000000), wk =   0.0120000
        k(   41) = (   0.2000000   0.3000000   0.3000000), wk =   0.0240000
        k(   42) = (   0.2000000   0.3000000   0.4000000), wk =   0.0480000
        k(   43) = (   0.2000000   0.3000000  -0.5000000), wk =   0.0240000
        k(   44) = (   0.2000000   0.4000000   0.4000000), wk =   0.0240000
        k(   45) = (   0.2000000   0.4000000  -0.5000000), wk =   0.0240000
        k(   46) = (   0.2000000  -0.5000000  -0.5000000), wk =   0.0060000
        k(   47) = (   0.3000000   0.3000000   0.3000000), wk =   0.0080000
        k(   48) = (   0.3000000   0.3000000   0.4000000), wk =   0.0240000
        k(   49) = (   0.3000000   0.3000000  -0.5000000), wk =   0.0120000
        k(   50) = (   0.3000000   0.4000000   0.4000000), wk =   0.0240000
        k(   51) = (   0.3000000   0.4000000  -0.5000000), wk =   0.0240000
        k(   52) = (   0.3000000  -0.5000000  -0.5000000), wk =   0.0060000
        k(   53) = (   0.4000000   0.4000000   0.4000000), wk =   0.0080000
        k(   54) = (   0.4000000   0.4000000  -0.5000000), wk =   0.0120000
        k(   55) = (   0.4000000  -0.5000000  -0.5000000), wk =   0.0060000
        k(   56) = (  -0.5000000  -0.5000000  -0.5000000), wk =   0.0010000

     Dense  grid:    94617 G-vectors     FFT dimensions: (  60,  60,  60)

     Smooth grid:    35513 G-vectors     FFT dimensions: (  45,  45,  45)

     Dynamical RAM for                 wfc:       0.14 MB

     Dynamical RAM for     wfc (w. buffer):      15.28 MB

     Dynamical RAM for           str. fact:       0.14 MB

     Dynamical RAM for           local pot:       0.00 MB

     Dynamical RAM for          nlocal pot:       0.24 MB

     Dynamical RAM for                qrad:       2.64 MB

     Dynamical RAM for          rho,v,vnew:       1.86 MB

     Dynamical RAM for               rhoin:       0.62 MB

     Dynamical RAM for            rho*nmix:       4.62 MB

     Dynamical RAM for           G-vectors:       0.57 MB

     Dynamical RAM for          h,s,v(r/c):       0.07 MB

     Dynamical RAM for          <psi|beta>:       0.01 MB

     Dynamical RAM for                 psi:       0.27 MB

     Dynamical RAM for                hpsi:       0.27 MB

     Dynamical RAM for                spsi:       0.27 MB

     Dynamical RAM for      wfcinit/wfcrot:       0.28 MB

     Dynamical RAM for           addusdens:      27.29 MB

     Estimated static dynamical RAM per process >      22.62 MB

     Estimated max dynamical RAM per process >      54.53 MB

     Estimated total dynamical RAM >     545.27 MB
     Generating pointlists ...
     new r_m :   0.3572 (alat units)  1.9328 (a.u.) for type    1

     The initial density is read from file :
     ./out/Fe.save/charge-density


     negative rho (up, down):  0.000E+00 9.657E-05
     Starting wfcs from file
     Checking if some PAW data can be deallocated... 

     total cpu time spent up to now is        2.0 secs

     Self-consistent Calculation

     iteration #  1     ecut=   140.00 Ry     beta= 0.40
     Davidson diagonalization with overlap

---- Real-time Memory Report at c_bands before calling an iterative solver
            73 MiB given to the printing process from OS
             0 MiB allocation reported by mallinfo(arena+hblkhd)
           657 MiB available memory on the node where the printing process lives
------------------
     ethr =  1.00E-05,  avg # of iterations =  2.0

     Threshold (ethr) on eigenvalues was too large:
     Diagonalizing with lowered threshold

     Davidson diagonalization with overlap

---- Real-time Memory Report at c_bands before calling an iterative solver
            92 MiB given to the printing process from OS
             0 MiB allocation reported by mallinfo(arena+hblkhd)
           383 MiB available memory on the node where the printing process lives
------------------
     ethr =  5.73E-10,  avg # of iterations =  2.8

     negative rho (up, down):  0.000E+00 9.627E-05

     total cpu time spent up to now is       21.6 secs

     total energy              =    -658.54245491 Ry
     estimated scf accuracy    <       0.00000019 Ry

     total magnetization       =     4.43 Bohr mag/cell
     absolute magnetization    =     4.70 Bohr mag/cell

     iteration #  2     ecut=   140.00 Ry     beta= 0.40
     Davidson diagonalization with overlap

---- Real-time Memory Report at c_bands before calling an iterative solver
            94 MiB given to the printing process from OS
             0 MiB allocation reported by mallinfo(arena+hblkhd)
           360 MiB available memory on the node where the printing process lives
------------------
     ethr =  5.87E-10,  avg # of iterations =  2.4

     negative rho (up, down):  0.000E+00 9.625E-05

     total cpu time spent up to now is       29.6 secs

     total energy              =    -658.54245472 Ry
     estimated scf accuracy    <       0.00000286 Ry

     total magnetization       =     4.43 Bohr mag/cell
     absolute magnetization    =     4.70 Bohr mag/cell

     iteration #  3     ecut=   140.00 Ry     beta= 0.40
     Davidson diagonalization with overlap

---- Real-time Memory Report at c_bands before calling an iterative solver
            94 MiB given to the printing process from OS
             0 MiB allocation reported by mallinfo(arena+hblkhd)
           355 MiB available memory on the node where the printing process lives
------------------
     ethr =  5.87E-10,  avg # of iterations =  2.0

     negative rho (up, down):  0.000E+00 9.584E-05

     total cpu time spent up to now is       38.4 secs

     total energy              =    -658.54245516 Ry
     estimated scf accuracy    <       0.00000007 Ry

     total magnetization       =     4.43 Bohr mag/cell
     absolute magnetization    =     4.70 Bohr mag/cell

     iteration #  4     ecut=   140.00 Ry     beta= 0.40
     Davidson diagonalization with overlap

---- Real-time Memory Report at c_bands before calling an iterative solver
            94 MiB given to the printing process from OS
             0 MiB allocation reported by mallinfo(arena+hblkhd)
           407 MiB available memory on the node where the printing process lives
------------------
     ethr =  2.13E-10,  avg # of iterations =  2.0

     negative rho (up, down):  0.000E+00 9.581E-05

     total cpu time spent up to now is       48.0 secs

     total energy              =    -658.54245517 Ry
     estimated scf accuracy    <          4.2E-09 Ry

     total magnetization       =     4.43 Bohr mag/cell
     absolute magnetization    =     4.69 Bohr mag/cell

     iteration #  5     ecut=   140.00 Ry     beta= 0.40
     Davidson diagonalization with overlap

---- Real-time Memory Report at c_bands before calling an iterative solver
            95 MiB given to the printing process from OS
             0 MiB allocation reported by mallinfo(arena+hblkhd)
           365 MiB available memory on the node where the printing process lives
------------------
     ethr =  1.33E-11,  avg # of iterations =  1.7

     negative rho (up, down):  0.000E+00 9.580E-05

     total cpu time spent up to now is       56.1 secs

     total energy              =    -658.54245517 Ry
     estimated scf accuracy    <          4.2E-10 Ry

     total magnetization       =     4.43 Bohr mag/cell
     absolute magnetization    =     4.69 Bohr mag/cell

     iteration #  6     ecut=   140.00 Ry     beta= 0.40
     Davidson diagonalization with overlap

---- Real-time Memory Report at c_bands before calling an iterative solver
            95 MiB given to the printing process from OS
             0 MiB allocation reported by mallinfo(arena+hblkhd)
           373 MiB available memory on the node where the printing process lives
------------------
     ethr =  1.32E-12,  avg # of iterations =  1.9

     negative rho (up, down):  0.000E+00 9.579E-05

     Magnetic moment per site  (integrated on atomic sphere of radius R)
     atom   1 (R=0.357)  charge= 14.4176  magn=  2.2725
     atom   2 (R=0.357)  charge= 14.4176  magn=  2.2725

     total cpu time spent up to now is       63.9 secs

     End of self-consistent calculation

 ------ SPIN UP ------------


          k = 0.0000 0.0000 0.0000 (  4385 PWs)   bands (ev):

   -70.4800 -70.3603 -36.5681 -36.5681 -36.5681 -36.3012 -36.3012 -36.3012
     9.2422  12.8886  12.8886  15.3435  15.3435  15.3435  16.4927  16.4927
    17.6722  17.6722  17.6722  27.1978

     occupation numbers 
     1.0000   1.0000   1.0000   1.0000   1.0000   1.0000   1.0000   1.0000
     1.0000   1.0000   1.0000   1.0000   1.0000   1.0000   1.0000   1.0000
     0.1867   0.1867   0.1867   0.0000

          k = 0.0000 0.0000 0.1000 (  4429 PWs)   bands (ev):

   -70.4767 -70.3629 -36.5670 -36.5612 -36.5612 -36.3133 -36.3074 -36.3074
     9.4449  12.9734  12.9744  15.3422  15.3422  15.3978  16.4041  16.5275
    17.5068  17.5068  17.6127  25.8759

     occupation numbers 
     1.0000   1.0000   1.0000   1.0000   1.0000   1.0000   1.0000   1.0000
     1.0000   1.0000   1.0000   1.0000   1.0000   1.0000   1.0000   1.0000
     0.7966   0.7966   0.3930   0.0000

          k = 0.0000 0.0000 0.2000 (  4428 PWs)   bands (ev):

   -70.4671 -70.3703 -36.5623 -36.5413 -36.5413 -36.3467 -36.3254 -36.3254
    10.0346  13.1942  13.2210  15.3507  15.3507  15.5564  16.1460  16.6270
    17.0936  17.0936  17.4406  23.4507

     occupation numbers 
     1.0000   1.0000   1.0000   1.0000   1.0000   1.0000   1.0000   1.0000
     1.0000   1.0000   1.0000   1.0000   1.0000   1.0000   1.0000   1.0000
     1.0000   1.0000   0.9354   0.0000

          k = 0.0000 0.0000 0.3000 (  4432 PWs)   bands (ev):

   -70.4525 -70.3821 -36.5504 -36.5106 -36.5106 -36.3940 -36.3537 -36.3537
    10.9482  13.4281  13.6109  15.4005  15.4005  15.7419  15.8056  16.5930
    16.5930  16.7911  17.1747  21.0463

     occupation numbers 
     1.0000   1.0000   1.0000   1.0000   1.0000   1.0000   1.0000   1.0000
     1.0000   1.0000   1.0000   1.0000   1.0000   1.0000   1.0000   1.0000
     1.0000   1.0000   1.0000   0.0000

          k = 0.0000 0.0000 0.4000 (  4432 PWs)   bands (ev):

   -70.4347 -70.3977 -36.5276 -36.4725 -36.4725 -36.4455 -36.3900 -36.3900
    12.0381  13.4554  14.1087  15.2315  15.5295  15.5295  16.1234  16.1297
    16.1297  16.8433  17.0800  19.0456

     occupation numbers 
     1.0000   1.0000   1.0000   1.0000   1.0000   1.0000   1.0000   1.0000
     1.0000   1.0000   1.0000   1.0000   1.0000   1.0000   1.0000   1.0000
     1.0000   1.0000   1.0000   0.0000

          k = 0.0000 0.0000-0.5000 (  4436 PWs)   bands (ev):

   -70.4158 -70.4158 -36.4920 -36.4920 -36.4309 -36.4309 -36.4309 -36.4309
    12.9961  12.9961  14.6675  14.6676  15.7687  15.7687  15.7687  15.7687
    16.4807  16.4807  17.7223  17.7223

     occupation numbers 
     1.0000   1.0000   1.0000   1.0000   1.0000   1.0000   1.0000   1.0000
     1.0000   1.0000   1.0000   1.0000   1.0000   1.0000   1.0000   1.0000
     1.0000   1.0000   0.0793   0.0793

          k = 0.0000 0.1000 0.1000 (  4441 PWs)   bands (ev):

   -70.4735 -70.3652 -36.5779 -36.5546 -36.5429 -36.3371 -36.3132 -36.3012
     9.6440  13.0505  13.0647  15.2374  15.3291  15.5546  16.3974  16.5016
    17.2226  17.3422  17.6968  25.9428

     occupation numbers 
     1.0000   1.0000   1.0000   1.0000   1.0000   1.0000   1.0000   1.0000
     1.0000   1.0000   1.0000   1.0000   1.0000   1.0000   1.0000   1.0000
     0.9999   0.9945   0.1261   0.0000

          k = 0.0000 0.1000 0.2000 (  4431 PWs)   bands (ev):

   -70.4643 -70.3722 -36.5831 -36.5356 -36.5148 -36.3788 -36.3303 -36.3089
    10.2219  13.2602  13.3102  15.1636  15.3030  15.7912  16.2156  16.5870
    16.7559  16.9408  17.6343  23.6930

     occupation numbers 
     1.0000   1.0000   1.0000   1.0000   1.0000   1.0000   1.0000   1.0000
     1.0000   1.0000   1.0000   1.0000   1.0000   1.0000   1.0000   1.0000
     1.0000   1.0000   0.3102   0.0000

          k = 0.0000 0.1000 0.3000 (  4431 PWs)   bands (ev):

   -70.4504 -70.3834 -36.5780 -36.5064 -36.4801 -36.4299 -36.3571 -36.3304
    11.1102  13.4910  13.6737  15.1607  15.2614  15.9448  16.0843  16.2532
    16.4850  16.7550  17.4294  21.2680

     occupation numbers 
     1.0000   1.0000   1.0000   1.0000   1.0000   1.0000   1.0000   1.0000
     1.0000   1.0000   1.0000   1.0000   1.0000   1.0000   1.0000   1.0000
     1.0000   1.0000   0.9489   0.0000

          k = 0.0000 0.1000 0.4000 (  4431 PWs)   bands (ev):

   -70.4334 -70.3982 -36.5599 -36.4821 -36.4700 -36.4408 -36.3916 -36.3621
    12.1537  13.5050  14.1307  15.0579  15.2543  15.8059  15.8165  16.1270
    16.4220  17.0604  17.1303  19.2098

     occupation numbers 
     1.0000   1.0000   1.0000   1.0000   1.0000   1.0000   1.0000   1.0000
     1.0000   1.0000   1.0000   1.0000   1.0000   1.0000   1.0000   1.0000
     1.0000   1.0000   1.0000   0.0000

          k = 0.0000 0.1000-0.5000 (  4414 PWs)   bands (ev):

   -70.4154 -70.4154 -36.5273 -36.5272 -36.4304 -36.4304 -36.4002 -36.4002
    13.0568  13.0568  14.6255  14.6256  15.4669  15.4669  15.9159  15.9159
    16.7814  16.7814  17.7806  17.7806

     occupation numbers 
     1.0000   1.0000   1.0000   1.0000   1.0000   1.0000   1.0000   1.0000
     1.0000   1.0000   1.0000   1.0000   1.0000   1.0000   1.0000   1.0000
     1.0000   1.0000   0.0219   0.0219

          k = 0.0000 0.2000 0.2000 (  4419 PWs)   bands (ev):

   -70.4563 -70.3780 -36.6035 -36.5193 -36.4767 -36.4303 -36.3446 -36.3011
    10.7579  13.3902  13.5928  14.9670  15.2250  16.1364  16.2341  16.3091
    16.5328  16.5964  17.7612  23.6993

     occupation numbers 
     1.0000   1.0000   1.0000   1.0000   1.0000   1.0000   1.0000   1.0000
     1.0000   1.0000   1.0000   1.0000   1.0000   1.0000   1.0000   1.0000
     1.0000   1.0000   0.0347   0.0000

          k = 0.0000 0.2000 0.3000 (  4434 PWs)   bands (ev):

   -70.4443 -70.3873 -36.6121 -36.4941 -36.4867 -36.4363 -36.3672 -36.3084
    11.5519  13.5084  13.9826  14.8582  15.1783  15.7258  16.2337  16.2809
    16.5066  16.6588  17.7148  21.7067

     occupation numbers 
     1.0000   1.0000   1.0000   1.0000   1.0000   1.0000   1.0000   1.0000
     1.0000   1.0000   1.0000   1.0000   1.0000   1.0000   1.0000   1.0000
     1.0000   1.0000   0.0913   0.0000

          k = 0.0000 0.2000 0.4000 (  4431 PWs)   bands (ev):

   -70.4297 -70.3997 -36.6050 -36.5392 -36.4630 -36.3962 -36.3961 -36.3288
    12.4161  13.4560  14.3998  14.8673  15.0733  15.3056  16.1547  16.1986
    16.8802  16.9998  17.5232  19.5840

     occupation numbers 
     1.0000   1.0000   1.0000   1.0000   1.0000   1.0000   1.0000   1.0000
     1.0000   1.0000   1.0000   1.0000   1.0000   1.0000   1.0000   1.0000
     1.0000   1.0000   0.7450   0.0000

          k = 0.0000 0.2000-0.5000 (  4428 PWs)   bands (ev):

   -70.4143 -70.4142 -36.5803 -36.5803 -36.4292 -36.4292 -36.3592 -36.3592
    13.0978  13.0978  14.7901  14.7901  15.0145  15.0145  16.1834  16.1834
    17.2308  17.2308  17.9337  17.9337

     occupation numbers 
     1.0000   1.0000   1.0000   1.0000   1.0000   1.0000   1.0000   1.0000
     1.0000   1.0000   1.0000   1.0000   1.0000   1.0000   1.0000   1.0000
     0.9999   0.9999   0.0002   0.0002

          k = 0.0000 0.3000 0.3000 (  4448 PWs)   bands (ev):

   -70.4351 -70.3937 -36.6350 -36.5443 -36.4754 -36.3941 -36.3831 -36.3009
    12.1278  13.4214  14.4669  14.6464  15.2398  15.3491  16.1772  16.4202
    16.5879  16.9256  17.8416  21.4303

     occupation numbers 
     1.0000   1.0000   1.0000   1.0000   1.0000   1.0000   1.0000   1.0000
     1.0000   1.0000   1.0000   1.0000   1.0000   1.0000   1.0000   1.0000
     1.0000   1.0000   0.0040   0.0000

          k = 0.0000 0.3000 0.4000 (  4430 PWs)   bands (ev):

   -70.4242 -70.4024 -36.6411 -36.5935 -36.4524 -36.4039 -36.3569 -36.3078
    12.6323  13.2410  14.5647  14.8645  14.9784  15.5874  16.2463  16.4790
    16.8925  17.3032  17.7972  19.8306

     occupation numbers 
     1.0000   1.0000   1.0000   1.0000   1.0000   1.0000   1.0000   1.0000
     1.0000   1.0000   1.0000   1.0000   1.0000   1.0000   1.0000   1.0000
     1.0000   0.9984   0.0143   0.0000

          k = 0.0000 0.3000-0.5000 (  4416 PWs)   bands (ev):

   -70.4129 -70.4128 -36.6271 -36.6271 -36.4277 -36.4277 -36.3273 -36.3273
    12.9855  12.9855  14.6354  14.6354  15.3995  15.3995  16.4006  16.4006
    17.6058  17.6058  18.0963  18.0963

     occupation numbers 
     1.0000   1.0000   1.0000   1.0000   1.0000   1.0000   1.0000   1.0000
     1.0000   1.0000   1.0000   1.0000   1.0000   1.0000   1.0000   1.0000
     0.4209   0.4209   0.0000   0.0000

          k = 0.0000 0.4000 0.4000 (  4426 PWs)   bands (ev):

   -70.4179 -70.4064 -36.6605 -36.6356 -36.4397 -36.4142 -36.3267 -36.3008
    12.7429  13.0138  14.3969  14.5484  15.6501  16.3847  16.3900  16.6466
    16.8825  17.6380  17.9071  19.3697

     occupation numbers 
     1.0000   1.0000   1.0000   1.0000   1.0000   1.0000   1.0000   1.0000
     1.0000   1.0000   1.0000   1.0000   1.0000   1.0000   1.0000   1.0000
     1.0000   0.2967   0.0004   0.0000

          k = 0.0000 0.4000-0.5000 (  4424 PWs)   bands (ev):

   -70.4117 -70.4117 -36.6589 -36.6589 -36.4265 -36.4265 -36.3075 -36.3075
    12.8472  12.8472  14.3890  14.3890  16.2093  16.2093  16.5293  16.5293
    17.8486  17.8486  18.1274  18.1274

     occupation numbers 
     1.0000   1.0000   1.0000   1.0000   1.0000   1.0000   1.0000   1.0000
     1.0000   1.0000   1.0000   1.0000   1.0000   1.0000   1.0000   1.0000
     0.0032   0.0032   0.0000   0.0000

          k = 0.0000-0.5000-0.5000 (  4468 PWs)   bands (ev):

   -70.4113 -70.4113 -36.6702 -36.6702 -36.4260 -36.4260 -36.3008 -36.3008
    12.7914  12.7914  14.3039  14.3039  16.5596  16.5596  16.6725  16.6726
    17.9322  17.9322  18.0491  18.0491

     occupation numbers 
     1.0000   1.0000   1.0000   1.0000   1.0000   1.0000   1.0000   1.0000
     1.0000   1.0000   1.0000   1.0000   1.0000   1.0000   1.0000   1.0000
     0.0002   0.0002   0.0000   0.0000

          k = 0.1000 0.1000 0.1000 (  4439 PWs)   bands (ev):

   -70.4704 -70.3674 -36.5708 -36.5708 -36.5208 -36.3587 -36.3076 -36.3076
     9.8403  13.1402  13.1402  15.2188  15.2188  15.7156  16.4401  16.4401
    16.8548  17.5317  17.5317  26.2828

     occupation numbers 
     1.0000   1.0000   1.0000   1.0000   1.0000   1.0000   1.0000   1.0000
     1.0000   1.0000   1.0000   1.0000   1.0000   1.0000   1.0000   1.0000
     1.0000   0.7158   0.7158   0.0000

          k = 0.1000 0.1000 0.2000 (  4431 PWs)   bands (ev):

   -70.4616 -70.3740 -36.5836 -36.5502 -36.4893 -36.4014 -36.3263 -36.3099
    10.4081  13.3588  13.3674  15.1075  15.1676  15.9960  16.2691  16.3471
    16.5539  17.1264  17.5697  23.9479

     occupation numbers 
     1.0000   1.0000   1.0000   1.0000   1.0000   1.0000   1.0000   1.0000
     1.0000   1.0000   1.0000   1.0000   1.0000   1.0000   1.0000   1.0000
     1.0000   1.0000   0.5699   0.0000

          k = 0.1000 0.1000 0.3000 (  4443 PWs)   bands (ev):

   -70.4483 -70.3846 -36.5854 -36.5184 -36.4541 -36.4524 -36.3557 -36.3246
    11.2744  13.5963  13.6970  15.0783  15.0928  15.8756  16.0440  16.3288
    16.6504  16.7283  17.4371  21.5089

     occupation numbers 
     1.0000   1.0000   1.0000   1.0000   1.0000   1.0000   1.0000   1.0000
     1.0000   1.0000   1.0000   1.0000   1.0000   1.0000   1.0000   1.0000
     1.0000   1.0000   0.9399   0.0000

          k = 0.1000 0.1000 0.4000 (  4429 PWs)   bands (ev):

   -70.4321 -70.3986 -36.5730 -36.5029 -36.4789 -36.4173 -36.3933 -36.3495
    12.2777  13.5887  14.1133  14.8889  15.1997  15.5584  15.8979  16.2357
    16.6434  17.0913  17.1909  19.4237

     occupation numbers 
     1.0000   1.0000   1.0000   1.0000   1.0000   1.0000   1.0000   1.0000
     1.0000   1.0000   1.0000   1.0000   1.0000   1.0000   1.0000   1.0000
     1.0000   1.0000   1.0000   0.0000

          k = 0.1000 0.1000-0.5000 (  4410 PWs)   bands (ev):

   -70.4150 -70.4149 -36.5449 -36.5449 -36.4357 -36.4357 -36.3815 -36.3814
    13.1373  13.1373  14.5427  14.5428  15.3740  15.3740  15.9644  15.9644
    16.9064  16.9064  17.9278  17.9278

     occupation numbers 
     1.0000   1.0000   1.0000   1.0000   1.0000   1.0000   1.0000   1.0000
     1.0000   1.0000   1.0000   1.0000   1.0000   1.0000   1.0000   1.0000
     1.0000   1.0000   0.0002   0.0002

          k = 0.1000 0.2000 0.2000 (  4428 PWs)   bands (ev):

   -70.4540 -70.3795 -36.5957 -36.5421 -36.4533 -36.4471 -36.3380 -36.3081
    10.9395  13.4982  13.6402  14.9293  15.0641  15.8219  16.3381  16.3709
    16.5130  16.9138  17.5907  24.0362

     occupation numbers 
     1.0000   1.0000   1.0000   1.0000   1.0000   1.0000   1.0000   1.0000
     1.0000   1.0000   1.0000   1.0000   1.0000   1.0000   1.0000   1.0000
     1.0000   1.0000   0.4831   0.0000

          k = 0.1000 0.2000 0.3000 (  4425 PWs)   bands (ev):

   -70.4424 -70.3883 -36.6065 -36.5142 -36.4989 -36.4169 -36.3637 -36.3134
    11.7221  13.6362  13.9896  14.8103  15.0059  15.3948  16.2595  16.5448
    16.6307  16.7935  17.5552  22.0097

     occupation numbers 
     1.0000   1.0000   1.0000   1.0000   1.0000   1.0000   1.0000   1.0000
     1.0000   1.0000   1.0000   1.0000   1.0000   1.0000   1.0000   1.0000
     1.0000   1.0000   0.6281   0.0000

          k = 0.1000 0.2000 0.4000 (  4416 PWs)   bands (ev):

   -70.4285 -70.4000 -36.6035 -36.5469 -36.4774 -36.3979 -36.3826 -36.3287
    12.5630  13.5874  14.3126  14.7296  15.0291  15.1814  16.1857  16.2874
    16.8130  17.3533  17.3735  19.9035

     occupation numbers 
     1.0000   1.0000   1.0000   1.0000   1.0000   1.0000   1.0000   1.0000
     1.0000   1.0000   1.0000   1.0000   1.0000   1.0000   1.0000   1.0000
     1.0000   0.9924   0.9866   0.0000

          k = 0.1000 0.2000-0.5000 (  4430 PWs)   bands (ev):

   -70.4138 -70.4138 -36.5833 -36.5833 -36.4372 -36.4371 -36.3525 -36.3525
    13.2221  13.2221  14.5727  14.5727  15.1014  15.1014  16.1965  16.1965
    17.0864  17.0864  18.3056  18.3056

     occupation numbers 
     1.0000   1.0000   1.0000   1.0000   1.0000   1.0000   1.0000   1.0000
     1.0000   1.0000   1.0000   1.0000   1.0000   1.0000   1.0000   1.0000
     1.0000   1.0000   0.0000   0.0000

          k = 0.1000 0.3000 0.3000 (  4445 PWs)   bands (ev):

   -70.4336 -70.3943 -36.6265 -36.5495 -36.4937 -36.3819 -36.3813 -36.3087
    12.3021  13.5504  14.4656  14.6107  15.0073  15.1127  16.3725  16.4208
    16.5888  17.2622  17.6310  21.8389

     occupation numbers 
     1.0000   1.0000   1.0000   1.0000   1.0000   1.0000   1.0000   1.0000
     1.0000   1.0000   1.0000   1.0000   1.0000   1.0000   1.0000   1.0000
     1.0000   0.9996   0.3224   0.0000

          k = 0.1000 0.3000 0.4000 (  4420 PWs)   bands (ev):

   -70.4232 -70.4025 -36.6336 -36.5932 -36.4656 -36.4058 -36.3521 -36.3141
    12.7934  13.3701  14.5222  14.6884  15.0039  15.3762  16.3400  16.4414
    16.7540  17.5305  17.8189  20.2962

     occupation numbers 
     1.0000   1.0000   1.0000   1.0000   1.0000   1.0000   1.0000   1.0000
     1.0000   1.0000   1.0000   1.0000   1.0000   1.0000   1.0000   1.0000
     1.0000   0.7201   0.0079   0.0000

          k = 0.1000 0.3000-0.5000 (  4414 PWs)   bands (ev):

   -70.4124 -70.4124 -36.6226 -36.6226 -36.4350 -36.4349 -36.3290 -36.3290
    13.1243  13.1243  14.5531  14.5531  15.3400  15.3400  16.4128  16.4128
    17.1963  17.1963  18.7516  18.7516

     occupation numbers 
     1.0000   1.0000   1.0000   1.0000   1.0000   1.0000   1.0000   1.0000
     1.0000   1.0000   1.0000   1.0000   1.0000   1.0000   1.0000   1.0000
     1.0000   1.0000   0.0000   0.0000

          k = 0.1000 0.4000 0.4000 (  4437 PWs)   bands (ev):

   -70.4172 -70.4063 -36.6513 -36.6303 -36.4493 -36.4174 -36.3289 -36.3092
    12.8948  13.1433  14.3728  14.4941  15.5729  16.1183  16.4373  16.5716
    16.6507  17.5050  18.3525  20.0376

     occupation numbers 
     1.0000   1.0000   1.0000   1.0000   1.0000   1.0000   1.0000   1.0000
     1.0000   1.0000   1.0000   1.0000   1.0000   1.0000   1.0000   1.0000
     1.0000   0.8019   0.0000   0.0000

          k = 0.1000 0.4000-0.5000 (  4420 PWs)   bands (ev):

   -70.4113 -70.4113 -36.6507 -36.6507 -36.4324 -36.4324 -36.3143 -36.3143
    12.9851  12.9851  14.3609  14.3609  16.0918  16.0918  16.5402  16.5402
    17.1471  17.1472  19.1194  19.1194

     occupation numbers 
     1.0000   1.0000   1.0000   1.0000   1.0000   1.0000   1.0000   1.0000
     1.0000   1.0000   1.0000   1.0000   1.0000   1.0000   1.0000   1.0000
     1.0000   1.0000   0.0000   0.0000

          k = 0.1000-0.5000-0.5000 (  4456 PWs)   bands (ev):

   -70.4109 -70.4108 -36.6608 -36.6608 -36.4313 -36.4313 -36.3094 -36.3094
    12.9284  12.9284  14.2855  14.2855  16.5768  16.5768  16.6758  16.6758
    16.8916  16.8916  19.2724  19.2724

     occupation numbers 
     1.0000   1.0000   1.0000   1.0000   1.0000   1.0000   1.0000   1.0000
     1.0000   1.0000   1.0000   1.0000   1.0000   1.0000   1.0000   1.0000
     1.0000   1.0000   0.0000   0.0000

          k = 0.2000 0.2000 0.2000 (  4419 PWs)   bands (ev):

   -70.4473 -70.3839 -36.5733 -36.5733 -36.4849 -36.4189 -36.3286 -36.3286
    11.4534  13.7735  13.7735  14.8294  14.8294  15.2832  16.4554  16.4554
    16.8022  17.1963  17.1963  24.9287

     occupation numbers 
     1.0000   1.0000   1.0000   1.0000   1.0000   1.0000   1.0000   1.0000
     1.0000   1.0000   1.0000   1.0000   1.0000   1.0000   1.0000   1.0000
     1.0000   1.0000   1.0000   0.0000

          k = 0.2000 0.2000 0.3000 (  4429 PWs)   bands (ev):

   -70.4373 -70.3912 -36.5958 -36.5386 -36.5284 -36.3875 -36.3608 -36.3252
    12.1891  13.9666  14.0083  14.6954  14.7345  14.9252  16.3728  16.6018
    16.7773  17.2832  17.3148  22.7031

     occupation numbers 
     1.0000   1.0000   1.0000   1.0000   1.0000   1.0000   1.0000   1.0000
     1.0000   1.0000   1.0000   1.0000   1.0000   1.0000   1.0000   1.0000
     1.0000   0.9992   0.9976   0.0000

          k = 0.2000 0.2000 0.4000 (  4413 PWs)   bands (ev):

   -70.4252 -70.4010 -36.6036 -36.5673 -36.4955 -36.4020 -36.3615 -36.3296
    12.9255  13.8517  14.1805  14.5463  14.8574  14.9750  16.3034  16.4652
    16.7631  17.1826  17.9652  20.5954

     occupation numbers 
     1.0000   1.0000   1.0000   1.0000   1.0000   1.0000   1.0000   1.0000
     1.0000   1.0000   1.0000   1.0000   1.0000   1.0000   1.0000   1.0000
     1.0000   1.0000   0.0000   0.0000

          k = 0.2000 0.2000-0.5000 (  4420 PWs)   bands (ev):

   -70.4127 -70.4127 -36.5939 -36.5939 -36.4484 -36.4484 -36.3419 -36.3419
    13.4672  13.4672  14.3781  14.3781  15.0327  15.0327  16.3128  16.3128
    16.9670  16.9670  18.9880  18.9880

     occupation numbers 
     1.0000   1.0000   1.0000   1.0000   1.0000   1.0000   1.0000   1.0000
     1.0000   1.0000   1.0000   1.0000   1.0000   1.0000   1.0000   1.0000
     1.0000   1.0000   0.0000   0.0000

          k = 0.2000 0.3000 0.3000 (  4416 PWs)   bands (ev):

   -70.4296 -70.3961 -36.6018 -36.5634 -36.5292 -36.3758 -36.3630 -36.3315
    12.7875  13.9005  14.4546  14.5217  14.5984  14.6992  16.4820  16.5872
    16.6725  17.2173  17.9191  22.8485

     occupation numbers 
     1.0000   1.0000   1.0000   1.0000   1.0000   1.0000   1.0000   1.0000
     1.0000   1.0000   1.0000   1.0000   1.0000   1.0000   1.0000   1.0000
     1.0000   0.9999   0.0003   0.0000

          k = 0.2000 0.3000 0.4000 (  4433 PWs)   bands (ev):

   -70.4205 -70.4029 -36.6130 -36.5934 -36.4937 -36.4095 -36.3458 -36.3321
    13.2330  13.7015  14.4266  14.4283  14.9236  14.9318  16.4744  16.5261
    16.7011  17.1289  18.6495  21.2776

     occupation numbers 
     1.0000   1.0000   1.0000   1.0000   1.0000   1.0000   1.0000   1.0000
     1.0000   1.0000   1.0000   1.0000   1.0000   1.0000   1.0000   1.0000
     1.0000   1.0000   0.0000   0.0000

          k = 0.2000 0.3000-0.5000 (  4434 PWs)   bands (ev):

   -70.4113 -70.4113 -36.6112 -36.6112 -36.4511 -36.4511 -36.3358 -36.3358
    13.4820  13.4820  14.3953  14.3953  15.1198  15.1198  16.4765  16.4765
    16.9060  16.9060  19.7205  19.7205

     occupation numbers 
     1.0000   1.0000   1.0000   1.0000   1.0000   1.0000   1.0000   1.0000
     1.0000   1.0000   1.0000   1.0000   1.0000   1.0000   1.0000   1.0000
     1.0000   1.0000   0.0000   0.0000

          k = 0.2000 0.4000 0.4000 (  4447 PWs)   bands (ev):

   -70.4152 -70.4060 -36.6248 -36.6158 -36.4737 -36.4245 -36.3373 -36.3338
    13.3154  13.4853  14.3169  14.3854  15.3292  15.4221  16.5555  16.5771
    16.6606  17.0372  19.4231  21.3108

     occupation numbers 
     1.0000   1.0000   1.0000   1.0000   1.0000   1.0000   1.0000   1.0000
     1.0000   1.0000   1.0000   1.0000   1.0000   1.0000   1.0000   1.0000
     1.0000   1.0000   0.0000   0.0000

          k = 0.2000 0.4000-0.5000 (  4434 PWs)   bands (ev):

   -70.4102 -70.4102 -36.6272 -36.6272 -36.4476 -36.4476 -36.3345 -36.3345
    13.3592  13.3592  14.3013  14.3013  15.6422  15.6422  16.5853  16.5853
    16.8039  16.8039  20.3908  20.3908

     occupation numbers 
     1.0000   1.0000   1.0000   1.0000   1.0000   1.0000   1.0000   1.0000
     1.0000   1.0000   1.0000   1.0000   1.0000   1.0000   1.0000   1.0000
     1.0000   1.0000   0.0000   0.0000

          k = 0.2000-0.5000-0.5000 (  4452 PWs)   bands (ev):

   -70.4097 -70.4097 -36.6336 -36.6336 -36.4453 -36.4452 -36.3347 -36.3347
    13.3039  13.3039  14.2457  14.2457  15.9873  15.9873  16.6202  16.6202
    16.6843  16.6843  20.7228  20.7228

     occupation numbers 
     1.0000   1.0000   1.0000   1.0000   1.0000   1.0000   1.0000   1.0000
     1.0000   1.0000   1.0000   1.0000   1.0000   1.0000   1.0000   1.0000
     1.0000   1.0000   0.0000   0.0000

          k = 0.3000 0.3000 0.3000 (  4416 PWs)   bands (ev):

   -70.4236 -70.3993 -36.5810 -36.5637 -36.5637 -36.3672 -36.3672 -36.3503
    13.4243  14.1744  14.4212  14.4212  14.4213  14.4213  16.5775  16.5775
    16.8633  16.8633  18.6721  24.1937

     occupation numbers 
     1.0000   1.0000   1.0000   1.0000   1.0000   1.0000   1.0000   1.0000
     1.0000   1.0000   1.0000   1.0000   1.0000   1.0000   1.0000   1.0000
     1.0000   1.0000   0.0000   0.0000

          k = 0.3000 0.3000 0.4000 (  4435 PWs)   bands (ev):

   -70.4167 -70.4039 -36.5952 -36.5884 -36.5161 -36.4128 -36.3574 -36.3462
    13.7534  13.9307  14.3519  14.3715  14.6035  14.8094  16.5651  16.6561
    16.6768  16.8891  19.5552  22.3645

     occupation numbers 
     1.0000   1.0000   1.0000   1.0000   1.0000   1.0000   1.0000   1.0000
     1.0000   1.0000   1.0000   1.0000   1.0000   1.0000   1.0000   1.0000
     1.0000   1.0000   0.0000   0.0000

          k = 0.3000 0.3000-0.5000 (  4438 PWs)   bands (ev):

   -70.4099 -70.4099 -36.5990 -36.5990 -36.4641 -36.4641 -36.3494 -36.3494
    13.8001  13.8001  14.3374  14.3374  14.9138  14.9138  16.5754  16.5754
    16.7900  16.7900  20.7446  20.7446

     occupation numbers 
     1.0000   1.0000   1.0000   1.0000   1.0000   1.0000   1.0000   1.0000
     1.0000   1.0000   1.0000   1.0000   1.0000   1.0000   1.0000   1.0000
     1.0000   1.0000   0.0000   0.0000

          k = 0.3000 0.4000 0.4000 (  4442 PWs)   bands (ev):

   -70.4126 -70.4058 -36.5964 -36.5839 -36.5040 -36.4284 -36.3724 -36.3541
    13.8536  13.8882  14.2706  14.3840  14.8369  14.9719  16.6329  16.6652
    16.6709  16.8024  20.5566  22.8271

     occupation numbers 
     1.0000   1.0000   1.0000   1.0000   1.0000   1.0000   1.0000   1.0000
     1.0000   1.0000   1.0000   1.0000   1.0000   1.0000   1.0000   1.0000
     1.0000   1.0000   0.0000   0.0000

          k = 0.3000 0.4000-0.5000 (  4452 PWs)   bands (ev):

   -70.4088 -70.4088 -36.5927 -36.5927 -36.4655 -36.4654 -36.3658 -36.3658
    13.8281  13.8281  14.2856  14.2856  15.0984  15.0984  16.6468  16.6468
    16.7265  16.7265  21.7460  21.7460

     occupation numbers 
     1.0000   1.0000   1.0000   1.0000   1.0000   1.0000   1.0000   1.0000
     1.0000   1.0000   1.0000   1.0000   1.0000   1.0000   1.0000   1.0000
     1.0000   1.0000   0.0000   0.0000

          k = 0.3000-0.5000-0.5000 (  4468 PWs)   bands (ev):

   -70.4084 -70.4083 -36.5916 -36.5916 -36.4625 -36.4624 -36.3743 -36.3743
    13.8082  13.8083  14.2246  14.2246  15.2806  15.2806  16.6683  16.6683
    16.6948  16.6948  22.3322  22.3322

     occupation numbers 
     1.0000   1.0000   1.0000   1.0000   1.0000   1.0000   1.0000   1.0000
     1.0000   1.0000   1.0000   1.0000   1.0000   1.0000   1.0000   1.0000
     1.0000   1.0000   0.0000   0.0000

          k = 0.4000 0.4000 0.4000 (  4428 PWs)   bands (ev):

   -70.4099 -70.4063 -36.5764 -36.5327 -36.5327 -36.4215 -36.4215 -36.3776
    13.9922  14.2836  14.2836  14.5618  14.6333  14.6333  16.6786  16.6786
    16.7151  16.7151  21.7597  24.5203

     occupation numbers 
     1.0000   1.0000   1.0000   1.0000   1.0000   1.0000   1.0000   1.0000
     1.0000   1.0000   1.0000   1.0000   1.0000   1.0000   1.0000   1.0000
     1.0000   1.0000   0.0000   0.0000

          k = 0.4000 0.4000-0.5000 (  4444 PWs)   bands (ev):

   -70.4077 -70.4077 -36.5564 -36.5564 -36.4768 -36.4768 -36.4026 -36.4026
    14.1064  14.1064  14.3978  14.3978  14.7521  14.7521  16.6878  16.6878
    16.7076  16.7076  23.1151  23.1151

     occupation numbers 
     1.0000   1.0000   1.0000   1.0000   1.0000   1.0000   1.0000   1.0000
     1.0000   1.0000   1.0000   1.0000   1.0000   1.0000   1.0000   1.0000
     1.0000   1.0000   0.0000   0.0000

          k = 0.4000-0.5000-0.5000 (  4432 PWs)   bands (ev):

   -70.4073 -70.4072 -36.5391 -36.5391 -36.4763 -36.4763 -36.4249 -36.4249
    14.2581  14.2581  14.2738  14.2738  14.7697  14.7697  16.6986  16.6986
    16.7034  16.7034  24.0881  24.0881

     occupation numbers 
     1.0000   1.0000   1.0000   1.0000   1.0000   1.0000   1.0000   1.0000
     1.0000   1.0000   1.0000   1.0000   1.0000   1.0000   1.0000   1.0000
     1.0000   1.0000   0.0000   0.0000

          k =-0.5000-0.5000-0.5000 (  4416 PWs)   bands (ev):

   -70.4068 -70.4068 -36.4816 -36.4816 -36.4816 -36.4816 -36.4816 -36.4816
    14.4426  14.4426  14.4426  14.4426  14.4426  14.4426  16.7066  16.7066
    16.7066  16.7066  25.9783  25.9783

     occupation numbers 
     1.0000   1.0000   1.0000   1.0000   1.0000   1.0000   1.0000   1.0000
     1.0000   1.0000   1.0000   1.0000   1.0000   1.0000   1.0000   1.0000
     1.0000   1.0000   0.0000   0.0000

 ------ SPIN DOWN ----------


          k = 0.0000 0.0000 0.0000 (  4385 PWs)   bands (ev):

   -67.7999 -67.6694 -33.9624 -33.9624 -33.9624 -33.6676 -33.6676 -33.6676
     9.3768  14.7373  14.7373  17.2828  17.2828  17.2828  19.3011  19.3011
    19.8984  19.8984  19.8984  27.4516

     occupation numbers 
     1.0000   1.0000   1.0000   1.0000   1.0000   1.0000   1.0000   1.0000
     1.0000   1.0000   1.0000   0.9992   0.9992   0.9992   0.0000   0.0000
     0.0000   0.0000   0.0000   0.0000

          k = 0.0000 0.0000 0.1000 (  4429 PWs)   bands (ev):

   -67.7962 -67.6721 -33.9615 -33.9548 -33.9548 -33.6812 -33.6744 -33.6744
     9.5807  14.8022  14.8393  17.2737  17.2737  17.3432  19.1835  19.3455
    19.6771  19.6771  19.8308  26.3489

     occupation numbers 
     1.0000   1.0000   1.0000   1.0000   1.0000   1.0000   1.0000   1.0000
     1.0000   1.0000   1.0000   0.9994   0.9994   0.9943   0.0000   0.0000
     0.0000   0.0000   0.0000   0.0000

          k = 0.0000 0.0000 0.2000 (  4428 PWs)   bands (ev):

   -67.7857 -67.6802 -33.9569 -33.9327 -33.9327 -33.7188 -33.6942 -33.6942
    10.1775  14.9353  15.1384  17.2623  17.2623  17.5195  18.8420  19.1519
    19.1519  19.4657  19.6356  24.2493

     occupation numbers 
     1.0000   1.0000   1.0000   1.0000   1.0000   1.0000   1.0000   1.0000
     1.0000   1.0000   1.0000   0.9996   0.9996   0.7574   0.0000   0.0000
     0.0000   0.0000   0.0000   0.0000

          k = 0.0000 0.0000 0.3000 (  4432 PWs)   bands (ev):

   -67.7698 -67.6931 -33.9446 -33.8988 -33.8988 -33.7719 -33.7254 -33.7254
    11.1183  14.9388  15.6137  17.2886  17.2886  17.7970  18.3113  18.5541
    18.5541  19.3345  19.6319  22.2638

     occupation numbers 
     1.0000   1.0000   1.0000   1.0000   1.0000   1.0000   1.0000   1.0000
     1.0000   1.0000   1.0000   0.9990   0.9990   0.0144   0.0000   0.0000
     0.0000   0.0000   0.0000   0.0000

          k = 0.0000 0.0000 0.4000 (  4432 PWs)   bands (ev):

   -67.7504 -67.7101 -33.9201 -33.8565 -33.8565 -33.8294 -33.7654 -33.7654
    12.3047  14.5140  16.2284  17.4014  17.4014  17.6494  18.0298  18.0298
    18.1521  18.9604  19.8314  20.8651

     occupation numbers 
     1.0000   1.0000   1.0000   1.0000   1.0000   1.0000   1.0000   1.0000
     1.0000   1.0000   1.0000   0.9729   0.9729   0.2571   0.0000   0.0000
     0.0000   0.0000   0.0000   0.0000

          k = 0.0000 0.0000-0.5000 (  4436 PWs)   bands (ev):

   -67.7298 -67.7298 -33.8810 -33.8810 -33.8105 -33.8105 -33.8105 -33.8105
    13.5452  13.5452  16.9296  16.9296  17.6417  17.6417  17.6417  17.6417
    18.5525  18.5526  20.1506  20.1506

     occupation numbers 
     1.0000   1.0000   1.0000   1.0000   1.0000   1.0000   1.0000   1.0000
     1.0000   1.0000   1.0000   1.0000   0.2836   0.2836   0.2836   0.2836
     0.0000   0.0000   0.0000   0.0000

          k = 0.0000 0.1000 0.1000 (  4441 PWs)   bands (ev):

   -67.7927 -67.6747 -33.9736 -33.9475 -33.9347 -33.7076 -33.6808 -33.6676
     9.7817  14.8938  14.9111  17.1535  17.2527  17.5143  19.1679  19.3111
    19.3336  19.4591  19.9260  26.4843

     occupation numbers 
     1.0000   1.0000   1.0000   1.0000   1.0000   1.0000   1.0000   1.0000
     1.0000   1.0000   1.0000   1.0000   0.9997   0.7740   0.0000   0.0000
     0.0000   0.0000   0.0000   0.0000

          k = 0.0000 0.1000 0.2000 (  4431 PWs)   bands (ev):

   -67.7827 -67.6823 -33.9798 -33.9264 -33.9038 -33.7542 -33.6995 -33.6762
    10.3689  15.0342  15.1875  17.0560  17.2072  17.7740  18.7704  18.9092
    18.9620  19.4140  19.8510  24.5273

     occupation numbers 
     1.0000   1.0000   1.0000   1.0000   1.0000   1.0000   1.0000   1.0000
     1.0000   1.0000   1.0000   1.0000   1.0000   0.0257   0.0000   0.0000
     0.0000   0.0000   0.0000   0.0000

          k = 0.0000 0.1000 0.3000 (  4431 PWs)   bands (ev):

   -67.7674 -67.6945 -33.9749 -33.8940 -33.8655 -33.8114 -33.7291 -33.7000
    11.2916  15.0291  15.6295  17.0299  17.1658  18.0972  18.1856  18.4566
    18.4823  19.5904  19.6126  22.4865

     occupation numbers 
     1.0000   1.0000   1.0000   1.0000   1.0000   1.0000   1.0000   1.0000
     1.0000   1.0000   1.0000   1.0000   1.0000   0.0000   0.0000   0.0000
     0.0000   0.0000   0.0000   0.0000

          k = 0.0000 0.1000 0.4000 (  4431 PWs)   bands (ev):

   -67.7489 -67.7106 -33.9554 -33.8696 -33.8538 -33.8221 -33.7671 -33.7350
    12.4480  14.5946  16.1791  17.0812  17.1086  17.6854  18.0590  18.1104
    18.4727  19.2703  19.8035  20.9811

     occupation numbers 
     1.0000   1.0000   1.0000   1.0000   1.0000   1.0000   1.0000   1.0000
     1.0000   1.0000   1.0000   1.0000   1.0000   0.1523   0.0000   0.0000
     0.0000   0.0000   0.0000   0.0000

          k = 0.0000 0.1000-0.5000 (  4414 PWs)   bands (ev):

   -67.7293 -67.7293 -33.9196 -33.9196 -33.8100 -33.8100 -33.7772 -33.7772
    13.6492  13.6492  16.7353  16.7353  17.3222  17.3222  17.9388  17.9388
    18.8757  18.8757  20.1646  20.1646

     occupation numbers 
     1.0000   1.0000   1.0000   1.0000   1.0000   1.0000   1.0000   1.0000
     1.0000   1.0000   1.0000   1.0000   0.9970   0.9970   0.0001   0.0001
     0.0000   0.0000   0.0000   0.0000

          k = 0.0000 0.2000 0.2000 (  4419 PWs)   bands (ev):

   -67.7740 -67.6885 -34.0027 -33.9083 -33.8617 -33.8116 -33.7152 -33.6675
    10.9247  15.2156  15.3662  16.8262  17.0904  18.1561  18.1698  18.5797
    18.9782  19.3501  19.9986  24.5853

     occupation numbers 
     1.0000   1.0000   1.0000   1.0000   1.0000   1.0000   1.0000   1.0000
     1.0000   1.0000   1.0000   1.0000   1.0000   0.0000   0.0000   0.0000
     0.0000   0.0000   0.0000   0.0000

          k = 0.0000 0.2000 0.3000 (  4434 PWs)   bands (ev):

   -67.7607 -67.6987 -34.0128 -33.8804 -33.8745 -33.8172 -33.7401 -33.6757
    11.7848  15.1462  15.7616  16.6885  16.9794  17.5961  18.3215  18.5676
    18.7979  19.4849  19.9420  22.8853

     occupation numbers 
     1.0000   1.0000   1.0000   1.0000   1.0000   1.0000   1.0000   1.0000
     1.0000   1.0000   1.0000   1.0000   1.0000   0.4607   0.0000   0.0000
     0.0000   0.0000   0.0000   0.0000

          k = 0.0000 0.2000 0.4000 (  4431 PWs)   bands (ev):

   -67.7448 -67.7121 -34.0055 -33.9330 -33.8459 -33.7729 -33.7721 -33.6984
    12.8326  14.7027  16.2165  16.6793  16.8600  17.1339  18.3147  18.5574
    18.9858  19.7181  19.7196  21.2227

     occupation numbers 
     1.0000   1.0000   1.0000   1.0000   1.0000   1.0000   1.0000   1.0000
     1.0000   1.0000   1.0000   1.0000   1.0000   1.0000   0.0000   0.0000
     0.0000   0.0000   0.0000   0.0000

          k = 0.0000 0.2000-0.5000 (  4428 PWs)   bands (ev):

   -67.7280 -67.7280 -33.9785 -33.9785 -33.8086 -33.8085 -33.7320 -33.7320
    13.8800  13.8800  16.6175  16.6175  16.8244  16.8244  18.4137  18.4137
    19.3826  19.3826  20.1828  20.1828

     occupation numbers 
     1.0000   1.0000   1.0000   1.0000   1.0000   1.0000   1.0000   1.0000
     1.0000   1.0000   1.0000   1.0000   1.0000   1.0000   0.0000   0.0000
     0.0000   0.0000   0.0000   0.0000

          k = 0.0000 0.3000 0.3000 (  4448 PWs)   bands (ev):

   -67.7507 -67.7056 -34.0387 -33.9387 -33.8596 -33.7706 -33.7576 -33.6675
    12.5123  14.9903  16.1548  16.4424  16.9056  17.0568  18.3626  18.9932
    19.0385  19.4255  20.0891  22.5719

     occupation numbers 
     1.0000   1.0000   1.0000   1.0000   1.0000   1.0000   1.0000   1.0000
     1.0000   1.0000   1.0000   1.0000   1.0000   1.0000   0.0000   0.0000
     0.0000   0.0000   0.0000   0.0000

          k = 0.0000 0.3000 0.4000 (  4430 PWs)   bands (ev):

   -67.7388 -67.7150 -34.0458 -33.9934 -33.8341 -33.7805 -33.7295 -33.6752
    13.3225  14.6028  16.3390  16.6173  16.6473  16.9574  18.5832  18.9419
    19.4665  19.5906  20.0357  21.2681

     occupation numbers 
     1.0000   1.0000   1.0000   1.0000   1.0000   1.0000   1.0000   1.0000
     1.0000   1.0000   1.0000   1.0000   1.0000   1.0000   0.0000   0.0000
     0.0000   0.0000   0.0000   0.0000

          k = 0.0000 0.3000-0.5000 (  4416 PWs)   bands (ev):

   -67.7264 -67.7264 -34.0306 -34.0306 -33.8068 -33.8068 -33.6968 -33.6968
    14.0453  14.0453  16.4043  16.4043  16.9239  16.9239  18.8144  18.8144
    19.8133  19.8133  20.1202  20.1202

     occupation numbers 
     1.0000   1.0000   1.0000   1.0000   1.0000   1.0000   1.0000   1.0000
     1.0000   1.0000   1.0000   1.0000   1.0000   1.0000   0.0000   0.0000
     0.0000   0.0000   0.0000   0.0000

          k = 0.0000 0.4000 0.4000 (  4426 PWs)   bands (ev):

   -67.7319 -67.7194 -34.0677 -34.0402 -33.8199 -33.7918 -33.6961 -33.6675
    13.7516  14.3559  16.1469  16.3018  17.2245  17.3817  18.8600  19.1101
    19.5104  19.8505  20.1630  20.7120

     occupation numbers 
     1.0000   1.0000   1.0000   1.0000   1.0000   1.0000   1.0000   1.0000
     1.0000   1.0000   1.0000   1.0000   0.9999   0.9834   0.0000   0.0000
     0.0000   0.0000   0.0000   0.0000

          k = 0.0000 0.4000-0.5000 (  4424 PWs)   bands (ev):

   -67.7251 -67.7251 -34.0661 -34.0661 -33.8053 -33.8053 -33.6749 -33.6749
    14.0758  14.0758  16.1314  16.1314  17.6185  17.6185  19.0655  19.0655
    19.8469  19.8469  20.0942  20.0942

     occupation numbers 
     1.0000   1.0000   1.0000   1.0000   1.0000   1.0000   1.0000   1.0000
     1.0000   1.0000   1.0000   1.0000   0.3703   0.3703   0.0000   0.0000
     0.0000   0.0000   0.0000   0.0000

          k = 0.0000-0.5000-0.5000 (  4468 PWs)   bands (ev):

   -67.7247 -67.7246 -34.0787 -34.0787 -33.8048 -33.8048 -33.6675 -33.6675
    14.0682  14.0682  16.0372  16.0372  18.1160  18.1160  19.1488  19.1489
    19.5491  19.5491  20.1914  20.1914

     occupation numbers 
     1.0000   1.0000   1.0000   1.0000   1.0000   1.0000   1.0000   1.0000
     1.0000   1.0000   1.0000   1.0000   0.0000   0.0000   0.0000   0.0000
     0.0000   0.0000   0.0000   0.0000

          k = 0.1000 0.1000 0.1000 (  4439 PWs)   bands (ev):

   -67.7894 -67.6771 -33.9657 -33.9657 -33.9102 -33.7317 -33.6746 -33.6746
     9.9800  14.9833  14.9833  17.1280  17.1280  17.6866  18.8665  19.2231
    19.2231  19.7107  19.7107  26.8801

     occupation numbers 
     1.0000   1.0000   1.0000   1.0000   1.0000   1.0000   1.0000   1.0000
     1.0000   1.0000   1.0000   1.0000   1.0000   0.1493   0.0000   0.0000
     0.0000   0.0000   0.0000   0.0000

          k = 0.1000 0.1000 0.2000 (  4431 PWs)   bands (ev):

   -67.7798 -67.6843 -33.9804 -33.9428 -33.8753 -33.7793 -33.6952 -33.6773
    10.5588  15.1309  15.2427  16.9857  17.0628  17.9885  18.2617  18.9715
    19.2123  19.3671  19.7661  24.8183

     occupation numbers 
     1.0000   1.0000   1.0000   1.0000   1.0000   1.0000   1.0000   1.0000
     1.0000   1.0000   1.0000   1.0000   1.0000   0.0000   0.0000   0.0000
     0.0000   0.0000   0.0000   0.0000

          k = 0.1000 0.1000 0.3000 (  4443 PWs)   bands (ev):

   -67.7652 -67.6958 -33.9831 -33.9076 -33.8365 -33.8363 -33.7277 -33.6936
    11.4651  15.1305  15.6419  16.9313  16.9767  17.7479  18.3486  18.6041
    18.6734  19.5557  19.6247  22.7371

     occupation numbers 
     1.0000   1.0000   1.0000   1.0000   1.0000   1.0000   1.0000   1.0000
     1.0000   1.0000   1.0000   1.0000   1.0000   0.0468   0.0000   0.0000
     0.0000   0.0000   0.0000   0.0000

          k = 0.1000 0.1000 0.4000 (  4429 PWs)   bands (ev):

   -67.7475 -67.7110 -33.9699 -33.8925 -33.8638 -33.7960 -33.7692 -33.7211
    12.5943  14.6873  16.1208  16.8473  17.0007  17.4236  18.2391  18.2593
    18.7406  19.3795  19.7857  21.1517

     occupation numbers 
     1.0000   1.0000   1.0000   1.0000   1.0000   1.0000   1.0000   1.0000
     1.0000   1.0000   1.0000   1.0000   1.0000   0.9549   0.0000   0.0000
     0.0000   0.0000   0.0000   0.0000

          k = 0.1000 0.1000-0.5000 (  4410 PWs)   bands (ev):

   -67.7288 -67.7288 -33.9391 -33.9391 -33.8161 -33.8161 -33.7564 -33.7564
    13.7605  13.7605  16.5685  16.5685  17.1858  17.1858  18.0871  18.0871
    19.0965  19.0965  20.2156  20.2156

     occupation numbers 
     1.0000   1.0000   1.0000   1.0000   1.0000   1.0000   1.0000   1.0000
     1.0000   1.0000   1.0000   1.0000   1.0000   1.0000   0.0000   0.0000
     0.0000   0.0000   0.0000   0.0000

          k = 0.1000 0.2000 0.2000 (  4428 PWs)   bands (ev):

   -67.7714 -67.6901 -33.9941 -33.9341 -33.8355 -33.8302 -33.7082 -33.6753
    11.1094  15.3218  15.4183  16.7790  16.9222  17.6525  18.3789  18.9906
    19.0404  19.3134  19.7940  24.9612

     occupation numbers 
     1.0000   1.0000   1.0000   1.0000   1.0000   1.0000   1.0000   1.0000
     1.0000   1.0000   1.0000   1.0000   1.0000   0.2467   0.0000   0.0000
     0.0000   0.0000   0.0000   0.0000

          k = 0.1000 0.2000 0.3000 (  4425 PWs)   bands (ev):

   -67.7587 -67.6997 -34.0066 -33.9031 -33.8879 -33.7955 -33.7365 -33.6812
    11.9587  15.2762  15.7610  16.6304  16.8020  17.2099  18.6388  18.8058
    18.8714  19.4667  19.7696  23.2112

     occupation numbers 
     1.0000   1.0000   1.0000   1.0000   1.0000   1.0000   1.0000   1.0000
     1.0000   1.0000   1.0000   1.0000   1.0000   1.0000   0.0000   0.0000
     0.0000   0.0000   0.0000   0.0000

          k = 0.1000 0.2000 0.4000 (  4416 PWs)   bands (ev):

   -67.7435 -67.7125 -34.0038 -33.9414 -33.8623 -33.7743 -33.7577 -33.6982
    12.9877  14.8264  16.1214  16.5558  16.7438  16.9852  18.4687  18.6251
    19.2186  19.6187  19.7456  21.5172

     occupation numbers 
     1.0000   1.0000   1.0000   1.0000   1.0000   1.0000   1.0000   1.0000
     1.0000   1.0000   1.0000   1.0000   1.0000   1.0000   0.0000   0.0000
     0.0000   0.0000   0.0000   0.0000

          k = 0.1000 0.2000-0.5000 (  4430 PWs)   bands (ev):

   -67.7275 -67.7275 -33.9818 -33.9818 -33.8177 -33.8177 -33.7245 -33.7245
    14.0114  14.0114  16.4055  16.4055  16.8279  16.8279  18.4803  18.4803
    19.4444  19.4444  20.3725  20.3725

     occupation numbers 
     1.0000   1.0000   1.0000   1.0000   1.0000   1.0000   1.0000   1.0000
     1.0000   1.0000   1.0000   1.0000   1.0000   1.0000   0.0000   0.0000
     0.0000   0.0000   0.0000   0.0000

          k = 0.1000 0.3000 0.3000 (  4445 PWs)   bands (ev):

   -67.7491 -67.7062 -34.0292 -33.9443 -33.8804 -33.7569 -33.7559 -33.6762
    12.6848  15.1246  16.1388  16.3923  16.7166  16.7936  18.5890  19.0355
    19.3117  19.4199  19.8747  23.0023

     occupation numbers 
     1.0000   1.0000   1.0000   1.0000   1.0000   1.0000   1.0000   1.0000
     1.0000   1.0000   1.0000   1.0000   1.0000   1.0000   0.0000   0.0000
     0.0000   0.0000   0.0000   0.0000

          k = 0.1000 0.3000 0.4000 (  4420 PWs)   bands (ev):

   -67.7377 -67.7151 -34.0374 -33.9930 -33.8491 -33.7829 -33.7240 -33.6821
    13.4870  14.7386  16.2803  16.4075  16.6495  16.7624  18.6989  18.9744
    19.5084  19.8127  19.8606  21.7319

     occupation numbers 
     1.0000   1.0000   1.0000   1.0000   1.0000   1.0000   1.0000   1.0000
     1.0000   1.0000   1.0000   1.0000   1.0000   1.0000   0.0000   0.0000
     0.0000   0.0000   0.0000   0.0000

          k = 0.1000 0.3000-0.5000 (  4414 PWs)   bands (ev):

   -67.7259 -67.7259 -34.0255 -34.0255 -33.8151 -33.8151 -33.6986 -33.6986
    14.1936  14.1936  16.3002  16.3002  16.8041  16.8041  18.8570  18.8570
    19.6445  19.6445  20.5898  20.5898

     occupation numbers 
     1.0000   1.0000   1.0000   1.0000   1.0000   1.0000   1.0000   1.0000
     1.0000   1.0000   1.0000   1.0000   1.0000   1.0000   0.0000   0.0000
     0.0000   0.0000   0.0000   0.0000

          k = 0.1000 0.4000 0.4000 (  4437 PWs)   bands (ev):

   -67.7311 -67.7192 -34.0574 -34.0342 -33.8309 -33.7956 -33.6985 -33.6769
    13.9140  14.4948  16.1045  16.2269  17.0719  17.1044  18.9337  19.1388
    19.5140  19.8262  20.2526  21.3901

     occupation numbers 
     1.0000   1.0000   1.0000   1.0000   1.0000   1.0000   1.0000   1.0000
     1.0000   1.0000   1.0000   1.0000   1.0000   1.0000   0.0000   0.0000
     0.0000   0.0000   0.0000   0.0000

          k = 0.1000 0.4000-0.5000 (  4420 PWs)   bands (ev):

   -67.7247 -67.7247 -34.0569 -34.0569 -33.8121 -33.8121 -33.6825 -33.6825
    14.2252  14.2252  16.0835  16.0835  17.3510  17.3510  19.1024  19.1024
    19.6400  19.6400  20.7380  20.7380

     occupation numbers 
     1.0000   1.0000   1.0000   1.0000   1.0000   1.0000   1.0000   1.0000
     1.0000   1.0000   1.0000   1.0000   0.9928   0.9928   0.0000   0.0000
     0.0000   0.0000   0.0000   0.0000

          k = 0.1000-0.5000-0.5000 (  4456 PWs)   bands (ev):

   -67.7242 -67.7242 -34.0682 -34.0682 -33.8109 -33.8109 -33.6771 -33.6771
    14.2159  14.2159  15.9993  15.9993  17.7122  17.7122  19.1846  19.1846
    19.5534  19.5535  20.7761  20.7761

     occupation numbers 
     1.0000   1.0000   1.0000   1.0000   1.0000   1.0000   1.0000   1.0000
     1.0000   1.0000   1.0000   1.0000   0.0960   0.0960   0.0000   0.0000
     0.0000   0.0000   0.0000   0.0000

          k = 0.2000 0.2000 0.2000 (  4419 PWs)   bands (ev):

   -67.7641 -67.6950 -33.9692 -33.9692 -33.8723 -33.7975 -33.6979 -33.6979
    11.6419  15.5623  15.5623  16.6545  16.6545  17.0059  18.8232  19.2046
    19.2046  19.3609  19.3609  25.9080

     occupation numbers 
     1.0000   1.0000   1.0000   1.0000   1.0000   1.0000   1.0000   1.0000
     1.0000   1.0000   1.0000   1.0000   1.0000   1.0000   0.0000   0.0000
     0.0000   0.0000   0.0000   0.0000

          k = 0.2000 0.2000 0.3000 (  4429 PWs)   bands (ev):

   -67.7531 -67.7029 -33.9947 -33.9307 -33.9207 -33.7628 -33.7336 -33.6942
    12.4522  15.5849  15.7629  16.4920  16.4928  16.6559  18.9616  19.0364
    19.3054  19.4310  19.5182  23.9032

     occupation numbers 
     1.0000   1.0000   1.0000   1.0000   1.0000   1.0000   1.0000   1.0000
     1.0000   1.0000   1.0000   1.0000   1.0000   1.0000   0.0000   0.0000
     0.0000   0.0000   0.0000   0.0000

          k = 0.2000 0.2000 0.4000 (  4413 PWs)   bands (ev):

   -67.7399 -67.7135 -34.0039 -33.9640 -33.8828 -33.7792 -33.7341 -33.6992
    13.4082  15.0844  15.9720  16.3245  16.5040  16.6961  18.7367  18.8487
    19.4877  19.5310  19.9939  22.1239

     occupation numbers 
     1.0000   1.0000   1.0000   1.0000   1.0000   1.0000   1.0000   1.0000
     1.0000   1.0000   1.0000   1.0000   1.0000   1.0000   0.0000   0.0000
     0.0000   0.0000   0.0000   0.0000

          k = 0.2000 0.2000-0.5000 (  4420 PWs)   bands (ev):

   -67.7262 -67.7262 -33.9934 -33.9934 -33.8306 -33.8306 -33.7127 -33.7127
    14.3286  14.3286  16.1574  16.1574  16.6402  16.6402  18.7177  18.7177
    19.5201  19.5201  20.8478  20.8478

     occupation numbers 
     1.0000   1.0000   1.0000   1.0000   1.0000   1.0000   1.0000   1.0000
     1.0000   1.0000   1.0000   1.0000   1.0000   1.0000   0.0000   0.0000
     0.0000   0.0000   0.0000   0.0000

          k = 0.2000 0.3000 0.3000 (  4416 PWs)   bands (ev):

   -67.7447 -67.7082 -34.0017 -33.9596 -33.9204 -33.7502 -33.7358 -33.7013
    13.1712  15.4801  16.0891  16.2637  16.3041  16.3655  18.9723  19.1707
    19.3981  19.5172  19.8939  24.0028

     occupation numbers 
     1.0000   1.0000   1.0000   1.0000   1.0000   1.0000   1.0000   1.0000
     1.0000   1.0000   1.0000   1.0000   1.0000   1.0000   0.0000   0.0000
     0.0000   0.0000   0.0000   0.0000

          k = 0.2000 0.3000 0.4000 (  4433 PWs)   bands (ev):

   -67.7348 -67.7156 -34.0145 -33.9930 -33.8809 -33.7875 -33.7169 -33.7021
    13.9424  15.0871  16.0998  16.1360  16.3824  16.4834  18.9519  19.1060
    19.5097  19.5574  20.5251  22.6486

     occupation numbers 
     1.0000   1.0000   1.0000   1.0000   1.0000   1.0000   1.0000   1.0000
     1.0000   1.0000   1.0000   1.0000   1.0000   1.0000   0.0000   0.0000
     0.0000   0.0000   0.0000   0.0000

          k = 0.2000 0.3000-0.5000 (  4434 PWs)   bands (ev):

   -67.7247 -67.7247 -34.0127 -34.0127 -33.8336 -33.8336 -33.7061 -33.7061
    14.5865  14.5865  16.0803  16.0803  16.5194  16.5194  19.0089  19.0089
    19.5584  19.5584  21.3871  21.3871

     occupation numbers 
     1.0000   1.0000   1.0000   1.0000   1.0000   1.0000   1.0000   1.0000
     1.0000   1.0000   1.0000   1.0000   1.0000   1.0000   0.0000   0.0000
     0.0000   0.0000   0.0000   0.0000

          k = 0.2000 0.4000 0.4000 (  4447 PWs)   bands (ev):

   -67.7289 -67.7188 -34.0279 -34.0181 -33.8586 -33.8040 -33.7078 -33.7041
    14.3670  14.8647  15.9984  16.0573  16.5792  16.7116  19.1139  19.2410
    19.5215  19.5855  21.1105  22.5531

     occupation numbers 
     1.0000   1.0000   1.0000   1.0000   1.0000   1.0000   1.0000   1.0000
     1.0000   1.0000   1.0000   1.0000   1.0000   1.0000   0.0000   0.0000
     0.0000   0.0000   0.0000   0.0000

          k = 0.2000 0.4000-0.5000 (  4434 PWs)   bands (ev):

   -67.7234 -67.7234 -34.0307 -34.0307 -33.8296 -33.8296 -33.7048 -33.7048
    14.6335  14.6335  15.9680  15.9680  16.8218  16.8218  19.2166  19.2166
    19.5665  19.5665  21.8127  21.8127

     occupation numbers 
     1.0000   1.0000   1.0000   1.0000   1.0000   1.0000   1.0000   1.0000
     1.0000   1.0000   1.0000   1.0000   1.0000   1.0000   0.0000   0.0000
     0.0000   0.0000   0.0000   0.0000

          k = 0.2000-0.5000-0.5000 (  4452 PWs)   bands (ev):

   -67.7229 -67.7229 -34.0379 -34.0379 -33.8269 -33.8269 -33.7052 -33.7052
    14.6208  14.6208  15.9055  15.9055  17.0451  17.0451  19.2832  19.2832
    19.5650  19.5650  21.9837  21.9837

     occupation numbers 
     1.0000   1.0000   1.0000   1.0000   1.0000   1.0000   1.0000   1.0000
     1.0000   1.0000   1.0000   1.0000   1.0000   1.0000   0.0000   0.0000
     0.0000   0.0000   0.0000   0.0000

          k = 0.3000 0.3000 0.3000 (  4416 PWs)   bands (ev):

   -67.7381 -67.7116 -33.9791 -33.9592 -33.9592 -33.7410 -33.7410 -33.7218
    13.8638  15.7370  16.0138  16.0138  16.1089  16.1089  19.2772  19.2772
    19.3519  19.3519  20.5593  25.2863

     occupation numbers 
     1.0000   1.0000   1.0000   1.0000   1.0000   1.0000   1.0000   1.0000
     1.0000   1.0000   1.0000   1.0000   1.0000   1.0000   0.0000   0.0000
     0.0000   0.0000   0.0000   0.0000

          k = 0.3000 0.3000 0.4000 (  4435 PWs)   bands (ev):

   -67.7306 -67.7166 -33.9949 -33.9871 -33.9063 -33.7916 -33.7302 -33.7174
    14.5475  15.3750  15.9453  15.9841  16.0877  16.2815  19.1930  19.2838
    19.4611  19.5018  21.2887  23.6206

     occupation numbers 
     1.0000   1.0000   1.0000   1.0000   1.0000   1.0000   1.0000   1.0000
     1.0000   1.0000   1.0000   1.0000   1.0000   1.0000   0.0000   0.0000
     0.0000   0.0000   0.0000   0.0000

          k = 0.3000 0.3000-0.5000 (  4438 PWs)   bands (ev):

   -67.7231 -67.7231 -33.9990 -33.9990 -33.8485 -33.8485 -33.7211 -33.7211
    15.0186  15.0186  15.9271  15.9271  16.2642  16.2642  19.2157  19.2157
    19.5409  19.5409  22.2476  22.2476

     occupation numbers 
     1.0000   1.0000   1.0000   1.0000   1.0000   1.0000   1.0000   1.0000
     1.0000   1.0000   1.0000   1.0000   1.0000   1.0000   0.0000   0.0000
     0.0000   0.0000   0.0000   0.0000

          k = 0.3000 0.4000 0.4000 (  4442 PWs)   bands (ev):

   -67.7260 -67.7187 -33.9963 -33.9822 -33.8930 -33.8088 -33.7469 -33.7264
    14.9998  15.2959  15.8808  15.9316  16.1033  16.3216  19.3222  19.3876
    19.5020  19.5255  22.0922  23.9490

     occupation numbers 
     1.0000   1.0000   1.0000   1.0000   1.0000   1.0000   1.0000   1.0000
     1.0000   1.0000   1.0000   1.0000   1.0000   1.0000   0.0000   0.0000
     0.0000   0.0000   0.0000   0.0000

          k = 0.3000 0.4000-0.5000 (  4452 PWs)   bands (ev):

   -67.7219 -67.7219 -33.9921 -33.9921 -33.8500 -33.8500 -33.7396 -33.7396
    15.1677  15.1677  15.8584  15.8584  16.3300  16.3300  19.3725  19.3725
    19.5565  19.5565  23.0344  23.0344

     occupation numbers 
     1.0000   1.0000   1.0000   1.0000   1.0000   1.0000   1.0000   1.0000
     1.0000   1.0000   1.0000   1.0000   1.0000   1.0000   0.0000   0.0000
     0.0000   0.0000   0.0000   0.0000

          k = 0.3000-0.5000-0.5000 (  4468 PWs)   bands (ev):

   -67.7214 -67.7214 -33.9910 -33.9910 -33.8466 -33.8466 -33.7492 -33.7492
    15.1639  15.1639  15.8068  15.8068  16.4735  16.4735  19.4180  19.4180
    19.5792  19.5792  23.4490  23.4490

     occupation numbers 
     1.0000   1.0000   1.0000   1.0000   1.0000   1.0000   1.0000   1.0000
     1.0000   1.0000   1.0000   1.0000   1.0000   1.0000   0.0000   0.0000
     0.0000   0.0000   0.0000   0.0000

          k = 0.4000 0.4000 0.4000 (  4428 PWs)   bands (ev):

   -67.7230 -67.7192 -33.9740 -33.9253 -33.9253 -33.8016 -33.8016 -33.7526
    15.4868  15.5749  15.8139  15.8139  16.0191  16.0191  19.4915  19.4915
    19.5202  19.5202  23.1129  25.5234

     occupation numbers 
     1.0000   1.0000   1.0000   1.0000   1.0000   1.0000   1.0000   1.0000
     1.0000   1.0000   1.0000   1.0000   1.0000   1.0000   0.0000   0.0000
     0.0000   0.0000   0.0000   0.0000

          k = 0.4000 0.4000-0.5000 (  4444 PWs)   bands (ev):

   -67.7206 -67.7206 -33.9517 -33.9517 -33.8630 -33.8630 -33.7806 -33.7806
    15.5502  15.5502  15.8498  15.8498  16.0268  16.0268  19.5056  19.5056
    19.5670  19.5670  24.2590  24.2590

     occupation numbers 
     1.0000   1.0000   1.0000   1.0000   1.0000   1.0000   1.0000   1.0000
     1.0000   1.0000   1.0000   1.0000   1.0000   1.0000   0.0000   0.0000
     0.0000   0.0000   0.0000   0.0000

          k = 0.4000-0.5000-0.5000 (  4432 PWs)   bands (ev):

   -67.7201 -67.7201 -33.9325 -33.9325 -33.8625 -33.8625 -33.8054 -33.8054
    15.6447  15.6447  15.7659  15.7659  16.0692  16.0692  19.5425  19.5425
    19.5908  19.5908  25.0852  25.0852

     occupation numbers 
     1.0000   1.0000   1.0000   1.0000   1.0000   1.0000   1.0000   1.0000
     1.0000   1.0000   1.0000   1.0000   1.0000   1.0000   0.0000   0.0000
     0.0000   0.0000   0.0000   0.0000

          k =-0.5000-0.5000-0.5000 (  4416 PWs)   bands (ev):

   -67.7197 -67.7197 -33.8685 -33.8685 -33.8685 -33.8685 -33.8685 -33.8685
    15.8399  15.8399  15.8399  15.8399  15.8399  15.8399  19.5952  19.5952
    19.5952  19.5952  26.8576  26.8576

     occupation numbers 
     1.0000   1.0000   1.0000   1.0000   1.0000   1.0000   1.0000   1.0000
     1.0000   1.0000   1.0000   1.0000   1.0000   1.0000   0.0000   0.0000
     0.0000   0.0000   0.0000   0.0000

     the Fermi energy is    17.5866 ev

!    total energy              =    -658.54245517 Ry
     total all-electron energy =     -5091.135521 Ry
     estimated scf accuracy    <          9.7E-11 Ry
     smearing contrib. (-TS)   =      -0.00132687 Ry
     internal energy E=F+TS    =    -658.54112830 Ry

     The total energy is F=E-TS. E is the sum of the following terms:
     one-electron contribution =    -225.21221708 Ry
     hartree contribution      =     132.13143341 Ry
     xc contribution           =     -55.48282790 Ry
     ewald contribution        =    -344.39296900 Ry
     one-center paw contrib.   =    -165.58454773 Ry
      -> PAW hartree energy AE =     182.97137083 Ry
      -> PAW hartree energy PS =    -181.67340541 Ry
      -> PAW xc energy AE      =    -110.16074318 Ry
      -> PAW xc energy PS      =      26.07050361 Ry
      -> total E_H with PAW    =     133.42939882 Ry
      -> total E_XC with PAW   =    -139.57306747 Ry

     total magnetization       =     4.43 Bohr mag/cell
     absolute magnetization    =     4.69 Bohr mag/cell

     convergence has been achieved in   6 iterations

     Writing all to output data dir ./out/Fe.save/ :
     XML data file, charge density, pseudopotentials, collected wavefunctions

     init_run     :      1.65s CPU      1.84s WALL (       1 calls)
     electrons    :     60.51s CPU     61.95s WALL (       1 calls)

     Called by init_run:
     wfcinit      :      0.47s CPU      0.51s WALL (       1 calls)
     potinit      :      0.46s CPU      0.54s WALL (       1 calls)
     hinit0       :      0.42s CPU      0.44s WALL (       1 calls)

     Called by electrons:
     c_bands      :     48.36s CPU     49.33s WALL (       7 calls)
     sum_band     :      8.83s CPU      9.01s WALL (       7 calls)
     v_of_rho     :      0.45s CPU      0.48s WALL (       7 calls)
     v_h          :      0.02s CPU      0.02s WALL (       7 calls)
     v_xc         :      0.44s CPU      0.46s WALL (       7 calls)
     newd         :      1.02s CPU      1.17s WALL (       7 calls)
     PAW_pot      :      2.25s CPU      2.43s WALL (       7 calls)
     mix_rho      :      0.06s CPU      0.07s WALL (       7 calls)

     Called by c_bands:
     init_us_2    :      0.52s CPU      0.53s WALL (    1568 calls)
     cegterg      :     46.92s CPU     47.86s WALL (     784 calls)

     Called by sum_band:
     sum_band:wei :      0.01s CPU      0.02s WALL (       7 calls)
     sum_band:loo :      7.41s CPU      7.52s WALL (       7 calls)
     sum_band:buf :      0.09s CPU      0.09s WALL (     784 calls)
     sum_band:ini :      0.24s CPU      0.25s WALL (     784 calls)
     sum_band:cal :      1.03s CPU      1.05s WALL (     784 calls)
     sum_band:bec :      0.03s CPU      0.03s WALL (     784 calls)
     addusdens    :      1.24s CPU      1.29s WALL (       7 calls)
                                        0.00s GPU  (       7 calls)
     addusd:skk   :      0.00s CPU      0.00s WALL (       7 calls)
                                        0.00s GPU  (       7 calls)

     Called by *egterg:
     cdiaghg      :      1.81s CPU      1.84s WALL (    2221 calls)
     cegterg:over :      3.66s CPU      3.78s WALL (    1661 calls)
     cegterg:upda :      1.31s CPU      1.33s WALL (    1661 calls)
     cegterg:last :      3.20s CPU      3.23s WALL (    1491 calls)
     h_psi        :     31.97s CPU     32.62s WALL (    2445 calls)
     s_psi        :      2.01s CPU      2.05s WALL (    2445 calls)
     g_psi        :      0.16s CPU      0.17s WALL (    1661 calls)

     Called by h_psi:
     h_psi:calbec :      3.02s CPU      3.09s WALL (    2445 calls)
     vloc_psi     :     26.78s CPU     27.30s WALL (    2445 calls)
     add_vuspsi   :      2.00s CPU      2.07s WALL (    2445 calls)

     General routines
     calbec       :      4.04s CPU      4.13s WALL (    3229 calls)
     fft          :      0.46s CPU      0.48s WALL (     171 calls)
     ffts         :      0.09s CPU      0.09s WALL (      28 calls)
     fftw         :     27.55s CPU     28.07s WALL (   90488 calls)
     interpolate  :      0.10s CPU      0.11s WALL (      14 calls)

     Parallel routines

     PAW routines
     PAW_pot      :      2.25s CPU      2.43s WALL (       7 calls)
     PAW_symme    :      0.02s CPU      0.02s WALL (      13 calls)

     PWSCF        :   1m 2.63s CPU   1m 4.70s WALL


   This run was terminated on:  18:16:52  15Apr2024            

=------------------------------------------------------------------------------=
   JOB DONE.
=------------------------------------------------------------------------------=
