
     Program PWSCF v.7.2 starts on  5Jul2024 at  3:50:48 

     This program is part of the open-source Quantum ESPRESSO suite
     for quantum simulation of materials; please cite
         "P. Giannozzi et al., J. Phys.:Condens. Matter 21 395502 (2009);
         "P. Giannozzi et al., J. Phys.:Condens. Matter 29 465901 (2017);
         "P. Giannozzi et al., J. Chem. Phys. 152 154105 (2020);
          URL http://www.quantum-espresso.org", 
     in publications or presentations arising from this work. More details at
     http://www.quantum-espresso.org/quote

     Parallel version (MPI), running on  1456 processors

     MPI processes distributed on    13 nodes
     209212 MiB available memory on the printing compute node when the environment starts
 
     Reading input from 2.Cu_vac_in_ZnS.nscf.qn1.unrlxd.in

     Current dimensions of program PWSCF are:
     Max number of different atomic species (ntypx) = 10
     Max number of k-points (npk) =  40000
     Max angular momentum in pseudopotentials (lmaxx) =  4

     Atomic positions and unit cell read from directory:
     ./out/Cu_vac_qn1_unrlxd.save/
 
     file S.pbe-n-kjpaw_psl.1.0.0.UPF: wavefunction(s)  3S 3P renormalized
     file Zn.pbe-dnl-kjpaw_psl.1.0.0.UPF: wavefunction(s)  4S 3D renormalized
     file Cu.pbe-spn-kjpaw_psl.1.0.0.UPF: wavefunction(s)  4S 3P 3D renormalized
     [opt_tetra]  Optimized tetrahedron method is used.
 
     K-points division:     npool     =      13
     R & G space division:  proc/nbgrp/npool/nimage =     112
     Subspace diagonalization in iterative solution of the eigenvalue problem:
     one sub-group per band group will be used
     scalapack distributed-memory algorithm (size of sub-group:  3*  3 procs)

 
     Parallelization info
     --------------------
     sticks:   dense  smooth     PW     G-vecs:    dense   smooth      PW
     Min         180     180     46                19282    19282    2562
     Max         181     181     47                19291    19291    2573
     Sum       20217   20217   5249              2160009  2160009  287777
 
     Using Slab Decomposition
 


     bravais-lattice index     =            1
     lattice parameter (alat)  =      20.5686  a.u.
     unit-cell volume          =    8701.8437 (a.u.)^3
     number of atoms/cell      =           63
     number of atomic types    =            3
     number of electrons       =       578.00
     number of Kohn-Sham states=          347
     kinetic-energy cutoff     =     150.0000  Ry
     charge density cutoff     =     600.0000  Ry
     Exchange-correlation= SLA  PW   PBX  PBC
                           (   1   4   3   4   0   0   0)

     celldm(1)=  20.568554  celldm(2)=   0.000000  celldm(3)=   0.000000
     celldm(4)=   0.000000  celldm(5)=   0.000000  celldm(6)=   0.000000

     crystal axes: (cart. coord. in units of alat)
               a(1) = (   1.000000   0.000000   0.000000 )  
               a(2) = (   0.000000   1.000000   0.000000 )  
               a(3) = (   0.000000   0.000000   1.000000 )  

     reciprocal axes: (cart. coord. in units 2 pi/alat)
               b(1) = (  1.000000  0.000000  0.000000 )  
               b(2) = (  0.000000  1.000000  0.000000 )  
               b(3) = (  0.000000  0.000000  1.000000 )  


     PseudoPot. # 1 for S  read from file:
     /arf/home/amuhaymin/pseudo/S.pbe-n-kjpaw_psl.1.0.0.UPF
     MD5 check sum: fb45dfebcf3e72a4e1bd4a866ec2e262
     Pseudo is Projector augmented-wave + core cor, Zval =  6.0
     Generated using &quot;atomic&quot; code by A. Dal Corso  v.6.3
     Shape of augmentation charge: PSQ
     Using radial grid of 1151 points,  6 beta functions with: 
                l(1) =   0
                l(2) =   0
                l(3) =   1
                l(4) =   1
                l(5) =   2
                l(6) =   2
     Q(r) pseudized with 0 coefficients 


     PseudoPot. # 2 for Zn read from file:
     /arf/home/amuhaymin/pseudo/Zn.pbe-dnl-kjpaw_psl.1.0.0.UPF
     MD5 check sum: c608214d9520ac179f507641260889e3
     Pseudo is Projector augmented-wave + core cor, Zval = 12.0
     Generated using &quot;atomic&quot; code by A. Dal Corso  v.6.2.2
     Shape of augmentation charge: PSQ
     Using radial grid of 1201 points,  6 beta functions with: 
                l(1) =   0
                l(2) =   0
                l(3) =   1
                l(4) =   1
                l(5) =   2
                l(6) =   2
     Q(r) pseudized with 0 coefficients 


     PseudoPot. # 3 for Cu read from file:
     /arf/home/amuhaymin/pseudo/Cu.pbe-spn-kjpaw_psl.1.0.0.UPF
     MD5 check sum: e7cbaad2f97193e5fe23251a619a52b0
     Pseudo is Projector augmented-wave + core cor, Zval = 19.0
     Generated using &quot;atomic&quot; code by A. Dal Corso  v.6.3
     Shape of augmentation charge: PSQ
     Using radial grid of 1199 points,  6 beta functions with: 
                l(1) =   0
                l(2) =   0
                l(3) =   1
                l(4) =   1
                l(5) =   2
                l(6) =   2
     Q(r) pseudized with 0 coefficients 


     atomic species   valence    mass     pseudopotential
        S              6.00    32.06500     S ( 1.00)
        Zn            12.00    65.38000     Zn( 1.00)
        Cu            19.00    63.54600     Cu( 1.00)

     Starting magnetic structure 
     atomic species   magnetization
        S            0.000
        Zn           0.000
        Cu           0.000

      6 Sym. Ops. (no inversion) found


                                    s                        frac. trans.

      isym =  1     identity                                     

 cryst.   s( 1) = (     1          0          0      )
                  (     0          1          0      )
                  (     0          0          1      )

 cart.    s( 1) = (  1.0000000  0.0000000  0.0000000 )
                  (  0.0000000  1.0000000  0.0000000 )
                  (  0.0000000  0.0000000  1.0000000 )


      isym =  2     120 deg rotation - cart. axis [-1,-1,-1]     

 cryst.   s( 2) = (     0          0          1      )
                  (     1          0          0      )
                  (     0          1          0      )

 cart.    s( 2) = (  0.0000000  1.0000000  0.0000000 )
                  (  0.0000000  0.0000000  1.0000000 )
                  (  1.0000000  0.0000000  0.0000000 )


      isym =  3     120 deg rotation - cart. axis [1,1,1]        

 cryst.   s( 3) = (     0          1          0      )
                  (     0          0          1      )
                  (     1          0          0      )

 cart.    s( 3) = (  0.0000000  0.0000000  1.0000000 )
                  (  1.0000000  0.0000000  0.0000000 )
                  (  0.0000000  1.0000000  0.0000000 )


      isym =  4     inv. 180 deg rotation - cart. axis [1,-1,0]  

 cryst.   s( 4) = (     0          1          0      )
                  (     1          0          0      )
                  (     0          0          1      )

 cart.    s( 4) = (  0.0000000  1.0000000  0.0000000 )
                  (  1.0000000  0.0000000  0.0000000 )
                  (  0.0000000  0.0000000  1.0000000 )


      isym =  5     inv. 180 deg rotation - cart. axis [-1,0,1]  

 cryst.   s( 5) = (     0          0          1      )
                  (     0          1          0      )
                  (     1          0          0      )

 cart.    s( 5) = (  0.0000000  0.0000000  1.0000000 )
                  (  0.0000000  1.0000000  0.0000000 )
                  (  1.0000000  0.0000000  0.0000000 )


      isym =  6     inv. 180 deg rotation - cart. axis [0,1,-1]  

 cryst.   s( 6) = (     1          0          0      )
                  (     0          0          1      )
                  (     0          1          0      )

 cart.    s( 6) = (  1.0000000  0.0000000  0.0000000 )
                  (  0.0000000  0.0000000  1.0000000 )
                  (  0.0000000  1.0000000  0.0000000 )


     point group C_3v (3m)  
     there are  3 classes
     the character table:

       E     2C3   3s_v 
A_1    1.00  1.00  1.00
A_2    1.00  1.00 -1.00
E      2.00 -1.00  0.00

     the symmetry operations in each class and the name of the first element:

     E        1
          identity                                               
     2C3      2    3
          120 deg rotation - cart. axis [-1,-1,-1]               
     3s_v     4    5    6
          inv. 180 deg rotation - cart. axis [1,-1,0]            

   Cartesian axes

     site n.     atom                  positions (alat units)
         1           Zn  tau(   1) = (   0.0000000   0.0000000   0.0000000  )
         2           Zn  tau(   2) = (   0.0000000   0.2500000   0.2500000  )
         3           Zn  tau(   3) = (   0.2500000   0.0000000   0.2500000  )
         4           Zn  tau(   4) = (   0.2500000   0.2500000   0.0000000  )
         5           S   tau(   5) = (   0.1250000   0.3750000   0.3750000  )
         6           S   tau(   6) = (   0.1250000   0.1250000   0.1250000  )
         7           S   tau(   7) = (   0.3750000   0.3750000   0.1250000  )
         8           S   tau(   8) = (   0.3750000   0.1250000   0.3750000  )
         9           Zn  tau(   9) = (   0.0000000   0.0000000   0.5000000  )
        10           Zn  tau(  10) = (   0.0000000   0.2500000   0.7500000  )
        11           Zn  tau(  11) = (   0.2500000   0.0000000   0.7500000  )
        12           Zn  tau(  12) = (   0.2500000   0.2500000   0.5000000  )
        13           S   tau(  13) = (   0.1250000   0.3750000   0.8750000  )
        14           S   tau(  14) = (   0.1250000   0.1250000   0.6250000  )
        15           S   tau(  15) = (   0.3750000   0.3750000   0.6250000  )
        16           S   tau(  16) = (   0.3750000   0.1250000   0.8750000  )
        17           Zn  tau(  17) = (   0.0000000   0.5000000   0.0000000  )
        18           Zn  tau(  18) = (   0.0000000   0.7500000   0.2500000  )
        19           Zn  tau(  19) = (   0.2500000   0.5000000   0.2500000  )
        20           Zn  tau(  20) = (   0.2500000   0.7500000   0.0000000  )
        21           S   tau(  21) = (   0.1250000   0.8750000   0.3750000  )
        22           S   tau(  22) = (   0.1250000   0.6250000   0.1250000  )
        23           S   tau(  23) = (   0.3750000   0.8750000   0.1250000  )
        24           S   tau(  24) = (   0.3750000   0.6250000   0.3750000  )
        25           Zn  tau(  25) = (   0.0000000   0.5000000   0.5000000  )
        26           Zn  tau(  26) = (   0.0000000   0.7500000   0.7500000  )
        27           Zn  tau(  27) = (   0.2500000   0.5000000   0.7500000  )
        28           Zn  tau(  28) = (   0.2500000   0.7500000   0.5000000  )
        29           S   tau(  29) = (   0.1250000   0.8750000   0.8750000  )
        30           S   tau(  30) = (   0.1250000   0.6250000   0.6250000  )
        31           S   tau(  31) = (   0.3750000   0.8750000   0.6250000  )
        32           S   tau(  32) = (   0.3750000   0.6250000   0.8750000  )
        33           Zn  tau(  33) = (   0.5000000   0.0000000   0.0000000  )
        34           Zn  tau(  34) = (   0.5000000   0.2500000   0.2500000  )
        35           Zn  tau(  35) = (   0.7500000   0.0000000   0.2500000  )
        36           Zn  tau(  36) = (   0.7500000   0.2500000   0.0000000  )
        37           S   tau(  37) = (   0.6250000   0.3750000   0.3750000  )
        38           S   tau(  38) = (   0.6250000   0.1250000   0.1250000  )
        39           S   tau(  39) = (   0.8750000   0.3750000   0.1250000  )
        40           S   tau(  40) = (   0.8750000   0.1250000   0.3750000  )
        41           Zn  tau(  41) = (   0.5000000   0.0000000   0.5000000  )
        42           Zn  tau(  42) = (   0.5000000   0.2500000   0.7500000  )
        43           Zn  tau(  43) = (   0.7500000   0.0000000   0.7500000  )
        44           Zn  tau(  44) = (   0.7500000   0.2500000   0.5000000  )
        45           S   tau(  45) = (   0.6250000   0.3750000   0.8750000  )
        46           S   tau(  46) = (   0.6250000   0.1250000   0.6250000  )
        47           S   tau(  47) = (   0.8750000   0.3750000   0.6250000  )
        48           S   tau(  48) = (   0.8750000   0.1250000   0.8750000  )
        49           Zn  tau(  49) = (   0.5000000   0.5000000   0.0000000  )
        50           Zn  tau(  50) = (   0.5000000   0.7500000   0.2500000  )
        51           Zn  tau(  51) = (   0.7500000   0.5000000   0.2500000  )
        52           Zn  tau(  52) = (   0.7500000   0.7500000   0.0000000  )
        53           S   tau(  53) = (   0.6250000   0.8750000   0.3750000  )
        54           S   tau(  54) = (   0.6250000   0.6250000   0.1250000  )
        55           S   tau(  55) = (   0.8750000   0.8750000   0.1250000  )
        56           S   tau(  56) = (   0.8750000   0.6250000   0.3750000  )
        57           Cu  tau(  57) = (   0.5000000   0.5000000   0.5000000  )
        58           Zn  tau(  58) = (   0.5000000   0.7500000   0.7500000  )
        59           Zn  tau(  59) = (   0.7500000   0.5000000   0.7500000  )
        60           Zn  tau(  60) = (   0.7500000   0.7500000   0.5000000  )
        61           S   tau(  61) = (   0.6250000   0.8750000   0.8750000  )
        62           S   tau(  62) = (   0.8750000   0.8750000   0.6250000  )
        63           S   tau(  63) = (   0.8750000   0.6250000   0.8750000  )

   Crystallographic axes

     site n.     atom                  positions (cryst. coord.)
         1           Zn  tau(   1) = (  0.0000000  0.0000000  0.0000000  )
         2           Zn  tau(   2) = (  0.0000000  0.2500000  0.2500000  )
         3           Zn  tau(   3) = (  0.2500000  0.0000000  0.2500000  )
         4           Zn  tau(   4) = (  0.2500000  0.2500000  0.0000000  )
         5           S   tau(   5) = (  0.1250000  0.3750000  0.3750000  )
         6           S   tau(   6) = (  0.1250000  0.1250000  0.1250000  )
         7           S   tau(   7) = (  0.3750000  0.3750000  0.1250000  )
         8           S   tau(   8) = (  0.3750000  0.1250000  0.3750000  )
         9           Zn  tau(   9) = (  0.0000000  0.0000000  0.5000000  )
        10           Zn  tau(  10) = (  0.0000000  0.2500000  0.7500000  )
        11           Zn  tau(  11) = (  0.2500000  0.0000000  0.7500000  )
        12           Zn  tau(  12) = (  0.2500000  0.2500000  0.5000000  )
        13           S   tau(  13) = (  0.1250000  0.3750000  0.8750000  )
        14           S   tau(  14) = (  0.1250000  0.1250000  0.6250000  )
        15           S   tau(  15) = (  0.3750000  0.3750000  0.6250000  )
        16           S   tau(  16) = (  0.3750000  0.1250000  0.8750000  )
        17           Zn  tau(  17) = (  0.0000000  0.5000000  0.0000000  )
        18           Zn  tau(  18) = (  0.0000000  0.7500000  0.2500000  )
        19           Zn  tau(  19) = (  0.2500000  0.5000000  0.2500000  )
        20           Zn  tau(  20) = (  0.2500000  0.7500000  0.0000000  )
        21           S   tau(  21) = (  0.1250000  0.8750000  0.3750000  )
        22           S   tau(  22) = (  0.1250000  0.6250000  0.1250000  )
        23           S   tau(  23) = (  0.3750000  0.8750000  0.1250000  )
        24           S   tau(  24) = (  0.3750000  0.6250000  0.3750000  )
        25           Zn  tau(  25) = (  0.0000000  0.5000000  0.5000000  )
        26           Zn  tau(  26) = (  0.0000000  0.7500000  0.7500000  )
        27           Zn  tau(  27) = (  0.2500000  0.5000000  0.7500000  )
        28           Zn  tau(  28) = (  0.2500000  0.7500000  0.5000000  )
        29           S   tau(  29) = (  0.1250000  0.8750000  0.8750000  )
        30           S   tau(  30) = (  0.1250000  0.6250000  0.6250000  )
        31           S   tau(  31) = (  0.3750000  0.8750000  0.6250000  )
        32           S   tau(  32) = (  0.3750000  0.6250000  0.8750000  )
        33           Zn  tau(  33) = (  0.5000000  0.0000000  0.0000000  )
        34           Zn  tau(  34) = (  0.5000000  0.2500000  0.2500000  )
        35           Zn  tau(  35) = (  0.7500000  0.0000000  0.2500000  )
        36           Zn  tau(  36) = (  0.7500000  0.2500000  0.0000000  )
        37           S   tau(  37) = (  0.6250000  0.3750000  0.3750000  )
        38           S   tau(  38) = (  0.6250000  0.1250000  0.1250000  )
        39           S   tau(  39) = (  0.8750000  0.3750000  0.1250000  )
        40           S   tau(  40) = (  0.8750000  0.1250000  0.3750000  )
        41           Zn  tau(  41) = (  0.5000000  0.0000000  0.5000000  )
        42           Zn  tau(  42) = (  0.5000000  0.2500000  0.7500000  )
        43           Zn  tau(  43) = (  0.7500000  0.0000000  0.7500000  )
        44           Zn  tau(  44) = (  0.7500000  0.2500000  0.5000000  )
        45           S   tau(  45) = (  0.6250000  0.3750000  0.8750000  )
        46           S   tau(  46) = (  0.6250000  0.1250000  0.6250000  )
        47           S   tau(  47) = (  0.8750000  0.3750000  0.6250000  )
        48           S   tau(  48) = (  0.8750000  0.1250000  0.8750000  )
        49           Zn  tau(  49) = (  0.5000000  0.5000000  0.0000000  )
        50           Zn  tau(  50) = (  0.5000000  0.7500000  0.2500000  )
        51           Zn  tau(  51) = (  0.7500000  0.5000000  0.2500000  )
        52           Zn  tau(  52) = (  0.7500000  0.7500000  0.0000000  )
        53           S   tau(  53) = (  0.6250000  0.8750000  0.3750000  )
        54           S   tau(  54) = (  0.6250000  0.6250000  0.1250000  )
        55           S   tau(  55) = (  0.8750000  0.8750000  0.1250000  )
        56           S   tau(  56) = (  0.8750000  0.6250000  0.3750000  )
        57           Cu  tau(  57) = (  0.5000000  0.5000000  0.5000000  )
        58           Zn  tau(  58) = (  0.5000000  0.7500000  0.7500000  )
        59           Zn  tau(  59) = (  0.7500000  0.5000000  0.7500000  )
        60           Zn  tau(  60) = (  0.7500000  0.7500000  0.5000000  )
        61           S   tau(  61) = (  0.6250000  0.8750000  0.8750000  )
        62           S   tau(  62) = (  0.8750000  0.8750000  0.6250000  )
        63           S   tau(  63) = (  0.8750000  0.6250000  0.8750000  )

     number of k points=    13 (tetrahedron method)
                       cart. coord. in units 2pi/alat
        k(    1) = (   0.0000000   0.0000000   0.0000000), wk =   0.0156250
        k(    2) = (   0.0000000   0.0000000   0.2500000), wk =   0.0937500
        k(    3) = (   0.0000000   0.0000000  -0.5000000), wk =   0.0468750
        k(    4) = (   0.0000000   0.2500000   0.2500000), wk =   0.0937500
        k(    5) = (   0.0000000   0.2500000  -0.5000000), wk =   0.1875000
        k(    6) = (   0.0000000  -0.5000000  -0.5000000), wk =   0.0468750
        k(    7) = (   0.2500000   0.2500000   0.2500000), wk =   0.0312500
        k(    8) = (   0.2500000   0.2500000  -0.5000000), wk =   0.0937500
        k(    9) = (   0.2500000  -0.5000000  -0.5000000), wk =   0.0937500
        k(   10) = (  -0.5000000  -0.5000000  -0.5000000), wk =   0.0156250
        k(   11) = (  -0.2500000   0.0000000   0.2500000), wk =   0.0937500
        k(   12) = (   0.2500000  -0.2500000   0.2500000), wk =   0.0937500
        k(   13) = (   0.2500000  -0.2500000  -0.5000000), wk =   0.0937500

                       cryst. coord.
        k(    1) = (   0.0000000   0.0000000   0.0000000), wk =   0.0156250
        k(    2) = (   0.0000000   0.0000000   0.2500000), wk =   0.0937500
        k(    3) = (   0.0000000   0.0000000  -0.5000000), wk =   0.0468750
        k(    4) = (   0.0000000   0.2500000   0.2500000), wk =   0.0937500
        k(    5) = (   0.0000000   0.2500000  -0.5000000), wk =   0.1875000
        k(    6) = (   0.0000000  -0.5000000  -0.5000000), wk =   0.0468750
        k(    7) = (   0.2500000   0.2500000   0.2500000), wk =   0.0312500
        k(    8) = (   0.2500000   0.2500000  -0.5000000), wk =   0.0937500
        k(    9) = (   0.2500000  -0.5000000  -0.5000000), wk =   0.0937500
        k(   10) = (  -0.5000000  -0.5000000  -0.5000000), wk =   0.0156250
        k(   11) = (  -0.2500000   0.0000000   0.2500000), wk =   0.0937500
        k(   12) = (   0.2500000  -0.2500000   0.2500000), wk =   0.0937500
        k(   13) = (   0.2500000  -0.2500000  -0.5000000), wk =   0.0937500

     Dense  grid:  2160009 G-vectors     FFT dimensions: ( 162, 162, 162)

     Dynamical RAM for                 wfc:      12.76 MB

     Dynamical RAM for     wfc (w. buffer):      38.28 MB

     Dynamical RAM for           str. fact:       0.88 MB

     Dynamical RAM for           local pot:       0.00 MB

     Dynamical RAM for          nlocal pot:      41.70 MB

     Dynamical RAM for                qrad:       5.90 MB

     Dynamical RAM for          rho,v,vnew:       4.17 MB

     Dynamical RAM for           G-vectors:       1.25 MB

     Dynamical RAM for          h,s,v(r/c):       2.44 MB

     Dynamical RAM for          <psi|beta>:       6.00 MB

     Dynamical RAM for                 psi:      25.52 MB

     Dynamical RAM for                hpsi:      25.52 MB

     Dynamical RAM for                spsi:      25.52 MB

     Dynamical RAM for      wfcinit/wfcrot:      34.28 MB

     Dynamical RAM for           addusdens:       5.48 MB

     Estimated static dynamical RAM per process >      95.76 MB

     Estimated max dynamical RAM per process >     180.77 MB

     Estimated total dynamical RAM >     257.03 GB
     Generating pointlists ...
     new r_m :   0.0893 (alat units)  1.8370 (a.u.) for type    1
     new r_m :   0.0893 (alat units)  1.8370 (a.u.) for type    2
     new r_m :   0.0893 (alat units)  1.8370 (a.u.) for type    3

     The potential is recalculated from file :
     ./out/Cu_vac_qn1_unrlxd.save/charge-density

     Starting wfcs are  413 randomized atomic wfcs
     Checking if some PAW data can be deallocated... 
       PAW data deallocated on  740 nodes for type:  1
       PAW data deallocated on  739 nodes for type:  2
       PAW data deallocated on 1433 nodes for type:  3

     Band Structure Calculation
     Davidson diagonalization with overlap

     Computing kpt #:     1  of     2 on this pool
     total cpu time spent up to now is      145.5 secs

     Computing kpt #:     2  of     2 on this pool
     c_bands:  2 eigenvalues not converged
     total cpu time spent up to now is      276.5 secs

     ethr =  1.73E-12,  avg # of iterations = 92.7

     total cpu time spent up to now is      276.7 secs

     End of band structure calculation

 ------ SPIN UP ------------


          k = 0.0000 0.0000 0.0000 (269825 PWs)   bands (ev):

  -104.3236 -61.7315 -61.7304 -61.7304  -7.6385  -7.1279  -7.1279  -7.1146
    -7.1146  -7.1052  -7.0547  -6.8272  -6.8272  -6.8257  -6.8150  -6.8051
    -6.8040  -6.8040  -6.8026  -6.8026  -6.7999  -6.7986  -6.7986  -6.6625
    -6.6625  -6.6259  -6.5072  -6.5042  -6.5042  -6.4738  -6.4727  -6.4727
    -6.2970  -6.1224  -6.1224  -0.9366  -0.9363  -0.9363  -0.9274  -0.9274
    -0.9230  -0.8779  -0.8779  -0.8611  -0.8576  -0.8576  -0.8485  -0.8162
    -0.8131  -0.8131  -0.8087  -0.8087  -0.7968  -0.7968  -0.7910  -0.7908
    -0.7908  -0.7898  -0.7735  -0.7701  -0.7701  -0.7676  -0.7640  -0.7596
    -0.7596  -0.7471  -0.7471  -0.7446  -0.7442  -0.7442  -0.7389  -0.7389
    -0.7380  -0.7351  -0.7315  -0.7306  -0.7306  -0.7261  -0.7261  -0.7143
    -0.7028  -0.7028  -0.7008  -0.6820  -0.6820  -0.6809  -0.6789  -0.6755
    -0.6755  -0.6393  -0.6178  -0.6178  -0.6170  -0.6164  -0.6164  -0.6025
    -0.6025  -0.6012  -0.5942  -0.5942  -0.5813  -0.5732  -0.5732  -0.5715
    -0.5715  -0.5535  -0.5519  -0.5519  -0.5385  -0.5385  -0.5379  -0.5307
    -0.5133  -0.4958  -0.4958  -0.4820  -0.4820  -0.4765  -0.4721  -0.4721
    -0.4705  -0.4705  -0.4701  -0.4683  -0.4543  -0.4543  -0.4403  -0.4320
    -0.4320  -0.4269  -0.4256  -0.4189  -0.4189  -0.4127  -0.4127  -0.4063
    -0.4063  -0.4018  -0.3954  -0.3954  -0.3914  -0.3900  -0.3900  -0.3893
    -0.3877  -0.3860  -0.3860  -0.3841  -0.3632  -0.3475  -0.3475  -0.3367
    -0.3367  -0.3295  -0.3217  -0.3217  -0.3142  -0.3142  -0.3118  -0.3060
    -0.2955  -0.2955  -0.2855  -0.2821  -0.2821  -0.2781  -0.2717  -0.2717
    -0.2513  -0.2192  -0.2089  -0.2089  -0.1941  -0.1941  -0.1926  -0.1813
    -0.1813  -0.1767  -0.1757  -0.1659  -0.1659  -0.1483  -0.1483  -0.1364
    -0.0572  -0.0145  -0.0145   0.0215   0.0215   0.0306   0.2149   0.2744
     0.3008   0.3008   0.8209   0.8307   0.8307   0.8756   0.8795   0.8795
     1.0225   1.0225   1.0891   1.2848   1.4277   1.4277   1.4661   1.4661
     1.4935   1.4981   1.4981   1.5047   1.6917   1.6917   2.0746   2.6268
     2.6993   2.6993   2.7028   2.7030   2.7083   2.7099   2.7099   2.7275
     2.7275   2.7368   2.7368   2.7426   2.7879   2.7879   2.8248   2.8248
     2.8713   2.8993   2.8993   2.9206   2.9309   2.9309   2.9388   3.0006
     3.0006   3.0619   3.1062   3.1062   3.2244   3.2366   3.2555   3.2555
     3.5877   3.5877   3.6528   4.0283   4.0283   4.1490   4.1561   4.1561
     4.1769   4.1884   4.1884   4.2029   4.2813   4.3255   4.3255   4.3637
     4.3637   4.4504   4.4504   4.4528   4.4533   4.4598   4.4598   4.4653
     4.4653   4.4679   4.4746   4.4801   4.4801   4.5255   4.5255   4.6383
     5.2052   5.2052   5.2282   5.6314   5.6478   5.6478   6.2405   6.2405
     6.5583   7.7576   8.5889   8.5889   8.6759   8.7515   8.8196   8.8196
     8.9310   8.9310   9.0893   9.4657   9.4701   9.4701   9.4968   9.8155
     9.8155   9.8950   9.9218   9.9218   9.9411   9.9678   9.9682   9.9682
     9.9760   9.9760  10.1299  10.1299  10.1306  10.1517  10.1517  10.1808
    10.1808  10.2059  10.2814  10.6218  10.6218  10.6810  11.0370  11.1196
    11.1196  11.1640  11.1640  11.2792  11.2891  11.2891  11.3018  11.6350
    11.6350  11.6760  11.7941  11.8206  11.8206  11.8298  11.9839  11.9839
    11.9922  11.9990  11.9990

     occupation numbers 
     1.0000   1.0000   1.0000   1.0000   1.0000   1.0000   1.0000   1.0000
     1.0000   1.0000   1.0000   1.0000   1.0000   1.0000   1.0000   1.0000
     1.0000   1.0000   1.0000   1.0000   1.0000   1.0000   1.0000   1.0000
     1.0000   1.0000   1.0000   1.0000   1.0000   1.0000   1.0000   1.0000
     1.0000   1.0000   1.0000   1.0000   1.0000   1.0000   1.0000   1.0000
     1.0000   1.0000   1.0000   1.0000   1.0000   1.0000   1.0000   1.0000
     1.0000   1.0000   1.0000   1.0000   1.0000   1.0000   1.0000   1.0000
     1.0000   1.0000   1.0000   1.0000   1.0000   1.0000   1.0000   1.0000
     1.0000   1.0000   1.0000   1.0000   1.0000   1.0000   1.0000   1.0000
     1.0000   1.0000   1.0000   1.0000   1.0000   1.0000   1.0000   1.0000
     1.0000   1.0000   1.0000   1.0000   1.0000   1.0000   1.0000   1.0000
     1.0000   1.0000   1.0000   1.0000   1.0000   1.0000   1.0000   1.0000
     1.0000   1.0000   1.0000   1.0000   1.0000   1.0000   1.0000   1.0000
     1.0000   1.0000   1.0000   1.0000   1.0000   1.0000   1.0000   1.0000
     1.0000   1.0000   1.0000   1.0000   1.0000   1.0000   1.0000   1.0000
     1.0000   1.0000   1.0000   1.0000   1.0000   1.0000   1.0000   1.0000
     1.0000   1.0000   1.0000   1.0000   1.0000   1.0000   1.0000   1.0000
     1.0000   1.0000   1.0000   1.0000   1.0000   1.0000   1.0000   1.0000
     1.0000   1.0000   1.0000   1.0000   1.0000   1.0000   1.0000   1.0000
     1.0000   1.0000   1.0000   1.0000   1.0000   1.0000   1.0000   1.0000
     1.0000   1.0000   1.0000   1.0000   1.0000   1.0000   1.0000   1.0000
     1.0000   1.0000   1.0000   1.0000   1.0000   1.0000   1.0000   1.0000
     1.0000   1.0000   1.0000   1.0000   1.0000   1.0000   1.0000   1.0000
     1.0000   1.0000   1.0000   1.0000   1.0000   1.0000   1.0000   1.0000
     1.0000   1.0000   1.0000   1.0000   1.0000   1.0000   1.0000   1.0000
     1.0000   1.0000   1.0000   1.0000   1.0000   1.0000   1.0000   1.0000
     1.0000   1.0000   1.0000   1.0000   1.0000   1.0000   1.0000   1.0000
     1.0000   1.0000   1.0000   1.0000   1.0000   1.0000   1.0000   1.0000
     1.0000   1.0000   1.0000   1.0000   1.0000   1.0000   1.0000   1.0000
     1.0000   1.0000   1.0000   1.0000   1.0000   1.0000   1.0000   1.0000
     1.0000   1.0000   1.0000   1.0000   1.0000   1.0000   1.0000   1.0000
     1.0000   1.0000   1.0000   1.0000   1.0000   1.0000   1.0000   1.0000
     1.0000   1.0000   1.0000   1.0000   1.0000   1.0000   1.0000   1.0000
     1.0000   1.0000   1.0000   1.0000   1.0000   1.0000   1.0000   1.0000
     1.0000   1.0000   1.0000   1.0000   1.0000   1.0000   1.0000   1.0000
     1.0000   1.0000   1.0000   1.0000   1.0000   1.0000   1.0000   1.0000
     1.0000   0.0000   0.0000   0.0000   0.0000   0.0000   0.0000   0.0000
     0.0000   0.0000   0.0000   0.0000   0.0000   0.0000   0.0000   0.0000
     0.0000   0.0000   0.0000   0.0000   0.0000   0.0000   0.0000   0.0000
     0.0000   0.0000   0.0000   0.0000   0.0000   0.0000   0.0000   0.0000
     0.0000   0.0000   0.0000   0.0000   0.0000   0.0000   0.0000   0.0000
     0.0000   0.0000   0.0000   0.0000   0.0000   0.0000   0.0000   0.0000
     0.0000   0.0000   0.0000   0.0000   0.0000   0.0000   0.0000   0.0000
     0.0000   0.0000   0.0000

          k = 0.0000 0.0000 0.2500 (269876 PWs)   bands (ev):

  -104.3236 -61.7315 -61.7304 -61.7304  -7.6035  -7.3155  -7.1037  -7.0939
    -7.0898  -7.0653  -6.9285  -6.9139  -6.9061  -6.8921  -6.8764  -6.8184
    -6.8155  -6.8112  -6.8089  -6.7514  -6.7367  -6.7267  -6.6778  -6.6547
    -6.6346  -6.6158  -6.5505  -6.5096  -6.5086  -6.4980  -6.4848  -6.4835
    -6.2898  -6.1328  -6.1242  -0.9341  -0.9244  -0.9232  -0.9231  -0.9124
    -0.9078  -0.8742  -0.8663  -0.8604  -0.8526  -0.8508  -0.8391  -0.8242
    -0.8232  -0.8178  -0.8089  -0.8081  -0.8021  -0.8020  -0.7972  -0.7951
    -0.7911  -0.7908  -0.7834  -0.7798  -0.7783  -0.7658  -0.7651  -0.7649
    -0.7625  -0.7603  -0.7570  -0.7550  -0.7511  -0.7460  -0.7449  -0.7423
    -0.7396  -0.7393  -0.7362  -0.7293  -0.7273  -0.7254  -0.7159  -0.7139
    -0.7119  -0.7115  -0.7018  -0.6976  -0.6964  -0.6835  -0.6830  -0.6674
    -0.6639  -0.6604  -0.6503  -0.6397  -0.6303  -0.6298  -0.6220  -0.6182
    -0.6138  -0.5987  -0.5977  -0.5916  -0.5851  -0.5779  -0.5777  -0.5693
    -0.5631  -0.5490  -0.5478  -0.5347  -0.5252  -0.5100  -0.5061  -0.4982
    -0.4961  -0.4901  -0.4896  -0.4822  -0.4803  -0.4767  -0.4659  -0.4649
    -0.4624  -0.4609  -0.4561  -0.4552  -0.4474  -0.4447  -0.4311  -0.4300
    -0.4280  -0.4248  -0.4230  -0.4228  -0.4179  -0.4140  -0.4126  -0.4090
    -0.4049  -0.4041  -0.4015  -0.3995  -0.3956  -0.3917  -0.3900  -0.3866
    -0.3843  -0.3774  -0.3759  -0.3642  -0.3611  -0.3515  -0.3489  -0.3397
    -0.3393  -0.3322  -0.3186  -0.3160  -0.3135  -0.3103  -0.3070  -0.3034
    -0.2974  -0.2891  -0.2874  -0.2807  -0.2791  -0.2790  -0.2744  -0.2687
    -0.2605  -0.2513  -0.2424  -0.2345  -0.2283  -0.2174  -0.1933  -0.1908
    -0.1827  -0.1752  -0.1746  -0.1727  -0.1570  -0.1561  -0.1415  -0.1292
    -0.0827  -0.0474  -0.0431  -0.0116  -0.0077   0.0009   0.4061   0.4413
     0.4586   0.4594   0.8241   0.8411   0.8624   0.8793   0.8902   0.9023
     0.9957   1.0059   1.0643   1.1783   1.1869   1.1944   1.2136   1.2270
     1.3637   1.3895   1.5871   1.8444   1.8500   1.9047   2.0209   2.2815
     2.4771   2.4926   2.4965   2.5069   2.5555   2.6015   2.6156   2.6327
     2.6383   2.6628   2.7223   2.8034   2.8062   2.8383   2.8826   2.9451
     3.1092   3.1143   3.1213   3.1252   3.1502   3.1513   3.2042   3.2105
     3.2280   3.2500   3.2704   3.2784   3.2940   3.3269   3.3705   3.4686
     3.5753   3.6182   3.7140   3.8520   3.8668   4.0046   4.0111   4.0780
     4.1043   4.1263   4.1330   4.1941   4.1991   4.2296   4.2635   4.2748
     4.2985   4.3004   4.3366   4.3489   4.4343   4.4496   4.4561   4.4606
     4.4636   4.4728   4.5070   4.5374   4.5577   4.5702   4.5884   4.6299
     4.8888   5.1147   5.1422   5.6104   5.6396   5.6514   6.1934   6.2302
     6.7863   7.9801   8.5804   8.6586   8.8666   8.8857   8.9269   8.9777
     9.0216   9.1065   9.2293   9.3958   9.4526   9.6058   9.6285   9.6567
     9.6991   9.8621   9.8661   9.9022   9.9032   9.9260  10.0130  10.0274
    10.0403  10.0948  10.1082  10.1639  10.1667  10.1814  10.2238  10.2443
    10.2918  10.3352  10.4715  10.5298  10.5551  10.6397  10.6580  10.7722
    10.8675  10.9156  10.9408  11.1303  11.1915  11.2420  11.4039  11.5407
    11.5701  11.5872  11.6325  11.6887  11.7037  11.7299  11.7573  11.8352
    11.8474  11.8688  11.8737

     occupation numbers 
     1.0000   1.0000   1.0000   1.0000   1.0000   1.0000   1.0000   1.0000
     1.0000   1.0000   1.0000   1.0000   1.0000   1.0000   1.0000   1.0000
     1.0000   1.0000   1.0000   1.0000   1.0000   1.0000   1.0000   1.0000
     1.0000   1.0000   1.0000   1.0000   1.0000   1.0000   1.0000   1.0000
     1.0000   1.0000   1.0000   1.0000   1.0000   1.0000   1.0000   1.0000
     1.0000   1.0000   1.0000   1.0000   1.0000   1.0000   1.0000   1.0000
     1.0000   1.0000   1.0000   1.0000   1.0000   1.0000   1.0000   1.0000
     1.0000   1.0000   1.0000   1.0000   1.0000   1.0000   1.0000   1.0000
     1.0000   1.0000   1.0000   1.0000   1.0000   1.0000   1.0000   1.0000
     1.0000   1.0000   1.0000   1.0000   1.0000   1.0000   1.0000   1.0000
     1.0000   1.0000   1.0000   1.0000   1.0000   1.0000   1.0000   1.0000
     1.0000   1.0000   1.0000   1.0000   1.0000   1.0000   1.0000   1.0000
     1.0000   1.0000   1.0000   1.0000   1.0000   1.0000   1.0000   1.0000
     1.0000   1.0000   1.0000   1.0000   1.0000   1.0000   1.0000   1.0000
     1.0000   1.0000   1.0000   1.0000   1.0000   1.0000   1.0000   1.0000
     1.0000   1.0000   1.0000   1.0000   1.0000   1.0000   1.0000   1.0000
     1.0000   1.0000   1.0000   1.0000   1.0000   1.0000   1.0000   1.0000
     1.0000   1.0000   1.0000   1.0000   1.0000   1.0000   1.0000   1.0000
     1.0000   1.0000   1.0000   1.0000   1.0000   1.0000   1.0000   1.0000
     1.0000   1.0000   1.0000   1.0000   1.0000   1.0000   1.0000   1.0000
     1.0000   1.0000   1.0000   1.0000   1.0000   1.0000   1.0000   1.0000
     1.0000   1.0000   1.0000   1.0000   1.0000   1.0000   1.0000   1.0000
     1.0000   1.0000   1.0000   1.0000   1.0000   1.0000   1.0000   1.0000
     1.0000   1.0000   1.0000   1.0000   1.0000   1.0000   1.0000   1.0000
     1.0000   1.0000   1.0000   1.0000   1.0000   1.0000   1.0000   1.0000
     1.0000   1.0000   1.0000   1.0000   1.0000   1.0000   1.0000   1.0000
     1.0000   1.0000   1.0000   1.0000   1.0000   1.0000   1.0000   1.0000
     1.0000   1.0000   1.0000   1.0000   1.0000   1.0000   1.0000   1.0000
     1.0000   1.0000   1.0000   1.0000   1.0000   1.0000   1.0000   1.0000
     1.0000   1.0000   1.0000   1.0000   1.0000   1.0000   1.0000   1.0000
     1.0000   1.0000   1.0000   1.0000   1.0000   1.0000   1.0000   1.0000
     1.0000   1.0000   1.0000   1.0000   1.0000   1.0000   1.0000   1.0000
     1.0000   1.0000   1.0000   1.0000   1.0000   1.0000   1.0000   1.0000
     1.0000   1.0000   1.0000   1.0000   1.0000   1.0000   1.0000   1.0000
     1.0000   1.0000   1.0000   1.0000   1.0000   1.0000   1.0000   1.0000
     1.0000   1.0000   1.0000   1.0000   1.0000   1.0000   1.0000   1.0000
     1.0000   0.0000   0.0000   0.0000   0.0000   0.0000   0.0000   0.0000
     0.0000   0.0000   0.0000   0.0000   0.0000   0.0000   0.0000   0.0000
     0.0000   0.0000   0.0000   0.0000   0.0000   0.0000   0.0000   0.0000
     0.0000   0.0000   0.0000   0.0000   0.0000   0.0000   0.0000   0.0000
     0.0000   0.0000   0.0000   0.0000   0.0000   0.0000   0.0000   0.0000
     0.0000   0.0000   0.0000   0.0000   0.0000   0.0000   0.0000   0.0000
     0.0000   0.0000   0.0000   0.0000   0.0000   0.0000   0.0000   0.0000
     0.0000   0.0000   0.0000

          k = 0.0000 0.0000-0.5000 (270152 PWs)   bands (ev):

  -104.3236 -61.7315 -61.7304 -61.7304  -7.5317  -7.4459  -7.0592  -7.0571
    -7.0498  -7.0417  -7.0258  -6.9814  -6.9653  -6.9136  -6.8219  -6.8168
    -6.8112  -6.8107  -6.7458  -6.7223  -6.7105  -6.7018  -6.6595  -6.6414
    -6.5908  -6.5898  -6.5765  -6.5642  -6.5288  -6.5203  -6.4958  -6.4912
    -6.2814  -6.1444  -6.1260  -0.9316  -0.9214  -0.9012  -0.9011  -0.8864
    -0.8790  -0.8722  -0.8608  -0.8534  -0.8532  -0.8506  -0.8395  -0.8374
    -0.8373  -0.8328  -0.8205  -0.8029  -0.8025  -0.8024  -0.8016  -0.7982
    -0.7981  -0.7934  -0.7902  -0.7897  -0.7845  -0.7811  -0.7798  -0.7765
    -0.7712  -0.7669  -0.7607  -0.7576  -0.7539  -0.7524  -0.7478  -0.7461
    -0.7414  -0.7384  -0.7366  -0.7347  -0.7347  -0.7261  -0.7243  -0.7134
    -0.7132  -0.7098  -0.7081  -0.7057  -0.7011  -0.6831  -0.6830  -0.6634
    -0.6556  -0.6533  -0.6505  -0.6442  -0.6390  -0.6344  -0.6334  -0.6270
    -0.6121  -0.6033  -0.6005  -0.5974  -0.5923  -0.5864  -0.5740  -0.5612
    -0.5526  -0.5358  -0.5280  -0.5202  -0.5093  -0.5093  -0.4996  -0.4942
    -0.4882  -0.4837  -0.4802  -0.4755  -0.4737  -0.4734  -0.4651  -0.4644
    -0.4561  -0.4555  -0.4525  -0.4444  -0.4441  -0.4385  -0.4383  -0.4339
    -0.4316  -0.4294  -0.4289  -0.4257  -0.4192  -0.4171  -0.4164  -0.4123
    -0.4103  -0.4072  -0.4010  -0.3999  -0.3976  -0.3919  -0.3883  -0.3832
    -0.3823  -0.3759  -0.3738  -0.3718  -0.3625  -0.3529  -0.3527  -0.3501
    -0.3361  -0.3349  -0.3241  -0.3163  -0.3097  -0.3090  -0.3057  -0.3049
    -0.2981  -0.2945  -0.2877  -0.2861  -0.2852  -0.2762  -0.2752  -0.2732
    -0.2630  -0.2629  -0.2385  -0.2317  -0.2136  -0.1893  -0.1861  -0.1829
    -0.1761  -0.1684  -0.1601  -0.1546  -0.1441  -0.1401  -0.1322  -0.1182
    -0.0964  -0.0822  -0.0783  -0.0725  -0.0656  -0.0585   0.6852   0.7475
     0.7584   0.7646   0.8071   0.8195   0.8287   0.8288   0.8485   0.8627
     0.8941   0.9172   0.9553   0.9602   0.9781   0.9891   1.0058   1.2196
     1.2614   1.4255   1.5004   1.8161   2.0906   2.2205   2.2427   2.2613
     2.2702   2.3056   2.3149   2.4352   2.4384   2.4424   2.4518   2.4931
     2.5336   2.5505   2.6758   2.8198   2.9041   2.9174   2.9176   2.9524
     3.0348   3.0767   3.1317   3.1826   3.4331   3.4497   3.5172   3.5397
     3.6190   3.6238   3.6498   3.6522   3.6562   3.6612   3.6666   3.6767
     3.6792   3.6834   3.6908   3.7005   3.7161   3.7362   3.7477   3.7946
     3.8028   3.8073   3.8364   3.8465   3.8604   4.0662   4.1646   4.1976
     4.2508   4.3391   4.3509   4.3714   4.4502   4.4537   4.4552   4.4587
     4.4678   4.4709   4.4801   4.4835   4.4912   4.5283   4.5765   4.8359
     4.8449   4.9187   4.9549   5.6013   5.6326   5.6548   6.1578   6.2199
     6.9889   8.1494   8.6759   8.7478   8.8825   9.0751   9.1685   9.2108
     9.3274   9.3831   9.4082   9.4443   9.4649   9.5219   9.5652   9.6149
     9.6202   9.6926   9.7810   9.7981   9.8506   9.9743   9.9893   9.9961
    10.0010  10.0359  10.1187  10.1279  10.1811  10.2232  10.2917  10.3927
    10.4324  10.4599  10.5346  10.5449  10.5685  10.5755  10.6969  10.7024
    10.7318  10.7450  10.9041  10.9058  10.9828  10.9868  11.0901  11.2204
    11.2286  11.2294  11.3084  11.5588  11.5933  11.6359  11.6555  11.6666
    11.8204  11.8521  11.8621

     occupation numbers 
     1.0000   1.0000   1.0000   1.0000   1.0000   1.0000   1.0000   1.0000
     1.0000   1.0000   1.0000   1.0000   1.0000   1.0000   1.0000   1.0000
     1.0000   1.0000   1.0000   1.0000   1.0000   1.0000   1.0000   1.0000
     1.0000   1.0000   1.0000   1.0000   1.0000   1.0000   1.0000   1.0000
     1.0000   1.0000   1.0000   1.0000   1.0000   1.0000   1.0000   1.0000
     1.0000   1.0000   1.0000   1.0000   1.0000   1.0000   1.0000   1.0000
     1.0000   1.0000   1.0000   1.0000   1.0000   1.0000   1.0000   1.0000
     1.0000   1.0000   1.0000   1.0000   1.0000   1.0000   1.0000   1.0000
     1.0000   1.0000   1.0000   1.0000   1.0000   1.0000   1.0000   1.0000
     1.0000   1.0000   1.0000   1.0000   1.0000   1.0000   1.0000   1.0000
     1.0000   1.0000   1.0000   1.0000   1.0000   1.0000   1.0000   1.0000
     1.0000   1.0000   1.0000   1.0000   1.0000   1.0000   1.0000   1.0000
     1.0000   1.0000   1.0000   1.0000   1.0000   1.0000   1.0000   1.0000
     1.0000   1.0000   1.0000   1.0000   1.0000   1.0000   1.0000   1.0000
     1.0000   1.0000   1.0000   1.0000   1.0000   1.0000   1.0000   1.0000
     1.0000   1.0000   1.0000   1.0000   1.0000   1.0000   1.0000   1.0000
     1.0000   1.0000   1.0000   1.0000   1.0000   1.0000   1.0000   1.0000
     1.0000   1.0000   1.0000   1.0000   1.0000   1.0000   1.0000   1.0000
     1.0000   1.0000   1.0000   1.0000   1.0000   1.0000   1.0000   1.0000
     1.0000   1.0000   1.0000   1.0000   1.0000   1.0000   1.0000   1.0000
     1.0000   1.0000   1.0000   1.0000   1.0000   1.0000   1.0000   1.0000
     1.0000   1.0000   1.0000   1.0000   1.0000   1.0000   1.0000   1.0000
     1.0000   1.0000   1.0000   1.0000   1.0000   1.0000   1.0000   1.0000
     1.0000   1.0000   1.0000   1.0000   1.0000   1.0000   1.0000   1.0000
     1.0000   1.0000   1.0000   1.0000   1.0000   1.0000   1.0000   1.0000
     1.0000   1.0000   1.0000   1.0000   1.0000   1.0000   1.0000   1.0000
     1.0000   1.0000   1.0000   1.0000   1.0000   1.0000   1.0000   1.0000
     1.0000   1.0000   1.0000   1.0000   1.0000   1.0000   1.0000   1.0000
     1.0000   1.0000   1.0000   1.0000   1.0000   1.0000   1.0000   1.0000
     1.0000   1.0000   1.0000   1.0000   1.0000   1.0000   1.0000   1.0000
     1.0000   1.0000   1.0000   1.0000   1.0000   1.0000   1.0000   1.0000
     1.0000   1.0000   1.0000   1.0000   1.0000   1.0000   1.0000   1.0000
     1.0000   1.0000   1.0000   1.0000   1.0000   1.0000   1.0000   1.0000
     1.0000   1.0000   1.0000   1.0000   1.0000   1.0000   1.0000   1.0000
     1.0000   1.0000   1.0000   1.0000   1.0000   1.0000   1.0000   1.0000
     1.0000   1.0000   1.0000   1.0000   1.0000   1.0000   1.0000   1.0000
     1.0000   0.0000   0.0000   0.0000   0.0000   0.0000   0.0000   0.0000
     0.0000   0.0000   0.0000   0.0000   0.0000   0.0000   0.0000   0.0000
     0.0000   0.0000   0.0000   0.0000   0.0000   0.0000   0.0000   0.0000
     0.0000   0.0000   0.0000   0.0000   0.0000   0.0000   0.0000   0.0000
     0.0000   0.0000   0.0000   0.0000   0.0000   0.0000   0.0000   0.0000
     0.0000   0.0000   0.0000   0.0000   0.0000   0.0000   0.0000   0.0000
     0.0000   0.0000   0.0000   0.0000   0.0000   0.0000   0.0000   0.0000
     0.0000   0.0000   0.0000

          k = 0.0000 0.2500 0.2500 (269929 PWs)   bands (ev):

  -104.3236 -61.7315 -61.7304 -61.7304  -7.5689  -7.3047  -7.2725  -7.0904
    -7.0633  -7.0378  -6.9168  -6.9148  -6.9100  -6.8841  -6.8679  -6.8615
    -6.8003  -6.7707  -6.7689  -6.7680  -6.7173  -6.6830  -6.6760  -6.6359
    -6.6336  -6.5940  -6.5529  -6.5501  -6.5144  -6.5139  -6.5039  -6.4948
    -6.2833  -6.1386  -6.1301  -0.9223  -0.9212  -0.9116  -0.9092  -0.9067
    -0.8958  -0.8631  -0.8629  -0.8577  -0.8453  -0.8442  -0.8339  -0.8285
    -0.8262  -0.8246  -0.8135  -0.8123  -0.8073  -0.8064  -0.8033  -0.7986
    -0.7967  -0.7930  -0.7929  -0.7830  -0.7777  -0.7737  -0.7697  -0.7668
    -0.7643  -0.7642  -0.7611  -0.7571  -0.7561  -0.7512  -0.7503  -0.7492
    -0.7475  -0.7394  -0.7353  -0.7329  -0.7291  -0.7246  -0.7228  -0.7162
    -0.7098  -0.7074  -0.7008  -0.6976  -0.6888  -0.6869  -0.6763  -0.6721
    -0.6633  -0.6572  -0.6541  -0.6408  -0.6307  -0.6303  -0.6249  -0.6216
    -0.6203  -0.6173  -0.6061  -0.5966  -0.5936  -0.5884  -0.5808  -0.5766
    -0.5730  -0.5517  -0.5513  -0.5400  -0.5183  -0.5101  -0.5078  -0.4956
    -0.4948  -0.4908  -0.4879  -0.4853  -0.4743  -0.4730  -0.4682  -0.4665
    -0.4608  -0.4590  -0.4487  -0.4450  -0.4439  -0.4398  -0.4347  -0.4309
    -0.4297  -0.4273  -0.4256  -0.4226  -0.4153  -0.4136  -0.4135  -0.4096
    -0.4068  -0.4012  -0.3996  -0.3953  -0.3938  -0.3930  -0.3899  -0.3877
    -0.3869  -0.3831  -0.3748  -0.3673  -0.3650  -0.3477  -0.3448  -0.3378
    -0.3373  -0.3272  -0.3226  -0.3152  -0.3116  -0.3103  -0.3055  -0.3004
    -0.2982  -0.2911  -0.2825  -0.2793  -0.2755  -0.2730  -0.2727  -0.2581
    -0.2503  -0.2493  -0.2284  -0.2133  -0.2089  -0.1962  -0.1913  -0.1855
    -0.1782  -0.1759  -0.1738  -0.1650  -0.1604  -0.1414  -0.1359  -0.1160
    -0.0804  -0.0735  -0.0636  -0.0400  -0.0215  -0.0073   0.3620   0.3955
     0.6990   0.7283   0.8130   0.8316   0.8412   0.8819   0.8902   0.9293
     0.9328   0.9656   0.9868   0.9872   0.9988   1.1475   1.1766   1.3524
     1.5027   1.5045   1.5626   1.5879   1.7670   1.8658   2.0493   2.1273
     2.3345   2.3901   2.4240   2.4590   2.4930   2.5523   2.5665   2.6627
     2.6999   2.7218   2.8663   2.8875   2.9380   2.9465   2.9936   2.9972
     3.0503   3.1286   3.1485   3.1911   3.1965   3.2132   3.2596   3.2652
     3.2835   3.3199   3.3501   3.3867   3.4488   3.4864   3.5853   3.6072
     3.6467   3.6476   3.7020   3.7557   3.8750   3.9120   3.9355   3.9908
     3.9938   4.0587   4.0872   4.1159   4.1164   4.1326   4.1686   4.1735
     4.1964   4.2325   4.3027   4.3303   4.3720   4.3911   4.4251   4.4342
     4.4580   4.4777   4.5201   4.5310   4.5632   4.5708   4.6676   4.7131
     4.7957   5.0232   5.1672   5.5942   5.6368   5.6430   6.1974   6.2328
     6.8865   8.1447   8.6134   8.6567   8.8871   8.9630   9.1412   9.1540
     9.1679   9.2013   9.2264   9.4722   9.5427   9.5515   9.6901   9.6904
     9.7474   9.7578   9.7646   9.7968   9.8064   9.8614   9.8837   9.9475
     9.9947  10.0418  10.0610  10.1132  10.1267  10.1527  10.2339  10.3143
    10.3943  10.4841  10.5332  10.5648  10.5732  10.6337  10.6736  10.7275
    10.7974  10.8807  10.8878  10.9903  11.0489  11.1915  11.2603  11.3357
    11.3507  11.4935  11.5462  11.5638  11.6200  11.6415  11.6653  11.7160
    11.7625  11.7813  11.8039

     occupation numbers 
     1.0000   1.0000   1.0000   1.0000   1.0000   1.0000   1.0000   1.0000
     1.0000   1.0000   1.0000   1.0000   1.0000   1.0000   1.0000   1.0000
     1.0000   1.0000   1.0000   1.0000   1.0000   1.0000   1.0000   1.0000
     1.0000   1.0000   1.0000   1.0000   1.0000   1.0000   1.0000   1.0000
     1.0000   1.0000   1.0000   1.0000   1.0000   1.0000   1.0000   1.0000
     1.0000   1.0000   1.0000   1.0000   1.0000   1.0000   1.0000   1.0000
     1.0000   1.0000   1.0000   1.0000   1.0000   1.0000   1.0000   1.0000
     1.0000   1.0000   1.0000   1.0000   1.0000   1.0000   1.0000   1.0000
     1.0000   1.0000   1.0000   1.0000   1.0000   1.0000   1.0000   1.0000
     1.0000   1.0000   1.0000   1.0000   1.0000   1.0000   1.0000   1.0000
     1.0000   1.0000   1.0000   1.0000   1.0000   1.0000   1.0000   1.0000
     1.0000   1.0000   1.0000   1.0000   1.0000   1.0000   1.0000   1.0000
     1.0000   1.0000   1.0000   1.0000   1.0000   1.0000   1.0000   1.0000
     1.0000   1.0000   1.0000   1.0000   1.0000   1.0000   1.0000   1.0000
     1.0000   1.0000   1.0000   1.0000   1.0000   1.0000   1.0000   1.0000
     1.0000   1.0000   1.0000   1.0000   1.0000   1.0000   1.0000   1.0000
     1.0000   1.0000   1.0000   1.0000   1.0000   1.0000   1.0000   1.0000
     1.0000   1.0000   1.0000   1.0000   1.0000   1.0000   1.0000   1.0000
     1.0000   1.0000   1.0000   1.0000   1.0000   1.0000   1.0000   1.0000
     1.0000   1.0000   1.0000   1.0000   1.0000   1.0000   1.0000   1.0000
     1.0000   1.0000   1.0000   1.0000   1.0000   1.0000   1.0000   1.0000
     1.0000   1.0000   1.0000   1.0000   1.0000   1.0000   1.0000   1.0000
     1.0000   1.0000   1.0000   1.0000   1.0000   1.0000   1.0000   1.0000
     1.0000   1.0000   1.0000   1.0000   1.0000   1.0000   1.0000   1.0000
     1.0000   1.0000   1.0000   1.0000   1.0000   1.0000   1.0000   1.0000
     1.0000   1.0000   1.0000   1.0000   1.0000   1.0000   1.0000   1.0000
     1.0000   1.0000   1.0000   1.0000   1.0000   1.0000   1.0000   1.0000
     1.0000   1.0000   1.0000   1.0000   1.0000   1.0000   1.0000   1.0000
     1.0000   1.0000   1.0000   1.0000   1.0000   1.0000   1.0000   1.0000
     1.0000   1.0000   1.0000   1.0000   1.0000   1.0000   1.0000   1.0000
     1.0000   1.0000   1.0000   1.0000   1.0000   1.0000   1.0000   1.0000
     1.0000   1.0000   1.0000   1.0000   1.0000   1.0000   1.0000   1.0000
     1.0000   1.0000   1.0000   1.0000   1.0000   1.0000   1.0000   1.0000
     1.0000   1.0000   1.0000   1.0000   1.0000   1.0000   1.0000   1.0000
     1.0000   1.0000   1.0000   1.0000   1.0000   1.0000   1.0000   1.0000
     1.0000   1.0000   1.0000   1.0000   1.0000   1.0000   1.0000   1.0000
     1.0000   0.0000   0.0000   0.0000   0.0000   0.0000   0.0000   0.0000
     0.0000   0.0000   0.0000   0.0000   0.0000   0.0000   0.0000   0.0000
     0.0000   0.0000   0.0000   0.0000   0.0000   0.0000   0.0000   0.0000
     0.0000   0.0000   0.0000   0.0000   0.0000   0.0000   0.0000   0.0000
     0.0000   0.0000   0.0000   0.0000   0.0000   0.0000   0.0000   0.0000
     0.0000   0.0000   0.0000   0.0000   0.0000   0.0000   0.0000   0.0000
     0.0000   0.0000   0.0000   0.0000   0.0000   0.0000   0.0000   0.0000
     0.0000   0.0000   0.0000

          k = 0.0000 0.2500-0.5000 (269962 PWs)   bands (ev):

  -104.3236 -61.7315 -61.7304 -61.7304  -7.4980  -7.4179  -7.2380  -7.1582
    -7.0318  -7.0277  -6.9711  -6.9578  -6.8961  -6.8910  -6.8514  -6.8182
    -6.8009  -6.7696  -6.7129  -6.7081  -6.6932  -6.6725  -6.6555  -6.6342
    -6.6102  -6.6065  -6.5783  -6.5645  -6.5474  -6.5332  -6.5187  -6.5023
    -6.2763  -6.1483  -6.1329  -0.9203  -0.9048  -0.9021  -0.8944  -0.8813
    -0.8703  -0.8621  -0.8560  -0.8550  -0.8467  -0.8428  -0.8359  -0.8326
    -0.8311  -0.8298  -0.8220  -0.8184  -0.8177  -0.8105  -0.8043  -0.8008
    -0.7998  -0.7977  -0.7940  -0.7919  -0.7864  -0.7799  -0.7772  -0.7761
    -0.7731  -0.7689  -0.7664  -0.7629  -0.7576  -0.7560  -0.7521  -0.7493
    -0.7479  -0.7416  -0.7388  -0.7352  -0.7322  -0.7291  -0.7247  -0.7131
    -0.7108  -0.7048  -0.7030  -0.6973  -0.6880  -0.6824  -0.6745  -0.6663
    -0.6602  -0.6554  -0.6506  -0.6460  -0.6394  -0.6351  -0.6322  -0.6246
    -0.6197  -0.6086  -0.6062  -0.6033  -0.5955  -0.5849  -0.5789  -0.5750
    -0.5670  -0.5608  -0.5572  -0.5406  -0.5380  -0.5333  -0.5163  -0.5145
    -0.5072  -0.4979  -0.4918  -0.4854  -0.4811  -0.4698  -0.4667  -0.4601
    -0.4577  -0.4540  -0.4489  -0.4455  -0.4423  -0.4351  -0.4318  -0.4300
    -0.4272  -0.4246  -0.4225  -0.4195  -0.4168  -0.4154  -0.4101  -0.4074
    -0.4038  -0.4002  -0.3983  -0.3962  -0.3938  -0.3925  -0.3905  -0.3867
    -0.3824  -0.3773  -0.3699  -0.3677  -0.3620  -0.3521  -0.3459  -0.3416
    -0.3312  -0.3228  -0.3157  -0.3123  -0.3075  -0.3018  -0.2984  -0.2970
    -0.2937  -0.2885  -0.2816  -0.2800  -0.2736  -0.2693  -0.2635  -0.2611
    -0.2400  -0.2266  -0.2234  -0.2091  -0.1964  -0.1936  -0.1846  -0.1793
    -0.1780  -0.1720  -0.1646  -0.1585  -0.1376  -0.1302  -0.1252  -0.1139
    -0.1005  -0.0932  -0.0699  -0.0563  -0.0489  -0.0471   0.5614   0.5829
     0.6021   0.6359   0.7779   0.8132   0.8227   0.8340   0.8559   0.8782
     0.9175   0.9774   1.0415   1.0800   1.1380   1.1563   1.1682   1.2465
     1.2907   1.4197   1.4737   1.6864   1.8043   1.9036   1.9827   2.0455
     2.0826   2.2989   2.3349   2.4367   2.5887   2.6099   2.6706   2.6788
     2.7035   2.7191   2.7651   2.8174   2.8534   2.9490   2.9528   3.0757
     3.1361   3.2087   3.3210   3.3353   3.3536   3.3721   3.4032   3.4264
     3.4392   3.4704   3.4898   3.5050   3.5285   3.5742   3.6278   3.6624
     3.7022   3.7156   3.7368   3.7769   3.8002   3.8401   3.8569   3.9020
     3.9111   3.9553   3.9709   3.9861   4.0104   4.0495   4.0768   4.1012
     4.1125   4.1726   4.2033   4.2226   4.2500   4.3138   4.3426   4.3832
     4.4075   4.4429   4.4728   4.5044   4.5225   4.7363   4.7995   4.8167
     4.8337   4.9880   5.0591   5.6075   5.6344   5.6512   6.1741   6.2075
     6.9913   8.2732   8.5448   8.7933   8.9564   9.1522   9.2547   9.2942
     9.3177   9.3632   9.4325   9.4829   9.4994   9.5262   9.5634   9.6340
     9.6777   9.6956   9.7372   9.7484   9.7831   9.8162   9.8293   9.8800
     9.9173   9.9689  10.0476  10.0959  10.1940  10.2081  10.2555  10.3548
    10.3701  10.4202  10.4596  10.5131  10.5847  10.6234  10.6985  10.7491
    10.8000  10.8826  10.9514  10.9892  11.0665  11.1836  11.2159  11.2344
    11.2457  11.2958  11.3232  11.3480  11.4245  11.4626  11.5216  11.5630
    11.6143  11.6654  11.7387

     occupation numbers 
     1.0000   1.0000   1.0000   1.0000   1.0000   1.0000   1.0000   1.0000
     1.0000   1.0000   1.0000   1.0000   1.0000   1.0000   1.0000   1.0000
     1.0000   1.0000   1.0000   1.0000   1.0000   1.0000   1.0000   1.0000
     1.0000   1.0000   1.0000   1.0000   1.0000   1.0000   1.0000   1.0000
     1.0000   1.0000   1.0000   1.0000   1.0000   1.0000   1.0000   1.0000
     1.0000   1.0000   1.0000   1.0000   1.0000   1.0000   1.0000   1.0000
     1.0000   1.0000   1.0000   1.0000   1.0000   1.0000   1.0000   1.0000
     1.0000   1.0000   1.0000   1.0000   1.0000   1.0000   1.0000   1.0000
     1.0000   1.0000   1.0000   1.0000   1.0000   1.0000   1.0000   1.0000
     1.0000   1.0000   1.0000   1.0000   1.0000   1.0000   1.0000   1.0000
     1.0000   1.0000   1.0000   1.0000   1.0000   1.0000   1.0000   1.0000
     1.0000   1.0000   1.0000   1.0000   1.0000   1.0000   1.0000   1.0000
     1.0000   1.0000   1.0000   1.0000   1.0000   1.0000   1.0000   1.0000
     1.0000   1.0000   1.0000   1.0000   1.0000   1.0000   1.0000   1.0000
     1.0000   1.0000   1.0000   1.0000   1.0000   1.0000   1.0000   1.0000
     1.0000   1.0000   1.0000   1.0000   1.0000   1.0000   1.0000   1.0000
     1.0000   1.0000   1.0000   1.0000   1.0000   1.0000   1.0000   1.0000
     1.0000   1.0000   1.0000   1.0000   1.0000   1.0000   1.0000   1.0000
     1.0000   1.0000   1.0000   1.0000   1.0000   1.0000   1.0000   1.0000
     1.0000   1.0000   1.0000   1.0000   1.0000   1.0000   1.0000   1.0000
     1.0000   1.0000   1.0000   1.0000   1.0000   1.0000   1.0000   1.0000
     1.0000   1.0000   1.0000   1.0000   1.0000   1.0000   1.0000   1.0000
     1.0000   1.0000   1.0000   1.0000   1.0000   1.0000   1.0000   1.0000
     1.0000   1.0000   1.0000   1.0000   1.0000   1.0000   1.0000   1.0000
     1.0000   1.0000   1.0000   1.0000   1.0000   1.0000   1.0000   1.0000
     1.0000   1.0000   1.0000   1.0000   1.0000   1.0000   1.0000   1.0000
     1.0000   1.0000   1.0000   1.0000   1.0000   1.0000   1.0000   1.0000
     1.0000   1.0000   1.0000   1.0000   1.0000   1.0000   1.0000   1.0000
     1.0000   1.0000   1.0000   1.0000   1.0000   1.0000   1.0000   1.0000
     1.0000   1.0000   1.0000   1.0000   1.0000   1.0000   1.0000   1.0000
     1.0000   1.0000   1.0000   1.0000   1.0000   1.0000   1.0000   1.0000
     1.0000   1.0000   1.0000   1.0000   1.0000   1.0000   1.0000   1.0000
     1.0000   1.0000   1.0000   1.0000   1.0000   1.0000   1.0000   1.0000
     1.0000   1.0000   1.0000   1.0000   1.0000   1.0000   1.0000   1.0000
     1.0000   1.0000   1.0000   1.0000   1.0000   1.0000   1.0000   1.0000
     1.0000   1.0000   1.0000   1.0000   1.0000   1.0000   1.0000   1.0000
     1.0000   0.0000   0.0000   0.0000   0.0000   0.0000   0.0000   0.0000
     0.0000   0.0000   0.0000   0.0000   0.0000   0.0000   0.0000   0.0000
     0.0000   0.0000   0.0000   0.0000   0.0000   0.0000   0.0000   0.0000
     0.0000   0.0000   0.0000   0.0000   0.0000   0.0000   0.0000   0.0000
     0.0000   0.0000   0.0000   0.0000   0.0000   0.0000   0.0000   0.0000
     0.0000   0.0000   0.0000   0.0000   0.0000   0.0000   0.0000   0.0000
     0.0000   0.0000   0.0000   0.0000   0.0000   0.0000   0.0000   0.0000
     0.0000   0.0000   0.0000

          k = 0.0000-0.5000-0.5000 (269920 PWs)   bands (ev):

  -104.3236 -61.7315 -61.7304 -61.7304  -7.4212  -7.3723  -7.3656  -7.2528
    -6.9992  -6.9937  -6.9601  -6.9596  -6.9471  -6.9393  -6.8532  -6.7884
    -6.7078  -6.7033  -6.6674  -6.6623  -6.6545  -6.6498  -6.6449  -6.6410
    -6.6361  -6.6351  -6.6281  -6.6244  -6.5817  -6.5373  -6.5183  -6.5150
    -6.2704  -6.1551  -6.1377  -0.9034  -0.9029  -0.8861  -0.8785  -0.8760
    -0.8659  -0.8581  -0.8518  -0.8462  -0.8375  -0.8367  -0.8353  -0.8341
    -0.8288  -0.8278  -0.8257  -0.8232  -0.8195  -0.8187  -0.8169  -0.8023
    -0.8002  -0.7969  -0.7954  -0.7927  -0.7901  -0.7896  -0.7855  -0.7776
    -0.7714  -0.7678  -0.7672  -0.7641  -0.7626  -0.7619  -0.7593  -0.7574
    -0.7485  -0.7446  -0.7408  -0.7396  -0.7366  -0.7288  -0.7269  -0.7177
    -0.7010  -0.6999  -0.6942  -0.6896  -0.6793  -0.6778  -0.6754  -0.6732
    -0.6646  -0.6589  -0.6587  -0.6541  -0.6426  -0.6369  -0.6334  -0.6302
    -0.6259  -0.6193  -0.6092  -0.6053  -0.6005  -0.5974  -0.5932  -0.5824
    -0.5753  -0.5712  -0.5560  -0.5550  -0.5399  -0.5390  -0.5350  -0.5233
    -0.5214  -0.5111  -0.4924  -0.4892  -0.4771  -0.4665  -0.4636  -0.4599
    -0.4568  -0.4547  -0.4547  -0.4476  -0.4444  -0.4382  -0.4280  -0.4275
    -0.4210  -0.4188  -0.4182  -0.4173  -0.4127  -0.4119  -0.4113  -0.4098
    -0.4095  -0.3995  -0.3961  -0.3922  -0.3913  -0.3877  -0.3864  -0.3855
    -0.3756  -0.3724  -0.3700  -0.3647  -0.3492  -0.3474  -0.3471  -0.3439
    -0.3241  -0.3213  -0.3128  -0.3119  -0.3021  -0.2982  -0.2929  -0.2884
    -0.2877  -0.2831  -0.2810  -0.2764  -0.2750  -0.2636  -0.2618  -0.2596
    -0.2515  -0.2364  -0.2266  -0.2094  -0.2018  -0.1900  -0.1876  -0.1791
    -0.1715  -0.1698  -0.1521  -0.1428  -0.1269  -0.1132  -0.1012  -0.0869
    -0.0807  -0.0783  -0.0566  -0.0376  -0.0288  -0.0284   0.5457   0.5525
     0.5649   0.6059   0.6352   0.6852   0.7201   0.7235   0.7980   0.8879
     0.8983   1.0262   1.2053   1.3163   1.3310   1.3357   1.3515   1.3779
     1.4846   1.4908   1.5184   1.5696   1.5717   1.5757   1.6184   1.7934
     1.7963   2.2435   2.3584   2.4117   2.4370   2.4459   2.9865   3.0263
     3.0406   3.0424   3.0428   3.0491   3.0700   3.0706   3.0845   3.0955
     3.1020   3.1405   3.1579   3.1774   3.2068   3.2898   3.3423   3.3594
     3.3811   3.4689   3.4887   3.4984   3.5033   3.5066   3.5410   3.5599
     3.5902   3.6055   3.6564   3.6709   3.7967   3.8474   3.9039   3.9091
     3.9265   3.9309   4.0051   4.0206   4.0570   4.1066   4.1506   4.1871
     4.2199   4.2427   4.2476   4.2632   4.2838   4.2948   4.3121   4.3199
     4.3318   4.3775   4.3938   4.4484   4.4873   4.5195   4.5661   4.9506
     4.9600   5.0796   5.1356   5.6053   5.6322   5.6629   6.1619   6.2233
     6.9955   8.4293   8.4690   8.8657   8.9673   9.1425   9.2699   9.3459
     9.3584   9.3800   9.3882   9.4049   9.4562   9.4845   9.4905   9.4918
     9.6299   9.6638   9.8631   9.9242   9.9428   9.9721  10.0126  10.0278
    10.0429  10.0838  10.0859  10.0919  10.1472  10.1659  10.1663  10.2043
    10.2367  10.2456  10.2562  10.2785  10.2902  10.3579  10.3826  10.5664
    10.7625  11.0031  11.0806  11.2359  11.2902  11.3004  11.3050  11.3200
    11.3309  11.3930  11.3992  11.4202  11.4567  11.4635  11.5114  11.5249
    11.5382  11.5994  11.6091

     occupation numbers 
     1.0000   1.0000   1.0000   1.0000   1.0000   1.0000   1.0000   1.0000
     1.0000   1.0000   1.0000   1.0000   1.0000   1.0000   1.0000   1.0000
     1.0000   1.0000   1.0000   1.0000   1.0000   1.0000   1.0000   1.0000
     1.0000   1.0000   1.0000   1.0000   1.0000   1.0000   1.0000   1.0000
     1.0000   1.0000   1.0000   1.0000   1.0000   1.0000   1.0000   1.0000
     1.0000   1.0000   1.0000   1.0000   1.0000   1.0000   1.0000   1.0000
     1.0000   1.0000   1.0000   1.0000   1.0000   1.0000   1.0000   1.0000
     1.0000   1.0000   1.0000   1.0000   1.0000   1.0000   1.0000   1.0000
     1.0000   1.0000   1.0000   1.0000   1.0000   1.0000   1.0000   1.0000
     1.0000   1.0000   1.0000   1.0000   1.0000   1.0000   1.0000   1.0000
     1.0000   1.0000   1.0000   1.0000   1.0000   1.0000   1.0000   1.0000
     1.0000   1.0000   1.0000   1.0000   1.0000   1.0000   1.0000   1.0000
     1.0000   1.0000   1.0000   1.0000   1.0000   1.0000   1.0000   1.0000
     1.0000   1.0000   1.0000   1.0000   1.0000   1.0000   1.0000   1.0000
     1.0000   1.0000   1.0000   1.0000   1.0000   1.0000   1.0000   1.0000
     1.0000   1.0000   1.0000   1.0000   1.0000   1.0000   1.0000   1.0000
     1.0000   1.0000   1.0000   1.0000   1.0000   1.0000   1.0000   1.0000
     1.0000   1.0000   1.0000   1.0000   1.0000   1.0000   1.0000   1.0000
     1.0000   1.0000   1.0000   1.0000   1.0000   1.0000   1.0000   1.0000
     1.0000   1.0000   1.0000   1.0000   1.0000   1.0000   1.0000   1.0000
     1.0000   1.0000   1.0000   1.0000   1.0000   1.0000   1.0000   1.0000
     1.0000   1.0000   1.0000   1.0000   1.0000   1.0000   1.0000   1.0000
     1.0000   1.0000   1.0000   1.0000   1.0000   1.0000   1.0000   1.0000
     1.0000   1.0000   1.0000   1.0000   1.0000   1.0000   1.0000   1.0000
     1.0000   1.0000   1.0000   1.0000   1.0000   1.0000   1.0000   1.0000
     1.0000   1.0000   1.0000   1.0000   1.0000   1.0000   1.0000   1.0000
     1.0000   1.0000   1.0000   1.0000   1.0000   1.0000   1.0000   1.0000
     1.0000   1.0000   1.0000   1.0000   1.0000   1.0000   1.0000   1.0000
     1.0000   1.0000   1.0000   1.0000   1.0000   1.0000   1.0000   1.0000
     1.0000   1.0000   1.0000   1.0000   1.0000   1.0000   1.0000   1.0000
     1.0000   1.0000   1.0000   1.0000   1.0000   1.0000   1.0000   1.0000
     1.0000   1.0000   1.0000   1.0000   1.0000   1.0000   1.0000   1.0000
     1.0000   1.0000   1.0000   1.0000   1.0000   1.0000   1.0000   1.0000
     1.0000   1.0000   1.0000   1.0000   1.0000   1.0000   1.0000   1.0000
     1.0000   1.0000   1.0000   1.0000   1.0000   1.0000   1.0000   1.0000
     1.0000   1.0000   1.0000   1.0000   1.0000   1.0000   1.0000   1.0000
     1.0000   0.0000   0.0000   0.0000   0.0000   0.0000   0.0000   0.0000
     0.0000   0.0000   0.0000   0.0000   0.0000   0.0000   0.0000   0.0000
     0.0000   0.0000   0.0000   0.0000   0.0000   0.0000   0.0000   0.0000
     0.0000   0.0000   0.0000   0.0000   0.0000   0.0000   0.0000   0.0000
     0.0000   0.0000   0.0000   0.0000   0.0000   0.0000   0.0000   0.0000
     0.0000   0.0000   0.0000   0.0000   0.0000   0.0000   0.0000   0.0000
     0.0000   0.0000   0.0000   0.0000   0.0000   0.0000   0.0000   0.0000
     0.0000   0.0000   0.0000

          k = 0.2500 0.2500 0.2500 (269935 PWs)   bands (ev):

  -104.3236 -61.7315 -61.7304 -61.7304  -7.5348  -7.2767  -7.2767  -7.2363
    -7.0617  -7.0617  -7.0015  -6.8701  -6.8653  -6.8653  -6.8356  -6.7778
    -6.7778  -6.7685  -6.7577  -6.7526  -6.7526  -6.6698  -6.6698  -6.6175
    -6.6076  -6.6076  -6.5532  -6.5509  -6.5509  -6.5228  -6.5212  -6.5212
    -6.2766  -6.1404  -6.1404  -0.9121  -0.9108  -0.9108  -0.8963  -0.8963
    -0.8884  -0.8593  -0.8516  -0.8516  -0.8385  -0.8385  -0.8311  -0.8299
    -0.8299  -0.8292  -0.8165  -0.8165  -0.8145  -0.8065  -0.8065  -0.8027
    -0.8026  -0.7955  -0.7955  -0.7893  -0.7893  -0.7793  -0.7793  -0.7663
    -0.7654  -0.7646  -0.7646  -0.7608  -0.7608  -0.7573  -0.7489  -0.7483
    -0.7483  -0.7475  -0.7449  -0.7449  -0.7300  -0.7259  -0.7163  -0.7163
    -0.7079  -0.6995  -0.6995  -0.6876  -0.6876  -0.6875  -0.6785  -0.6782
    -0.6782  -0.6508  -0.6508  -0.6460  -0.6285  -0.6285  -0.6198  -0.6196
    -0.6196  -0.6155  -0.6025  -0.5941  -0.5941  -0.5843  -0.5843  -0.5702
    -0.5702  -0.5638  -0.5506  -0.5504  -0.5326  -0.5326  -0.5167  -0.5070
    -0.5070  -0.5039  -0.4958  -0.4958  -0.4788  -0.4788  -0.4727  -0.4692
    -0.4563  -0.4563  -0.4493  -0.4493  -0.4375  -0.4375  -0.4350  -0.4260
    -0.4258  -0.4235  -0.4235  -0.4162  -0.4162  -0.4115  -0.4115  -0.4091
    -0.4072  -0.3985  -0.3985  -0.3947  -0.3945  -0.3945  -0.3868  -0.3868
    -0.3837  -0.3711  -0.3666  -0.3666  -0.3461  -0.3430  -0.3430  -0.3424
    -0.3363  -0.3363  -0.3245  -0.3068  -0.3068  -0.3007  -0.3007  -0.3002
    -0.2956  -0.2864  -0.2864  -0.2742  -0.2742  -0.2719  -0.2544  -0.2476
    -0.2476  -0.2448  -0.2269  -0.2172  -0.2172  -0.1806  -0.1806  -0.1757
    -0.1743  -0.1731  -0.1731  -0.1503  -0.1503  -0.1322  -0.1322  -0.1321
    -0.0908  -0.0813  -0.0813  -0.0469  -0.0469  -0.0450   0.4996   0.5394
     0.5394   0.7595   0.7705   0.7705   0.8652   0.8652   0.8882   0.9208
     0.9322   0.9322   1.0663   1.1011   1.1011   1.1184   1.2381   1.2381
     1.2694   1.4552   1.4552   1.5939   1.8536   1.9040   1.9040   2.0902
     2.0902   2.3757   2.5639   2.5694   2.5694   2.6087   2.6087   2.6381
     2.6990   2.7454   2.7454   2.9558   2.9558   2.9934   3.0629   3.0629
     3.0775   3.1934   3.2121   3.2121   3.2500   3.2500   3.2844   3.3305
     3.3438   3.3438   3.3993   3.3993   3.4206   3.5052   3.5329   3.5329
     3.7217   3.7227   3.7227   3.8579   3.9017   3.9017   3.9107   3.9208
     3.9208   3.9837   3.9837   4.0379   4.0552   4.0703   4.0703   4.1283
     4.1423   4.1423   4.1982   4.1982   4.2170   4.3400   4.3823   4.3823
     4.5257   4.5705   4.5705   4.6083   4.6726   4.6726   4.7480   4.7480
     4.8686   5.0718   5.0718   5.5734   5.6308   5.6308   6.2407   6.2407
     6.9079   8.2852   8.6711   8.6711   8.7733   9.0416   9.2204   9.2204
     9.2469   9.3257   9.3257   9.3340   9.4283   9.4283   9.5585   9.5585
     9.6218   9.7455   9.7455   9.8252   9.9376   9.9741   9.9741  10.0250
    10.0406  10.0406  10.1373  10.1662  10.1662  10.1746  10.2089  10.2089
    10.2214  10.2550  10.2550  10.3316  10.3316  10.3712  10.7645  10.7645
    10.9334  11.0114  11.0114  11.0711  11.2629  11.2629  11.2654  11.3311
    11.3311  11.3353  11.3679  11.4808  11.4808  11.6152  11.6814  11.6901
    11.6901  11.7891  11.7891

     occupation numbers 
     1.0000   1.0000   1.0000   1.0000   1.0000   1.0000   1.0000   1.0000
     1.0000   1.0000   1.0000   1.0000   1.0000   1.0000   1.0000   1.0000
     1.0000   1.0000   1.0000   1.0000   1.0000   1.0000   1.0000   1.0000
     1.0000   1.0000   1.0000   1.0000   1.0000   1.0000   1.0000   1.0000
     1.0000   1.0000   1.0000   1.0000   1.0000   1.0000   1.0000   1.0000
     1.0000   1.0000   1.0000   1.0000   1.0000   1.0000   1.0000   1.0000
     1.0000   1.0000   1.0000   1.0000   1.0000   1.0000   1.0000   1.0000
     1.0000   1.0000   1.0000   1.0000   1.0000   1.0000   1.0000   1.0000
     1.0000   1.0000   1.0000   1.0000   1.0000   1.0000   1.0000   1.0000
     1.0000   1.0000   1.0000   1.0000   1.0000   1.0000   1.0000   1.0000
     1.0000   1.0000   1.0000   1.0000   1.0000   1.0000   1.0000   1.0000
     1.0000   1.0000   1.0000   1.0000   1.0000   1.0000   1.0000   1.0000
     1.0000   1.0000   1.0000   1.0000   1.0000   1.0000   1.0000   1.0000
     1.0000   1.0000   1.0000   1.0000   1.0000   1.0000   1.0000   1.0000
     1.0000   1.0000   1.0000   1.0000   1.0000   1.0000   1.0000   1.0000
     1.0000   1.0000   1.0000   1.0000   1.0000   1.0000   1.0000   1.0000
     1.0000   1.0000   1.0000   1.0000   1.0000   1.0000   1.0000   1.0000
     1.0000   1.0000   1.0000   1.0000   1.0000   1.0000   1.0000   1.0000
     1.0000   1.0000   1.0000   1.0000   1.0000   1.0000   1.0000   1.0000
     1.0000   1.0000   1.0000   1.0000   1.0000   1.0000   1.0000   1.0000
     1.0000   1.0000   1.0000   1.0000   1.0000   1.0000   1.0000   1.0000
     1.0000   1.0000   1.0000   1.0000   1.0000   1.0000   1.0000   1.0000
     1.0000   1.0000   1.0000   1.0000   1.0000   1.0000   1.0000   1.0000
     1.0000   1.0000   1.0000   1.0000   1.0000   1.0000   1.0000   1.0000
     1.0000   1.0000   1.0000   1.0000   1.0000   1.0000   1.0000   1.0000
     1.0000   1.0000   1.0000   1.0000   1.0000   1.0000   1.0000   1.0000
     1.0000   1.0000   1.0000   1.0000   1.0000   1.0000   1.0000   1.0000
     1.0000   1.0000   1.0000   1.0000   1.0000   1.0000   1.0000   1.0000
     1.0000   1.0000   1.0000   1.0000   1.0000   1.0000   1.0000   1.0000
     1.0000   1.0000   1.0000   1.0000   1.0000   1.0000   1.0000   1.0000
     1.0000   1.0000   1.0000   1.0000   1.0000   1.0000   1.0000   1.0000
     1.0000   1.0000   1.0000   1.0000   1.0000   1.0000   1.0000   1.0000
     1.0000   1.0000   1.0000   1.0000   1.0000   1.0000   1.0000   1.0000
     1.0000   1.0000   1.0000   1.0000   1.0000   1.0000   1.0000   1.0000
     1.0000   1.0000   1.0000   1.0000   1.0000   1.0000   1.0000   1.0000
     1.0000   1.0000   1.0000   1.0000   1.0000   1.0000   1.0000   1.0000
     1.0000   0.0000   0.0000   0.0000   0.0000   0.0000   0.0000   0.0000
     0.0000   0.0000   0.0000   0.0000   0.0000   0.0000   0.0000   0.0000
     0.0000   0.0000   0.0000   0.0000   0.0000   0.0000   0.0000   0.0000
     0.0000   0.0000   0.0000   0.0000   0.0000   0.0000   0.0000   0.0000
     0.0000   0.0000   0.0000   0.0000   0.0000   0.0000   0.0000   0.0000
     0.0000   0.0000   0.0000   0.0000   0.0000   0.0000   0.0000   0.0000
     0.0000   0.0000   0.0000   0.0000   0.0000   0.0000   0.0000   0.0000
     0.0000   0.0000   0.0000

          k = 0.2500 0.2500-0.5000 (269988 PWs)   bands (ev):

  -104.3236 -61.7315 -61.7304 -61.7304  -7.4653  -7.3893  -7.2164  -7.2147
    -7.1667  -7.0962  -7.0220  -6.8942  -6.8403  -6.8389  -6.8052  -6.7813
    -6.7682  -6.7653  -6.6984  -6.6920  -6.6784  -6.6755  -6.6559  -6.6284
    -6.6261  -6.5957  -6.5948  -6.5728  -6.5511  -6.5481  -6.5420  -6.5354
    -6.2710  -6.1508  -6.1422  -0.9110  -0.8965  -0.8960  -0.8908  -0.8750
    -0.8649  -0.8556  -0.8470  -0.8468  -0.8447  -0.8372  -0.8347  -0.8287
    -0.8287  -0.8268  -0.8253  -0.8231  -0.8163  -0.8158  -0.8113  -0.8075
    -0.8058  -0.8002  -0.7983  -0.7938  -0.7902  -0.7896  -0.7869  -0.7782
    -0.7758  -0.7739  -0.7688  -0.7633  -0.7614  -0.7601  -0.7551  -0.7525
    -0.7483  -0.7472  -0.7458  -0.7385  -0.7344  -0.7224  -0.7204  -0.7137
    -0.7117  -0.6984  -0.6936  -0.6930  -0.6786  -0.6775  -0.6742  -0.6680
    -0.6651  -0.6591  -0.6471  -0.6440  -0.6423  -0.6366  -0.6271  -0.6217
    -0.6199  -0.6148  -0.6129  -0.6054  -0.6025  -0.5945  -0.5796  -0.5737
    -0.5634  -0.5634  -0.5562  -0.5361  -0.5337  -0.5305  -0.5204  -0.5164
    -0.5122  -0.5052  -0.4973  -0.4966  -0.4882  -0.4846  -0.4818  -0.4734
    -0.4656  -0.4631  -0.4521  -0.4516  -0.4416  -0.4359  -0.4306  -0.4287
    -0.4227  -0.4201  -0.4179  -0.4174  -0.4109  -0.4083  -0.4046  -0.4038
    -0.4021  -0.4000  -0.3983  -0.3959  -0.3927  -0.3901  -0.3853  -0.3810
    -0.3772  -0.3728  -0.3641  -0.3583  -0.3547  -0.3504  -0.3456  -0.3436
    -0.3302  -0.3283  -0.3170  -0.3015  -0.3014  -0.2979  -0.2973  -0.2928
    -0.2891  -0.2809  -0.2803  -0.2742  -0.2719  -0.2695  -0.2626  -0.2608
    -0.2485  -0.2324  -0.2208  -0.2144  -0.2032  -0.1918  -0.1909  -0.1737
    -0.1712  -0.1650  -0.1601  -0.1528  -0.1423  -0.1413  -0.1198  -0.1133
    -0.1054  -0.0837  -0.0788  -0.0736  -0.0636  -0.0398   0.5030   0.5777
     0.7299   0.7440   0.7576   0.8019   0.8319   0.8524   0.8992   0.9070
     0.9394   0.9545   0.9653   0.9980   1.0236   1.0768   1.2809   1.3197
     1.3835   1.4914   1.5396   1.5623   1.5895   1.6382   1.7342   2.0967
     2.4565   2.5074   2.5239   2.5331   2.5487   2.6046   2.6652   2.6691
     2.7015   2.7450   2.7506   2.8211   2.8427   2.9212   2.9687   3.0231
     3.2052   3.2540   3.3064   3.3299   3.3962   3.4070   3.4212   3.4383
     3.4415   3.4766   3.5211   3.5477   3.5556   3.5921   3.6050   3.6171
     3.6199   3.6394   3.6542   3.6625   3.6889   3.7220   3.7333   3.7627
     3.7860   3.8528   3.8933   3.9632   4.0023   4.0139   4.0482   4.0988
     4.1252   4.1752   4.2092   4.2501   4.2909   4.3136   4.3501   4.3664
     4.3924   4.5184   4.6521   4.6763   4.7728   4.8078   4.8545   4.8911
     4.9260   4.9351   5.0139   5.6014   5.6360   5.6401   6.1990   6.2270
     6.9408   8.3406   8.6718   8.6826   8.9176   8.9960   9.0959   9.1981
     9.2792   9.3363   9.3803   9.3826   9.5233   9.5502   9.5587   9.6242
     9.6246   9.7070   9.7131   9.7471   9.7500   9.8286   9.8736   9.8826
     9.8904   9.9215   9.9769  10.0258  10.0480  10.1008  10.2004  10.2664
    10.2957  10.3708  10.3883  10.4817  10.6678  10.6766  10.7251  10.7573
    10.8048  10.8833  11.0218  11.0706  11.1844  11.2143  11.2973  11.3813
    11.4284  11.4331  11.4779  11.5050  11.5100  11.5501  11.5507  11.5810
    11.6006  11.6246  11.6526

     occupation numbers 
     1.0000   1.0000   1.0000   1.0000   1.0000   1.0000   1.0000   1.0000
     1.0000   1.0000   1.0000   1.0000   1.0000   1.0000   1.0000   1.0000
     1.0000   1.0000   1.0000   1.0000   1.0000   1.0000   1.0000   1.0000
     1.0000   1.0000   1.0000   1.0000   1.0000   1.0000   1.0000   1.0000
     1.0000   1.0000   1.0000   1.0000   1.0000   1.0000   1.0000   1.0000
     1.0000   1.0000   1.0000   1.0000   1.0000   1.0000   1.0000   1.0000
     1.0000   1.0000   1.0000   1.0000   1.0000   1.0000   1.0000   1.0000
     1.0000   1.0000   1.0000   1.0000   1.0000   1.0000   1.0000   1.0000
     1.0000   1.0000   1.0000   1.0000   1.0000   1.0000   1.0000   1.0000
     1.0000   1.0000   1.0000   1.0000   1.0000   1.0000   1.0000   1.0000
     1.0000   1.0000   1.0000   1.0000   1.0000   1.0000   1.0000   1.0000
     1.0000   1.0000   1.0000   1.0000   1.0000   1.0000   1.0000   1.0000
     1.0000   1.0000   1.0000   1.0000   1.0000   1.0000   1.0000   1.0000
     1.0000   1.0000   1.0000   1.0000   1.0000   1.0000   1.0000   1.0000
     1.0000   1.0000   1.0000   1.0000   1.0000   1.0000   1.0000   1.0000
     1.0000   1.0000   1.0000   1.0000   1.0000   1.0000   1.0000   1.0000
     1.0000   1.0000   1.0000   1.0000   1.0000   1.0000   1.0000   1.0000
     1.0000   1.0000   1.0000   1.0000   1.0000   1.0000   1.0000   1.0000
     1.0000   1.0000   1.0000   1.0000   1.0000   1.0000   1.0000   1.0000
     1.0000   1.0000   1.0000   1.0000   1.0000   1.0000   1.0000   1.0000
     1.0000   1.0000   1.0000   1.0000   1.0000   1.0000   1.0000   1.0000
     1.0000   1.0000   1.0000   1.0000   1.0000   1.0000   1.0000   1.0000
     1.0000   1.0000   1.0000   1.0000   1.0000   1.0000   1.0000   1.0000
     1.0000   1.0000   1.0000   1.0000   1.0000   1.0000   1.0000   1.0000
     1.0000   1.0000   1.0000   1.0000   1.0000   1.0000   1.0000   1.0000
     1.0000   1.0000   1.0000   1.0000   1.0000   1.0000   1.0000   1.0000
     1.0000   1.0000   1.0000   1.0000   1.0000   1.0000   1.0000   1.0000
     1.0000   1.0000   1.0000   1.0000   1.0000   1.0000   1.0000   1.0000
     1.0000   1.0000   1.0000   1.0000   1.0000   1.0000   1.0000   1.0000
     1.0000   1.0000   1.0000   1.0000   1.0000   1.0000   1.0000   1.0000
     1.0000   1.0000   1.0000   1.0000   1.0000   1.0000   1.0000   1.0000
     1.0000   1.0000   1.0000   1.0000   1.0000   1.0000   1.0000   1.0000
     1.0000   1.0000   1.0000   1.0000   1.0000   1.0000   1.0000   1.0000
     1.0000   1.0000   1.0000   1.0000   1.0000   1.0000   1.0000   1.0000
     1.0000   1.0000   1.0000   1.0000   1.0000   1.0000   1.0000   1.0000
     1.0000   1.0000   1.0000   1.0000   1.0000   1.0000   1.0000   1.0000
     1.0000   0.0000   0.0000   0.0000   0.0000   0.0000   0.0000   0.0000
     0.0000   0.0000   0.0000   0.0000   0.0000   0.0000   0.0000   0.0000
     0.0000   0.0000   0.0000   0.0000   0.0000   0.0000   0.0000   0.0000
     0.0000   0.0000   0.0000   0.0000   0.0000   0.0000   0.0000   0.0000
     0.0000   0.0000   0.0000   0.0000   0.0000   0.0000   0.0000   0.0000
     0.0000   0.0000   0.0000   0.0000   0.0000   0.0000   0.0000   0.0000
     0.0000   0.0000   0.0000   0.0000   0.0000   0.0000   0.0000   0.0000
     0.0000   0.0000   0.0000

          k = 0.2500-0.5000-0.5000 (269956 PWs)   bands (ev):

  -104.3236 -61.7315 -61.7304 -61.7304  -7.3914  -7.3427  -7.3372  -7.2417
    -7.1576  -7.1145  -7.1061  -6.9340  -6.8269  -6.7905  -6.7885  -6.7101
    -6.7055  -6.7012  -6.6674  -6.6613  -6.6531  -6.6485  -6.6454  -6.6405
    -6.6370  -6.6350  -6.6300  -6.6253  -6.5931  -6.5696  -6.5495  -6.5473
    -6.2662  -6.1573  -6.1478  -0.8977  -0.8973  -0.8881  -0.8704  -0.8701
    -0.8579  -0.8542  -0.8423  -0.8422  -0.8378  -0.8359  -0.8312  -0.8308
    -0.8268  -0.8244  -0.8235  -0.8201  -0.8201  -0.8166  -0.8163  -0.8137
    -0.8133  -0.8082  -0.7961  -0.7960  -0.7940  -0.7892  -0.7883  -0.7836
    -0.7834  -0.7794  -0.7755  -0.7682  -0.7681  -0.7657  -0.7596  -0.7596
    -0.7566  -0.7539  -0.7472  -0.7460  -0.7420  -0.7209  -0.7137  -0.7111
    -0.7020  -0.6921  -0.6920  -0.6796  -0.6766  -0.6714  -0.6697  -0.6640
    -0.6609  -0.6543  -0.6502  -0.6458  -0.6444  -0.6384  -0.6370  -0.6259
    -0.6195  -0.6149  -0.6107  -0.6093  -0.5973  -0.5964  -0.5812  -0.5725
    -0.5640  -0.5615  -0.5491  -0.5481  -0.5418  -0.5358  -0.5308  -0.5274
    -0.5220  -0.5179  -0.5054  -0.4997  -0.4924  -0.4855  -0.4830  -0.4770
    -0.4718  -0.4664  -0.4624  -0.4528  -0.4524  -0.4400  -0.4267  -0.4239
    -0.4228  -0.4197  -0.4188  -0.4116  -0.4105  -0.4090  -0.4061  -0.4038
    -0.4026  -0.3964  -0.3956  -0.3920  -0.3872  -0.3867  -0.3818  -0.3737
    -0.3732  -0.3711  -0.3630  -0.3562  -0.3494  -0.3483  -0.3404  -0.3327
    -0.3237  -0.3108  -0.3071  -0.3007  -0.3004  -0.2965  -0.2932  -0.2845
    -0.2820  -0.2764  -0.2748  -0.2695  -0.2692  -0.2586  -0.2569  -0.2516
    -0.2444  -0.2307  -0.2174  -0.2127  -0.2046  -0.1963  -0.1958  -0.1826
    -0.1720  -0.1705  -0.1650  -0.1649  -0.1470  -0.1399  -0.1300  -0.1154
    -0.1016  -0.0970  -0.0954  -0.0813  -0.0662  -0.0641   0.6583   0.6731
     0.6837   0.7137   0.7431   0.7652   0.7877   0.8069   0.8274   0.8921
     0.9054   0.9427   1.1662   1.1970   1.2039   1.2109   1.2198   1.2406
     1.2454   1.2578   1.2605   1.4525   1.5209   1.7772   2.0411   2.0717
     2.0992   2.3027   2.5432   2.5896   2.6053   2.6071   2.9166   2.9956
     2.9957   3.0075   3.0147   3.0181   3.0352   3.0378   3.0443   3.0531
     3.0689   3.0743   3.0792   3.0833   3.0996   3.1522   3.2007   3.3021
     3.3041   3.3874   3.5728   3.5783   3.5911   3.6073   3.6205   3.6208
     3.6329   3.6377   3.6587   3.6633   3.6684   3.7076   3.7236   3.7877
     3.8185   3.8321   3.8751   3.8838   3.8936   3.9070   3.9627   3.9930
     4.0120   4.0385   4.0691   4.3561   4.3755   4.4752   4.5902   4.6080
     4.6255   4.6732   4.6898   4.6926   4.7088   4.7269   4.7479   4.9301
     4.9477   5.0279   5.0751   5.6111   5.6362   5.6538   6.1963   6.2278
     6.8981   8.4775   8.4821   8.7979   8.8509   8.9659   8.9716   9.0066
     9.1276   9.2273   9.3764   9.4587   9.5355   9.5544   9.5989   9.6612
     9.6776   9.6933   9.7196   9.7205   9.7394   9.7760   9.8044   9.8293
     9.8428   9.8542   9.8738   9.9078   9.9370   9.9698  10.0651  10.1360
    10.2890  10.3947  10.4664  10.6941  10.6964  10.7173  10.7265  10.8599
    10.9690  11.0149  11.0757  11.2362  11.2846  11.2965  11.3005  11.3542
    11.3933  11.4188  11.4438  11.4722  11.4747  11.5275  11.6425  11.6654
    11.6977  11.7234  11.7578

     occupation numbers 
     1.0000   1.0000   1.0000   1.0000   1.0000   1.0000   1.0000   1.0000
     1.0000   1.0000   1.0000   1.0000   1.0000   1.0000   1.0000   1.0000
     1.0000   1.0000   1.0000   1.0000   1.0000   1.0000   1.0000   1.0000
     1.0000   1.0000   1.0000   1.0000   1.0000   1.0000   1.0000   1.0000
     1.0000   1.0000   1.0000   1.0000   1.0000   1.0000   1.0000   1.0000
     1.0000   1.0000   1.0000   1.0000   1.0000   1.0000   1.0000   1.0000
     1.0000   1.0000   1.0000   1.0000   1.0000   1.0000   1.0000   1.0000
     1.0000   1.0000   1.0000   1.0000   1.0000   1.0000   1.0000   1.0000
     1.0000   1.0000   1.0000   1.0000   1.0000   1.0000   1.0000   1.0000
     1.0000   1.0000   1.0000   1.0000   1.0000   1.0000   1.0000   1.0000
     1.0000   1.0000   1.0000   1.0000   1.0000   1.0000   1.0000   1.0000
     1.0000   1.0000   1.0000   1.0000   1.0000   1.0000   1.0000   1.0000
     1.0000   1.0000   1.0000   1.0000   1.0000   1.0000   1.0000   1.0000
     1.0000   1.0000   1.0000   1.0000   1.0000   1.0000   1.0000   1.0000
     1.0000   1.0000   1.0000   1.0000   1.0000   1.0000   1.0000   1.0000
[...]
     6.8925   8.0784   8.5559   8.6675   8.9247   8.9847   9.1010   9.1487
     9.1802   9.1958   9.2918   9.4565   9.4742   9.6516   9.6818   9.7221
     9.7354   9.7606   9.7750   9.7873   9.8049   9.8734   9.8885   9.9535
     9.9858  10.0224  10.0593  10.0798  10.1455  10.1699  10.2524  10.2734
    10.3976  10.5055  10.5271  10.5525  10.5949  10.6931  10.7066  10.7172
    10.7654  10.8505  10.8737  10.9621  11.1112  11.1975  11.2660  11.3284
    11.3919  11.4727  11.5367  11.5871  11.6368  11.6513  11.6668  11.7227
    11.7525  11.7730  11.8062

     occupation numbers 
     1.0000   1.0000   1.0000   1.0000   1.0000   1.0000   1.0000   1.0000
     1.0000   1.0000   1.0000   1.0000   1.0000   1.0000   1.0000   1.0000
     1.0000   1.0000   1.0000   1.0000   1.0000   1.0000   1.0000   1.0000
     1.0000   1.0000   1.0000   1.0000   1.0000   1.0000   1.0000   1.0000
     1.0000   1.0000   1.0000   1.0000   1.0000   1.0000   1.0000   1.0000
     1.0000   1.0000   1.0000   1.0000   1.0000   1.0000   1.0000   1.0000
     1.0000   1.0000   1.0000   1.0000   1.0000   1.0000   1.0000   1.0000
     1.0000   1.0000   1.0000   1.0000   1.0000   1.0000   1.0000   1.0000
     1.0000   1.0000   1.0000   1.0000   1.0000   1.0000   1.0000   1.0000
     1.0000   1.0000   1.0000   1.0000   1.0000   1.0000   1.0000   1.0000
     1.0000   1.0000   1.0000   1.0000   1.0000   1.0000   1.0000   1.0000
     1.0000   1.0000   1.0000   1.0000   1.0000   1.0000   1.0000   1.0000
     1.0000   1.0000   1.0000   1.0000   1.0000   1.0000   1.0000   1.0000
     1.0000   1.0000   1.0000   1.0000   1.0000   1.0000   1.0000   1.0000
     1.0000   1.0000   1.0000   1.0000   1.0000   1.0000   1.0000   1.0000
     1.0000   1.0000   1.0000   1.0000   1.0000   1.0000   1.0000   1.0000
     1.0000   1.0000   1.0000   1.0000   1.0000   1.0000   1.0000   1.0000
     1.0000   1.0000   1.0000   1.0000   1.0000   1.0000   1.0000   1.0000
     1.0000   1.0000   1.0000   1.0000   1.0000   1.0000   1.0000   1.0000
     1.0000   1.0000   1.0000   1.0000   1.0000   1.0000   1.0000   1.0000
     1.0000   1.0000   1.0000   1.0000   1.0000   1.0000   1.0000   1.0000
     1.0000   1.0000   1.0000   1.0000   1.0000   1.0000   1.0000   1.0000
     1.0000   1.0000   1.0000   1.0000   1.0000   1.0000   1.0000   1.0000
     1.0000   1.0000   1.0000   1.0000   1.0000   1.0000   1.0000   1.0000
     1.0000   1.0000   1.0000   1.0000   1.0000   1.0000   1.0000   1.0000
     1.0000   1.0000   1.0000   1.0000   1.0000   1.0000   1.0000   1.0000
     1.0000   1.0000   1.0000   1.0000   1.0000   1.0000   1.0000   1.0000
     1.0000   1.0000   1.0000   1.0000   1.0000   1.0000   1.0000   1.0000
     1.0000   1.0000   1.0000   1.0000   1.0000   1.0000   1.0000   1.0000
     1.0000   1.0000   1.0000   1.0000   1.0000   1.0000   1.0000   1.0000
     1.0000   1.0000   1.0000   1.0000   1.0000   1.0000   1.0000   1.0000
     1.0000   1.0000   1.0000   1.0000   1.0000   1.0000   1.0000   1.0000
     1.0000   1.0000   1.0000   1.0000   1.0000   1.0000   1.0000   1.0000
     1.0000   1.0000   1.0000   1.0000   1.0000   1.0000   1.0000   1.0000
     1.0000   1.0000   1.0000   1.0000   1.0000   1.0000   1.0000   1.0000
     1.0000   1.0000   1.0000   1.0000   1.0000   1.0000   1.0000   1.0000
     1.0000   0.0000   0.0000   0.0000   0.0000   0.0000   0.0000   0.0000
     0.0000   0.0000   0.0000   0.0000   0.0000   0.0000   0.0000   0.0000
     0.0000   0.0000   0.0000   0.0000   0.0000   0.0000   0.0000   0.0000
     0.0000   0.0000   0.0000   0.0000   0.0000   0.0000   0.0000   0.0000
     0.0000   0.0000   0.0000   0.0000   0.0000   0.0000   0.0000   0.0000
     0.0000   0.0000   0.0000   0.0000   0.0000   0.0000   0.0000   0.0000
     0.0000   0.0000   0.0000   0.0000   0.0000   0.0000   0.0000   0.0000
     0.0000   0.0000   0.0000

          k = 0.2500-0.2500 0.2500 (269935 PWs)   bands (ev):

  -104.3236 -61.7315 -61.7304 -61.7304  -7.5356  -7.2766  -7.2708  -7.2402
    -7.0620  -7.0538  -7.0117  -6.8791  -6.8649  -6.8644  -6.8302  -6.7792
    -6.7783  -6.7662  -6.7560  -6.7539  -6.7537  -6.6701  -6.6556  -6.6310
    -6.6075  -6.6024  -6.5531  -6.5509  -6.5509  -6.5223  -6.5216  -6.5215
    -6.2788  -6.1404  -6.1395  -0.9127  -0.9119  -0.9113  -0.8957  -0.8945
    -0.8876  -0.8587  -0.8533  -0.8517  -0.8412  -0.8390  -0.8306  -0.8287
    -0.8275  -0.8265  -0.8186  -0.8180  -0.8151  -0.8087  -0.8067  -0.8033
    -0.8024  -0.7948  -0.7940  -0.7892  -0.7887  -0.7796  -0.7782  -0.7690
    -0.7659  -0.7659  -0.7632  -0.7608  -0.7592  -0.7582  -0.7512  -0.7504
    -0.7492  -0.7462  -0.7448  -0.7402  -0.7299  -0.7275  -0.7176  -0.7135
    -0.7095  -0.7064  -0.7021  -0.6901  -0.6871  -0.6836  -0.6786  -0.6707
    -0.6666  -0.6545  -0.6454  -0.6445  -0.6340  -0.6332  -0.6284  -0.6253
    -0.6144  -0.6063  -0.5982  -0.5910  -0.5896  -0.5854  -0.5799  -0.5739
    -0.5729  -0.5647  -0.5506  -0.5422  -0.5389  -0.5326  -0.5243  -0.5188
    -0.5064  -0.5050  -0.4937  -0.4834  -0.4808  -0.4751  -0.4700  -0.4667
    -0.4597  -0.4581  -0.4551  -0.4488  -0.4453  -0.4363  -0.4354  -0.4275
    -0.4260  -0.4230  -0.4222  -0.4185  -0.4158  -0.4126  -0.4126  -0.4073
    -0.4058  -0.3996  -0.3982  -0.3972  -0.3921  -0.3920  -0.3868  -0.3848
    -0.3788  -0.3776  -0.3677  -0.3640  -0.3589  -0.3574  -0.3419  -0.3395
    -0.3340  -0.3234  -0.3165  -0.3077  -0.3052  -0.3018  -0.3007  -0.2920
    -0.2910  -0.2850  -0.2836  -0.2787  -0.2748  -0.2683  -0.2660  -0.2603
    -0.2357  -0.2339  -0.2185  -0.2072  -0.2063  -0.1988  -0.1976  -0.1835
    -0.1776  -0.1735  -0.1651  -0.1549  -0.1457  -0.1435  -0.1318  -0.1302
    -0.0900  -0.0813  -0.0673  -0.0543  -0.0538  -0.0374   0.4845   0.5279
     0.5336   0.7638   0.7706   0.7831   0.8650   0.8720   0.8939   0.9168
     0.9342   0.9542   1.0503   1.0906   1.1017   1.1583   1.2251   1.2692
     1.2738   1.3292   1.4627   1.6312   1.8688   1.9132   1.9740   2.0885
     2.0932   2.3223   2.5553   2.5748   2.5833   2.6045   2.6342   2.6367
     2.7130   2.7416   2.7571   2.9338   2.9577   2.9682   3.0211   3.0310
     3.1086   3.1685   3.2000   3.2075   3.2285   3.2506   3.2885   3.3329
     3.3433   3.3456   3.3855   3.3973   3.4314   3.4818   3.5573   3.5836
     3.6801   3.7132   3.7653   3.8435   3.8563   3.9030   3.9102   3.9329
     3.9512   3.9644   4.0116   4.0185   4.0446   4.0938   4.1054   4.1126
     4.1260   4.1606   4.1926   4.1938   4.2412   4.2473   4.4500   4.4566
     4.5143   4.5754   4.6001   4.6091   4.6237   4.6678   4.7168   4.7523
     4.8314   5.1105   5.1204   5.6231   5.6446   5.6528   6.1578   6.2189
     6.9233   8.1169   8.6464   8.6535   8.8148   9.1047   9.2052   9.2104
     9.2237   9.3214   9.3229   9.3729   9.4297   9.4947   9.5455   9.5482
     9.6323   9.7490   9.7689   9.8446   9.8806   9.9627   9.9658  10.0249
    10.0680  10.0695  10.1419  10.1497  10.1674  10.1819  10.2054  10.2190
    10.2276  10.2655  10.2666  10.2886  10.3677  10.4905  10.7305  10.7997
    10.9368  10.9995  11.0377  11.0800  11.2515  11.2668  11.2790  11.2999
    11.3236  11.3649  11.3854  11.4963  11.4974  11.5556  11.6746  11.6950
    11.7124  11.7622  11.7993

     occupation numbers 
     1.0000   1.0000   1.0000   1.0000   1.0000   1.0000   1.0000   1.0000
     1.0000   1.0000   1.0000   1.0000   1.0000   1.0000   1.0000   1.0000
     1.0000   1.0000   1.0000   1.0000   1.0000   1.0000   1.0000   1.0000
     1.0000   1.0000   1.0000   1.0000   1.0000   1.0000   1.0000   1.0000
     1.0000   1.0000   1.0000   1.0000   1.0000   1.0000   1.0000   1.0000
     1.0000   1.0000   1.0000   1.0000   1.0000   1.0000   1.0000   1.0000
     1.0000   1.0000   1.0000   1.0000   1.0000   1.0000   1.0000   1.0000
     1.0000   1.0000   1.0000   1.0000   1.0000   1.0000   1.0000   1.0000
     1.0000   1.0000   1.0000   1.0000   1.0000   1.0000   1.0000   1.0000
     1.0000   1.0000   1.0000   1.0000   1.0000   1.0000   1.0000   1.0000
     1.0000   1.0000   1.0000   1.0000   1.0000   1.0000   1.0000   1.0000
     1.0000   1.0000   1.0000   1.0000   1.0000   1.0000   1.0000   1.0000
     1.0000   1.0000   1.0000   1.0000   1.0000   1.0000   1.0000   1.0000
     1.0000   1.0000   1.0000   1.0000   1.0000   1.0000   1.0000   1.0000
     1.0000   1.0000   1.0000   1.0000   1.0000   1.0000   1.0000   1.0000
     1.0000   1.0000   1.0000   1.0000   1.0000   1.0000   1.0000   1.0000
     1.0000   1.0000   1.0000   1.0000   1.0000   1.0000   1.0000   1.0000
     1.0000   1.0000   1.0000   1.0000   1.0000   1.0000   1.0000   1.0000
     1.0000   1.0000   1.0000   1.0000   1.0000   1.0000   1.0000   1.0000
     1.0000   1.0000   1.0000   1.0000   1.0000   1.0000   1.0000   1.0000
     1.0000   1.0000   1.0000   1.0000   1.0000   1.0000   1.0000   1.0000
     1.0000   1.0000   1.0000   1.0000   1.0000   1.0000   1.0000   1.0000
     1.0000   1.0000   1.0000   1.0000   1.0000   1.0000   1.0000   1.0000
     1.0000   1.0000   1.0000   1.0000   1.0000   1.0000   1.0000   1.0000
     1.0000   1.0000   1.0000   1.0000   1.0000   1.0000   1.0000   1.0000
     1.0000   1.0000   1.0000   1.0000   1.0000   1.0000   1.0000   1.0000
     1.0000   1.0000   1.0000   1.0000   1.0000   1.0000   1.0000   1.0000
     1.0000   1.0000   1.0000   1.0000   1.0000   1.0000   1.0000   1.0000
     1.0000   1.0000   1.0000   1.0000   1.0000   1.0000   1.0000   1.0000
     1.0000   1.0000   1.0000   1.0000   1.0000   1.0000   1.0000   1.0000
     1.0000   1.0000   1.0000   1.0000   1.0000   1.0000   1.0000   1.0000
     1.0000   1.0000   1.0000   1.0000   1.0000   1.0000   1.0000   1.0000
     1.0000   1.0000   1.0000   1.0000   1.0000   1.0000   1.0000   1.0000
     1.0000   1.0000   1.0000   1.0000   1.0000   1.0000   1.0000   1.0000
     1.0000   1.0000   1.0000   1.0000   1.0000   1.0000   1.0000   1.0000
     1.0000   1.0000   1.0000   1.0000   1.0000   1.0000   1.0000   1.0000
     1.0000   0.0000   0.0000   0.0000   0.0000   0.0000   0.0000   0.0000
     0.0000   0.0000   0.0000   0.0000   0.0000   0.0000   0.0000   0.0000
     0.0000   0.0000   0.0000   0.0000   0.0000   0.0000   0.0000   0.0000
     0.0000   0.0000   0.0000   0.0000   0.0000   0.0000   0.0000   0.0000
     0.0000   0.0000   0.0000   0.0000   0.0000   0.0000   0.0000   0.0000
     0.0000   0.0000   0.0000   0.0000   0.0000   0.0000   0.0000   0.0000
     0.0000   0.0000   0.0000   0.0000   0.0000   0.0000   0.0000   0.0000
     0.0000   0.0000   0.0000

          k = 0.2500-0.2500-0.5000 (269988 PWs)   bands (ev):

  -104.3236 -61.7315 -61.7304 -61.7304  -7.4653  -7.3908  -7.2171  -7.2144
    -7.1517  -7.1096  -7.0220  -6.8979  -6.8410  -6.8397  -6.7999  -6.7816
    -6.7711  -6.7656  -6.6989  -6.6856  -6.6788  -6.6745  -6.6547  -6.6319
    -6.6278  -6.5959  -6.5883  -6.5748  -6.5579  -6.5437  -6.5399  -6.5371
    -6.2727  -6.1512  -6.1409  -0.9117  -0.8965  -0.8962  -0.8893  -0.8749
    -0.8654  -0.8548  -0.8506  -0.8466  -0.8430  -0.8379  -0.8339  -0.8298
    -0.8290  -0.8263  -0.8236  -0.8225  -0.8173  -0.8158  -0.8137  -0.8093
    -0.8041  -0.8007  -0.7964  -0.7933  -0.7904  -0.7885  -0.7852  -0.7791
    -0.7770  -0.7722  -0.7693  -0.7666  -0.7597  -0.7589  -0.7566  -0.7525
    -0.7495  -0.7472  -0.7434  -0.7393  -0.7338  -0.7245  -0.7200  -0.7137
    -0.7117  -0.7031  -0.6965  -0.6879  -0.6821  -0.6769  -0.6730  -0.6674
    -0.6587  -0.6547  -0.6528  -0.6432  -0.6415  -0.6345  -0.6286  -0.6271
    -0.6196  -0.6113  -0.6088  -0.6017  -0.5979  -0.5894  -0.5876  -0.5782
    -0.5744  -0.5558  -0.5527  -0.5497  -0.5367  -0.5265  -0.5202  -0.5117
    -0.5087  -0.5042  -0.4990  -0.4976  -0.4889  -0.4852  -0.4768  -0.4730
    -0.4634  -0.4596  -0.4535  -0.4524  -0.4447  -0.4390  -0.4310  -0.4287
    -0.4237  -0.4232  -0.4174  -0.4147  -0.4132  -0.4081  -0.4075  -0.4015
    -0.4008  -0.3990  -0.3965  -0.3939  -0.3920  -0.3912  -0.3861  -0.3828
    -0.3774  -0.3743  -0.3652  -0.3626  -0.3580  -0.3460  -0.3433  -0.3392
    -0.3279  -0.3205  -0.3145  -0.3083  -0.3006  -0.2995  -0.2971  -0.2911
    -0.2856  -0.2835  -0.2766  -0.2730  -0.2713  -0.2664  -0.2606  -0.2527
    -0.2486  -0.2362  -0.2228  -0.2131  -0.2019  -0.1964  -0.1887  -0.1854
    -0.1772  -0.1715  -0.1593  -0.1514  -0.1470  -0.1293  -0.1217  -0.1170
    -0.1025  -0.0945  -0.0856  -0.0658  -0.0606  -0.0483   0.5075   0.5909
     0.7192   0.7516   0.7908   0.8058   0.8214   0.8551   0.9059   0.9115
     0.9278   0.9547   0.9734   0.9956   1.0383   1.0662   1.1516   1.3451
     1.4030   1.4896   1.5190   1.5609   1.5927   1.6750   1.8117   2.0683
     2.4541   2.5167   2.5215   2.5465   2.5552   2.5715   2.6207   2.6842
     2.7149   2.7393   2.7884   2.7933   2.8641   2.9281   2.9697   3.0003
     3.1933   3.2439   3.3146   3.3359   3.3926   3.4063   3.4165   3.4423
     3.4599   3.4758   3.4866   3.5308   3.5703   3.5875   3.5930   3.6092
     3.6220   3.6287   3.6317   3.6663   3.7096   3.7102   3.7485   3.7656
     3.7913   3.8698   3.9015   3.9625   3.9771   4.0117   4.0650   4.1077
     4.1272   4.1356   4.1492   4.2639   4.3164   4.3391   4.3521   4.3778
     4.4247   4.5381   4.6685   4.7070   4.7420   4.8101   4.8153   4.8761
     4.9391   4.9708   5.0007   5.6192   5.6446   5.6511   6.1753   6.2038
     6.9482   8.3316   8.4297   8.8677   8.9231   9.0229   9.0698   9.2126
     9.2734   9.3125   9.3887   9.4782   9.5035   9.5395   9.5606   9.5749
     9.6332   9.6816   9.6973   9.7412   9.7725   9.8115   9.8250   9.8884
     9.9287   9.9511  10.0108  10.0365  10.0515  10.1234  10.1645  10.2685
    10.2835  10.3731  10.4174  10.5596  10.6515  10.6955  10.7085  10.7785
    10.8085  10.9006  11.0006  11.0905  11.1650  11.2120  11.3108  11.3706
    11.4079  11.4292  11.4418  11.4822  11.5189  11.5459  11.5709  11.5857
    11.6063  11.6103  11.6401

     occupation numbers 
     1.0000   1.0000   1.0000   1.0000   1.0000   1.0000   1.0000   1.0000
     1.0000   1.0000   1.0000   1.0000   1.0000   1.0000   1.0000   1.0000
     1.0000   1.0000   1.0000   1.0000   1.0000   1.0000   1.0000   1.0000
     1.0000   1.0000   1.0000   1.0000   1.0000   1.0000   1.0000   1.0000
     1.0000   1.0000   1.0000   1.0000   1.0000   1.0000   1.0000   1.0000
     1.0000   1.0000   1.0000   1.0000   1.0000   1.0000   1.0000   1.0000
     1.0000   1.0000   1.0000   1.0000   1.0000   1.0000   1.0000   1.0000
     1.0000   1.0000   1.0000   1.0000   1.0000   1.0000   1.0000   1.0000
     1.0000   1.0000   1.0000   1.0000   1.0000   1.0000   1.0000   1.0000
     1.0000   1.0000   1.0000   1.0000   1.0000   1.0000   1.0000   1.0000
     1.0000   1.0000   1.0000   1.0000   1.0000   1.0000   1.0000   1.0000
     1.0000   1.0000   1.0000   1.0000   1.0000   1.0000   1.0000   1.0000
     1.0000   1.0000   1.0000   1.0000   1.0000   1.0000   1.0000   1.0000
     1.0000   1.0000   1.0000   1.0000   1.0000   1.0000   1.0000   1.0000
     1.0000   1.0000   1.0000   1.0000   1.0000   1.0000   1.0000   1.0000
     1.0000   1.0000   1.0000   1.0000   1.0000   1.0000   1.0000   1.0000
     1.0000   1.0000   1.0000   1.0000   1.0000   1.0000   1.0000   1.0000
     1.0000   1.0000   1.0000   1.0000   1.0000   1.0000   1.0000   1.0000
     1.0000   1.0000   1.0000   1.0000   1.0000   1.0000   1.0000   1.0000
     1.0000   1.0000   1.0000   1.0000   1.0000   1.0000   1.0000   1.0000
     1.0000   1.0000   1.0000   1.0000   1.0000   1.0000   1.0000   1.0000
     1.0000   1.0000   1.0000   1.0000   1.0000   1.0000   1.0000   1.0000
     1.0000   1.0000   1.0000   1.0000   1.0000   1.0000   1.0000   1.0000
     1.0000   1.0000   1.0000   1.0000   1.0000   1.0000   1.0000   1.0000
     1.0000   1.0000   1.0000   1.0000   1.0000   1.0000   1.0000   1.0000
     1.0000   1.0000   1.0000   1.0000   1.0000   1.0000   1.0000   1.0000
     1.0000   1.0000   1.0000   1.0000   1.0000   1.0000   1.0000   1.0000
     1.0000   1.0000   1.0000   1.0000   1.0000   1.0000   1.0000   1.0000
     1.0000   1.0000   1.0000   1.0000   1.0000   1.0000   1.0000   1.0000
     1.0000   1.0000   1.0000   1.0000   1.0000   1.0000   1.0000   1.0000
     1.0000   1.0000   1.0000   1.0000   1.0000   1.0000   1.0000   1.0000
     1.0000   1.0000   1.0000   1.0000   1.0000   1.0000   1.0000   1.0000
     1.0000   1.0000   1.0000   1.0000   1.0000   1.0000   1.0000   1.0000
     1.0000   1.0000   1.0000   1.0000   1.0000   1.0000   1.0000   1.0000
     1.0000   1.0000   1.0000   1.0000   1.0000   1.0000   1.0000   1.0000
     1.0000   1.0000   1.0000   1.0000   1.0000   1.0000   1.0000   1.0000
     1.0000   0.0000   0.0000   0.0000   0.0000   0.0000   0.0000   0.0000
     0.0000   0.0000   0.0000   0.0000   0.0000   0.0000   0.0000   0.0000
     0.0000   0.0000   0.0000   0.0000   0.0000   0.0000   0.0000   0.0000
     0.0000   0.0000   0.0000   0.0000   0.0000   0.0000   0.0000   0.0000
     0.0000   0.0000   0.0000   0.0000   0.0000   0.0000   0.0000   0.0000
     0.0000   0.0000   0.0000   0.0000   0.0000   0.0000   0.0000   0.0000
     0.0000   0.0000   0.0000   0.0000   0.0000   0.0000   0.0000   0.0000
     0.0000   0.0000   0.0000

     the Fermi energy is     7.4551 ev
     (compare with:     7.5820 eV, computed in scf)

     Writing all to output data dir ./out/Cu_vac_qn1_unrlxd.save/
 
     init_run     :      7.01s CPU     11.35s WALL (       1 calls)
     electrons    :    255.15s CPU    258.59s WALL (       1 calls)

     Called by init_run:
     wfcinit      :      0.00s CPU      3.58s WALL (       1 calls)
     wfcinit:atom :      0.03s CPU      0.04s WALL (       2 calls)
     wfcinit:wfcr :      2.53s CPU      2.65s WALL (       2 calls)
     potinit      :      1.78s CPU      2.26s WALL (       1 calls)
     hinit0       :      0.50s CPU      0.58s WALL (       1 calls)

     Called by electrons:
     c_bands      :    254.93s CPU    258.34s WALL (       1 calls)
     v_of_rho     :      0.30s CPU      0.37s WALL (       1 calls)
     v_h          :      0.01s CPU      0.01s WALL (       1 calls)
     v_xc         :      0.29s CPU      0.36s WALL (       1 calls)
     newd         :      0.10s CPU      0.11s WALL (       1 calls)
     PAW_pot      :      1.03s CPU      1.04s WALL (       1 calls)

     Called by c_bands:
     init_us_2    :      0.05s CPU      0.07s WALL (       2 calls)
     init_us_2:cp :      0.05s CPU      0.07s WALL (       2 calls)
     cegterg      :    126.64s CPU    128.68s WALL (      12 calls)

     Called by sum_band:

     Called by *egterg:
     cdiaghg      :     14.18s CPU     14.30s WALL (     224 calls)
     cegterg:over :     11.60s CPU     11.73s WALL (     222 calls)
     cegterg:upda :     10.95s CPU     11.04s WALL (     222 calls)
     cegterg:last :     19.69s CPU     20.10s WALL (      67 calls)
     cdiaghg:chol :      0.90s CPU      0.91s WALL (     224 calls)
     cdiaghg:inve :      1.34s CPU      1.37s WALL (     224 calls)
     cdiaghg:para :      2.14s CPU      2.16s WALL (     448 calls)
     h_psi        :     56.85s CPU     57.97s WALL (     236 calls)
     s_psi        :     13.07s CPU     13.16s WALL (     236 calls)
     g_psi        :      0.40s CPU      0.40s WALL (     222 calls)

     Called by h_psi:
     h_psi:calbec :     12.65s CPU     12.92s WALL (     236 calls)
     vloc_psi     :     30.15s CPU     30.62s WALL (     236 calls)
     add_vuspsi   :     13.46s CPU     13.69s WALL (     236 calls)

     General routines
     calbec       :     12.65s CPU     12.92s WALL (     236 calls)
     fft          :      0.49s CPU      0.65s WALL (      21 calls)
     fftw         :     27.95s CPU     28.38s WALL (   51548 calls)
 
     Parallel routines

     PAW routines
     PAW_pot      :      1.03s CPU      1.04s WALL (       1 calls)
 
     PWSCF        :   4m29.70s CPU   5m 9.88s WALL

 
   This run was terminated on:   3:55:58   5Jul2024            

=------------------------------------------------------------------------------=
   JOB DONE.
=------------------------------------------------------------------------------=
