
     Program PWSCF v.7.2 starts on 26Jun2024 at 18:29:15 

     This program is part of the open-source Quantum ESPRESSO suite
     for quantum simulation of materials; please cite
         "P. Giannozzi et al., J. Phys.:Condens. Matter 21 395502 (2009);
         "P. Giannozzi et al., J. Phys.:Condens. Matter 29 465901 (2017);
         "P. Giannozzi et al., J. Chem. Phys. 152 154105 (2020);
          URL http://www.quantum-espresso.org", 
     in publications or presentations arising from this work. More details at
     http://www.quantum-espresso.org/quote

     Parallel version (MPI), running on  1120 processors

     MPI processes distributed on    10 nodes
     236673 MiB available memory on the printing compute node when the environment starts
 
     Waiting for input...
     Reading input from standard input

     Current dimensions of program PWSCF are:
     Max number of different atomic species (ntypx) = 10
     Max number of k-points (npk) =  40000
     Max angular momentum in pseudopotentials (lmaxx) =  4
     file S.pbe-n-kjpaw_psl.1.0.0.UPF: wavefunction(s)  3S 3P renormalized
     file Zn.pbe-dnl-kjpaw_psl.1.0.0.UPF: wavefunction(s)  4S 3D renormalized
     Found identity + (  0.0000  0.2500  0.2500) symmetry
     This is a supercell, fractional translations are disabled
 
     K-points division:     npool     =      10
     R & G space division:  proc/nbgrp/npool/nimage =     112
     Subspace diagonalization in iterative solution of the eigenvalue problem:
     one sub-group per band group will be used
     scalapack distributed-memory algorithm (size of sub-group:  3*  3 procs)

 
     Parallelization info
     --------------------
     sticks:   dense  smooth     PW     G-vecs:    dense   smooth      PW
     Min         178     178     46                19046    19046    2534
     Max         179     179     47                19053    19053    2543
     Sum       20021   20021   5217              2133555  2133555  284129
 
     Using Slab Decomposition
 


     bravais-lattice index     =            1
     lattice parameter (alat)  =      20.4846  a.u.
     unit-cell volume          =    8595.7633 (a.u.)^3
     number of atoms/cell      =           64
     number of atomic types    =            2
     number of electrons       =       576.00
     number of Kohn-Sham states=          346
     kinetic-energy cutoff     =     150.0000  Ry
     charge density cutoff     =     600.0000  Ry
     scf convergence threshold =      1.0E-08
     mixing beta               =       0.7000
     number of iterations used =            8  plain     mixing
     Exchange-correlation= SLA  PW   PBX  PBC
                           (   1   4   3   4   0   0   0)

     celldm(1)=  20.484631  celldm(2)=   0.000000  celldm(3)=   0.000000
     celldm(4)=   0.000000  celldm(5)=   0.000000  celldm(6)=   0.000000

     crystal axes: (cart. coord. in units of alat)
               a(1) = (   1.000000   0.000000   0.000000 )  
               a(2) = (   0.000000   1.000000   0.000000 )  
               a(3) = (   0.000000   0.000000   1.000000 )  

     reciprocal axes: (cart. coord. in units 2 pi/alat)
               b(1) = (  1.000000  0.000000  0.000000 )  
               b(2) = (  0.000000  1.000000  0.000000 )  
               b(3) = (  0.000000  0.000000  1.000000 )  


     PseudoPot. # 1 for S  read from file:
     /arf/home/amuhaymin/pseudo/S.pbe-n-kjpaw_psl.1.0.0.UPF
     MD5 check sum: fb45dfebcf3e72a4e1bd4a866ec2e262
     Pseudo is Projector augmented-wave + core cor, Zval =  6.0
     Generated using &quot;atomic&quot; code by A. Dal Corso  v.6.3
     Shape of augmentation charge: PSQ
     Using radial grid of 1151 points,  6 beta functions with: 
                l(1) =   0
                l(2) =   0
                l(3) =   1
                l(4) =   1
                l(5) =   2
                l(6) =   2
     Q(r) pseudized with 0 coefficients 


     PseudoPot. # 2 for Zn read from file:
     /arf/home/amuhaymin/pseudo/Zn.pbe-dnl-kjpaw_psl.1.0.0.UPF
     MD5 check sum: c608214d9520ac179f507641260889e3
     Pseudo is Projector augmented-wave + core cor, Zval = 12.0
     Generated using &quot;atomic&quot; code by A. Dal Corso  v.6.2.2
     Shape of augmentation charge: PSQ
     Using radial grid of 1201 points,  6 beta functions with: 
                l(1) =   0
                l(2) =   0
                l(3) =   1
                l(4) =   1
                l(5) =   2
                l(6) =   2
     Q(r) pseudized with 0 coefficients 


     atomic species   valence    mass     pseudopotential
        S              6.00    32.06500     S ( 1.00)
        Zn            12.00    65.38000     Zn( 1.00)

     Starting magnetic structure 
     atomic species   magnetization
        S            0.000
        Zn           0.000

     24 Sym. Ops. (no inversion) found


                                    s                        frac. trans.

      isym =  1     identity                                     

 cryst.   s( 1) = (     1          0          0      )
                  (     0          1          0      )
                  (     0          0          1      )

 cart.    s( 1) = (  1.0000000  0.0000000  0.0000000 )
                  (  0.0000000  1.0000000  0.0000000 )
                  (  0.0000000  0.0000000  1.0000000 )


      isym =  2     180 deg rotation - cart. axis [0,0,1]        

 cryst.   s( 2) = (    -1          0          0      )
                  (     0         -1          0      )
                  (     0          0          1      )

 cart.    s( 2) = ( -1.0000000  0.0000000  0.0000000 )
                  (  0.0000000 -1.0000000  0.0000000 )
                  (  0.0000000  0.0000000  1.0000000 )


      isym =  3     180 deg rotation - cart. axis [0,1,0]        

 cryst.   s( 3) = (    -1          0          0      )
                  (     0          1          0      )
                  (     0          0         -1      )

 cart.    s( 3) = ( -1.0000000  0.0000000  0.0000000 )
                  (  0.0000000  1.0000000  0.0000000 )
                  (  0.0000000  0.0000000 -1.0000000 )


      isym =  4     180 deg rotation - cart. axis [1,0,0]        

 cryst.   s( 4) = (     1          0          0      )
                  (     0         -1          0      )
                  (     0          0         -1      )

 cart.    s( 4) = (  1.0000000  0.0000000  0.0000000 )
                  (  0.0000000 -1.0000000  0.0000000 )
                  (  0.0000000  0.0000000 -1.0000000 )


      isym =  5     120 deg rotation - cart. axis [-1,-1,-1]     

 cryst.   s( 5) = (     0          0          1      )
                  (     1          0          0      )
                  (     0          1          0      )

 cart.    s( 5) = (  0.0000000  1.0000000  0.0000000 )
                  (  0.0000000  0.0000000  1.0000000 )
                  (  1.0000000  0.0000000  0.0000000 )


      isym =  6     120 deg rotation - cart. axis [-1,1,1]       

 cryst.   s( 6) = (     0          0         -1      )
                  (    -1          0          0      )
                  (     0          1          0      )

 cart.    s( 6) = (  0.0000000 -1.0000000  0.0000000 )
                  (  0.0000000  0.0000000  1.0000000 )
                  ( -1.0000000  0.0000000  0.0000000 )


      isym =  7     120 deg rotation - cart. axis [1,1,-1]       

 cryst.   s( 7) = (     0          0         -1      )
                  (     1          0          0      )
                  (     0         -1          0      )

 cart.    s( 7) = (  0.0000000  1.0000000  0.0000000 )
                  (  0.0000000  0.0000000 -1.0000000 )
                  ( -1.0000000  0.0000000  0.0000000 )


      isym =  8     120 deg rotation - cart. axis [1,-1,1]       

 cryst.   s( 8) = (     0          0          1      )
                  (    -1          0          0      )
                  (     0         -1          0      )

 cart.    s( 8) = (  0.0000000 -1.0000000  0.0000000 )
                  (  0.0000000  0.0000000 -1.0000000 )
                  (  1.0000000  0.0000000  0.0000000 )


      isym =  9     120 deg rotation - cart. axis [1,1,1]        

 cryst.   s( 9) = (     0          1          0      )
                  (     0          0          1      )
                  (     1          0          0      )

 cart.    s( 9) = (  0.0000000  0.0000000  1.0000000 )
                  (  1.0000000  0.0000000  0.0000000 )
                  (  0.0000000  1.0000000  0.0000000 )


      isym = 10     120 deg rotation - cart. axis [-1,1,-1]      

 cryst.   s(10) = (     0         -1          0      )
                  (     0          0         -1      )
                  (     1          0          0      )

 cart.    s(10) = (  0.0000000  0.0000000  1.0000000 )
                  ( -1.0000000  0.0000000  0.0000000 )
                  (  0.0000000 -1.0000000  0.0000000 )


      isym = 11     120 deg rotation - cart. axis [1,-1,-1]      

 cryst.   s(11) = (     0         -1          0      )
                  (     0          0          1      )
                  (    -1          0          0      )

 cart.    s(11) = (  0.0000000  0.0000000 -1.0000000 )
                  ( -1.0000000  0.0000000  0.0000000 )
                  (  0.0000000  1.0000000  0.0000000 )


      isym = 12     120 deg rotation - cart. axis [-1,-1,1]      

 cryst.   s(12) = (     0          1          0      )
                  (     0          0         -1      )
                  (    -1          0          0      )

 cart.    s(12) = (  0.0000000  0.0000000 -1.0000000 )
                  (  1.0000000  0.0000000  0.0000000 )
                  (  0.0000000 -1.0000000  0.0000000 )


      isym = 13     inv. 180 deg rotation - cart. axis [1,1,0]   

 cryst.   s(13) = (     0         -1          0      )
                  (    -1          0          0      )
                  (     0          0          1      )

 cart.    s(13) = (  0.0000000 -1.0000000  0.0000000 )
                  ( -1.0000000  0.0000000  0.0000000 )
                  (  0.0000000  0.0000000  1.0000000 )


      isym = 14     inv. 180 deg rotation - cart. axis [1,-1,0]  

 cryst.   s(14) = (     0          1          0      )
                  (     1          0          0      )
                  (     0          0          1      )

 cart.    s(14) = (  0.0000000  1.0000000  0.0000000 )
                  (  1.0000000  0.0000000  0.0000000 )
                  (  0.0000000  0.0000000  1.0000000 )


      isym = 15     inv.  90 deg rotation - cart. axis [0,0,-1]  

 cryst.   s(15) = (     0          1          0      )
                  (    -1          0          0      )
                  (     0          0         -1      )

 cart.    s(15) = (  0.0000000 -1.0000000  0.0000000 )
                  (  1.0000000  0.0000000  0.0000000 )
                  (  0.0000000  0.0000000 -1.0000000 )


      isym = 16     inv.  90 deg rotation - cart. axis [0,0,1]   

 cryst.   s(16) = (     0         -1          0      )
                  (     1          0          0      )
                  (     0          0         -1      )

 cart.    s(16) = (  0.0000000  1.0000000  0.0000000 )
                  ( -1.0000000  0.0000000  0.0000000 )
                  (  0.0000000  0.0000000 -1.0000000 )


      isym = 17     inv. 180 deg rotation - cart. axis [1,0,1]   

 cryst.   s(17) = (     0          0         -1      )
                  (     0          1          0      )
                  (    -1          0          0      )

 cart.    s(17) = (  0.0000000  0.0000000 -1.0000000 )
                  (  0.0000000  1.0000000  0.0000000 )
                  ( -1.0000000  0.0000000  0.0000000 )


      isym = 18     inv. 180 deg rotation - cart. axis [-1,0,1]  

 cryst.   s(18) = (     0          0          1      )
                  (     0          1          0      )
                  (     1          0          0      )

 cart.    s(18) = (  0.0000000  0.0000000  1.0000000 )
                  (  0.0000000  1.0000000  0.0000000 )
                  (  1.0000000  0.0000000  0.0000000 )


      isym = 19     inv.  90 deg rotation - cart. axis [0,1,0]   

 cryst.   s(19) = (     0          0          1      )
                  (     0         -1          0      )
                  (    -1          0          0      )

 cart.    s(19) = (  0.0000000  0.0000000 -1.0000000 )
                  (  0.0000000 -1.0000000  0.0000000 )
                  (  1.0000000  0.0000000  0.0000000 )


      isym = 20     inv.  90 deg rotation - cart. axis [0,-1,0]  

 cryst.   s(20) = (     0          0         -1      )
                  (     0         -1          0      )
                  (     1          0          0      )

 cart.    s(20) = (  0.0000000  0.0000000  1.0000000 )
                  (  0.0000000 -1.0000000  0.0000000 )
                  ( -1.0000000  0.0000000  0.0000000 )


      isym = 21     inv. 180 deg rotation - cart. axis [0,1,1]   

 cryst.   s(21) = (     1          0          0      )
                  (     0          0         -1      )
                  (     0         -1          0      )

 cart.    s(21) = (  1.0000000  0.0000000  0.0000000 )
                  (  0.0000000  0.0000000 -1.0000000 )
                  (  0.0000000 -1.0000000  0.0000000 )


      isym = 22     inv. 180 deg rotation - cart. axis [0,1,-1]  

 cryst.   s(22) = (     1          0          0      )
                  (     0          0          1      )
                  (     0          1          0      )

 cart.    s(22) = (  1.0000000  0.0000000  0.0000000 )
                  (  0.0000000  0.0000000  1.0000000 )
                  (  0.0000000  1.0000000  0.0000000 )


      isym = 23     inv.  90 deg rotation - cart. axis [-1,0,0]  

 cryst.   s(23) = (    -1          0          0      )
                  (     0          0          1      )
                  (     0         -1          0      )

 cart.    s(23) = ( -1.0000000  0.0000000  0.0000000 )
                  (  0.0000000  0.0000000 -1.0000000 )
                  (  0.0000000  1.0000000  0.0000000 )


      isym = 24     inv.  90 deg rotation - cart. axis [1,0,0]   

 cryst.   s(24) = (    -1          0          0      )
                  (     0          0         -1      )
                  (     0          1          0      )

 cart.    s(24) = ( -1.0000000  0.0000000  0.0000000 )
                  (  0.0000000  0.0000000  1.0000000 )
                  (  0.0000000 -1.0000000  0.0000000 )


     point group T_d (-43m) 
     there are  5 classes
     the character table:

       E     8C3   3C2   6S4   6s_d 
A_1    1.00  1.00  1.00  1.00  1.00
A_2    1.00  1.00  1.00 -1.00 -1.00
E      2.00 -1.00  2.00  0.00  0.00
T_1    3.00  0.00 -1.00  1.00 -1.00
T_2    3.00  0.00 -1.00 -1.00  1.00

     the symmetry operations in each class and the name of the first element:

     E        1
          identity                                               
     8C3      5    7    8    6   12    9   10   11
          120 deg rotation - cart. axis [-1,-1,-1]               
     3C2      2    3    4
          180 deg rotation - cart. axis [0,0,1]                  
     6S4     15   16   20   19   23   24
          inv.  90 deg rotation - cart. axis [0,0,-1]            
     6s_d    13   14   17   18   21   22
          inv. 180 deg rotation - cart. axis [1,1,0]             

   Cartesian axes

     site n.     atom                  positions (alat units)
         1           Zn  tau(   1) = (   0.0000000   0.0000000   0.0000000  )
         2           Zn  tau(   2) = (   0.0000000   0.2500000   0.2500000  )
         3           Zn  tau(   3) = (   0.2500000   0.0000000   0.2500000  )
         4           Zn  tau(   4) = (   0.2500000   0.2500000   0.0000000  )
         5           S   tau(   5) = (   0.1250000   0.3750000   0.3750000  )
         6           S   tau(   6) = (   0.1250000   0.1250000   0.1250000  )
         7           S   tau(   7) = (   0.3750000   0.3750000   0.1250000  )
         8           S   tau(   8) = (   0.3750000   0.1250000   0.3750000  )
         9           Zn  tau(   9) = (   0.0000000   0.0000000   0.5000000  )
        10           Zn  tau(  10) = (   0.0000000   0.2500000   0.7500000  )
        11           Zn  tau(  11) = (   0.2500000   0.0000000   0.7500000  )
        12           Zn  tau(  12) = (   0.2500000   0.2500000   0.5000000  )
        13           S   tau(  13) = (   0.1250000   0.3750000   0.8750000  )
        14           S   tau(  14) = (   0.1250000   0.1250000   0.6250000  )
        15           S   tau(  15) = (   0.3750000   0.3750000   0.6250000  )
        16           S   tau(  16) = (   0.3750000   0.1250000   0.8750000  )
        17           Zn  tau(  17) = (   0.0000000   0.5000000   0.0000000  )
        18           Zn  tau(  18) = (   0.0000000   0.7500000   0.2500000  )
        19           Zn  tau(  19) = (   0.2500000   0.5000000   0.2500000  )
        20           Zn  tau(  20) = (   0.2500000   0.7500000   0.0000000  )
        21           S   tau(  21) = (   0.1250000   0.8750000   0.3750000  )
        22           S   tau(  22) = (   0.1250000   0.6250000   0.1250000  )
        23           S   tau(  23) = (   0.3750000   0.8750000   0.1250000  )
        24           S   tau(  24) = (   0.3750000   0.6250000   0.3750000  )
        25           Zn  tau(  25) = (   0.0000000   0.5000000   0.5000000  )
        26           Zn  tau(  26) = (   0.0000000   0.7500000   0.7500000  )
        27           Zn  tau(  27) = (   0.2500000   0.5000000   0.7500000  )
        28           Zn  tau(  28) = (   0.2500000   0.7500000   0.5000000  )
        29           S   tau(  29) = (   0.1250000   0.8750000   0.8750000  )
        30           S   tau(  30) = (   0.1250000   0.6250000   0.6250000  )
        31           S   tau(  31) = (   0.3750000   0.8750000   0.6250000  )
        32           S   tau(  32) = (   0.3750000   0.6250000   0.8750000  )
        33           Zn  tau(  33) = (   0.5000000   0.0000000   0.0000000  )
        34           Zn  tau(  34) = (   0.5000000   0.2500000   0.2500000  )
        35           Zn  tau(  35) = (   0.7500000   0.0000000   0.2500000  )
        36           Zn  tau(  36) = (   0.7500000   0.2500000   0.0000000  )
        37           S   tau(  37) = (   0.6250000   0.3750000   0.3750000  )
        38           S   tau(  38) = (   0.6250000   0.1250000   0.1250000  )
        39           S   tau(  39) = (   0.8750000   0.3750000   0.1250000  )
        40           S   tau(  40) = (   0.8750000   0.1250000   0.3750000  )
        41           Zn  tau(  41) = (   0.5000000   0.0000000   0.5000000  )
        42           Zn  tau(  42) = (   0.5000000   0.2500000   0.7500000  )
        43           Zn  tau(  43) = (   0.7500000   0.0000000   0.7500000  )
        44           Zn  tau(  44) = (   0.7500000   0.2500000   0.5000000  )
        45           S   tau(  45) = (   0.6250000   0.3750000   0.8750000  )
        46           S   tau(  46) = (   0.6250000   0.1250000   0.6250000  )
        47           S   tau(  47) = (   0.8750000   0.3750000   0.6250000  )
        48           S   tau(  48) = (   0.8750000   0.1250000   0.8750000  )
        49           Zn  tau(  49) = (   0.5000000   0.5000000   0.0000000  )
        50           Zn  tau(  50) = (   0.5000000   0.7500000   0.2500000  )
        51           Zn  tau(  51) = (   0.7500000   0.5000000   0.2500000  )
        52           Zn  tau(  52) = (   0.7500000   0.7500000   0.0000000  )
        53           S   tau(  53) = (   0.6250000   0.8750000   0.3750000  )
        54           S   tau(  54) = (   0.6250000   0.6250000   0.1250000  )
        55           S   tau(  55) = (   0.8750000   0.8750000   0.1250000  )
        56           S   tau(  56) = (   0.8750000   0.6250000   0.3750000  )
        57           Zn  tau(  57) = (   0.5000000   0.5000000   0.5000000  )
        58           Zn  tau(  58) = (   0.5000000   0.7500000   0.7500000  )
        59           Zn  tau(  59) = (   0.7500000   0.5000000   0.7500000  )
        60           Zn  tau(  60) = (   0.7500000   0.7500000   0.5000000  )
        61           S   tau(  61) = (   0.6250000   0.8750000   0.8750000  )
        62           S   tau(  62) = (   0.6250000   0.6250000   0.6250000  )
        63           S   tau(  63) = (   0.8750000   0.8750000   0.6250000  )
        64           S   tau(  64) = (   0.8750000   0.6250000   0.8750000  )

   Crystallographic axes

     site n.     atom                  positions (cryst. coord.)
         1           Zn  tau(   1) = (  0.0000000  0.0000000  0.0000000  )
         2           Zn  tau(   2) = (  0.0000000  0.2500000  0.2500000  )
         3           Zn  tau(   3) = (  0.2500000  0.0000000  0.2500000  )
         4           Zn  tau(   4) = (  0.2500000  0.2500000  0.0000000  )
         5           S   tau(   5) = (  0.1250000  0.3750000  0.3750000  )
         6           S   tau(   6) = (  0.1250000  0.1250000  0.1250000  )
         7           S   tau(   7) = (  0.3750000  0.3750000  0.1250000  )
         8           S   tau(   8) = (  0.3750000  0.1250000  0.3750000  )
         9           Zn  tau(   9) = (  0.0000000  0.0000000  0.5000000  )
        10           Zn  tau(  10) = (  0.0000000  0.2500000  0.7500000  )
        11           Zn  tau(  11) = (  0.2500000  0.0000000  0.7500000  )
        12           Zn  tau(  12) = (  0.2500000  0.2500000  0.5000000  )
        13           S   tau(  13) = (  0.1250000  0.3750000  0.8750000  )
        14           S   tau(  14) = (  0.1250000  0.1250000  0.6250000  )
        15           S   tau(  15) = (  0.3750000  0.3750000  0.6250000  )
        16           S   tau(  16) = (  0.3750000  0.1250000  0.8750000  )
        17           Zn  tau(  17) = (  0.0000000  0.5000000  0.0000000  )
        18           Zn  tau(  18) = (  0.0000000  0.7500000  0.2500000  )
        19           Zn  tau(  19) = (  0.2500000  0.5000000  0.2500000  )
        20           Zn  tau(  20) = (  0.2500000  0.7500000  0.0000000  )
        21           S   tau(  21) = (  0.1250000  0.8750000  0.3750000  )
        22           S   tau(  22) = (  0.1250000  0.6250000  0.1250000  )
        23           S   tau(  23) = (  0.3750000  0.8750000  0.1250000  )
        24           S   tau(  24) = (  0.3750000  0.6250000  0.3750000  )
        25           Zn  tau(  25) = (  0.0000000  0.5000000  0.5000000  )
        26           Zn  tau(  26) = (  0.0000000  0.7500000  0.7500000  )
        27           Zn  tau(  27) = (  0.2500000  0.5000000  0.7500000  )
        28           Zn  tau(  28) = (  0.2500000  0.7500000  0.5000000  )
        29           S   tau(  29) = (  0.1250000  0.8750000  0.8750000  )
        30           S   tau(  30) = (  0.1250000  0.6250000  0.6250000  )
        31           S   tau(  31) = (  0.3750000  0.8750000  0.6250000  )
        32           S   tau(  32) = (  0.3750000  0.6250000  0.8750000  )
        33           Zn  tau(  33) = (  0.5000000  0.0000000  0.0000000  )
        34           Zn  tau(  34) = (  0.5000000  0.2500000  0.2500000  )
        35           Zn  tau(  35) = (  0.7500000  0.0000000  0.2500000  )
        36           Zn  tau(  36) = (  0.7500000  0.2500000  0.0000000  )
        37           S   tau(  37) = (  0.6250000  0.3750000  0.3750000  )
        38           S   tau(  38) = (  0.6250000  0.1250000  0.1250000  )
        39           S   tau(  39) = (  0.8750000  0.3750000  0.1250000  )
        40           S   tau(  40) = (  0.8750000  0.1250000  0.3750000  )
        41           Zn  tau(  41) = (  0.5000000  0.0000000  0.5000000  )
        42           Zn  tau(  42) = (  0.5000000  0.2500000  0.7500000  )
        43           Zn  tau(  43) = (  0.7500000  0.0000000  0.7500000  )
        44           Zn  tau(  44) = (  0.7500000  0.2500000  0.5000000  )
        45           S   tau(  45) = (  0.6250000  0.3750000  0.8750000  )
        46           S   tau(  46) = (  0.6250000  0.1250000  0.6250000  )
        47           S   tau(  47) = (  0.8750000  0.3750000  0.6250000  )
        48           S   tau(  48) = (  0.8750000  0.1250000  0.8750000  )
        49           Zn  tau(  49) = (  0.5000000  0.5000000  0.0000000  )
        50           Zn  tau(  50) = (  0.5000000  0.7500000  0.2500000  )
        51           Zn  tau(  51) = (  0.7500000  0.5000000  0.2500000  )
        52           Zn  tau(  52) = (  0.7500000  0.7500000  0.0000000  )
        53           S   tau(  53) = (  0.6250000  0.8750000  0.3750000  )
        54           S   tau(  54) = (  0.6250000  0.6250000  0.1250000  )
        55           S   tau(  55) = (  0.8750000  0.8750000  0.1250000  )
        56           S   tau(  56) = (  0.8750000  0.6250000  0.3750000  )
        57           Zn  tau(  57) = (  0.5000000  0.5000000  0.5000000  )
        58           Zn  tau(  58) = (  0.5000000  0.7500000  0.7500000  )
        59           Zn  tau(  59) = (  0.7500000  0.5000000  0.7500000  )
        60           Zn  tau(  60) = (  0.7500000  0.7500000  0.5000000  )
        61           S   tau(  61) = (  0.6250000  0.8750000  0.8750000  )
        62           S   tau(  62) = (  0.6250000  0.6250000  0.6250000  )
        63           S   tau(  63) = (  0.8750000  0.8750000  0.6250000  )
        64           S   tau(  64) = (  0.8750000  0.6250000  0.8750000  )

     number of k points=    10  Gaussian smearing, width (Ry)=  0.0010
                       cart. coord. in units 2pi/alat
        k(    1) = (   0.0000000   0.0000000   0.0000000), wk =   0.0156250
        k(    2) = (   0.0000000   0.0000000   0.2500000), wk =   0.0937500
        k(    3) = (   0.0000000   0.0000000  -0.5000000), wk =   0.0468750
        k(    4) = (   0.0000000   0.2500000   0.2500000), wk =   0.1875000
        k(    5) = (   0.0000000   0.2500000  -0.5000000), wk =   0.1875000
        k(    6) = (   0.0000000  -0.5000000  -0.5000000), wk =   0.0468750
        k(    7) = (   0.2500000   0.2500000   0.2500000), wk =   0.1250000
        k(    8) = (   0.2500000   0.2500000  -0.5000000), wk =   0.1875000
        k(    9) = (   0.2500000  -0.5000000  -0.5000000), wk =   0.0937500
        k(   10) = (  -0.5000000  -0.5000000  -0.5000000), wk =   0.0156250

                       cryst. coord.
        k(    1) = (   0.0000000   0.0000000   0.0000000), wk =   0.0156250
        k(    2) = (   0.0000000   0.0000000   0.2500000), wk =   0.0937500
        k(    3) = (   0.0000000   0.0000000  -0.5000000), wk =   0.0468750
        k(    4) = (   0.0000000   0.2500000   0.2500000), wk =   0.1875000
        k(    5) = (   0.0000000   0.2500000  -0.5000000), wk =   0.1875000
        k(    6) = (   0.0000000  -0.5000000  -0.5000000), wk =   0.0468750
        k(    7) = (   0.2500000   0.2500000   0.2500000), wk =   0.1250000
        k(    8) = (   0.2500000   0.2500000  -0.5000000), wk =   0.1875000
        k(    9) = (   0.2500000  -0.5000000  -0.5000000), wk =   0.0937500
        k(   10) = (  -0.5000000  -0.5000000  -0.5000000), wk =   0.0156250

     Dense  grid:  2133555 G-vectors     FFT dimensions: ( 160, 160, 160)

     Dynamical RAM for                 wfc:      12.57 MB

     Dynamical RAM for     wfc (w. buffer):      37.70 MB

     Dynamical RAM for           str. fact:       0.58 MB

     Dynamical RAM for           local pot:       0.00 MB

     Dynamical RAM for          nlocal pot:      41.84 MB

     Dynamical RAM for                qrad:       3.93 MB

     Dynamical RAM for          rho,v,vnew:       4.09 MB

     Dynamical RAM for               rhoin:       1.36 MB

     Dynamical RAM for            rho*nmix:       9.30 MB

     Dynamical RAM for           G-vectors:       1.24 MB

     Dynamical RAM for          h,s,v(r/c):       2.42 MB

     Dynamical RAM for          <psi|beta>:       6.08 MB

     Dynamical RAM for                 psi:      25.13 MB

     Dynamical RAM for                hpsi:      25.13 MB

     Dynamical RAM for                spsi:      25.13 MB

     Dynamical RAM for      wfcinit/wfcrot:      34.18 MB

     Dynamical RAM for           addusdens:       6.89 MB

     Estimated static dynamical RAM per process >      93.95 MB

     Estimated max dynamical RAM per process >     187.14 MB

     Estimated total dynamical RAM >     195.53 GB
     Generating pointlists ...
     new r_m :   0.0893 (alat units)  1.8295 (a.u.) for type    1
     new r_m :   0.0893 (alat units)  1.8295 (a.u.) for type    2

     Initial potential from superposition of free atoms

     starting charge     575.8798, renormalised to     576.0000
     Starting wfcs are  416 randomized atomic wfcs
     Checking if some PAW data can be deallocated... 
       PAW data deallocated on  560 nodes for type:  1
       PAW data deallocated on  560 nodes for type:  2

     total cpu time spent up to now is       10.4 secs

     Self-consistent Calculation

     iteration #  1     ecut=   150.00 Ry     beta= 0.70
     Davidson diagonalization with overlap

---- Real-time Memory Report at c_bands before calling an iterative solver
          1214 MiB given to the printing process from OS
             0 MiB allocation reported by mallinfo(arena+hblkhd)
        212157 MiB available memory on the node where the printing process lives
------------------
     ethr =  1.00E-02,  avg # of iterations =  4.8

     Threshold (ethr) on eigenvalues was too large:
     Diagonalizing with lowered threshold

     Davidson diagonalization with overlap

---- Real-time Memory Report at c_bands before calling an iterative solver
          1376 MiB given to the printing process from OS
             0 MiB allocation reported by mallinfo(arena+hblkhd)
        211606 MiB available memory on the node where the printing process lives
------------------
     ethr =  3.29E-04,  avg # of iterations =  5.0

     total cpu time spent up to now is       30.9 secs

     total energy              =   -9923.84476354 Ry
     estimated scf accuracy    <       1.82580255 Ry

     total magnetization       =     0.00 Bohr mag/cell
     absolute magnetization    =     0.05 Bohr mag/cell

     iteration #  2     ecut=   150.00 Ry     beta= 0.70
     Davidson diagonalization with overlap

---- Real-time Memory Report at c_bands before calling an iterative solver
          1404 MiB given to the printing process from OS
             0 MiB allocation reported by mallinfo(arena+hblkhd)
        211646 MiB available memory on the node where the printing process lives
------------------
     ethr =  3.17E-04,  avg # of iterations =  4.0

     total cpu time spent up to now is       42.1 secs

     total energy              =   -9924.29888316 Ry
     estimated scf accuracy    <       0.38976429 Ry

     total magnetization       =     0.00 Bohr mag/cell
     absolute magnetization    =     0.02 Bohr mag/cell

     iteration #  3     ecut=   150.00 Ry     beta= 0.70
     Davidson diagonalization with overlap

---- Real-time Memory Report at c_bands before calling an iterative solver
          1426 MiB given to the printing process from OS
             0 MiB allocation reported by mallinfo(arena+hblkhd)
        211342 MiB available memory on the node where the printing process lives
------------------
     ethr =  6.77E-05,  avg # of iterations =  7.4

     total cpu time spent up to now is       55.1 secs

     total energy              =   -9924.36760536 Ry
     estimated scf accuracy    <       0.02702793 Ry

     total magnetization       =    -0.00 Bohr mag/cell
     absolute magnetization    =     0.01 Bohr mag/cell

     iteration #  4     ecut=   150.00 Ry     beta= 0.70
     Davidson diagonalization with overlap

---- Real-time Memory Report at c_bands before calling an iterative solver
          1444 MiB given to the printing process from OS
             0 MiB allocation reported by mallinfo(arena+hblkhd)
        211114 MiB available memory on the node where the printing process lives
------------------
     ethr =  4.69E-06,  avg # of iterations = 12.1

     total cpu time spent up to now is       69.9 secs

     total energy              =   -9924.37584567 Ry
     estimated scf accuracy    <       0.01386137 Ry

     total magnetization       =     0.00 Bohr mag/cell
     absolute magnetization    =     0.01 Bohr mag/cell

     iteration #  5     ecut=   150.00 Ry     beta= 0.70
     Davidson diagonalization with overlap

---- Real-time Memory Report at c_bands before calling an iterative solver
          1457 MiB given to the printing process from OS
             0 MiB allocation reported by mallinfo(arena+hblkhd)
        210910 MiB available memory on the node where the printing process lives
------------------
     c_bands:  1 eigenvalues not converged
     ethr =  2.41E-06,  avg # of iterations =  6.0

     total cpu time spent up to now is       81.5 secs

     total energy              =   -9924.37787219 Ry
     estimated scf accuracy    <       0.00060690 Ry

     total magnetization       =    -0.00 Bohr mag/cell
     absolute magnetization    =     0.00 Bohr mag/cell

     iteration #  6     ecut=   150.00 Ry     beta= 0.70
     Davidson diagonalization with overlap

---- Real-time Memory Report at c_bands before calling an iterative solver
          1470 MiB given to the printing process from OS
             0 MiB allocation reported by mallinfo(arena+hblkhd)
        210720 MiB available memory on the node where the printing process lives
------------------
     c_bands:  1 eigenvalues not converged
     ethr =  1.05E-07,  avg # of iterations =  5.8

     total cpu time spent up to now is       92.5 secs

     total energy              =   -9924.37817098 Ry
     estimated scf accuracy    <       0.00009603 Ry

     total magnetization       =    -0.00 Bohr mag/cell
     absolute magnetization    =     0.00 Bohr mag/cell

     iteration #  7     ecut=   150.00 Ry     beta= 0.70
     Davidson diagonalization with overlap

---- Real-time Memory Report at c_bands before calling an iterative solver
          1481 MiB given to the printing process from OS
             0 MiB allocation reported by mallinfo(arena+hblkhd)
        210551 MiB available memory on the node where the printing process lives
------------------
     ethr =  1.67E-08,  avg # of iterations =  3.8

     total cpu time spent up to now is      102.0 secs

     total energy              =   -9924.37814328 Ry
     estimated scf accuracy    <       0.00005983 Ry

     total magnetization       =    -0.00 Bohr mag/cell
     absolute magnetization    =     0.00 Bohr mag/cell

     iteration #  8     ecut=   150.00 Ry     beta= 0.70
     Davidson diagonalization with overlap

---- Real-time Memory Report at c_bands before calling an iterative solver
          1486 MiB given to the printing process from OS
             0 MiB allocation reported by mallinfo(arena+hblkhd)
        210354 MiB available memory on the node where the printing process lives
------------------
     ethr =  1.04E-08,  avg # of iterations =  2.1

     total cpu time spent up to now is      110.4 secs

     total energy              =   -9924.37816137 Ry
     estimated scf accuracy    <       0.00000209 Ry

     total magnetization       =     0.00 Bohr mag/cell
     absolute magnetization    =     0.00 Bohr mag/cell

     iteration #  9     ecut=   150.00 Ry     beta= 0.70
     Davidson diagonalization with overlap

---- Real-time Memory Report at c_bands before calling an iterative solver
          1492 MiB given to the printing process from OS
             0 MiB allocation reported by mallinfo(arena+hblkhd)
        210145 MiB available memory on the node where the printing process lives
------------------
     c_bands:  1 eigenvalues not converged
     ethr =  3.62E-10,  avg # of iterations =  6.7

     total cpu time spent up to now is      123.2 secs

     total energy              =   -9924.37816044 Ry
     estimated scf accuracy    <       0.00000340 Ry

     total magnetization       =     0.00 Bohr mag/cell
     absolute magnetization    =     0.00 Bohr mag/cell

     iteration # 10     ecut=   150.00 Ry     beta= 0.70
     Davidson diagonalization with overlap

---- Real-time Memory Report at c_bands before calling an iterative solver
          1500 MiB given to the printing process from OS
             0 MiB allocation reported by mallinfo(arena+hblkhd)
        209954 MiB available memory on the node where the printing process lives
------------------
     ethr =  3.62E-10,  avg # of iterations =  2.7
 
     Magnetic moment per site  (integrated on atomic sphere of radius R)
     atom   1 (R=0.089)  charge= 10.1496  magn= -0.0000
     atom   2 (R=0.089)  charge= 10.1496  magn=  0.0000
     atom   3 (R=0.089)  charge= 10.1496  magn=  0.0000
     atom   4 (R=0.089)  charge= 10.1496  magn=  0.0000
     atom   5 (R=0.089)  charge=  3.9730  magn=  0.0000
     atom   6 (R=0.089)  charge=  3.9730  magn=  0.0000
     atom   7 (R=0.089)  charge=  3.9730  magn=  0.0000
     atom   8 (R=0.089)  charge=  3.9730  magn=  0.0000
     atom   9 (R=0.089)  charge= 10.1496  magn=  0.0000
     atom  10 (R=0.089)  charge= 10.1496  magn=  0.0000
     atom  11 (R=0.089)  charge= 10.1496  magn=  0.0000
     atom  12 (R=0.089)  charge= 10.1496  magn= -0.0000
     atom  13 (R=0.089)  charge=  3.9729  magn= -0.0000
     atom  14 (R=0.089)  charge=  3.9729  magn= -0.0000
     atom  15 (R=0.089)  charge=  3.9730  magn=  0.0000
     atom  16 (R=0.089)  charge=  3.9729  magn= -0.0000
     atom  17 (R=0.089)  charge= 10.1496  magn=  0.0000
     atom  18 (R=0.089)  charge= 10.1496  magn=  0.0000
     atom  19 (R=0.089)  charge= 10.1496  magn= -0.0000
     atom  20 (R=0.089)  charge= 10.1496  magn=  0.0000
     atom  21 (R=0.089)  charge=  3.9729  magn= -0.0000
     atom  22 (R=0.089)  charge=  3.9729  magn= -0.0000
     atom  23 (R=0.089)  charge=  3.9729  magn= -0.0000
     atom  24 (R=0.089)  charge=  3.9730  magn=  0.0000
     atom  25 (R=0.089)  charge= 10.1496  magn= -0.0000
     atom  26 (R=0.089)  charge= 10.1496  magn=  0.0000
     atom  27 (R=0.089)  charge= 10.1496  magn= -0.0000
     atom  28 (R=0.089)  charge= 10.1496  magn= -0.0000
     atom  29 (R=0.089)  charge=  3.9730  magn=  0.0000
     atom  30 (R=0.089)  charge=  3.9730  magn=  0.0000
     atom  31 (R=0.089)  charge=  3.9730  magn=  0.0000
     atom  32 (R=0.089)  charge=  3.9730  magn=  0.0000
     atom  33 (R=0.089)  charge= 10.1496  magn=  0.0000
     atom  34 (R=0.089)  charge= 10.1496  magn= -0.0000
     atom  35 (R=0.089)  charge= 10.1496  magn=  0.0000
     atom  36 (R=0.089)  charge= 10.1496  magn=  0.0000
     atom  37 (R=0.089)  charge=  3.9730  magn=  0.0000
     atom  38 (R=0.089)  charge=  3.9729  magn= -0.0000
     atom  39 (R=0.089)  charge=  3.9729  magn= -0.0000
     atom  40 (R=0.089)  charge=  3.9729  magn= -0.0000
     atom  41 (R=0.089)  charge= 10.1496  magn= -0.0000
     atom  42 (R=0.089)  charge= 10.1496  magn= -0.0000
     atom  43 (R=0.089)  charge= 10.1496  magn=  0.0000
     atom  44 (R=0.089)  charge= 10.1496  magn= -0.0000
     atom  45 (R=0.089)  charge=  3.9730  magn=  0.0000
     atom  46 (R=0.089)  charge=  3.9730  magn=  0.0000
     atom  47 (R=0.089)  charge=  3.9730  magn=  0.0000
     atom  48 (R=0.089)  charge=  3.9730  magn=  0.0000
     atom  49 (R=0.089)  charge= 10.1496  magn= -0.0000
     atom  50 (R=0.089)  charge= 10.1496  magn= -0.0000
     atom  51 (R=0.089)  charge= 10.1496  magn= -0.0000
     atom  52 (R=0.089)  charge= 10.1496  magn=  0.0000
     atom  53 (R=0.089)  charge=  3.9730  magn=  0.0000
     atom  54 (R=0.089)  charge=  3.9730  magn=  0.0000
     atom  55 (R=0.089)  charge=  3.9730  magn=  0.0000
     atom  56 (R=0.089)  charge=  3.9730  magn=  0.0000
     atom  57 (R=0.089)  charge= 10.1496  magn= -0.0000
     atom  58 (R=0.089)  charge= 10.1496  magn= -0.0000
     atom  59 (R=0.089)  charge= 10.1496  magn= -0.0000
     atom  60 (R=0.089)  charge= 10.1496  magn= -0.0000
     atom  61 (R=0.089)  charge=  3.9729  magn= -0.0000
     atom  62 (R=0.089)  charge=  3.9730  magn=  0.0000
     atom  63 (R=0.089)  charge=  3.9729  magn= -0.0000
     atom  64 (R=0.089)  charge=  3.9729  magn= -0.0000

     total cpu time spent up to now is      132.2 secs

     End of self-consistent calculation

 ------ SPIN UP ------------


          k = 0.0000 0.0000 0.0000 (266795 PWs)   bands (ev):

    -7.3892  -6.8349  -6.8348  -6.8348  -6.8348  -6.8348  -6.8348  -6.5027
    -6.5027  -6.5027  -6.5027  -6.5027  -6.5027  -6.5027  -6.5027  -6.5027
    -6.5027  -6.5027  -6.5027  -6.4769  -6.4769  -6.4769  -6.4769  -6.1700
    -6.1700  -6.1700  -6.1642  -6.1642  -6.1642  -6.1641  -6.1641  -6.1641
    -0.6149  -0.6149  -0.6149  -0.6149  -0.6149  -0.6149  -0.5943  -0.5943
    -0.5943  -0.5654  -0.5654  -0.5654  -0.4510  -0.4510  -0.4510  -0.4510
    -0.4510  -0.4510  -0.4510  -0.4510  -0.4428  -0.4428  -0.4428  -0.4428
    -0.4428  -0.4428  -0.4428  -0.4428  -0.4428  -0.4428  -0.4428  -0.4428
    -0.4339  -0.4339  -0.4339  -0.4339  -0.4339  -0.4339  -0.4199  -0.4199
    -0.4199  -0.4199  -0.4199  -0.4199  -0.4199  -0.4199  -0.4199  -0.4199
    -0.4199  -0.4199  -0.4095  -0.4095  -0.4095  -0.4095  -0.4095  -0.4095
    -0.4095  -0.4095  -0.4095  -0.4095  -0.4095  -0.4095  -0.2883  -0.2883
    -0.2883  -0.2883  -0.2883  -0.2883  -0.2883  -0.2883  -0.2883  -0.2883
    -0.2883  -0.2883  -0.2844  -0.2844  -0.2844  -0.2844  -0.2844  -0.2844
    -0.2245  -0.2245  -0.2245  -0.2245  -0.2245  -0.2245  -0.1297  -0.1297
    -0.1297  -0.1297  -0.1297  -0.1297  -0.1085  -0.1085  -0.1085  -0.1085
    -0.1085  -0.1085  -0.1059  -0.1059  -0.1059  -0.1059  -0.1059  -0.1059
    -0.0841  -0.0841  -0.0840  -0.0840  -0.0840  -0.0840  -0.0840  -0.0840
    -0.0840  -0.0840  -0.0840  -0.0840  -0.0695  -0.0695  -0.0394  -0.0394
    -0.0394  -0.0394  -0.0394  -0.0394  -0.0394  -0.0394  -0.0323  -0.0323
    -0.0323  -0.0323  -0.0323  -0.0323  -0.0097  -0.0097  -0.0097  -0.0097
    -0.0097  -0.0096  -0.0096  -0.0096  -0.0096  -0.0096  -0.0096  -0.0096
     0.0050   0.0050   0.0050   0.1301   0.1301   0.1301   0.1301   0.1427
     0.1427   0.1427   0.3227   0.3227   0.3227   0.3227   0.3227   0.3227
     0.4576   0.4576   0.4576   0.4576   1.1500   1.1500   1.1500   1.1500
     1.1500   1.1500   1.1836   1.1836   1.1836   1.7815   1.7815   1.7815
     1.7815   1.7815   1.7815   1.7815   1.7815   1.7815   1.7815   1.7815
     1.7815   2.9886   2.9886   2.9886   2.9886   2.9886   2.9886   3.0234
     3.0234   3.0234   3.0234   3.0234   3.0234   3.1481   3.1481   3.1481
     3.1481   3.1481   3.1481   3.2236   3.2236   3.2236   3.2236   3.2236
     3.2236   3.2236   3.2236   3.2236   3.2236   3.2236   3.2236   3.5082
     3.5082   3.5082   3.5082   3.5082   3.5082   4.4826   4.4826   4.4826
     4.4826   4.4826   4.4826   4.4826   4.4826   4.4826   4.4826   4.4826
     4.4826   4.8095   4.8095   4.8095   4.8095   4.8095   4.8095   4.8095
     4.8095   4.8095   4.8095   4.8095   4.8095   4.8461   4.8461   4.8461
     4.8461   4.8461   4.8461   4.8461   4.8461   5.7021   5.7021   5.7021
     7.7615   8.9782   8.9782   8.9782   8.9782   9.1184   9.1184   9.1184
     9.7600   9.7600   9.7600  10.1620  10.1620  10.1620  10.1620  10.1620
    10.1620  10.2501  10.2501  10.2501  10.2501  10.2501  10.2501  10.4978
    10.4978  10.4978  10.4978  10.4978  10.4978  10.4978  10.4978  10.4978
    10.4978  10.4978  10.4978  11.3908  11.3908  11.3908  11.3908  11.3908
    11.3908  11.6750  11.6751  11.6751  11.6751  11.6751  11.6751  12.0680
    12.0681  12.0682  12.3470  12.3471  12.3471  12.3471  12.3471  12.3471
    12.3471  12.3471

     occupation numbers 
     1.0000   1.0000   1.0000   1.0000   1.0000   1.0000   1.0000   1.0000
     1.0000   1.0000   1.0000   1.0000   1.0000   1.0000   1.0000   1.0000
     1.0000   1.0000   1.0000   1.0000   1.0000   1.0000   1.0000   1.0000
     1.0000   1.0000   1.0000   1.0000   1.0000   1.0000   1.0000   1.0000
     1.0000   1.0000   1.0000   1.0000   1.0000   1.0000   1.0000   1.0000
     1.0000   1.0000   1.0000   1.0000   1.0000   1.0000   1.0000   1.0000
     1.0000   1.0000   1.0000   1.0000   1.0000   1.0000   1.0000   1.0000
     1.0000   1.0000   1.0000   1.0000   1.0000   1.0000   1.0000   1.0000
     1.0000   1.0000   1.0000   1.0000   1.0000   1.0000   1.0000   1.0000
     1.0000   1.0000   1.0000   1.0000   1.0000   1.0000   1.0000   1.0000
     1.0000   1.0000   1.0000   1.0000   1.0000   1.0000   1.0000   1.0000
     1.0000   1.0000   1.0000   1.0000   1.0000   1.0000   1.0000   1.0000
     1.0000   1.0000   1.0000   1.0000   1.0000   1.0000   1.0000   1.0000
     1.0000   1.0000   1.0000   1.0000   1.0000   1.0000   1.0000   1.0000
     1.0000   1.0000   1.0000   1.0000   1.0000   1.0000   1.0000   1.0000
     1.0000   1.0000   1.0000   1.0000   1.0000   1.0000   1.0000   1.0000
     1.0000   1.0000   1.0000   1.0000   1.0000   1.0000   1.0000   1.0000
     1.0000   1.0000   1.0000   1.0000   1.0000   1.0000   1.0000   1.0000
     1.0000   1.0000   1.0000   1.0000   1.0000   1.0000   1.0000   1.0000
     1.0000   1.0000   1.0000   1.0000   1.0000   1.0000   1.0000   1.0000
     1.0000   1.0000   1.0000   1.0000   1.0000   1.0000   1.0000   1.0000
     1.0000   1.0000   1.0000   1.0000   1.0000   1.0000   1.0000   1.0000
     1.0000   1.0000   1.0000   1.0000   1.0000   1.0000   1.0000   1.0000
     1.0000   1.0000   1.0000   1.0000   1.0000   1.0000   1.0000   1.0000
     1.0000   1.0000   1.0000   1.0000   1.0000   1.0000   1.0000   1.0000
     1.0000   1.0000   1.0000   1.0000   1.0000   1.0000   1.0000   1.0000
     1.0000   1.0000   1.0000   1.0000   1.0000   1.0000   1.0000   1.0000
     1.0000   1.0000   1.0000   1.0000   1.0000   1.0000   1.0000   1.0000
     1.0000   1.0000   1.0000   1.0000   1.0000   1.0000   1.0000   1.0000
     1.0000   1.0000   1.0000   1.0000   1.0000   1.0000   1.0000   1.0000
     1.0000   1.0000   1.0000   1.0000   1.0000   1.0000   1.0000   1.0000
     1.0000   1.0000   1.0000   1.0000   1.0000   1.0000   1.0000   1.0000
     1.0000   1.0000   1.0000   1.0000   1.0000   1.0000   1.0000   1.0000
     1.0000   1.0000   1.0000   1.0000   1.0000   1.0000   1.0000   1.0000
     1.0000   1.0000   1.0000   1.0000   1.0000   1.0000   1.0000   1.0000
     1.0000   1.0000   1.0000   1.0000   1.0000   1.0000   1.0000   1.0000
     0.0000   0.0000   0.0000   0.0000   0.0000   0.0000   0.0000   0.0000
     0.0000   0.0000   0.0000   0.0000   0.0000   0.0000   0.0000   0.0000
     0.0000   0.0000   0.0000   0.0000   0.0000   0.0000   0.0000   0.0000
     0.0000   0.0000   0.0000   0.0000   0.0000   0.0000   0.0000   0.0000
     0.0000   0.0000   0.0000   0.0000   0.0000   0.0000   0.0000   0.0000
     0.0000   0.0000   0.0000   0.0000   0.0000   0.0000   0.0000   0.0000
     0.0000   0.0000   0.0000   0.0000   0.0000   0.0000   0.0000   0.0000
     0.0000   0.0000

          k = 0.0000 0.0000 0.2500 (266688 PWs)   bands (ev):

    -7.3500  -7.0576  -6.8099  -6.8099  -6.8099  -6.8099  -6.6310  -6.6309
    -6.6309  -6.6309  -6.5962  -6.4990  -6.4990  -6.4990  -6.4990  -6.4807
    -6.4807  -6.4807  -6.4807  -6.3735  -6.3735  -6.3735  -6.3735  -6.2257
    -6.1900  -6.1900  -6.1900  -6.1900  -6.1691  -6.1691  -6.1650  -6.1650
    -0.6162  -0.6026  -0.5981  -0.5971  -0.5971  -0.5971  -0.5971  -0.5721
    -0.5721  -0.5709  -0.5556  -0.5556  -0.4801  -0.4801  -0.4629  -0.4629
    -0.4629  -0.4629  -0.4579  -0.4579  -0.4505  -0.4505  -0.4505  -0.4505
    -0.4455  -0.4455  -0.4455  -0.4455  -0.4451  -0.4451  -0.4451  -0.4451
    -0.4417  -0.4417  -0.4417  -0.4417  -0.4372  -0.4372  -0.4372  -0.4372
    -0.4328  -0.4328  -0.4328  -0.4328  -0.4242  -0.4242  -0.4242  -0.4242
    -0.4171  -0.4170  -0.4170  -0.4170  -0.4163  -0.4163  -0.4163  -0.4163
    -0.3825  -0.3825  -0.3825  -0.3825  -0.3805  -0.3805  -0.3805  -0.3805
    -0.3526  -0.3526  -0.3083  -0.3083  -0.3083  -0.3083  -0.2775  -0.2775
    -0.2593  -0.2593  -0.2593  -0.2593  -0.2419  -0.2419  -0.2358  -0.2358
    -0.2205  -0.2205  -0.1764  -0.1764  -0.1764  -0.1764  -0.1726  -0.1726
    -0.1175  -0.1175  -0.1175  -0.1175  -0.1037  -0.1037  -0.1037  -0.1037
    -0.1027  -0.1027  -0.1027  -0.1027  -0.1004  -0.0936  -0.0864  -0.0864
    -0.0864  -0.0864  -0.0768  -0.0768  -0.0768  -0.0768  -0.0739  -0.0696
    -0.0696  -0.0696  -0.0696  -0.0690  -0.0690  -0.0690  -0.0690  -0.0667
    -0.0617  -0.0617  -0.0465  -0.0453  -0.0453  -0.0453  -0.0453  -0.0329
    -0.0329  -0.0329  -0.0329  -0.0236  -0.0236  -0.0236  -0.0236  -0.0180
    -0.0080  -0.0080  -0.0080  -0.0080  -0.0016  -0.0016   0.0022   0.0308
     0.0308   0.0308   0.0308   0.0371   0.0371   0.0371   0.0371   0.0717
     0.1700   0.1700   0.2820   0.2820   0.2820   0.2820   0.2964   0.2964
     0.6725   0.6725   0.6725   0.6725   1.1559   1.1559   1.1669   1.1669
     1.1669   1.1669   1.1796   1.1796   1.3829   1.4708   1.4708   1.4708
     1.4708   1.5275   1.5275   1.5275   1.5275   2.1658   2.1658   2.1658
     2.1659   2.4626   2.7662   2.7662   2.7662   2.7662   2.9197   2.9197
     2.9197   2.9197   2.9695   2.9695   2.9695   2.9695   3.0601   3.0601
     3.0898   3.0898   3.4262   3.4262   3.4318   3.4318   3.4425   3.4425
     3.4425   3.4425   3.5303   3.5303   3.5303   3.5303   3.5787   3.5787
     3.6123   3.6123   3.6123   3.6123   3.8812   4.0940   4.0940   4.3513
     4.3513   4.3513   4.3513   4.4729   4.4729   4.4729   4.4729   4.6051
     4.6051   4.6051   4.6051   4.6296   4.6296   4.6296   4.6296   4.8148
     4.8148   4.8148   4.8148   4.8406   4.8406   4.8406   4.8406   4.9039
     4.9039   4.9147   4.9148   4.9148   4.9148   5.3404   5.5922   5.5922
     8.1597   9.1934   9.2003   9.2004   9.2004   9.2004   9.3506   9.3506
     9.7092   9.7651   9.8293   9.9682   9.9682  10.2123  10.2490  10.2490
    10.2490  10.2490  10.2678  10.2678  10.2678  10.2679  10.4656  10.4656
    10.4656  10.4656  10.4853  10.4853  10.4853  10.4853  10.6085  10.6085
    10.6085  10.6085  10.7857  10.8342  10.8342  11.2172  11.2172  11.2172
    11.2173  11.2487  11.2487  11.7722  11.7722  11.7722  11.7722  11.8606
    11.9880  11.9880  11.9880  11.9880  12.1743  12.1743  12.1743  12.1962
    12.1962  12.1962

     occupation numbers 
     1.0000   1.0000   1.0000   1.0000   1.0000   1.0000   1.0000   1.0000
     1.0000   1.0000   1.0000   1.0000   1.0000   1.0000   1.0000   1.0000
     1.0000   1.0000   1.0000   1.0000   1.0000   1.0000   1.0000   1.0000
     1.0000   1.0000   1.0000   1.0000   1.0000   1.0000   1.0000   1.0000
     1.0000   1.0000   1.0000   1.0000   1.0000   1.0000   1.0000   1.0000
     1.0000   1.0000   1.0000   1.0000   1.0000   1.0000   1.0000   1.0000
     1.0000   1.0000   1.0000   1.0000   1.0000   1.0000   1.0000   1.0000
     1.0000   1.0000   1.0000   1.0000   1.0000   1.0000   1.0000   1.0000
     1.0000   1.0000   1.0000   1.0000   1.0000   1.0000   1.0000   1.0000
     1.0000   1.0000   1.0000   1.0000   1.0000   1.0000   1.0000   1.0000
     1.0000   1.0000   1.0000   1.0000   1.0000   1.0000   1.0000   1.0000
     1.0000   1.0000   1.0000   1.0000   1.0000   1.0000   1.0000   1.0000
     1.0000   1.0000   1.0000   1.0000   1.0000   1.0000   1.0000   1.0000
     1.0000   1.0000   1.0000   1.0000   1.0000   1.0000   1.0000   1.0000
     1.0000   1.0000   1.0000   1.0000   1.0000   1.0000   1.0000   1.0000
     1.0000   1.0000   1.0000   1.0000   1.0000   1.0000   1.0000   1.0000
     1.0000   1.0000   1.0000   1.0000   1.0000   1.0000   1.0000   1.0000
     1.0000   1.0000   1.0000   1.0000   1.0000   1.0000   1.0000   1.0000
     1.0000   1.0000   1.0000   1.0000   1.0000   1.0000   1.0000   1.0000
     1.0000   1.0000   1.0000   1.0000   1.0000   1.0000   1.0000   1.0000
     1.0000   1.0000   1.0000   1.0000   1.0000   1.0000   1.0000   1.0000
     1.0000   1.0000   1.0000   1.0000   1.0000   1.0000   1.0000   1.0000
     1.0000   1.0000   1.0000   1.0000   1.0000   1.0000   1.0000   1.0000
     1.0000   1.0000   1.0000   1.0000   1.0000   1.0000   1.0000   1.0000
     1.0000   1.0000   1.0000   1.0000   1.0000   1.0000   1.0000   1.0000
     1.0000   1.0000   1.0000   1.0000   1.0000   1.0000   1.0000   1.0000
     1.0000   1.0000   1.0000   1.0000   1.0000   1.0000   1.0000   1.0000
     1.0000   1.0000   1.0000   1.0000   1.0000   1.0000   1.0000   1.0000
     1.0000   1.0000   1.0000   1.0000   1.0000   1.0000   1.0000   1.0000
     1.0000   1.0000   1.0000   1.0000   1.0000   1.0000   1.0000   1.0000
     1.0000   1.0000   1.0000   1.0000   1.0000   1.0000   1.0000   1.0000
     1.0000   1.0000   1.0000   1.0000   1.0000   1.0000   1.0000   1.0000
     1.0000   1.0000   1.0000   1.0000   1.0000   1.0000   1.0000   1.0000
     1.0000   1.0000   1.0000   1.0000   1.0000   1.0000   1.0000   1.0000
     1.0000   1.0000   1.0000   1.0000   1.0000   1.0000   1.0000   1.0000
     1.0000   1.0000   1.0000   1.0000   1.0000   1.0000   1.0000   1.0000
     0.0000   0.0000   0.0000   0.0000   0.0000   0.0000   0.0000   0.0000
     0.0000   0.0000   0.0000   0.0000   0.0000   0.0000   0.0000   0.0000
     0.0000   0.0000   0.0000   0.0000   0.0000   0.0000   0.0000   0.0000
     0.0000   0.0000   0.0000   0.0000   0.0000   0.0000   0.0000   0.0000
     0.0000   0.0000   0.0000   0.0000   0.0000   0.0000   0.0000   0.0000
     0.0000   0.0000   0.0000   0.0000   0.0000   0.0000   0.0000   0.0000
     0.0000   0.0000   0.0000   0.0000   0.0000   0.0000   0.0000   0.0000
     0.0000   0.0000

          k = 0.0000 0.0000-0.5000 (266704 PWs)   bands (ev):

    -7.2358  -7.2358  -6.7386  -6.7386  -6.7386  -6.7386  -6.7386  -6.7386
    -6.7386  -6.7386  -6.4899  -6.4899  -6.4899  -6.4899  -6.4899  -6.4899
    -6.4899  -6.4899  -6.3793  -6.3793  -6.2635  -6.2635  -6.2635  -6.2635
    -6.2635  -6.2635  -6.2635  -6.2635  -6.1671  -6.1671  -6.1671  -6.1671
    -0.6078  -0.6078  -0.5852  -0.5852  -0.5435  -0.5435  -0.5435  -0.5435
    -0.5435  -0.5435  -0.5435  -0.5435  -0.5266  -0.5266  -0.5266  -0.5266
    -0.5161  -0.5161  -0.5161  -0.5161  -0.4486  -0.4486  -0.4486  -0.4486
    -0.4486  -0.4486  -0.4486  -0.4486  -0.4338  -0.4338  -0.4338  -0.4338
    -0.4338  -0.4338  -0.4338  -0.4338  -0.4326  -0.4326  -0.4326  -0.4326
    -0.4326  -0.4326  -0.4326  -0.4326  -0.4315  -0.4315  -0.4315  -0.4315
    -0.4315  -0.4315  -0.4315  -0.4315  -0.4073  -0.4073  -0.4073  -0.4073
    -0.4073  -0.4073  -0.4073  -0.4072  -0.3497  -0.3497  -0.3497  -0.3497
    -0.3497  -0.3496  -0.3496  -0.3496  -0.2888  -0.2888  -0.2888  -0.2888
    -0.2587  -0.2587  -0.2587  -0.2587  -0.2057  -0.2057  -0.2057  -0.2057
    -0.1764  -0.1764  -0.1764  -0.1764  -0.1764  -0.1764  -0.1764  -0.1764
    -0.1329  -0.1329  -0.1329  -0.1329  -0.1329  -0.1329  -0.1329  -0.1329
    -0.0915  -0.0915  -0.0915  -0.0915  -0.0915  -0.0915  -0.0915  -0.0915
    -0.0858  -0.0858  -0.0746  -0.0746  -0.0746  -0.0746  -0.0745  -0.0745
    -0.0745  -0.0745  -0.0605  -0.0605  -0.0604  -0.0604  -0.0604  -0.0604
    -0.0604  -0.0604  -0.0586  -0.0586  -0.0346  -0.0346  -0.0319  -0.0319
    -0.0319  -0.0319  -0.0319  -0.0319  -0.0319  -0.0319  -0.0229  -0.0229
    -0.0229  -0.0229  -0.0059  -0.0059  -0.0011  -0.0011  -0.0011  -0.0011
    -0.0011  -0.0011  -0.0011  -0.0011   0.1610   0.1610   0.1610   0.1610
     0.1610   0.1610   0.1610   0.1610   0.2336   0.2336   0.2336   0.2336
     1.0768   1.0768   1.0768   1.0768   1.0768   1.0768   1.0768   1.0768
     1.1687   1.1687   1.1687   1.1687   1.2613   1.2613   1.2613   1.2613
     1.2613   1.2613   1.2613   1.2613   1.8543   1.8543   2.5863   2.5863
     2.5863   2.5863   2.5863   2.5864   2.5864   2.5864   2.7505   2.7505
     2.7505   2.7505   2.7505   2.7505   2.7505   2.7505   3.2380   3.2380
     3.2380   3.2380   3.2559   3.2559   3.2559   3.2559   3.7816   3.7816
     3.7816   3.7816   3.9750   3.9750   3.9750   3.9750   3.9750   3.9750
     3.9750   3.9750   4.0208   4.0208   4.0208   4.0208   4.0208   4.0208
     4.0208   4.0208   4.1109   4.1109   4.1109   4.1109   4.1109   4.1109
     4.1109   4.1109   4.6359   4.6359   4.8126   4.8126   4.8126   4.8126
     4.8126   4.8126   4.8126   4.8126   4.8276   4.8276   4.8276   4.8276
     4.8276   4.8276   4.8276   4.8276   5.2994   5.2994   5.2994   5.2994
     8.9430   8.9431   9.4135   9.4135   9.7263   9.7263   9.7263   9.7263
     9.7263   9.7263   9.7263   9.7263   9.9816   9.9816   9.9816   9.9816
    10.0138  10.0138  10.4006  10.4006  10.4006  10.4006  10.4006  10.4006
    10.4006  10.4006  10.5267  10.5267  10.5267  10.5267  10.8843  10.8843
    10.8843  10.8843  10.8843  10.8843  10.8843  10.8843  11.0953  11.0953
    11.0953  11.0953  11.0953  11.0953  11.0953  11.0953  11.3665  11.3665
    11.9685  11.9685  11.9685  11.9685  11.9685  11.9685  11.9685  11.9685
    12.2219  12.2219

     occupation numbers 
     1.0000   1.0000   1.0000   1.0000   1.0000   1.0000   1.0000   1.0000
     1.0000   1.0000   1.0000   1.0000   1.0000   1.0000   1.0000   1.0000
     1.0000   1.0000   1.0000   1.0000   1.0000   1.0000   1.0000   1.0000
     1.0000   1.0000   1.0000   1.0000   1.0000   1.0000   1.0000   1.0000
     1.0000   1.0000   1.0000   1.0000   1.0000   1.0000   1.0000   1.0000
     1.0000   1.0000   1.0000   1.0000   1.0000   1.0000   1.0000   1.0000
     1.0000   1.0000   1.0000   1.0000   1.0000   1.0000   1.0000   1.0000
     1.0000   1.0000   1.0000   1.0000   1.0000   1.0000   1.0000   1.0000
     1.0000   1.0000   1.0000   1.0000   1.0000   1.0000   1.0000   1.0000
     1.0000   1.0000   1.0000   1.0000   1.0000   1.0000   1.0000   1.0000
     1.0000   1.0000   1.0000   1.0000   1.0000   1.0000   1.0000   1.0000
     1.0000   1.0000   1.0000   1.0000   1.0000   1.0000   1.0000   1.0000
     1.0000   1.0000   1.0000   1.0000   1.0000   1.0000   1.0000   1.0000
     1.0000   1.0000   1.0000   1.0000   1.0000   1.0000   1.0000   1.0000
     1.0000   1.0000   1.0000   1.0000   1.0000   1.0000   1.0000   1.0000
     1.0000   1.0000   1.0000   1.0000   1.0000   1.0000   1.0000   1.0000
     1.0000   1.0000   1.0000   1.0000   1.0000   1.0000   1.0000   1.0000
     1.0000   1.0000   1.0000   1.0000   1.0000   1.0000   1.0000   1.0000
     1.0000   1.0000   1.0000   1.0000   1.0000   1.0000   1.0000   1.0000
     1.0000   1.0000   1.0000   1.0000   1.0000   1.0000   1.0000   1.0000
     1.0000   1.0000   1.0000   1.0000   1.0000   1.0000   1.0000   1.0000
     1.0000   1.0000   1.0000   1.0000   1.0000   1.0000   1.0000   1.0000
     1.0000   1.0000   1.0000   1.0000   1.0000   1.0000   1.0000   1.0000
     1.0000   1.0000   1.0000   1.0000   1.0000   1.0000   1.0000   1.0000
     1.0000   1.0000   1.0000   1.0000   1.0000   1.0000   1.0000   1.0000
     1.0000   1.0000   1.0000   1.0000   1.0000   1.0000   1.0000   1.0000
     1.0000   1.0000   1.0000   1.0000   1.0000   1.0000   1.0000   1.0000
     1.0000   1.0000   1.0000   1.0000   1.0000   1.0000   1.0000   1.0000
     1.0000   1.0000   1.0000   1.0000   1.0000   1.0000   1.0000   1.0000
     1.0000   1.0000   1.0000   1.0000   1.0000   1.0000   1.0000   1.0000
     1.0000   1.0000   1.0000   1.0000   1.0000   1.0000   1.0000   1.0000
     1.0000   1.0000   1.0000   1.0000   1.0000   1.0000   1.0000   1.0000
     1.0000   1.0000   1.0000   1.0000   1.0000   1.0000   1.0000   1.0000
     1.0000   1.0000   1.0000   1.0000   1.0000   1.0000   1.0000   1.0000
     1.0000   1.0000   1.0000   1.0000   1.0000   1.0000   1.0000   1.0000
     1.0000   1.0000   1.0000   1.0000   1.0000   1.0000   1.0000   1.0000
     0.0000   0.0000   0.0000   0.0000   0.0000   0.0000   0.0000   0.0000
     0.0000   0.0000   0.0000   0.0000   0.0000   0.0000   0.0000   0.0000
     0.0000   0.0000   0.0000   0.0000   0.0000   0.0000   0.0000   0.0000
     0.0000   0.0000   0.0000   0.0000   0.0000   0.0000   0.0000   0.0000
     0.0000   0.0000   0.0000   0.0000   0.0000   0.0000   0.0000   0.0000
     0.0000   0.0000   0.0000   0.0000   0.0000   0.0000   0.0000   0.0000
     0.0000   0.0000   0.0000   0.0000   0.0000   0.0000   0.0000   0.0000
     0.0000   0.0000

          k = 0.0000 0.2500 0.2500 (266728 PWs)   bands (ev):

    -7.3116  -7.0264  -7.0264  -6.7987  -6.7864  -6.7864  -6.6183  -6.6182
    -6.6182  -6.6182  -6.5789  -6.5789  -6.5337  -6.5337  -6.4574  -6.4574
    -6.4340  -6.4340  -6.3799  -6.3799  -6.3799  -6.3799  -6.2916  -6.2225
    -6.2225  -6.2132  -6.2132  -6.2019  -6.2019  -6.1802  -6.1802  -6.1702
    -0.5944  -0.5944  -0.5895  -0.5895  -0.5799  -0.5799  -0.5752  -0.5752
    -0.5680  -0.5534  -0.5531  -0.5466  -0.4879  -0.4804  -0.4804  -0.4776
    -0.4776  -0.4688  -0.4642  -0.4642  -0.4642  -0.4642  -0.4577  -0.4577
    -0.4577  -0.4577  -0.4555  -0.4555  -0.4552  -0.4519  -0.4519  -0.4495
    -0.4485  -0.4485  -0.4462  -0.4462  -0.4397  -0.4397  -0.4397  -0.4396
    -0.4380  -0.4380  -0.4380  -0.4380  -0.4326  -0.4326  -0.4292  -0.4292
    -0.4242  -0.4242  -0.4175  -0.4175  -0.4088  -0.4088  -0.3895  -0.3895
    -0.3895  -0.3895  -0.3634  -0.3634  -0.3634  -0.3634  -0.3627  -0.3627
    -0.3472  -0.3472  -0.3459  -0.3258  -0.3258  -0.3048  -0.3048  -0.2905
    -0.2904  -0.2769  -0.2769  -0.2548  -0.2548  -0.2408  -0.2366  -0.2366
    -0.2202  -0.1777  -0.1777  -0.1772  -0.1772  -0.1602  -0.1602  -0.1602
    -0.1602  -0.1576  -0.1576  -0.1185  -0.1164  -0.1164  -0.0972  -0.0972
    -0.0965  -0.0965  -0.0948  -0.0948  -0.0907  -0.0841  -0.0841  -0.0833
    -0.0833  -0.0788  -0.0788  -0.0788  -0.0788  -0.0745  -0.0672  -0.0635
    -0.0630  -0.0630  -0.0630  -0.0630  -0.0616  -0.0616  -0.0605  -0.0605
    -0.0548  -0.0548  -0.0474  -0.0474  -0.0423  -0.0423  -0.0388  -0.0388
    -0.0374  -0.0363  -0.0363  -0.0338  -0.0338  -0.0251  -0.0251  -0.0251
    -0.0251  -0.0191  -0.0191  -0.0070  -0.0033  -0.0033  -0.0029  -0.0029
     0.0477   0.0477   0.0477   0.0477   0.0965   0.0965   0.1216   0.1565
     0.1565   0.1946   0.2271   0.2271   0.2644   0.2644   0.2909   0.2909
     0.5762   0.5762   1.0035   1.0035   1.1193   1.1193   1.1388   1.1388
     1.1720   1.2391   1.2391   1.2444   1.2444   1.2444   1.2444   1.2452
     1.3663   1.3663   1.7702   1.7702   1.9096   1.9096   1.9096   1.9096
     2.3540   2.3540   2.6298   2.6786   2.7295   2.7295   2.7664   2.7664
     2.8157   2.8157   2.9555   2.9556   3.1381   3.2103   3.2103   3.2103
     3.2103   3.2659   3.2659   3.4017   3.4017   3.4755   3.4755   3.5349
     3.5349   3.5486   3.5486   3.6171   3.6244   3.6244   3.6253   3.6253
     3.8920   3.8920   3.8920   3.8920   3.9662   3.9662   4.0263   4.1576
     4.1576   4.3153   4.3153   4.3456   4.4303   4.4303   4.4788   4.4788
     4.4987   4.4987   4.4987   4.4988   4.5325   4.5325   4.6974   4.6974
     4.7567   4.7567   4.7749   4.7749   4.7890   4.7890   4.9009   4.9009
     4.9009   4.9009   4.9428   5.0678   5.0679   5.2164   5.4783   5.6558
     8.4177   9.2245   9.2245   9.4255   9.4278   9.4278   9.5439   9.5439
     9.7493   9.7493  10.0063  10.0063  10.0296  10.0296  10.1087  10.1087
    10.1224  10.1635  10.1635  10.1635  10.1635  10.2733  10.2756  10.3455
    10.3455  10.4824  10.4824  10.4824  10.4824  10.5011  10.5011  10.8448
    10.8448  10.8834  10.8834  10.9146  10.9146  10.9906  10.9906  11.1492
    11.1492  11.2459  11.2459  11.5666  11.5666  11.6490  11.6490  11.6735
    11.6735  11.9561  11.9563  11.9563  11.9564  12.0744  12.0756  12.0757
    12.0757  12.1103

     occupation numbers 
     1.0000   1.0000   1.0000   1.0000   1.0000   1.0000   1.0000   1.0000
     1.0000   1.0000   1.0000   1.0000   1.0000   1.0000   1.0000   1.0000
     1.0000   1.0000   1.0000   1.0000   1.0000   1.0000   1.0000   1.0000
     1.0000   1.0000   1.0000   1.0000   1.0000   1.0000   1.0000   1.0000
     1.0000   1.0000   1.0000   1.0000   1.0000   1.0000   1.0000   1.0000
     1.0000   1.0000   1.0000   1.0000   1.0000   1.0000   1.0000   1.0000
     1.0000   1.0000   1.0000   1.0000   1.0000   1.0000   1.0000   1.0000
     1.0000   1.0000   1.0000   1.0000   1.0000   1.0000   1.0000   1.0000
     1.0000   1.0000   1.0000   1.0000   1.0000   1.0000   1.0000   1.0000
     1.0000   1.0000   1.0000   1.0000   1.0000   1.0000   1.0000   1.0000
     1.0000   1.0000   1.0000   1.0000   1.0000   1.0000   1.0000   1.0000
     1.0000   1.0000   1.0000   1.0000   1.0000   1.0000   1.0000   1.0000
     1.0000   1.0000   1.0000   1.0000   1.0000   1.0000   1.0000   1.0000
     1.0000   1.0000   1.0000   1.0000   1.0000   1.0000   1.0000   1.0000
     1.0000   1.0000   1.0000   1.0000   1.0000   1.0000   1.0000   1.0000
     1.0000   1.0000   1.0000   1.0000   1.0000   1.0000   1.0000   1.0000
     1.0000   1.0000   1.0000   1.0000   1.0000   1.0000   1.0000   1.0000
     1.0000   1.0000   1.0000   1.0000   1.0000   1.0000   1.0000   1.0000
     1.0000   1.0000   1.0000   1.0000   1.0000   1.0000   1.0000   1.0000
     1.0000   1.0000   1.0000   1.0000   1.0000   1.0000   1.0000   1.0000
     1.0000   1.0000   1.0000   1.0000   1.0000   1.0000   1.0000   1.0000
     1.0000   1.0000   1.0000   1.0000   1.0000   1.0000   1.0000   1.0000
     1.0000   1.0000   1.0000   1.0000   1.0000   1.0000   1.0000   1.0000
     1.0000   1.0000   1.0000   1.0000   1.0000   1.0000   1.0000   1.0000
     1.0000   1.0000   1.0000   1.0000   1.0000   1.0000   1.0000   1.0000
     1.0000   1.0000   1.0000   1.0000   1.0000   1.0000   1.0000   1.0000
     1.0000   1.0000   1.0000   1.0000   1.0000   1.0000   1.0000   1.0000
     1.0000   1.0000   1.0000   1.0000   1.0000   1.0000   1.0000   1.0000
     1.0000   1.0000   1.0000   1.0000   1.0000   1.0000   1.0000   1.0000
     1.0000   1.0000   1.0000   1.0000   1.0000   1.0000   1.0000   1.0000
     1.0000   1.0000   1.0000   1.0000   1.0000   1.0000   1.0000   1.0000
     1.0000   1.0000   1.0000   1.0000   1.0000   1.0000   1.0000   1.0000
     1.0000   1.0000   1.0000   1.0000   1.0000   1.0000   1.0000   1.0000
     1.0000   1.0000   1.0000   1.0000   1.0000   1.0000   1.0000   1.0000
     1.0000   1.0000   1.0000   1.0000   1.0000   1.0000   1.0000   1.0000
     1.0000   1.0000   1.0000   1.0000   1.0000   1.0000   1.0000   1.0000
     0.0000   0.0000   0.0000   0.0000   0.0000   0.0000   0.0000   0.0000
     0.0000   0.0000   0.0000   0.0000   0.0000   0.0000   0.0000   0.0000
     0.0000   0.0000   0.0000   0.0000   0.0000   0.0000   0.0000   0.0000
     0.0000   0.0000   0.0000   0.0000   0.0000   0.0000   0.0000   0.0000
     0.0000   0.0000   0.0000   0.0000   0.0000   0.0000   0.0000   0.0000
     0.0000   0.0000   0.0000   0.0000   0.0000   0.0000   0.0000   0.0000
     0.0000   0.0000   0.0000   0.0000   0.0000   0.0000   0.0000   0.0000
     0.0000   0.0000

          k = 0.0000 0.2500-0.5000 (266658 PWs)   bands (ev):

    -7.2001  -7.2001  -6.9365  -6.9365  -6.7192  -6.7192  -6.7192  -6.7192
    -6.5831  -6.5831  -6.5831  -6.5831  -6.5299  -6.5299  -6.3999  -6.3999
    -6.3998  -6.3998  -6.3699  -6.3699  -6.3057  -6.3057  -6.2796  -6.2796
    -6.2796  -6.2796  -6.2242  -6.2242  -6.2137  -6.2137  -6.1737  -6.1737
    -0.5843  -0.5843  -0.5767  -0.5767  -0.5499  -0.5499  -0.5323  -0.5323
    -0.5297  -0.5297  -0.5297  -0.5297  -0.5268  -0.5268  -0.5203  -0.5203
    -0.5170  -0.5170  -0.5070  -0.5070  -0.4793  -0.4793  -0.4698  -0.4698
    -0.4630  -0.4630  -0.4630  -0.4630  -0.4558  -0.4558  -0.4512  -0.4512
    -0.4445  -0.4445  -0.4445  -0.4445  -0.4404  -0.4404  -0.4404  -0.4404
    -0.4342  -0.4342  -0.4342  -0.4342  -0.4322  -0.4322  -0.4322  -0.4322
    -0.4079  -0.4079  -0.4079  -0.4079  -0.4050  -0.4050  -0.4050  -0.4050
    -0.3859  -0.3859  -0.3594  -0.3594  -0.3594  -0.3594  -0.3588  -0.3588
    -0.3276  -0.3276  -0.3162  -0.3162  -0.3024  -0.3024  -0.2977  -0.2977
    -0.2977  -0.2977  -0.2821  -0.2821  -0.2817  -0.2817  -0.2643  -0.2643
    -0.2175  -0.2175  -0.2062  -0.2062  -0.1993  -0.1993  -0.1319  -0.1319
    -0.1292  -0.1292  -0.1292  -0.1292  -0.1213  -0.1213  -0.1213  -0.1213
    -0.0917  -0.0917  -0.0842  -0.0842  -0.0842  -0.0842  -0.0841  -0.0841
    -0.0698  -0.0698  -0.0698  -0.0697  -0.0641  -0.0641  -0.0602  -0.0602
    -0.0602  -0.0602  -0.0600  -0.0599  -0.0594  -0.0594  -0.0507  -0.0507
    -0.0507  -0.0507  -0.0465  -0.0464  -0.0450  -0.0450  -0.0335  -0.0335
    -0.0335  -0.0335  -0.0297  -0.0297  -0.0297  -0.0297  -0.0253  -0.0252
    -0.0213  -0.0213  -0.0185  -0.0185  -0.0185  -0.0185  -0.0074  -0.0074
     0.0874   0.0874   0.1029   0.1029   0.1029   0.1029   0.1566   0.1566
     0.1793   0.1793   0.1793   0.1793   0.2404   0.2404   0.2493   0.2493
     0.8502   0.8502   0.8502   0.8502   1.1024   1.1024   1.1024   1.1024
     1.1377   1.1377   1.1523   1.1523   1.3159   1.3159   1.4424   1.4424
     1.4424   1.4424   1.4560   1.4560   1.8017   1.8017   2.0894   2.0894
     2.3486   2.3486   2.3486   2.3486   2.5983   2.5983   2.8687   2.8687
     2.9659   2.9659   2.9659   2.9659   3.0329   3.0329   3.1373   3.1374
     3.2272   3.2273   3.4478   3.4478   3.6407   3.6407   3.6484   3.6484
     3.6630   3.6630   3.7787   3.7787   3.7787   3.7787   3.7863   3.7863
     3.8858   3.8858   4.0156   4.0156   4.0463   4.0463   4.0463   4.0463
     4.2407   4.2407   4.2407   4.2407   4.2981   4.2981   4.3007   4.3007
     4.3939   4.3939   4.3939   4.3939   4.4450   4.4450   4.5741   4.5741
     4.5741   4.5741   4.7652   4.7652   4.7652   4.7652   4.8568   4.8568
     4.8568   4.8568   5.1773   5.1773   5.2550   5.2550   5.4602   5.4602
     9.0413   9.0414   9.6116   9.6116   9.6116   9.6116   9.6526   9.6526
     9.8050   9.8050   9.8782   9.8782  10.0631  10.0631  10.0645  10.0646
    10.0646  10.0646  10.0931  10.0931  10.0931  10.0931  10.1902  10.1902
    10.2320  10.2320  10.5662  10.5662  10.6468  10.6468  10.6850  10.6850
    10.8329  10.8329  10.8329  10.8329  10.9518  10.9518  11.0919  11.0919
    11.2411  11.2411  11.4751  11.4751  11.4751  11.4751  11.5246  11.5246
    11.5342  11.5342  11.7270  11.7270  11.7270  11.7270  11.9057  11.9057
    12.1051  12.1051

     occupation numbers 
     1.0000   1.0000   1.0000   1.0000   1.0000   1.0000   1.0000   1.0000
     1.0000   1.0000   1.0000   1.0000   1.0000   1.0000   1.0000   1.0000
     1.0000   1.0000   1.0000   1.0000   1.0000   1.0000   1.0000   1.0000
     1.0000   1.0000   1.0000   1.0000   1.0000   1.0000   1.0000   1.0000
     1.0000   1.0000   1.0000   1.0000   1.0000   1.0000   1.0000   1.0000
     1.0000   1.0000   1.0000   1.0000   1.0000   1.0000   1.0000   1.0000
     1.0000   1.0000   1.0000   1.0000   1.0000   1.0000   1.0000   1.0000
     1.0000   1.0000   1.0000   1.0000   1.0000   1.0000   1.0000   1.0000
     1.0000   1.0000   1.0000   1.0000   1.0000   1.0000   1.0000   1.0000
     1.0000   1.0000   1.0000   1.0000   1.0000   1.0000   1.0000   1.0000
     1.0000   1.0000   1.0000   1.0000   1.0000   1.0000   1.0000   1.0000
     1.0000   1.0000   1.0000   1.0000   1.0000   1.0000   1.0000   1.0000
     1.0000   1.0000   1.0000   1.0000   1.0000   1.0000   1.0000   1.0000
     1.0000   1.0000   1.0000   1.0000   1.0000   1.0000   1.0000   1.0000
     1.0000   1.0000   1.0000   1.0000   1.0000   1.0000   1.0000   1.0000
     1.0000   1.0000   1.0000   1.0000   1.0000   1.0000   1.0000   1.0000
     1.0000   1.0000   1.0000   1.0000   1.0000   1.0000   1.0000   1.0000
     1.0000   1.0000   1.0000   1.0000   1.0000   1.0000   1.0000   1.0000
     1.0000   1.0000   1.0000   1.0000   1.0000   1.0000   1.0000   1.0000
     1.0000   1.0000   1.0000   1.0000   1.0000   1.0000   1.0000   1.0000
     1.0000   1.0000   1.0000   1.0000   1.0000   1.0000   1.0000   1.0000
     1.0000   1.0000   1.0000   1.0000   1.0000   1.0000   1.0000   1.0000
     1.0000   1.0000   1.0000   1.0000   1.0000   1.0000   1.0000   1.0000
     1.0000   1.0000   1.0000   1.0000   1.0000   1.0000   1.0000   1.0000
     1.0000   1.0000   1.0000   1.0000   1.0000   1.0000   1.0000   1.0000
     1.0000   1.0000   1.0000   1.0000   1.0000   1.0000   1.0000   1.0000
     1.0000   1.0000   1.0000   1.0000   1.0000   1.0000   1.0000   1.0000
     1.0000   1.0000   1.0000   1.0000   1.0000   1.0000   1.0000   1.0000
     1.0000   1.0000   1.0000   1.0000   1.0000   1.0000   1.0000   1.0000
     1.0000   1.0000   1.0000   1.0000   1.0000   1.0000   1.0000   1.0000
     1.0000   1.0000   1.0000   1.0000   1.0000   1.0000   1.0000   1.0000
     1.0000   1.0000   1.0000   1.0000   1.0000   1.0000   1.0000   1.0000
     1.0000   1.0000   1.0000   1.0000   1.0000   1.0000   1.0000   1.0000
     1.0000   1.0000   1.0000   1.0000   1.0000   1.0000   1.0000   1.0000
     1.0000   1.0000   1.0000   1.0000   1.0000   1.0000   1.0000   1.0000
     1.0000   1.0000   1.0000   1.0000   1.0000   1.0000   1.0000   1.0000
     0.0000   0.0000   0.0000   0.0000   0.0000   0.0000   0.0000   0.0000
     0.0000   0.0000   0.0000   0.0000   0.0000   0.0000   0.0000   0.0000
     0.0000   0.0000   0.0000   0.0000   0.0000   0.0000   0.0000   0.0000
     0.0000   0.0000   0.0000   0.0000   0.0000   0.0000   0.0000   0.0000
     0.0000   0.0000   0.0000   0.0000   0.0000   0.0000   0.0000   0.0000
     0.0000   0.0000   0.0000   0.0000   0.0000   0.0000   0.0000   0.0000
     0.0000   0.0000   0.0000   0.0000   0.0000   0.0000   0.0000   0.0000
     0.0000   0.0000

          k = 0.0000-0.5000-0.5000 (266592 PWs)   bands (ev):

    -7.0967  -7.0967  -7.0967  -7.0967  -6.6642  -6.6642  -6.6642  -6.6642
    -6.6642  -6.6642  -6.6642  -6.6642  -6.3435  -6.3435  -6.3435  -6.3435
    -6.3435  -6.3435  -6.3435  -6.3435  -6.3267  -6.3267  -6.3267  -6.3267
    -6.3267  -6.3267  -6.3267  -6.3267  -6.1932  -6.1932  -6.1932  -6.1932
    -0.5581  -0.5581  -0.5581  -0.5581  -0.5217  -0.5217  -0.5217  -0.5217
    -0.5217  -0.5217  -0.5217  -0.5217  -0.5188  -0.5188  -0.5188  -0.5188
    -0.5016  -0.5016  -0.5016  -0.5016  -0.4956  -0.4956  -0.4955  -0.4955
    -0.4955  -0.4955  -0.4955  -0.4955  -0.4839  -0.4839  -0.4839  -0.4839
    -0.4388  -0.4388  -0.4388  -0.4388  -0.4388  -0.4388  -0.4388  -0.4388
    -0.4350  -0.4350  -0.4350  -0.4350  -0.4350  -0.4350  -0.4350  -0.4350
    -0.3821  -0.3821  -0.3821  -0.3821  -0.3820  -0.3820  -0.3820  -0.3820
    -0.3783  -0.3783  -0.3783  -0.3783  -0.3783  -0.3783  -0.3783  -0.3783
    -0.3322  -0.3322  -0.3322  -0.3322  -0.3322  -0.3322  -0.3322  -0.3322
    -0.2853  -0.2853  -0.2853  -0.2853  -0.2583  -0.2583  -0.2583  -0.2583
    -0.2583  -0.2583  -0.2583  -0.2583  -0.1725  -0.1725  -0.1725  -0.1725
    -0.1228  -0.1228  -0.1228  -0.1228  -0.1228  -0.1228  -0.1228  -0.1228
    -0.0848  -0.0848  -0.0848  -0.0848  -0.0679  -0.0679  -0.0679  -0.0679
    -0.0679  -0.0679  -0.0679  -0.0679  -0.0579  -0.0579  -0.0579  -0.0579
    -0.0572  -0.0572  -0.0572  -0.0572  -0.0572  -0.0572  -0.0572  -0.0572
    -0.0367  -0.0367  -0.0367  -0.0367  -0.0367  -0.0367  -0.0367  -0.0367
    -0.0346  -0.0346  -0.0346  -0.0346  -0.0234  -0.0233  -0.0233  -0.0233
    -0.0233  -0.0233  -0.0233  -0.0233   0.0298   0.0298   0.0298   0.0298
     0.0298   0.0298   0.0298   0.0298   0.1943   0.1943   0.1943   0.1943
     0.1943   0.1943   0.1943   0.1943   0.2702   0.2702   0.2702   0.2702
     0.8645   0.8645   0.8645   0.8645   0.8645   0.8645   0.8645   0.8645
     1.1197   1.1197   1.1197   1.1197   1.6560   1.6560   1.6560   1.6560
     1.6560   1.6560   1.6560   1.6560   1.8923   1.8923   1.8923   1.8923
     1.8923   1.8923   1.8923   1.8923   2.6318   2.6318   2.6319   2.6319
     3.3718   3.3718   3.3718   3.3718   3.3718   3.3718   3.3718   3.3718
     3.3848   3.3848   3.3848   3.3848   3.3848   3.3848   3.3848   3.3848
     3.7258   3.7258   3.7258   3.7258   3.8156   3.8156   3.8156   3.8156
     3.8156   3.8156   3.8156   3.8156   3.9182   3.9182   3.9182   3.9182
     4.2612   4.2612   4.2612   4.2612   4.2612   4.2612   4.2612   4.2612
     4.5826   4.5826   4.5826   4.5826   4.5826   4.5826   4.5826   4.5826
     4.6572   4.6572   4.6572   4.6572   4.6572   4.6572   4.6572   4.6572
     4.8595   4.8595   4.8595   4.8595   5.5019   5.5019   5.5019   5.5019
     9.3641   9.3641   9.3641   9.3641   9.7483   9.7483   9.7483   9.7483
     9.7483   9.7483   9.7483   9.7483   9.8258   9.8258   9.8258   9.8258
    10.2987  10.2987  10.2987  10.2987  10.2987  10.2987  10.2987  10.2987
    10.5191  10.5191  10.5191  10.5191  10.5191  10.5191  10.5191  10.5191
    10.6562  10.6562  10.6562  10.6562  10.6562  10.6562  10.6562  10.6562
    11.6276  11.6276  11.6276  11.6276  11.6524  11.6524  11.6524  11.6524
    11.6524  11.6524  11.6524  11.6524  11.7764  11.7764  11.7765  11.7765
    11.9592  11.9592

     occupation numbers 
     1.0000   1.0000   1.0000   1.0000   1.0000   1.0000   1.0000   1.0000
     1.0000   1.0000   1.0000   1.0000   1.0000   1.0000   1.0000   1.0000
     1.0000   1.0000   1.0000   1.0000   1.0000   1.0000   1.0000   1.0000
     1.0000   1.0000   1.0000   1.0000   1.0000   1.0000   1.0000   1.0000
     1.0000   1.0000   1.0000   1.0000   1.0000   1.0000   1.0000   1.0000
     1.0000   1.0000   1.0000   1.0000   1.0000   1.0000   1.0000   1.0000
     1.0000   1.0000   1.0000   1.0000   1.0000   1.0000   1.0000   1.0000
     1.0000   1.0000   1.0000   1.0000   1.0000   1.0000   1.0000   1.0000
     1.0000   1.0000   1.0000   1.0000   1.0000   1.0000   1.0000   1.0000
     1.0000   1.0000   1.0000   1.0000   1.0000   1.0000   1.0000   1.0000
     1.0000   1.0000   1.0000   1.0000   1.0000   1.0000   1.0000   1.0000
     1.0000   1.0000   1.0000   1.0000   1.0000   1.0000   1.0000   1.0000
     1.0000   1.0000   1.0000   1.0000   1.0000   1.0000   1.0000   1.0000
     1.0000   1.0000   1.0000   1.0000   1.0000   1.0000   1.0000   1.0000
     1.0000   1.0000   1.0000   1.0000   1.0000   1.0000   1.0000   1.0000
     1.0000   1.0000   1.0000   1.0000   1.0000   1.0000   1.0000   1.0000
     1.0000   1.0000   1.0000   1.0000   1.0000   1.0000   1.0000   1.0000
     1.0000   1.0000   1.0000   1.0000   1.0000   1.0000   1.0000   1.0000
     1.0000   1.0000   1.0000   1.0000   1.0000   1.0000   1.0000   1.0000
     1.0000   1.0000   1.0000   1.0000   1.0000   1.0000   1.0000   1.0000
     1.0000   1.0000   1.0000   1.0000   1.0000   1.0000   1.0000   1.0000
     1.0000   1.0000   1.0000   1.0000   1.0000   1.0000   1.0000   1.0000
     1.0000   1.0000   1.0000   1.0000   1.0000   1.0000   1.0000   1.0000
     1.0000   1.0000   1.0000   1.0000   1.0000   1.0000   1.0000   1.0000
     1.0000   1.0000   1.0000   1.0000   1.0000   1.0000   1.0000   1.0000
     1.0000   1.0000   1.0000   1.0000   1.0000   1.0000   1.0000   1.0000
     1.0000   1.0000   1.0000   1.0000   1.0000   1.0000   1.0000   1.0000
     1.0000   1.0000   1.0000   1.0000   1.0000   1.0000   1.0000   1.0000
     1.0000   1.0000   1.0000   1.0000   1.0000   1.0000   1.0000   1.0000
     1.0000   1.0000   1.0000   1.0000   1.0000   1.0000   1.0000   1.0000
     1.0000   1.0000   1.0000   1.0000   1.0000   1.0000   1.0000   1.0000
     1.0000   1.0000   1.0000   1.0000   1.0000   1.0000   1.0000   1.0000
     1.0000   1.0000   1.0000   1.0000   1.0000   1.0000   1.0000   1.0000
     1.0000   1.0000   1.0000   1.0000   1.0000   1.0000   1.0000   1.0000
     1.0000   1.0000   1.0000   1.0000   1.0000   1.0000   1.0000   1.0000
     1.0000   1.0000   1.0000   1.0000   1.0000   1.0000   1.0000   1.0000
     0.0000   0.0000   0.0000   0.0000   0.0000   0.0000   0.0000   0.0000
     0.0000   0.0000   0.0000   0.0000   0.0000   0.0000   0.0000   0.0000
     0.0000   0.0000   0.0000   0.0000   0.0000   0.0000   0.0000   0.0000
     0.0000   0.0000   0.0000   0.0000   0.0000   0.0000   0.0000   0.0000
     0.0000   0.0000   0.0000   0.0000   0.0000   0.0000   0.0000   0.0000
     0.0000   0.0000   0.0000   0.0000   0.0000   0.0000   0.0000   0.0000
     0.0000   0.0000   0.0000   0.0000   0.0000   0.0000   0.0000   0.0000
     0.0000   0.0000

          k = 0.2500 0.2500 0.2500 (266668 PWs)   bands (ev):

    -7.2742  -6.9964  -6.9964  -6.9964  -6.7781  -6.7780  -6.7780  -6.6333
[...]
     1.0000   1.0000   1.0000   1.0000   1.0000   1.0000   1.0000   1.0000
     1.0000   1.0000   1.0000   1.0000   1.0000   1.0000   1.0000   1.0000
     1.0000   1.0000   1.0000   1.0000   1.0000   1.0000   1.0000   1.0000
     1.0000   1.0000   1.0000   1.0000   1.0000   1.0000   1.0000   1.0000
     1.0000   1.0000   1.0000   1.0000   1.0000   1.0000   1.0000   1.0000
     1.0000   1.0000   1.0000   1.0000   1.0000   1.0000   1.0000   1.0000
     1.0000   1.0000   1.0000   1.0000   1.0000   1.0000   1.0000   1.0000
     1.0000   1.0000   1.0000   1.0000   1.0000   1.0000   1.0000   1.0000
     1.0000   1.0000   1.0000   1.0000   1.0000   1.0000   1.0000   1.0000
     1.0000   1.0000   1.0000   1.0000   1.0000   1.0000   1.0000   1.0000
     1.0000   1.0000   1.0000   1.0000   1.0000   1.0000   1.0000   1.0000
     1.0000   1.0000   1.0000   1.0000   1.0000   1.0000   1.0000   1.0000
     1.0000   1.0000   1.0000   1.0000   1.0000   1.0000   1.0000   1.0000
     1.0000   1.0000   1.0000   1.0000   1.0000   1.0000   1.0000   1.0000
     1.0000   1.0000   1.0000   1.0000   1.0000   1.0000   1.0000   1.0000
     1.0000   1.0000   1.0000   1.0000   1.0000   1.0000   1.0000   1.0000
     1.0000   1.0000   1.0000   1.0000   1.0000   1.0000   1.0000   1.0000
     1.0000   1.0000   1.0000   1.0000   1.0000   1.0000   1.0000   1.0000
     1.0000   1.0000   1.0000   1.0000   1.0000   1.0000   1.0000   1.0000
     0.0000   0.0000   0.0000   0.0000   0.0000   0.0000   0.0000   0.0000
     0.0000   0.0000   0.0000   0.0000   0.0000   0.0000   0.0000   0.0000
     0.0000   0.0000   0.0000   0.0000   0.0000   0.0000   0.0000   0.0000
     0.0000   0.0000   0.0000   0.0000   0.0000   0.0000   0.0000   0.0000
     0.0000   0.0000   0.0000   0.0000   0.0000   0.0000   0.0000   0.0000
     0.0000   0.0000   0.0000   0.0000   0.0000   0.0000   0.0000   0.0000
     0.0000   0.0000   0.0000   0.0000   0.0000   0.0000   0.0000   0.0000
     0.0000   0.0000

          k = 0.2500-0.5000-0.5000 (266768 PWs)   bands (ev):

    -7.0651  -7.0651  -7.0651  -7.0651  -6.8342  -6.8342  -6.8342  -6.8342
    -6.4885  -6.4885  -6.4885  -6.4885  -6.3411  -6.3411  -6.3411  -6.3411
    -6.3411  -6.3411  -6.3411  -6.3411  -6.3292  -6.3292  -6.3291  -6.3291
    -6.3291  -6.3291  -6.3291  -6.3291  -6.2304  -6.2304  -6.2304  -6.2304
    -0.5479  -0.5479  -0.5479  -0.5479  -0.5139  -0.5139  -0.5139  -0.5139
    -0.5105  -0.5105  -0.5105  -0.5105  -0.5105  -0.5105  -0.5105  -0.5105
    -0.5021  -0.5021  -0.5021  -0.5021  -0.5016  -0.5016  -0.5016  -0.5016
    -0.4882  -0.4882  -0.4882  -0.4882  -0.4833  -0.4833  -0.4833  -0.4833
    -0.4725  -0.4725  -0.4724  -0.4724  -0.4563  -0.4563  -0.4563  -0.4563
    -0.4546  -0.4546  -0.4546  -0.4546  -0.4546  -0.4546  -0.4546  -0.4546
    -0.3888  -0.3888  -0.3888  -0.3888  -0.3663  -0.3662  -0.3662  -0.3662
    -0.3662  -0.3662  -0.3662  -0.3662  -0.3295  -0.3295  -0.3295  -0.3295
    -0.3295  -0.3295  -0.3295  -0.3295  -0.3011  -0.3011  -0.3011  -0.3011
    -0.2926  -0.2926  -0.2926  -0.2926  -0.2578  -0.2578  -0.2578  -0.2578
    -0.2578  -0.2578  -0.2578  -0.2578  -0.1878  -0.1877  -0.1877  -0.1877
    -0.1646  -0.1646  -0.1646  -0.1646  -0.1646  -0.1646  -0.1646  -0.1646
    -0.0802  -0.0802  -0.0802  -0.0802  -0.0745  -0.0745  -0.0745  -0.0745
    -0.0607  -0.0607  -0.0607  -0.0607  -0.0517  -0.0517  -0.0517  -0.0517
    -0.0407  -0.0407  -0.0407  -0.0406  -0.0406  -0.0406  -0.0406  -0.0406
    -0.0312  -0.0312  -0.0312  -0.0312  -0.0275  -0.0274  -0.0274  -0.0274
    -0.0224  -0.0224  -0.0224  -0.0224  -0.0224  -0.0224  -0.0224  -0.0224
    -0.0204  -0.0204  -0.0204  -0.0204   0.0457   0.0457   0.0457   0.0457
     0.0457   0.0457   0.0457   0.0457   0.1549   0.1549   0.1549   0.1549
     0.1549   0.1549   0.1549   0.1549   0.2175   0.2175   0.2175   0.2175
     0.9898   0.9898   0.9898   0.9898   0.9898   0.9898   0.9898   0.9898
     1.1412   1.1412   1.1412   1.1412   1.5221   1.5221   1.5221   1.5221
     1.5381   1.5381   1.5381   1.5381   1.5381   1.5381   1.5381   1.5381
     2.3576   2.3576   2.3576   2.3576   2.8357   2.8357   2.8357   2.8357
     3.3406   3.3406   3.3406   3.3406   3.3406   3.3406   3.3406   3.3406
     3.3653   3.3653   3.3653   3.3653   3.3653   3.3653   3.3653   3.3653
     3.4301   3.4301   3.4301   3.4301   3.9379   3.9379   3.9379   3.9379
     3.9379   3.9379   3.9379   3.9379   3.9592   3.9592   3.9592   3.9592
     3.9720   3.9720   3.9720   3.9720   4.2343   4.2343   4.2343   4.2343
     4.2343   4.2343   4.2343   4.2343   4.3651   4.3651   4.3651   4.3651
     4.9644   4.9644   4.9644   4.9644   5.0600   5.0600   5.0600   5.0600
     5.0660   5.0660   5.0660   5.0660   5.4323   5.4323   5.4323   5.4323
     9.2391   9.2391   9.2391   9.2391   9.3380   9.3380   9.3380   9.3380
     9.8847   9.8847   9.8847   9.8847  10.0361  10.0361  10.0361  10.0361
    10.0631  10.0631  10.0631  10.0631  10.0631  10.0631  10.0631  10.0631
    10.2723  10.2723  10.2724  10.2724  10.2724  10.2724  10.2724  10.2724
    11.0932  11.0932  11.0932  11.0932  11.0932  11.0932  11.0932  11.0932
    11.6349  11.6349  11.6349  11.6349  11.6997  11.6997  11.6997  11.6997
    11.8117  11.8117  11.8118  11.8118  11.8118  11.8118  11.8118  11.8118
    12.0505  12.0505

     occupation numbers 
     1.0000   1.0000   1.0000   1.0000   1.0000   1.0000   1.0000   1.0000
     1.0000   1.0000   1.0000   1.0000   1.0000   1.0000   1.0000   1.0000
     1.0000   1.0000   1.0000   1.0000   1.0000   1.0000   1.0000   1.0000
     1.0000   1.0000   1.0000   1.0000   1.0000   1.0000   1.0000   1.0000
     1.0000   1.0000   1.0000   1.0000   1.0000   1.0000   1.0000   1.0000
     1.0000   1.0000   1.0000   1.0000   1.0000   1.0000   1.0000   1.0000
     1.0000   1.0000   1.0000   1.0000   1.0000   1.0000   1.0000   1.0000
     1.0000   1.0000   1.0000   1.0000   1.0000   1.0000   1.0000   1.0000
     1.0000   1.0000   1.0000   1.0000   1.0000   1.0000   1.0000   1.0000
     1.0000   1.0000   1.0000   1.0000   1.0000   1.0000   1.0000   1.0000
     1.0000   1.0000   1.0000   1.0000   1.0000   1.0000   1.0000   1.0000
     1.0000   1.0000   1.0000   1.0000   1.0000   1.0000   1.0000   1.0000
     1.0000   1.0000   1.0000   1.0000   1.0000   1.0000   1.0000   1.0000
     1.0000   1.0000   1.0000   1.0000   1.0000   1.0000   1.0000   1.0000
     1.0000   1.0000   1.0000   1.0000   1.0000   1.0000   1.0000   1.0000
     1.0000   1.0000   1.0000   1.0000   1.0000   1.0000   1.0000   1.0000
     1.0000   1.0000   1.0000   1.0000   1.0000   1.0000   1.0000   1.0000
     1.0000   1.0000   1.0000   1.0000   1.0000   1.0000   1.0000   1.0000
     1.0000   1.0000   1.0000   1.0000   1.0000   1.0000   1.0000   1.0000
     1.0000   1.0000   1.0000   1.0000   1.0000   1.0000   1.0000   1.0000
     1.0000   1.0000   1.0000   1.0000   1.0000   1.0000   1.0000   1.0000
     1.0000   1.0000   1.0000   1.0000   1.0000   1.0000   1.0000   1.0000
     1.0000   1.0000   1.0000   1.0000   1.0000   1.0000   1.0000   1.0000
     1.0000   1.0000   1.0000   1.0000   1.0000   1.0000   1.0000   1.0000
     1.0000   1.0000   1.0000   1.0000   1.0000   1.0000   1.0000   1.0000
     1.0000   1.0000   1.0000   1.0000   1.0000   1.0000   1.0000   1.0000
     1.0000   1.0000   1.0000   1.0000   1.0000   1.0000   1.0000   1.0000
     1.0000   1.0000   1.0000   1.0000   1.0000   1.0000   1.0000   1.0000
     1.0000   1.0000   1.0000   1.0000   1.0000   1.0000   1.0000   1.0000
     1.0000   1.0000   1.0000   1.0000   1.0000   1.0000   1.0000   1.0000
     1.0000   1.0000   1.0000   1.0000   1.0000   1.0000   1.0000   1.0000
     1.0000   1.0000   1.0000   1.0000   1.0000   1.0000   1.0000   1.0000
     1.0000   1.0000   1.0000   1.0000   1.0000   1.0000   1.0000   1.0000
     1.0000   1.0000   1.0000   1.0000   1.0000   1.0000   1.0000   1.0000
     1.0000   1.0000   1.0000   1.0000   1.0000   1.0000   1.0000   1.0000
     1.0000   1.0000   1.0000   1.0000   1.0000   1.0000   1.0000   1.0000
     0.0000   0.0000   0.0000   0.0000   0.0000   0.0000   0.0000   0.0000
     0.0000   0.0000   0.0000   0.0000   0.0000   0.0000   0.0000   0.0000
     0.0000   0.0000   0.0000   0.0000   0.0000   0.0000   0.0000   0.0000
     0.0000   0.0000   0.0000   0.0000   0.0000   0.0000   0.0000   0.0000
     0.0000   0.0000   0.0000   0.0000   0.0000   0.0000   0.0000   0.0000
     0.0000   0.0000   0.0000   0.0000   0.0000   0.0000   0.0000   0.0000
     0.0000   0.0000   0.0000   0.0000   0.0000   0.0000   0.0000   0.0000
     0.0000   0.0000

          k =-0.5000-0.5000-0.5000 (266872 PWs)   bands (ev):

    -6.9739  -6.9739  -6.9739  -6.9739  -6.9739  -6.9739  -6.9739  -6.9739
    -6.3352  -6.3352  -6.3352  -6.3351  -6.3351  -6.3351  -6.3351  -6.3351
    -6.3351  -6.3351  -6.3351  -6.3351  -6.3351  -6.3351  -6.3351  -6.3351
    -6.3351  -6.3351  -6.3351  -6.3351  -6.3351  -6.3351  -6.3351  -6.3351
    -0.5182  -0.5182  -0.5182  -0.5182  -0.5182  -0.5182  -0.5182  -0.5182
    -0.4988  -0.4988  -0.4988  -0.4988  -0.4988  -0.4988  -0.4988  -0.4988
    -0.4988  -0.4988  -0.4988  -0.4988  -0.4988  -0.4988  -0.4988  -0.4988
    -0.4837  -0.4837  -0.4837  -0.4837  -0.4837  -0.4837  -0.4837  -0.4837
    -0.4837  -0.4837  -0.4837  -0.4837  -0.4837  -0.4837  -0.4837  -0.4837
    -0.4837  -0.4837  -0.4837  -0.4837  -0.4837  -0.4837  -0.4837  -0.4837
    -0.3405  -0.3405  -0.3405  -0.3405  -0.3405  -0.3405  -0.3405  -0.3405
    -0.3405  -0.3405  -0.3405  -0.3405  -0.3405  -0.3405  -0.3405  -0.3405
    -0.3405  -0.3405  -0.3405  -0.3404  -0.3404  -0.3404  -0.3404  -0.3404
    -0.2280  -0.2280  -0.2280  -0.2280  -0.2280  -0.2279  -0.2279  -0.2279
    -0.2279  -0.2279  -0.2279  -0.2279  -0.2279  -0.2279  -0.2279  -0.2279
    -0.2279  -0.2279  -0.2279  -0.2279  -0.2279  -0.2279  -0.2279  -0.2279
    -0.0679  -0.0679  -0.0679  -0.0679  -0.0679  -0.0679  -0.0679  -0.0679
    -0.0679  -0.0679  -0.0679  -0.0679  -0.0679  -0.0679  -0.0679  -0.0679
    -0.0264  -0.0264  -0.0263  -0.0263  -0.0263  -0.0263  -0.0263  -0.0263
    -0.0263  -0.0263  -0.0263  -0.0263  -0.0263  -0.0263  -0.0263  -0.0263
    -0.0263  -0.0263  -0.0263  -0.0263  -0.0263  -0.0263  -0.0263  -0.0263
     0.0913   0.0913   0.0913   0.0914   0.0914   0.0914   0.0914   0.0914
     0.0914   0.0914   0.0914   0.0914   0.0914   0.0914   0.0914   0.0914
     0.0914   0.0914   0.0914   0.0914   0.0914   0.0914   0.0914   0.0914
     1.2655   1.2655   1.2655   1.2655   1.2655   1.2655   1.2655   1.2655
     1.2655   1.2655   1.2655   1.2655   1.2656   1.2656   1.2656   1.2656
     1.2656   1.2656   1.2656   1.2656   1.2656   1.2656   1.2656   1.2656
     2.8921   2.8921   2.8921   2.8921   2.8921   2.8921   2.8921   2.8921
     3.3341   3.3341   3.3341   3.3341   3.3341   3.3341   3.3341   3.3341
     3.3341   3.3341   3.3341   3.3341   3.3341   3.3341   3.3341   3.3341
     3.3341   3.3341   3.3341   3.3341   3.3341   3.3341   3.3341   3.3341
     4.1270   4.1270   4.1270   4.1270   4.1270   4.1270   4.1270   4.1270
     4.1270   4.1270   4.1270   4.1270   4.1270   4.1270   4.1270   4.1270
     4.1270   4.1270   4.1270   4.1270   4.1270   4.1270   4.1270   4.1270
     5.2395   5.2395   5.2395   5.2395   5.2395   5.2395   5.2395   5.2395
     5.2395   5.2395   5.2395   5.2395   5.2395   5.2395   5.2395   5.2395
     9.1348   9.1348   9.1348   9.1348   9.1348   9.1348   9.1348   9.1348
    10.0154  10.0154  10.0154  10.0154  10.0155  10.0155  10.0155  10.0155
    10.0155  10.0155  10.0155  10.0155  10.0155  10.0155  10.0155  10.0155
    10.0155  10.0155  10.0155  10.0155  10.0155  10.0155  10.0155  10.0155
    11.6448  11.6448  11.6448  11.6448  11.6448  11.6448  11.6448  11.6448
    11.6448  11.6448  11.6448  11.6448  11.6448  11.6449  11.6449  11.6449
    11.6449  11.6449  11.6449  11.6449  11.6449  11.6449  11.6449  11.6449
    12.5961  12.5961

     occupation numbers 
     1.0000   1.0000   1.0000   1.0000   1.0000   1.0000   1.0000   1.0000
     1.0000   1.0000   1.0000   1.0000   1.0000   1.0000   1.0000   1.0000
     1.0000   1.0000   1.0000   1.0000   1.0000   1.0000   1.0000   1.0000
     1.0000   1.0000   1.0000   1.0000   1.0000   1.0000   1.0000   1.0000
     1.0000   1.0000   1.0000   1.0000   1.0000   1.0000   1.0000   1.0000
     1.0000   1.0000   1.0000   1.0000   1.0000   1.0000   1.0000   1.0000
     1.0000   1.0000   1.0000   1.0000   1.0000   1.0000   1.0000   1.0000
     1.0000   1.0000   1.0000   1.0000   1.0000   1.0000   1.0000   1.0000
     1.0000   1.0000   1.0000   1.0000   1.0000   1.0000   1.0000   1.0000
     1.0000   1.0000   1.0000   1.0000   1.0000   1.0000   1.0000   1.0000
     1.0000   1.0000   1.0000   1.0000   1.0000   1.0000   1.0000   1.0000
     1.0000   1.0000   1.0000   1.0000   1.0000   1.0000   1.0000   1.0000
     1.0000   1.0000   1.0000   1.0000   1.0000   1.0000   1.0000   1.0000
     1.0000   1.0000   1.0000   1.0000   1.0000   1.0000   1.0000   1.0000
     1.0000   1.0000   1.0000   1.0000   1.0000   1.0000   1.0000   1.0000
     1.0000   1.0000   1.0000   1.0000   1.0000   1.0000   1.0000   1.0000
     1.0000   1.0000   1.0000   1.0000   1.0000   1.0000   1.0000   1.0000
     1.0000   1.0000   1.0000   1.0000   1.0000   1.0000   1.0000   1.0000
     1.0000   1.0000   1.0000   1.0000   1.0000   1.0000   1.0000   1.0000
     1.0000   1.0000   1.0000   1.0000   1.0000   1.0000   1.0000   1.0000
     1.0000   1.0000   1.0000   1.0000   1.0000   1.0000   1.0000   1.0000
     1.0000   1.0000   1.0000   1.0000   1.0000   1.0000   1.0000   1.0000
     1.0000   1.0000   1.0000   1.0000   1.0000   1.0000   1.0000   1.0000
     1.0000   1.0000   1.0000   1.0000   1.0000   1.0000   1.0000   1.0000
     1.0000   1.0000   1.0000   1.0000   1.0000   1.0000   1.0000   1.0000
     1.0000   1.0000   1.0000   1.0000   1.0000   1.0000   1.0000   1.0000
     1.0000   1.0000   1.0000   1.0000   1.0000   1.0000   1.0000   1.0000
     1.0000   1.0000   1.0000   1.0000   1.0000   1.0000   1.0000   1.0000
     1.0000   1.0000   1.0000   1.0000   1.0000   1.0000   1.0000   1.0000
     1.0000   1.0000   1.0000   1.0000   1.0000   1.0000   1.0000   1.0000
     1.0000   1.0000   1.0000   1.0000   1.0000   1.0000   1.0000   1.0000
     1.0000   1.0000   1.0000   1.0000   1.0000   1.0000   1.0000   1.0000
     1.0000   1.0000   1.0000   1.0000   1.0000   1.0000   1.0000   1.0000
     1.0000   1.0000   1.0000   1.0000   1.0000   1.0000   1.0000   1.0000
     1.0000   1.0000   1.0000   1.0000   1.0000   1.0000   1.0000   1.0000
     1.0000   1.0000   1.0000   1.0000   1.0000   1.0000   1.0000   1.0000
     0.0000   0.0000   0.0000   0.0000   0.0000   0.0000   0.0000   0.0000
     0.0000   0.0000   0.0000   0.0000   0.0000   0.0000   0.0000   0.0000
     0.0000   0.0000   0.0000   0.0000   0.0000   0.0000   0.0000   0.0000
     0.0000   0.0000   0.0000   0.0000   0.0000   0.0000   0.0000   0.0000
     0.0000   0.0000   0.0000   0.0000   0.0000   0.0000   0.0000   0.0000
     0.0000   0.0000   0.0000   0.0000   0.0000   0.0000   0.0000   0.0000
     0.0000   0.0000   0.0000   0.0000   0.0000   0.0000   0.0000   0.0000
     0.0000   0.0000

     the Fermi energy is     7.6678 ev

!    total energy              =   -9924.37816110 Ry
     total all-electron energy =   -140500.318749 Ry
     estimated scf accuracy    <          8.4E-09 Ry
     smearing contrib. (-TS)   =      -0.00000000 Ry
     internal energy E=F+TS    =   -9924.37816110 Ry

     The total energy is F=E-TS. E is the sum of the following terms:
     one-electron contribution =   -2734.79826780 Ry
     hartree contribution      =    1954.43189364 Ry
     xc contribution           =   -1675.05009596 Ry
     ewald contribution        =   -2939.19145687 Ry
     one-center paw contrib.   =   -4529.77023412 Ry
      -> PAW hartree energy AE =     123.56141735 Ry
      -> PAW hartree energy PS =    -122.92048700 Ry
      -> PAW xc energy AE      =    -143.22907908 Ry
      -> PAW xc energy PS      =      47.16751441 Ry
      -> total E_H with PAW    =    1955.07282400 Ry
      -> total E_XC with PAW   =   -1771.11166062 Ry

     total magnetization       =     0.00 Bohr mag/cell
     absolute magnetization    =     0.00 Bohr mag/cell

     convergence has been achieved in  10 iterations
 
     init_run     :      5.62s CPU      6.80s WALL (       1 calls)
     electrons    :    118.60s CPU    121.75s WALL (       1 calls)

     Called by init_run:
     wfcinit      :      3.32s CPU      4.08s WALL (       1 calls)
     wfcinit:atom :      0.02s CPU      0.02s WALL (       2 calls)
     wfcinit:wfcr :      3.20s CPU      3.31s WALL (       2 calls)
     potinit      :      0.65s CPU      0.76s WALL (       1 calls)
     hinit0       :      0.34s CPU      0.41s WALL (       1 calls)

     Called by electrons:
     c_bands      :    106.97s CPU    108.79s WALL (      11 calls)
     sum_band     :      9.21s CPU      9.33s WALL (      11 calls)
     v_of_rho     :      0.89s CPU      0.97s WALL (      11 calls)
     v_h          :      0.04s CPU      0.04s WALL (      11 calls)
     v_xc         :      0.85s CPU      0.93s WALL (      11 calls)
     newd         :      0.29s CPU      0.30s WALL (      11 calls)
     PAW_pot      :      1.09s CPU      1.12s WALL (      11 calls)
     mix_rho      :      0.22s CPU      0.23s WALL (      11 calls)

     Called by c_bands:
     init_us_2    :      1.31s CPU      1.33s WALL (      46 calls)
     init_us_2:cp :      1.31s CPU      1.33s WALL (      46 calls)
     cegterg      :     93.58s CPU     94.95s WALL (      22 calls)

     Called by sum_band:
     sum_band:wei :      0.01s CPU      0.01s WALL (      11 calls)
     sum_band:loo :      8.34s CPU      8.43s WALL (      11 calls)
     sum_band:buf :      0.19s CPU      0.22s WALL (      22 calls)
     sum_band:ini :      0.63s CPU      0.64s WALL (      22 calls)
     sum_band:cal :      3.13s CPU      3.15s WALL (      22 calls)
     sum_band:bec :      0.09s CPU      0.09s WALL (      22 calls)
     addusdens    :      0.32s CPU      0.32s WALL (      11 calls)
                                        0.00s GPU  (      11 calls)
     addusd:skk   :      0.01s CPU      0.01s WALL (      22 calls)
                                        0.00s GPU  (      22 calls)

     Called by *egterg:
     cdiaghg      :     12.04s CPU     12.14s WALL (     183 calls)
     cegterg:over :      7.47s CPU      7.55s WALL (     163 calls)
     cegterg:upda :      7.18s CPU      7.26s WALL (     163 calls)
     cegterg:last :     10.55s CPU     10.62s WALL (      48 calls)
     cdiaghg:chol :      0.77s CPU      0.78s WALL (     183 calls)
     cdiaghg:inve :      1.14s CPU      1.15s WALL (     183 calls)
     cdiaghg:para :      1.84s CPU      1.86s WALL (     366 calls)
     h_psi        :     46.11s CPU     46.86s WALL (     187 calls)
     s_psi        :     10.33s CPU     10.39s WALL (     187 calls)
     g_psi        :      0.25s CPU      0.25s WALL (     163 calls)

     Called by h_psi:
     h_psi:calbec :     10.29s CPU     10.38s WALL (     187 calls)
     vloc_psi     :     24.94s CPU     25.20s WALL (     187 calls)
     add_vuspsi   :     10.46s CPU     10.62s WALL (     187 calls)

     General routines
     calbec       :     13.41s CPU     13.52s WALL (     209 calls)
     fft          :      0.79s CPU      0.95s WALL (     231 calls)
     ffts         :      0.04s CPU      0.04s WALL (      22 calls)
     fftw         :     27.15s CPU     27.42s WALL (   50168 calls)
 
     Parallel routines

     PAW routines
     PAW_pot      :      1.09s CPU      1.12s WALL (      11 calls)
     PAW_symme    :      0.09s CPU      0.10s WALL (      22 calls)
 
     PWSCF        :   2m12.84s CPU   2m32.80s WALL

 
   This run was terminated on:  18:31:48  26Jun2024            

=------------------------------------------------------------------------------=
   JOB DONE.
=------------------------------------------------------------------------------=
