
     Program PWSCF v.7.2 starts on 26Jun2024 at 22:24:54 

     This program is part of the open-source Quantum ESPRESSO suite
     for quantum simulation of materials; please cite
         "P. Giannozzi et al., J. Phys.:Condens. Matter 21 395502 (2009);
         "P. Giannozzi et al., J. Phys.:Condens. Matter 29 465901 (2017);
         "P. Giannozzi et al., J. Chem. Phys. 152 154105 (2020);
          URL http://www.quantum-espresso.org", 
     in publications or presentations arising from this work. More details at
     http://www.quantum-espresso.org/quote

     Parallel version (MPI), running on  1120 processors

     MPI processes distributed on    10 nodes
     223144 MiB available memory on the printing compute node when the environment starts
 
     Waiting for input...
     Reading input from standard input

     Current dimensions of program PWSCF are:
     Max number of different atomic species (ntypx) = 10
     Max number of k-points (npk) =  40000
     Max angular momentum in pseudopotentials (lmaxx) =  4
     file S.pbe-n-kjpaw_psl.1.0.0.UPF: wavefunction(s)  3S 3P renormalized
     file Zn.pbe-dnl-kjpaw_psl.1.0.0.UPF: wavefunction(s)  4S 3D renormalized
     Found identity + (  0.0000  0.2500  0.2500) symmetry
     This is a supercell, fractional translations are disabled
 
     K-points division:     npool     =      10
     R & G space division:  proc/nbgrp/npool/nimage =     112
     Subspace diagonalization in iterative solution of the eigenvalue problem:
     one sub-group per band group will be used
     scalapack distributed-memory algorithm (size of sub-group:  3*  3 procs)

 
     Parallelization info
     --------------------
     sticks:   dense  smooth     PW     G-vecs:    dense   smooth      PW
     Min         177     177     46                18735    18735    2500
     Max         178     178     47                18741    18741    2505
     Sum       19845   19845   5177              2098699  2098699  280169
 
     Using Slab Decomposition
 


     bravais-lattice index     =            1
     lattice parameter (alat)  =      20.3712  a.u.
     unit-cell volume          =    8453.8178 (a.u.)^3
     number of atoms/cell      =           64
     number of atomic types    =            2
     number of electrons       =       576.00
     number of Kohn-Sham states=          346
     kinetic-energy cutoff     =     150.0000  Ry
     charge density cutoff     =     600.0000  Ry
     scf convergence threshold =      1.0E-08
     mixing beta               =       0.7000
     number of iterations used =            8  plain     mixing
     Exchange-correlation= SLA  PW   PBX  PBC
                           (   1   4   3   4   0   0   0)

     celldm(1)=  20.371248  celldm(2)=   0.000000  celldm(3)=   0.000000
     celldm(4)=   0.000000  celldm(5)=   0.000000  celldm(6)=   0.000000

     crystal axes: (cart. coord. in units of alat)
               a(1) = (   1.000000   0.000000   0.000000 )  
               a(2) = (   0.000000   1.000000   0.000000 )  
               a(3) = (   0.000000   0.000000   1.000000 )  

     reciprocal axes: (cart. coord. in units 2 pi/alat)
               b(1) = (  1.000000  0.000000  0.000000 )  
               b(2) = (  0.000000  1.000000  0.000000 )  
               b(3) = (  0.000000  0.000000  1.000000 )  


     PseudoPot. # 1 for S  read from file:
     /arf/home/amuhaymin/pseudo/S.pbe-n-kjpaw_psl.1.0.0.UPF
     MD5 check sum: fb45dfebcf3e72a4e1bd4a866ec2e262
     Pseudo is Projector augmented-wave + core cor, Zval =  6.0
     Generated using &quot;atomic&quot; code by A. Dal Corso  v.6.3
     Shape of augmentation charge: PSQ
     Using radial grid of 1151 points,  6 beta functions with: 
                l(1) =   0
                l(2) =   0
                l(3) =   1
                l(4) =   1
                l(5) =   2
                l(6) =   2
     Q(r) pseudized with 0 coefficients 


     PseudoPot. # 2 for Zn read from file:
     /arf/home/amuhaymin/pseudo/Zn.pbe-dnl-kjpaw_psl.1.0.0.UPF
     MD5 check sum: c608214d9520ac179f507641260889e3
     Pseudo is Projector augmented-wave + core cor, Zval = 12.0
     Generated using &quot;atomic&quot; code by A. Dal Corso  v.6.2.2
     Shape of augmentation charge: PSQ
     Using radial grid of 1201 points,  6 beta functions with: 
                l(1) =   0
                l(2) =   0
                l(3) =   1
                l(4) =   1
                l(5) =   2
                l(6) =   2
     Q(r) pseudized with 0 coefficients 


     atomic species   valence    mass     pseudopotential
        S              6.00    32.06500     S ( 1.00)
        Zn            12.00    65.38000     Zn( 1.00)

     Starting magnetic structure 
     atomic species   magnetization
        S            0.000
        Zn           0.000

     24 Sym. Ops. (no inversion) found


                                    s                        frac. trans.

      isym =  1     identity                                     

 cryst.   s( 1) = (     1          0          0      )
                  (     0          1          0      )
                  (     0          0          1      )

 cart.    s( 1) = (  1.0000000  0.0000000  0.0000000 )
                  (  0.0000000  1.0000000  0.0000000 )
                  (  0.0000000  0.0000000  1.0000000 )


      isym =  2     180 deg rotation - cart. axis [0,0,1]        

 cryst.   s( 2) = (    -1          0          0      )
                  (     0         -1          0      )
                  (     0          0          1      )

 cart.    s( 2) = ( -1.0000000  0.0000000  0.0000000 )
                  (  0.0000000 -1.0000000  0.0000000 )
                  (  0.0000000  0.0000000  1.0000000 )


      isym =  3     180 deg rotation - cart. axis [0,1,0]        

 cryst.   s( 3) = (    -1          0          0      )
                  (     0          1          0      )
                  (     0          0         -1      )

 cart.    s( 3) = ( -1.0000000  0.0000000  0.0000000 )
                  (  0.0000000  1.0000000  0.0000000 )
                  (  0.0000000  0.0000000 -1.0000000 )


      isym =  4     180 deg rotation - cart. axis [1,0,0]        

 cryst.   s( 4) = (     1          0          0      )
                  (     0         -1          0      )
                  (     0          0         -1      )

 cart.    s( 4) = (  1.0000000  0.0000000  0.0000000 )
                  (  0.0000000 -1.0000000  0.0000000 )
                  (  0.0000000  0.0000000 -1.0000000 )


      isym =  5     120 deg rotation - cart. axis [-1,-1,-1]     

 cryst.   s( 5) = (     0          0          1      )
                  (     1          0          0      )
                  (     0          1          0      )

 cart.    s( 5) = (  0.0000000  1.0000000  0.0000000 )
                  (  0.0000000  0.0000000  1.0000000 )
                  (  1.0000000  0.0000000  0.0000000 )


      isym =  6     120 deg rotation - cart. axis [-1,1,1]       

 cryst.   s( 6) = (     0          0         -1      )
                  (    -1          0          0      )
                  (     0          1          0      )

 cart.    s( 6) = (  0.0000000 -1.0000000  0.0000000 )
                  (  0.0000000  0.0000000  1.0000000 )
                  ( -1.0000000  0.0000000  0.0000000 )


      isym =  7     120 deg rotation - cart. axis [1,1,-1]       

 cryst.   s( 7) = (     0          0         -1      )
                  (     1          0          0      )
                  (     0         -1          0      )

 cart.    s( 7) = (  0.0000000  1.0000000  0.0000000 )
                  (  0.0000000  0.0000000 -1.0000000 )
                  ( -1.0000000  0.0000000  0.0000000 )


      isym =  8     120 deg rotation - cart. axis [1,-1,1]       

 cryst.   s( 8) = (     0          0          1      )
                  (    -1          0          0      )
                  (     0         -1          0      )

 cart.    s( 8) = (  0.0000000 -1.0000000  0.0000000 )
                  (  0.0000000  0.0000000 -1.0000000 )
                  (  1.0000000  0.0000000  0.0000000 )


      isym =  9     120 deg rotation - cart. axis [1,1,1]        

 cryst.   s( 9) = (     0          1          0      )
                  (     0          0          1      )
                  (     1          0          0      )

 cart.    s( 9) = (  0.0000000  0.0000000  1.0000000 )
                  (  1.0000000  0.0000000  0.0000000 )
                  (  0.0000000  1.0000000  0.0000000 )


      isym = 10     120 deg rotation - cart. axis [-1,1,-1]      

 cryst.   s(10) = (     0         -1          0      )
                  (     0          0         -1      )
                  (     1          0          0      )

 cart.    s(10) = (  0.0000000  0.0000000  1.0000000 )
                  ( -1.0000000  0.0000000  0.0000000 )
                  (  0.0000000 -1.0000000  0.0000000 )


      isym = 11     120 deg rotation - cart. axis [1,-1,-1]      

 cryst.   s(11) = (     0         -1          0      )
                  (     0          0          1      )
                  (    -1          0          0      )

 cart.    s(11) = (  0.0000000  0.0000000 -1.0000000 )
                  ( -1.0000000  0.0000000  0.0000000 )
                  (  0.0000000  1.0000000  0.0000000 )


      isym = 12     120 deg rotation - cart. axis [-1,-1,1]      

 cryst.   s(12) = (     0          1          0      )
                  (     0          0         -1      )
                  (    -1          0          0      )

 cart.    s(12) = (  0.0000000  0.0000000 -1.0000000 )
                  (  1.0000000  0.0000000  0.0000000 )
                  (  0.0000000 -1.0000000  0.0000000 )


      isym = 13     inv. 180 deg rotation - cart. axis [1,1,0]   

 cryst.   s(13) = (     0         -1          0      )
                  (    -1          0          0      )
                  (     0          0          1      )

 cart.    s(13) = (  0.0000000 -1.0000000  0.0000000 )
                  ( -1.0000000  0.0000000  0.0000000 )
                  (  0.0000000  0.0000000  1.0000000 )


      isym = 14     inv. 180 deg rotation - cart. axis [1,-1,0]  

 cryst.   s(14) = (     0          1          0      )
                  (     1          0          0      )
                  (     0          0          1      )

 cart.    s(14) = (  0.0000000  1.0000000  0.0000000 )
                  (  1.0000000  0.0000000  0.0000000 )
                  (  0.0000000  0.0000000  1.0000000 )


      isym = 15     inv.  90 deg rotation - cart. axis [0,0,-1]  

 cryst.   s(15) = (     0          1          0      )
                  (    -1          0          0      )
                  (     0          0         -1      )

 cart.    s(15) = (  0.0000000 -1.0000000  0.0000000 )
                  (  1.0000000  0.0000000  0.0000000 )
                  (  0.0000000  0.0000000 -1.0000000 )


      isym = 16     inv.  90 deg rotation - cart. axis [0,0,1]   

 cryst.   s(16) = (     0         -1          0      )
                  (     1          0          0      )
                  (     0          0         -1      )

 cart.    s(16) = (  0.0000000  1.0000000  0.0000000 )
                  ( -1.0000000  0.0000000  0.0000000 )
                  (  0.0000000  0.0000000 -1.0000000 )


      isym = 17     inv. 180 deg rotation - cart. axis [1,0,1]   

 cryst.   s(17) = (     0          0         -1      )
                  (     0          1          0      )
                  (    -1          0          0      )

 cart.    s(17) = (  0.0000000  0.0000000 -1.0000000 )
                  (  0.0000000  1.0000000  0.0000000 )
                  ( -1.0000000  0.0000000  0.0000000 )


      isym = 18     inv. 180 deg rotation - cart. axis [-1,0,1]  

 cryst.   s(18) = (     0          0          1      )
                  (     0          1          0      )
                  (     1          0          0      )

 cart.    s(18) = (  0.0000000  0.0000000  1.0000000 )
                  (  0.0000000  1.0000000  0.0000000 )
                  (  1.0000000  0.0000000  0.0000000 )


      isym = 19     inv.  90 deg rotation - cart. axis [0,1,0]   

 cryst.   s(19) = (     0          0          1      )
                  (     0         -1          0      )
                  (    -1          0          0      )

 cart.    s(19) = (  0.0000000  0.0000000 -1.0000000 )
                  (  0.0000000 -1.0000000  0.0000000 )
                  (  1.0000000  0.0000000  0.0000000 )


      isym = 20     inv.  90 deg rotation - cart. axis [0,-1,0]  

 cryst.   s(20) = (     0          0         -1      )
                  (     0         -1          0      )
                  (     1          0          0      )

 cart.    s(20) = (  0.0000000  0.0000000  1.0000000 )
                  (  0.0000000 -1.0000000  0.0000000 )
                  ( -1.0000000  0.0000000  0.0000000 )


      isym = 21     inv. 180 deg rotation - cart. axis [0,1,1]   

 cryst.   s(21) = (     1          0          0      )
                  (     0          0         -1      )
                  (     0         -1          0      )

 cart.    s(21) = (  1.0000000  0.0000000  0.0000000 )
                  (  0.0000000  0.0000000 -1.0000000 )
                  (  0.0000000 -1.0000000  0.0000000 )


      isym = 22     inv. 180 deg rotation - cart. axis [0,1,-1]  

 cryst.   s(22) = (     1          0          0      )
                  (     0          0          1      )
                  (     0          1          0      )

 cart.    s(22) = (  1.0000000  0.0000000  0.0000000 )
                  (  0.0000000  0.0000000  1.0000000 )
                  (  0.0000000  1.0000000  0.0000000 )


      isym = 23     inv.  90 deg rotation - cart. axis [-1,0,0]  

 cryst.   s(23) = (    -1          0          0      )
                  (     0          0          1      )
                  (     0         -1          0      )

 cart.    s(23) = ( -1.0000000  0.0000000  0.0000000 )
                  (  0.0000000  0.0000000 -1.0000000 )
                  (  0.0000000  1.0000000  0.0000000 )


      isym = 24     inv.  90 deg rotation - cart. axis [1,0,0]   

 cryst.   s(24) = (    -1          0          0      )
                  (     0          0         -1      )
                  (     0          1          0      )

 cart.    s(24) = ( -1.0000000  0.0000000  0.0000000 )
                  (  0.0000000  0.0000000  1.0000000 )
                  (  0.0000000 -1.0000000  0.0000000 )


     point group T_d (-43m) 
     there are  5 classes
     the character table:

       E     8C3   3C2   6S4   6s_d 
A_1    1.00  1.00  1.00  1.00  1.00
A_2    1.00  1.00  1.00 -1.00 -1.00
E      2.00 -1.00  2.00  0.00  0.00
T_1    3.00  0.00 -1.00  1.00 -1.00
T_2    3.00  0.00 -1.00 -1.00  1.00

     the symmetry operations in each class and the name of the first element:

     E        1
          identity                                               
     8C3      5    7    8    6   12    9   10   11
          120 deg rotation - cart. axis [-1,-1,-1]               
     3C2      2    3    4
          180 deg rotation - cart. axis [0,0,1]                  
     6S4     15   16   20   19   23   24
          inv.  90 deg rotation - cart. axis [0,0,-1]            
     6s_d    13   14   17   18   21   22
          inv. 180 deg rotation - cart. axis [1,1,0]             

   Cartesian axes

     site n.     atom                  positions (alat units)
         1           Zn  tau(   1) = (   0.0000000   0.0000000   0.0000000  )
         2           Zn  tau(   2) = (   0.0000000   0.2500000   0.2500000  )
         3           Zn  tau(   3) = (   0.2500000   0.0000000   0.2500000  )
         4           Zn  tau(   4) = (   0.2500000   0.2500000   0.0000000  )
         5           S   tau(   5) = (   0.1250000   0.3750000   0.3750000  )
         6           S   tau(   6) = (   0.1250000   0.1250000   0.1250000  )
         7           S   tau(   7) = (   0.3750000   0.3750000   0.1250000  )
         8           S   tau(   8) = (   0.3750000   0.1250000   0.3750000  )
         9           Zn  tau(   9) = (   0.0000000   0.0000000   0.5000000  )
        10           Zn  tau(  10) = (   0.0000000   0.2500000   0.7500000  )
        11           Zn  tau(  11) = (   0.2500000   0.0000000   0.7500000  )
        12           Zn  tau(  12) = (   0.2500000   0.2500000   0.5000000  )
        13           S   tau(  13) = (   0.1250000   0.3750000   0.8750000  )
        14           S   tau(  14) = (   0.1250000   0.1250000   0.6250000  )
        15           S   tau(  15) = (   0.3750000   0.3750000   0.6250000  )
        16           S   tau(  16) = (   0.3750000   0.1250000   0.8750000  )
        17           Zn  tau(  17) = (   0.0000000   0.5000000   0.0000000  )
        18           Zn  tau(  18) = (   0.0000000   0.7500000   0.2500000  )
        19           Zn  tau(  19) = (   0.2500000   0.5000000   0.2500000  )
        20           Zn  tau(  20) = (   0.2500000   0.7500000   0.0000000  )
        21           S   tau(  21) = (   0.1250000   0.8750000   0.3750000  )
        22           S   tau(  22) = (   0.1250000   0.6250000   0.1250000  )
        23           S   tau(  23) = (   0.3750000   0.8750000   0.1250000  )
        24           S   tau(  24) = (   0.3750000   0.6250000   0.3750000  )
        25           Zn  tau(  25) = (   0.0000000   0.5000000   0.5000000  )
        26           Zn  tau(  26) = (   0.0000000   0.7500000   0.7500000  )
        27           Zn  tau(  27) = (   0.2500000   0.5000000   0.7500000  )
        28           Zn  tau(  28) = (   0.2500000   0.7500000   0.5000000  )
        29           S   tau(  29) = (   0.1250000   0.8750000   0.8750000  )
        30           S   tau(  30) = (   0.1250000   0.6250000   0.6250000  )
        31           S   tau(  31) = (   0.3750000   0.8750000   0.6250000  )
        32           S   tau(  32) = (   0.3750000   0.6250000   0.8750000  )
        33           Zn  tau(  33) = (   0.5000000   0.0000000   0.0000000  )
        34           Zn  tau(  34) = (   0.5000000   0.2500000   0.2500000  )
        35           Zn  tau(  35) = (   0.7500000   0.0000000   0.2500000  )
        36           Zn  tau(  36) = (   0.7500000   0.2500000   0.0000000  )
        37           S   tau(  37) = (   0.6250000   0.3750000   0.3750000  )
        38           S   tau(  38) = (   0.6250000   0.1250000   0.1250000  )
        39           S   tau(  39) = (   0.8750000   0.3750000   0.1250000  )
        40           S   tau(  40) = (   0.8750000   0.1250000   0.3750000  )
        41           Zn  tau(  41) = (   0.5000000   0.0000000   0.5000000  )
        42           Zn  tau(  42) = (   0.5000000   0.2500000   0.7500000  )
        43           Zn  tau(  43) = (   0.7500000   0.0000000   0.7500000  )
        44           Zn  tau(  44) = (   0.7500000   0.2500000   0.5000000  )
        45           S   tau(  45) = (   0.6250000   0.3750000   0.8750000  )
        46           S   tau(  46) = (   0.6250000   0.1250000   0.6250000  )
        47           S   tau(  47) = (   0.8750000   0.3750000   0.6250000  )
        48           S   tau(  48) = (   0.8750000   0.1250000   0.8750000  )
        49           Zn  tau(  49) = (   0.5000000   0.5000000   0.0000000  )
        50           Zn  tau(  50) = (   0.5000000   0.7500000   0.2500000  )
        51           Zn  tau(  51) = (   0.7500000   0.5000000   0.2500000  )
        52           Zn  tau(  52) = (   0.7500000   0.7500000   0.0000000  )
        53           S   tau(  53) = (   0.6250000   0.8750000   0.3750000  )
        54           S   tau(  54) = (   0.6250000   0.6250000   0.1250000  )
        55           S   tau(  55) = (   0.8750000   0.8750000   0.1250000  )
        56           S   tau(  56) = (   0.8750000   0.6250000   0.3750000  )
        57           Zn  tau(  57) = (   0.5000000   0.5000000   0.5000000  )
        58           Zn  tau(  58) = (   0.5000000   0.7500000   0.7500000  )
        59           Zn  tau(  59) = (   0.7500000   0.5000000   0.7500000  )
        60           Zn  tau(  60) = (   0.7500000   0.7500000   0.5000000  )
        61           S   tau(  61) = (   0.6250000   0.8750000   0.8750000  )
        62           S   tau(  62) = (   0.6250000   0.6250000   0.6250000  )
        63           S   tau(  63) = (   0.8750000   0.8750000   0.6250000  )
        64           S   tau(  64) = (   0.8750000   0.6250000   0.8750000  )

   Crystallographic axes

     site n.     atom                  positions (cryst. coord.)
         1           Zn  tau(   1) = (  0.0000000  0.0000000  0.0000000  )
         2           Zn  tau(   2) = (  0.0000000  0.2500000  0.2500000  )
         3           Zn  tau(   3) = (  0.2500000  0.0000000  0.2500000  )
         4           Zn  tau(   4) = (  0.2500000  0.2500000  0.0000000  )
         5           S   tau(   5) = (  0.1250000  0.3750000  0.3750000  )
         6           S   tau(   6) = (  0.1250000  0.1250000  0.1250000  )
         7           S   tau(   7) = (  0.3750000  0.3750000  0.1250000  )
         8           S   tau(   8) = (  0.3750000  0.1250000  0.3750000  )
         9           Zn  tau(   9) = (  0.0000000  0.0000000  0.5000000  )
        10           Zn  tau(  10) = (  0.0000000  0.2500000  0.7500000  )
        11           Zn  tau(  11) = (  0.2500000  0.0000000  0.7500000  )
        12           Zn  tau(  12) = (  0.2500000  0.2500000  0.5000000  )
        13           S   tau(  13) = (  0.1250000  0.3750000  0.8750000  )
        14           S   tau(  14) = (  0.1250000  0.1250000  0.6250000  )
        15           S   tau(  15) = (  0.3750000  0.3750000  0.6250000  )
        16           S   tau(  16) = (  0.3750000  0.1250000  0.8750000  )
        17           Zn  tau(  17) = (  0.0000000  0.5000000  0.0000000  )
        18           Zn  tau(  18) = (  0.0000000  0.7500000  0.2500000  )
        19           Zn  tau(  19) = (  0.2500000  0.5000000  0.2500000  )
        20           Zn  tau(  20) = (  0.2500000  0.7500000  0.0000000  )
        21           S   tau(  21) = (  0.1250000  0.8750000  0.3750000  )
        22           S   tau(  22) = (  0.1250000  0.6250000  0.1250000  )
        23           S   tau(  23) = (  0.3750000  0.8750000  0.1250000  )
        24           S   tau(  24) = (  0.3750000  0.6250000  0.3750000  )
        25           Zn  tau(  25) = (  0.0000000  0.5000000  0.5000000  )
        26           Zn  tau(  26) = (  0.0000000  0.7500000  0.7500000  )
        27           Zn  tau(  27) = (  0.2500000  0.5000000  0.7500000  )
        28           Zn  tau(  28) = (  0.2500000  0.7500000  0.5000000  )
        29           S   tau(  29) = (  0.1250000  0.8750000  0.8750000  )
        30           S   tau(  30) = (  0.1250000  0.6250000  0.6250000  )
        31           S   tau(  31) = (  0.3750000  0.8750000  0.6250000  )
        32           S   tau(  32) = (  0.3750000  0.6250000  0.8750000  )
        33           Zn  tau(  33) = (  0.5000000  0.0000000  0.0000000  )
        34           Zn  tau(  34) = (  0.5000000  0.2500000  0.2500000  )
        35           Zn  tau(  35) = (  0.7500000  0.0000000  0.2500000  )
        36           Zn  tau(  36) = (  0.7500000  0.2500000  0.0000000  )
        37           S   tau(  37) = (  0.6250000  0.3750000  0.3750000  )
        38           S   tau(  38) = (  0.6250000  0.1250000  0.1250000  )
        39           S   tau(  39) = (  0.8750000  0.3750000  0.1250000  )
        40           S   tau(  40) = (  0.8750000  0.1250000  0.3750000  )
        41           Zn  tau(  41) = (  0.5000000  0.0000000  0.5000000  )
        42           Zn  tau(  42) = (  0.5000000  0.2500000  0.7500000  )
        43           Zn  tau(  43) = (  0.7500000  0.0000000  0.7500000  )
        44           Zn  tau(  44) = (  0.7500000  0.2500000  0.5000000  )
        45           S   tau(  45) = (  0.6250000  0.3750000  0.8750000  )
        46           S   tau(  46) = (  0.6250000  0.1250000  0.6250000  )
        47           S   tau(  47) = (  0.8750000  0.3750000  0.6250000  )
        48           S   tau(  48) = (  0.8750000  0.1250000  0.8750000  )
        49           Zn  tau(  49) = (  0.5000000  0.5000000  0.0000000  )
        50           Zn  tau(  50) = (  0.5000000  0.7500000  0.2500000  )
        51           Zn  tau(  51) = (  0.7500000  0.5000000  0.2500000  )
        52           Zn  tau(  52) = (  0.7500000  0.7500000  0.0000000  )
        53           S   tau(  53) = (  0.6250000  0.8750000  0.3750000  )
        54           S   tau(  54) = (  0.6250000  0.6250000  0.1250000  )
        55           S   tau(  55) = (  0.8750000  0.8750000  0.1250000  )
        56           S   tau(  56) = (  0.8750000  0.6250000  0.3750000  )
        57           Zn  tau(  57) = (  0.5000000  0.5000000  0.5000000  )
        58           Zn  tau(  58) = (  0.5000000  0.7500000  0.7500000  )
        59           Zn  tau(  59) = (  0.7500000  0.5000000  0.7500000  )
        60           Zn  tau(  60) = (  0.7500000  0.7500000  0.5000000  )
        61           S   tau(  61) = (  0.6250000  0.8750000  0.8750000  )
        62           S   tau(  62) = (  0.6250000  0.6250000  0.6250000  )
        63           S   tau(  63) = (  0.8750000  0.8750000  0.6250000  )
        64           S   tau(  64) = (  0.8750000  0.6250000  0.8750000  )

     number of k points=    10  Gaussian smearing, width (Ry)=  0.0010
                       cart. coord. in units 2pi/alat
        k(    1) = (   0.0000000   0.0000000   0.0000000), wk =   0.0156250
        k(    2) = (   0.0000000   0.0000000   0.2500000), wk =   0.0937500
        k(    3) = (   0.0000000   0.0000000  -0.5000000), wk =   0.0468750
        k(    4) = (   0.0000000   0.2500000   0.2500000), wk =   0.1875000
        k(    5) = (   0.0000000   0.2500000  -0.5000000), wk =   0.1875000
        k(    6) = (   0.0000000  -0.5000000  -0.5000000), wk =   0.0468750
        k(    7) = (   0.2500000   0.2500000   0.2500000), wk =   0.1250000
        k(    8) = (   0.2500000   0.2500000  -0.5000000), wk =   0.1875000
        k(    9) = (   0.2500000  -0.5000000  -0.5000000), wk =   0.0937500
        k(   10) = (  -0.5000000  -0.5000000  -0.5000000), wk =   0.0156250

                       cryst. coord.
        k(    1) = (   0.0000000   0.0000000   0.0000000), wk =   0.0156250
        k(    2) = (   0.0000000   0.0000000   0.2500000), wk =   0.0937500
        k(    3) = (   0.0000000   0.0000000  -0.5000000), wk =   0.0468750
        k(    4) = (   0.0000000   0.2500000   0.2500000), wk =   0.1875000
        k(    5) = (   0.0000000   0.2500000  -0.5000000), wk =   0.1875000
        k(    6) = (   0.0000000  -0.5000000  -0.5000000), wk =   0.0468750
        k(    7) = (   0.2500000   0.2500000   0.2500000), wk =   0.1250000
        k(    8) = (   0.2500000   0.2500000  -0.5000000), wk =   0.1875000
        k(    9) = (   0.2500000  -0.5000000  -0.5000000), wk =   0.0937500
        k(   10) = (  -0.5000000  -0.5000000  -0.5000000), wk =   0.0156250

     Dense  grid:  2098699 G-vectors     FFT dimensions: ( 160, 160, 160)

     Dynamical RAM for                 wfc:      12.36 MB

     Dynamical RAM for     wfc (w. buffer):      37.08 MB

     Dynamical RAM for           str. fact:       0.57 MB

     Dynamical RAM for           local pot:       0.00 MB

     Dynamical RAM for          nlocal pot:      41.15 MB

     Dynamical RAM for                qrad:       3.93 MB

     Dynamical RAM for          rho,v,vnew:       4.06 MB

     Dynamical RAM for               rhoin:       1.35 MB

     Dynamical RAM for            rho*nmix:       9.15 MB

     Dynamical RAM for           G-vectors:       1.22 MB

     Dynamical RAM for          h,s,v(r/c):       2.42 MB

     Dynamical RAM for          <psi|beta>:       6.08 MB

     Dynamical RAM for                 psi:      24.72 MB

     Dynamical RAM for                hpsi:      24.72 MB

     Dynamical RAM for                spsi:      24.72 MB

     Dynamical RAM for      wfcinit/wfcrot:      33.68 MB

     Dynamical RAM for           addusdens:       6.78 MB

     Estimated static dynamical RAM per process >      92.56 MB

     Estimated max dynamical RAM per process >     184.37 MB

     Estimated total dynamical RAM >     192.65 GB
     Generating pointlists ...
     new r_m :   0.0893 (alat units)  1.8193 (a.u.) for type    1
     new r_m :   0.0893 (alat units)  1.8193 (a.u.) for type    2

     Initial potential from superposition of free atoms

     starting charge     575.8798, renormalised to     576.0000
     Starting wfcs are  416 randomized atomic wfcs
     Checking if some PAW data can be deallocated... 
       PAW data deallocated on  560 nodes for type:  1
       PAW data deallocated on  560 nodes for type:  2

     total cpu time spent up to now is        6.7 secs

     Self-consistent Calculation

     iteration #  1     ecut=   150.00 Ry     beta= 0.70
     Davidson diagonalization with overlap

---- Real-time Memory Report at c_bands before calling an iterative solver
          1218 MiB given to the printing process from OS
             0 MiB allocation reported by mallinfo(arena+hblkhd)
        198631 MiB available memory on the node where the printing process lives
------------------
     ethr =  1.00E-02,  avg # of iterations =  4.7

     Threshold (ethr) on eigenvalues was too large:
     Diagonalizing with lowered threshold

     Davidson diagonalization with overlap

---- Real-time Memory Report at c_bands before calling an iterative solver
          1370 MiB given to the printing process from OS
             0 MiB allocation reported by mallinfo(arena+hblkhd)
        198008 MiB available memory on the node where the printing process lives
------------------
     ethr =  3.26E-04,  avg # of iterations =  5.1

     total cpu time spent up to now is       27.9 secs

     total energy              =   -9923.84149689 Ry
     estimated scf accuracy    <       1.81115494 Ry

     total magnetization       =     0.00 Bohr mag/cell
     absolute magnetization    =     0.05 Bohr mag/cell

     iteration #  2     ecut=   150.00 Ry     beta= 0.70
     Davidson diagonalization with overlap

---- Real-time Memory Report at c_bands before calling an iterative solver
          1397 MiB given to the printing process from OS
             0 MiB allocation reported by mallinfo(arena+hblkhd)
        197971 MiB available memory on the node where the printing process lives
------------------
     ethr =  3.14E-04,  avg # of iterations =  3.8

     total cpu time spent up to now is       39.0 secs

     total energy              =   -9924.28790819 Ry
     estimated scf accuracy    <       0.37085792 Ry

     total magnetization       =    -0.00 Bohr mag/cell
     absolute magnetization    =     0.02 Bohr mag/cell

     iteration #  3     ecut=   150.00 Ry     beta= 0.70
     Davidson diagonalization with overlap

---- Real-time Memory Report at c_bands before calling an iterative solver
          1417 MiB given to the printing process from OS
             0 MiB allocation reported by mallinfo(arena+hblkhd)
        197687 MiB available memory on the node where the printing process lives
------------------
     ethr =  6.44E-05,  avg # of iterations =  7.7

     total cpu time spent up to now is       51.9 secs

     total energy              =   -9924.35317804 Ry
     estimated scf accuracy    <       0.02694205 Ry

     total magnetization       =    -0.00 Bohr mag/cell
     absolute magnetization    =     0.01 Bohr mag/cell

     iteration #  4     ecut=   150.00 Ry     beta= 0.70
     Davidson diagonalization with overlap

---- Real-time Memory Report at c_bands before calling an iterative solver
          1434 MiB given to the printing process from OS
             0 MiB allocation reported by mallinfo(arena+hblkhd)
        197440 MiB available memory on the node where the printing process lives
------------------
     c_bands:  1 eigenvalues not converged
     ethr =  4.68E-06,  avg # of iterations = 13.6

     total cpu time spent up to now is       66.9 secs

     total energy              =   -9924.36134353 Ry
     estimated scf accuracy    <       0.01360903 Ry

     total magnetization       =     0.00 Bohr mag/cell
     absolute magnetization    =     0.01 Bohr mag/cell

     iteration #  5     ecut=   150.00 Ry     beta= 0.70
     Davidson diagonalization with overlap

---- Real-time Memory Report at c_bands before calling an iterative solver
          1448 MiB given to the printing process from OS
             0 MiB allocation reported by mallinfo(arena+hblkhd)
        197265 MiB available memory on the node where the printing process lives
------------------
     c_bands:  2 eigenvalues not converged
     ethr =  2.36E-06,  avg # of iterations =  7.7

     total cpu time spent up to now is       80.8 secs

     total energy              =   -9924.36336721 Ry
     estimated scf accuracy    <       0.00056709 Ry

     total magnetization       =    -0.00 Bohr mag/cell
     absolute magnetization    =     0.00 Bohr mag/cell

     iteration #  6     ecut=   150.00 Ry     beta= 0.70
     Davidson diagonalization with overlap

---- Real-time Memory Report at c_bands before calling an iterative solver
          1459 MiB given to the printing process from OS
             0 MiB allocation reported by mallinfo(arena+hblkhd)
        197097 MiB available memory on the node where the printing process lives
------------------
     ethr =  9.85E-08,  avg # of iterations =  6.2

     total cpu time spent up to now is       93.2 secs

     total energy              =   -9924.36364856 Ry
     estimated scf accuracy    <       0.00009480 Ry

     total magnetization       =     0.00 Bohr mag/cell
     absolute magnetization    =     0.00 Bohr mag/cell

     iteration #  7     ecut=   150.00 Ry     beta= 0.70
     Davidson diagonalization with overlap

---- Real-time Memory Report at c_bands before calling an iterative solver
          1467 MiB given to the printing process from OS
             0 MiB allocation reported by mallinfo(arena+hblkhd)
        196888 MiB available memory on the node where the printing process lives
------------------
     ethr =  1.65E-08,  avg # of iterations =  2.6

     total cpu time spent up to now is      101.0 secs

     total energy              =   -9924.36362431 Ry
     estimated scf accuracy    <       0.00005167 Ry

     total magnetization       =     0.00 Bohr mag/cell
     absolute magnetization    =     0.00 Bohr mag/cell

     iteration #  8     ecut=   150.00 Ry     beta= 0.70
     Davidson diagonalization with overlap

---- Real-time Memory Report at c_bands before calling an iterative solver
          1472 MiB given to the printing process from OS
             0 MiB allocation reported by mallinfo(arena+hblkhd)
        196675 MiB available memory on the node where the printing process lives
------------------
     ethr =  8.97E-09,  avg # of iterations =  2.2

     total cpu time spent up to now is      109.4 secs

     total energy              =   -9924.36364061 Ry
     estimated scf accuracy    <       0.00000216 Ry

     total magnetization       =    -0.00 Bohr mag/cell
     absolute magnetization    =     0.00 Bohr mag/cell

     iteration #  9     ecut=   150.00 Ry     beta= 0.70
     Davidson diagonalization with overlap

---- Real-time Memory Report at c_bands before calling an iterative solver
          1477 MiB given to the printing process from OS
             0 MiB allocation reported by mallinfo(arena+hblkhd)
        196496 MiB available memory on the node where the printing process lives
------------------
     ethr =  3.75E-10,  avg # of iterations =  4.8

     total cpu time spent up to now is      120.3 secs

     total energy              =   -9924.36363973 Ry
     estimated scf accuracy    <       0.00000322 Ry

     total magnetization       =    -0.00 Bohr mag/cell
     absolute magnetization    =     0.00 Bohr mag/cell

     iteration # 10     ecut=   150.00 Ry     beta= 0.70
     Davidson diagonalization with overlap

---- Real-time Memory Report at c_bands before calling an iterative solver
          1484 MiB given to the printing process from OS
             0 MiB allocation reported by mallinfo(arena+hblkhd)
        196360 MiB available memory on the node where the printing process lives
------------------
     ethr =  3.75E-10,  avg # of iterations =  2.2

     total cpu time spent up to now is      129.0 secs

     total energy              =   -9924.36364030 Ry
     estimated scf accuracy    <       0.00000003 Ry

     total magnetization       =     0.00 Bohr mag/cell
     absolute magnetization    =     0.00 Bohr mag/cell

     iteration # 11     ecut=   150.00 Ry     beta= 0.70
     Davidson diagonalization with overlap

---- Real-time Memory Report at c_bands before calling an iterative solver
          1489 MiB given to the printing process from OS
             0 MiB allocation reported by mallinfo(arena+hblkhd)
        196117 MiB available memory on the node where the printing process lives
------------------
     ethr =  4.36E-12,  avg # of iterations =  6.7
 
     Magnetic moment per site  (integrated on atomic sphere of radius R)
     atom   1 (R=0.089)  charge= 10.1357  magn= -0.0000
     atom   2 (R=0.089)  charge= 10.1357  magn=  0.0000
     atom   3 (R=0.089)  charge= 10.1357  magn=  0.0000
     atom   4 (R=0.089)  charge= 10.1357  magn=  0.0000
     atom   5 (R=0.089)  charge=  3.9449  magn=  0.0000
     atom   6 (R=0.089)  charge=  3.9449  magn=  0.0000
     atom   7 (R=0.089)  charge=  3.9449  magn=  0.0000
     atom   8 (R=0.089)  charge=  3.9449  magn=  0.0000
     atom   9 (R=0.089)  charge= 10.1357  magn=  0.0000
     atom  10 (R=0.089)  charge= 10.1357  magn=  0.0000
     atom  11 (R=0.089)  charge= 10.1357  magn=  0.0000
     atom  12 (R=0.089)  charge= 10.1357  magn= -0.0000
     atom  13 (R=0.089)  charge=  3.9449  magn= -0.0000
     atom  14 (R=0.089)  charge=  3.9449  magn= -0.0000
     atom  15 (R=0.089)  charge=  3.9449  magn=  0.0000
     atom  16 (R=0.089)  charge=  3.9449  magn= -0.0000
     atom  17 (R=0.089)  charge= 10.1357  magn=  0.0000
     atom  18 (R=0.089)  charge= 10.1357  magn=  0.0000
     atom  19 (R=0.089)  charge= 10.1357  magn= -0.0000
     atom  20 (R=0.089)  charge= 10.1357  magn=  0.0000
     atom  21 (R=0.089)  charge=  3.9449  magn= -0.0000
     atom  22 (R=0.089)  charge=  3.9449  magn= -0.0000
     atom  23 (R=0.089)  charge=  3.9449  magn= -0.0000
     atom  24 (R=0.089)  charge=  3.9449  magn=  0.0000
     atom  25 (R=0.089)  charge= 10.1357  magn= -0.0000
     atom  26 (R=0.089)  charge= 10.1357  magn=  0.0000
     atom  27 (R=0.089)  charge= 10.1357  magn= -0.0000
     atom  28 (R=0.089)  charge= 10.1357  magn= -0.0000
     atom  29 (R=0.089)  charge=  3.9449  magn=  0.0000
     atom  30 (R=0.089)  charge=  3.9449  magn=  0.0000
     atom  31 (R=0.089)  charge=  3.9449  magn=  0.0000
     atom  32 (R=0.089)  charge=  3.9449  magn=  0.0000
     atom  33 (R=0.089)  charge= 10.1357  magn=  0.0000
     atom  34 (R=0.089)  charge= 10.1357  magn= -0.0000
     atom  35 (R=0.089)  charge= 10.1357  magn=  0.0000
     atom  36 (R=0.089)  charge= 10.1357  magn=  0.0000
     atom  37 (R=0.089)  charge=  3.9449  magn=  0.0000
     atom  38 (R=0.089)  charge=  3.9449  magn= -0.0000
     atom  39 (R=0.089)  charge=  3.9449  magn= -0.0000
     atom  40 (R=0.089)  charge=  3.9449  magn= -0.0000
     atom  41 (R=0.089)  charge= 10.1357  magn= -0.0000
     atom  42 (R=0.089)  charge= 10.1357  magn= -0.0000
     atom  43 (R=0.089)  charge= 10.1357  magn=  0.0000
     atom  44 (R=0.089)  charge= 10.1357  magn= -0.0000
     atom  45 (R=0.089)  charge=  3.9449  magn=  0.0000
     atom  46 (R=0.089)  charge=  3.9449  magn=  0.0000
     atom  47 (R=0.089)  charge=  3.9449  magn=  0.0000
     atom  48 (R=0.089)  charge=  3.9449  magn=  0.0000
     atom  49 (R=0.089)  charge= 10.1357  magn= -0.0000
     atom  50 (R=0.089)  charge= 10.1357  magn= -0.0000
     atom  51 (R=0.089)  charge= 10.1357  magn= -0.0000
     atom  52 (R=0.089)  charge= 10.1357  magn=  0.0000
     atom  53 (R=0.089)  charge=  3.9449  magn=  0.0000
     atom  54 (R=0.089)  charge=  3.9449  magn=  0.0000
     atom  55 (R=0.089)  charge=  3.9449  magn=  0.0000
     atom  56 (R=0.089)  charge=  3.9449  magn=  0.0000
     atom  57 (R=0.089)  charge= 10.1357  magn= -0.0000
     atom  58 (R=0.089)  charge= 10.1357  magn= -0.0000
     atom  59 (R=0.089)  charge= 10.1357  magn= -0.0000
     atom  60 (R=0.089)  charge= 10.1357  magn= -0.0000
     atom  61 (R=0.089)  charge=  3.9449  magn= -0.0000
     atom  62 (R=0.089)  charge=  3.9449  magn=  0.0000
     atom  63 (R=0.089)  charge=  3.9449  magn= -0.0000
     atom  64 (R=0.089)  charge=  3.9449  magn= -0.0000

     total cpu time spent up to now is      145.5 secs

     End of self-consistent calculation

 ------ SPIN UP ------------


          k = 0.0000 0.0000 0.0000 (262179 PWs)   bands (ev):

    -7.2890  -6.7174  -6.7174  -6.7174  -6.7174  -6.7174  -6.7174  -6.3734
    -6.3734  -6.3734  -6.3734  -6.3734  -6.3734  -6.3734  -6.3734  -6.3734
    -6.3734  -6.3734  -6.3734  -6.3460  -6.3460  -6.3460  -6.3460  -6.0283
    -6.0283  -6.0283  -6.0222  -6.0222  -6.0222  -6.0222  -6.0222  -6.0222
    -0.4732  -0.4732  -0.4732  -0.4732  -0.4732  -0.4732  -0.4598  -0.4598
    -0.4598  -0.4150  -0.4150  -0.4150  -0.2967  -0.2967  -0.2967  -0.2967
    -0.2967  -0.2967  -0.2967  -0.2967  -0.2898  -0.2898  -0.2898  -0.2898
    -0.2898  -0.2898  -0.2898  -0.2898  -0.2898  -0.2898  -0.2898  -0.2898
    -0.2842  -0.2842  -0.2842  -0.2842  -0.2842  -0.2842  -0.2645  -0.2645
    -0.2645  -0.2645  -0.2645  -0.2645  -0.2645  -0.2645  -0.2645  -0.2645
    -0.2645  -0.2645  -0.2533  -0.2533  -0.2533  -0.2533  -0.2533  -0.2533
    -0.2533  -0.2533  -0.2533  -0.2533  -0.2533  -0.2533  -0.1396  -0.1396
    -0.1396  -0.1396  -0.1396  -0.1396  -0.1396  -0.1396  -0.1396  -0.1396
    -0.1396  -0.1396  -0.1224  -0.1224  -0.1224  -0.1224  -0.1224  -0.1224
    -0.0608  -0.0608  -0.0608  -0.0608  -0.0608  -0.0608   0.0336   0.0336
     0.0336   0.0336   0.0336   0.0336   0.0596   0.0596   0.0596   0.0596
     0.0596   0.0596   0.0630   0.0630   0.0630   0.0630   0.0630   0.0630
     0.0855   0.0855   0.0855   0.0856   0.0856   0.0856   0.0856   0.0856
     0.0856   0.0856   0.0856   0.0856   0.1009   0.1009   0.1325   0.1325
     0.1325   0.1325   0.1325   0.1325   0.1325   0.1325   0.1399   0.1399
     0.1399   0.1399   0.1399   0.1399   0.1619   0.1619   0.1619   0.1619
     0.1619   0.1619   0.1619   0.1619   0.1619   0.1619   0.1619   0.1619
     0.1789   0.1789   0.1789   0.3050   0.3050   0.3050   0.3050   0.3191
     0.3191   0.3191   0.5098   0.5098   0.5098   0.5098   0.5098   0.5098
     0.5652   0.5652   0.5652   0.5652   1.2874   1.2874   1.2874   1.2874
     1.2874   1.2874   1.3360   1.3360   1.3360   1.9449   1.9449   1.9449
     1.9449   1.9449   1.9449   1.9449   1.9449   1.9449   1.9449   1.9449
     1.9449   3.1241   3.1241   3.1241   3.1241   3.1241   3.1241   3.1765
     3.1765   3.1765   3.1765   3.1765   3.1765   3.3453   3.3453   3.3453
     3.3453   3.3453   3.3453   3.3765   3.3765   3.3765   3.3765   3.3765
     3.3765   3.3765   3.3765   3.3765   3.3765   3.3765   3.3765   3.6644
     3.6644   3.6644   3.6644   3.6644   3.6644   4.6644   4.6644   4.6644
     4.6644   4.6644   4.6644   4.6644   4.6644   4.6644   4.6644   4.6644
     4.6644   5.0010   5.0010   5.0010   5.0010   5.0010   5.0010   5.0010
     5.0010   5.0010   5.0010   5.0010   5.0010   5.0387   5.0387   5.0387
     5.0387   5.0387   5.0387   5.0387   5.0387   5.9189   5.9189   5.9189
     8.0507   9.2272   9.2272   9.2272   9.2272   9.2969   9.2969   9.2969
     9.9752   9.9752   9.9752  10.3938  10.3938  10.3938  10.3938  10.3938
    10.3938  10.4850  10.4850  10.4850  10.4850  10.4850  10.4850  10.7617
    10.7617  10.7617  10.7617  10.7617  10.7617  10.7617  10.7617  10.7617
    10.7617  10.7617  10.7617  11.6019  11.6019  11.6019  11.6019  11.6019
    11.6019  11.9658  11.9658  11.9658  11.9658  11.9658  11.9658  12.2721
    12.2721  12.2722  12.5805  12.5805  12.5805  12.5805  12.5805  12.5805
    12.5805  12.5805

     occupation numbers 
     1.0000   1.0000   1.0000   1.0000   1.0000   1.0000   1.0000   1.0000
     1.0000   1.0000   1.0000   1.0000   1.0000   1.0000   1.0000   1.0000
     1.0000   1.0000   1.0000   1.0000   1.0000   1.0000   1.0000   1.0000
     1.0000   1.0000   1.0000   1.0000   1.0000   1.0000   1.0000   1.0000
     1.0000   1.0000   1.0000   1.0000   1.0000   1.0000   1.0000   1.0000
     1.0000   1.0000   1.0000   1.0000   1.0000   1.0000   1.0000   1.0000
     1.0000   1.0000   1.0000   1.0000   1.0000   1.0000   1.0000   1.0000
     1.0000   1.0000   1.0000   1.0000   1.0000   1.0000   1.0000   1.0000
     1.0000   1.0000   1.0000   1.0000   1.0000   1.0000   1.0000   1.0000
     1.0000   1.0000   1.0000   1.0000   1.0000   1.0000   1.0000   1.0000
     1.0000   1.0000   1.0000   1.0000   1.0000   1.0000   1.0000   1.0000
     1.0000   1.0000   1.0000   1.0000   1.0000   1.0000   1.0000   1.0000
     1.0000   1.0000   1.0000   1.0000   1.0000   1.0000   1.0000   1.0000
     1.0000   1.0000   1.0000   1.0000   1.0000   1.0000   1.0000   1.0000
     1.0000   1.0000   1.0000   1.0000   1.0000   1.0000   1.0000   1.0000
     1.0000   1.0000   1.0000   1.0000   1.0000   1.0000   1.0000   1.0000
     1.0000   1.0000   1.0000   1.0000   1.0000   1.0000   1.0000   1.0000
     1.0000   1.0000   1.0000   1.0000   1.0000   1.0000   1.0000   1.0000
     1.0000   1.0000   1.0000   1.0000   1.0000   1.0000   1.0000   1.0000
     1.0000   1.0000   1.0000   1.0000   1.0000   1.0000   1.0000   1.0000
     1.0000   1.0000   1.0000   1.0000   1.0000   1.0000   1.0000   1.0000
     1.0000   1.0000   1.0000   1.0000   1.0000   1.0000   1.0000   1.0000
     1.0000   1.0000   1.0000   1.0000   1.0000   1.0000   1.0000   1.0000
     1.0000   1.0000   1.0000   1.0000   1.0000   1.0000   1.0000   1.0000
     1.0000   1.0000   1.0000   1.0000   1.0000   1.0000   1.0000   1.0000
     1.0000   1.0000   1.0000   1.0000   1.0000   1.0000   1.0000   1.0000
     1.0000   1.0000   1.0000   1.0000   1.0000   1.0000   1.0000   1.0000
     1.0000   1.0000   1.0000   1.0000   1.0000   1.0000   1.0000   1.0000
     1.0000   1.0000   1.0000   1.0000   1.0000   1.0000   1.0000   1.0000
     1.0000   1.0000   1.0000   1.0000   1.0000   1.0000   1.0000   1.0000
     1.0000   1.0000   1.0000   1.0000   1.0000   1.0000   1.0000   1.0000
     1.0000   1.0000   1.0000   1.0000   1.0000   1.0000   1.0000   1.0000
     1.0000   1.0000   1.0000   1.0000   1.0000   1.0000   1.0000   1.0000
     1.0000   1.0000   1.0000   1.0000   1.0000   1.0000   1.0000   1.0000
     1.0000   1.0000   1.0000   1.0000   1.0000   1.0000   1.0000   1.0000
     1.0000   1.0000   1.0000   1.0000   1.0000   1.0000   1.0000   1.0000
     0.0000   0.0000   0.0000   0.0000   0.0000   0.0000   0.0000   0.0000
     0.0000   0.0000   0.0000   0.0000   0.0000   0.0000   0.0000   0.0000
     0.0000   0.0000   0.0000   0.0000   0.0000   0.0000   0.0000   0.0000
     0.0000   0.0000   0.0000   0.0000   0.0000   0.0000   0.0000   0.0000
     0.0000   0.0000   0.0000   0.0000   0.0000   0.0000   0.0000   0.0000
     0.0000   0.0000   0.0000   0.0000   0.0000   0.0000   0.0000   0.0000
     0.0000   0.0000   0.0000   0.0000   0.0000   0.0000   0.0000   0.0000
     0.0000   0.0000

          k = 0.0000 0.0000 0.2500 (262315 PWs)   bands (ev):

    -7.2486  -6.9474  -6.6916  -6.6916  -6.6916  -6.6916  -6.5063  -6.5063
    -6.5063  -6.5063  -6.4706  -6.3694  -6.3694  -6.3694  -6.3694  -6.3500
    -6.3500  -6.3500  -6.3500  -6.2394  -6.2394  -6.2394  -6.2394  -6.0863
    -6.0490  -6.0490  -6.0490  -6.0490  -6.0274  -6.0274  -6.0231  -6.0231
    -0.4779  -0.4633  -0.4574  -0.4549  -0.4549  -0.4549  -0.4549  -0.4358
    -0.4358  -0.4211  -0.4049  -0.4049  -0.3269  -0.3269  -0.3133  -0.3133
    -0.3133  -0.3133  -0.3111  -0.3111  -0.2964  -0.2964  -0.2964  -0.2964
    -0.2919  -0.2919  -0.2919  -0.2919  -0.2909  -0.2909  -0.2909  -0.2909
    -0.2881  -0.2881  -0.2881  -0.2881  -0.2850  -0.2850  -0.2850  -0.2850
    -0.2827  -0.2827  -0.2827  -0.2827  -0.2691  -0.2691  -0.2691  -0.2691
    -0.2618  -0.2618  -0.2618  -0.2618  -0.2604  -0.2604  -0.2604  -0.2604
    -0.2296  -0.2296  -0.2296  -0.2296  -0.2260  -0.2260  -0.2260  -0.2260
    -0.1945  -0.1945  -0.1484  -0.1484  -0.1484  -0.1484  -0.1153  -0.1153
    -0.1103  -0.1103  -0.1103  -0.1103  -0.0790  -0.0790  -0.0724  -0.0724
    -0.0569  -0.0569  -0.0183  -0.0183  -0.0183  -0.0183  -0.0092  -0.0092
     0.0487   0.0487   0.0487   0.0487   0.0641   0.0641   0.0641   0.0641
     0.0657   0.0657   0.0657   0.0657   0.0683   0.0743   0.0829   0.0829
     0.0829   0.0829   0.0931   0.0931   0.0931   0.0931   0.0941   0.0941
     0.0941   0.0941   0.0963   0.1011   0.1011   0.1011   0.1011   0.1039
     0.1084   0.1084   0.1250   0.1262   0.1262   0.1262   0.1262   0.1393
     0.1393   0.1393   0.1393   0.1485   0.1485   0.1485   0.1485   0.1549
     0.1634   0.1634   0.1634   0.1634   0.1720   0.1720   0.1760   0.1995
     0.1995   0.1995   0.1995   0.2017   0.2017   0.2017   0.2017   0.2443
     0.3478   0.3478   0.4649   0.4649   0.4649   0.4649   0.4817   0.4817
     0.8007   0.8007   0.8007   0.8007   1.2960   1.2960   1.3059   1.3059
     1.3059   1.3059   1.3301   1.3301   1.5426   1.6254   1.6254   1.6254
     1.6254   1.6815   1.6815   1.6815   1.6815   2.3380   2.3380   2.3380
     2.3380   2.6480   2.9062   2.9062   2.9062   2.9062   3.0663   3.0663
     3.0663   3.0663   3.1608   3.1608   3.1608   3.1608   3.1986   3.1986
     3.2429   3.2429   3.5792   3.5792   3.5872   3.5872   3.5977   3.5977
     3.5977   3.5977   3.6933   3.6933   3.6933   3.6933   3.7369   3.7369
     3.7731   3.7731   3.7731   3.7731   4.0885   4.2658   4.2658   4.5295
     4.5295   4.5295   4.5295   4.6551   4.6551   4.6551   4.6551   4.7915
     4.7915   4.7915   4.7915   4.8178   4.8178   4.8178   4.8178   5.0065
     5.0065   5.0065   5.0065   5.0331   5.0331   5.0331   5.0331   5.0969
     5.0969   5.1094   5.1094   5.1094   5.1094   5.5586   5.8054   5.8054
     8.4478   9.3726   9.4530   9.4530   9.4530   9.4530   9.5333   9.5333
     9.9501  10.0005  10.0472  10.1889  10.1889  10.4605  10.5268  10.5268
    10.5268  10.5268  10.5336  10.5336  10.5336  10.5336  10.6642  10.6642
    10.6642  10.6642  10.7698  10.7698  10.7698  10.7698  10.8565  10.8565
    10.8565  10.8565  10.9822  11.0392  11.0392  11.4484  11.4484  11.4484
    11.4484  11.5130  11.5130  12.0394  12.0394  12.0394  12.0394  12.0643
    12.2154  12.2154  12.2154  12.2154  12.3885  12.3885  12.3885  12.4420
    12.4422  12.4422

     occupation numbers 
     1.0000   1.0000   1.0000   1.0000   1.0000   1.0000   1.0000   1.0000
     1.0000   1.0000   1.0000   1.0000   1.0000   1.0000   1.0000   1.0000
     1.0000   1.0000   1.0000   1.0000   1.0000   1.0000   1.0000   1.0000
     1.0000   1.0000   1.0000   1.0000   1.0000   1.0000   1.0000   1.0000
     1.0000   1.0000   1.0000   1.0000   1.0000   1.0000   1.0000   1.0000
     1.0000   1.0000   1.0000   1.0000   1.0000   1.0000   1.0000   1.0000
     1.0000   1.0000   1.0000   1.0000   1.0000   1.0000   1.0000   1.0000
     1.0000   1.0000   1.0000   1.0000   1.0000   1.0000   1.0000   1.0000
     1.0000   1.0000   1.0000   1.0000   1.0000   1.0000   1.0000   1.0000
     1.0000   1.0000   1.0000   1.0000   1.0000   1.0000   1.0000   1.0000
     1.0000   1.0000   1.0000   1.0000   1.0000   1.0000   1.0000   1.0000
     1.0000   1.0000   1.0000   1.0000   1.0000   1.0000   1.0000   1.0000
     1.0000   1.0000   1.0000   1.0000   1.0000   1.0000   1.0000   1.0000
     1.0000   1.0000   1.0000   1.0000   1.0000   1.0000   1.0000   1.0000
     1.0000   1.0000   1.0000   1.0000   1.0000   1.0000   1.0000   1.0000
     1.0000   1.0000   1.0000   1.0000   1.0000   1.0000   1.0000   1.0000
     1.0000   1.0000   1.0000   1.0000   1.0000   1.0000   1.0000   1.0000
     1.0000   1.0000   1.0000   1.0000   1.0000   1.0000   1.0000   1.0000
     1.0000   1.0000   1.0000   1.0000   1.0000   1.0000   1.0000   1.0000
     1.0000   1.0000   1.0000   1.0000   1.0000   1.0000   1.0000   1.0000
     1.0000   1.0000   1.0000   1.0000   1.0000   1.0000   1.0000   1.0000
     1.0000   1.0000   1.0000   1.0000   1.0000   1.0000   1.0000   1.0000
     1.0000   1.0000   1.0000   1.0000   1.0000   1.0000   1.0000   1.0000
     1.0000   1.0000   1.0000   1.0000   1.0000   1.0000   1.0000   1.0000
     1.0000   1.0000   1.0000   1.0000   1.0000   1.0000   1.0000   1.0000
     1.0000   1.0000   1.0000   1.0000   1.0000   1.0000   1.0000   1.0000
     1.0000   1.0000   1.0000   1.0000   1.0000   1.0000   1.0000   1.0000
     1.0000   1.0000   1.0000   1.0000   1.0000   1.0000   1.0000   1.0000
     1.0000   1.0000   1.0000   1.0000   1.0000   1.0000   1.0000   1.0000
     1.0000   1.0000   1.0000   1.0000   1.0000   1.0000   1.0000   1.0000
     1.0000   1.0000   1.0000   1.0000   1.0000   1.0000   1.0000   1.0000
     1.0000   1.0000   1.0000   1.0000   1.0000   1.0000   1.0000   1.0000
     1.0000   1.0000   1.0000   1.0000   1.0000   1.0000   1.0000   1.0000
     1.0000   1.0000   1.0000   1.0000   1.0000   1.0000   1.0000   1.0000
     1.0000   1.0000   1.0000   1.0000   1.0000   1.0000   1.0000   1.0000
     1.0000   1.0000   1.0000   1.0000   1.0000   1.0000   1.0000   1.0000
     0.0000   0.0000   0.0000   0.0000   0.0000   0.0000   0.0000   0.0000
     0.0000   0.0000   0.0000   0.0000   0.0000   0.0000   0.0000   0.0000
     0.0000   0.0000   0.0000   0.0000   0.0000   0.0000   0.0000   0.0000
     0.0000   0.0000   0.0000   0.0000   0.0000   0.0000   0.0000   0.0000
     0.0000   0.0000   0.0000   0.0000   0.0000   0.0000   0.0000   0.0000
     0.0000   0.0000   0.0000   0.0000   0.0000   0.0000   0.0000   0.0000
     0.0000   0.0000   0.0000   0.0000   0.0000   0.0000   0.0000   0.0000
     0.0000   0.0000

          k = 0.0000 0.0000-0.5000 (262232 PWs)   bands (ev):

    -7.1310  -7.1310  -6.6178  -6.6178  -6.6178  -6.6178  -6.6178  -6.6178
    -6.6178  -6.6178  -6.3598  -6.3598  -6.3598  -6.3598  -6.3598  -6.3598
    -6.3598  -6.3598  -6.2457  -6.2457  -6.1253  -6.1253  -6.1253  -6.1253
    -6.1253  -6.1253  -6.1253  -6.1253  -6.0253  -6.0253  -6.0253  -6.0253
    -0.4719  -0.4719  -0.4373  -0.4373  -0.3996  -0.3996  -0.3996  -0.3996
    -0.3996  -0.3996  -0.3996  -0.3996  -0.3752  -0.3752  -0.3752  -0.3752
    -0.3750  -0.3750  -0.3750  -0.3750  -0.2949  -0.2949  -0.2949  -0.2949
    -0.2949  -0.2949  -0.2949  -0.2949  -0.2814  -0.2814  -0.2814  -0.2814
    -0.2814  -0.2814  -0.2814  -0.2814  -0.2794  -0.2794  -0.2794  -0.2794
    -0.2794  -0.2794  -0.2794  -0.2794  -0.2763  -0.2763  -0.2763  -0.2763
    -0.2763  -0.2763  -0.2763  -0.2763  -0.2528  -0.2528  -0.2528  -0.2528
    -0.2528  -0.2528  -0.2528  -0.2528  -0.1922  -0.1922  -0.1922  -0.1922
    -0.1922  -0.1922  -0.1922  -0.1922  -0.1280  -0.1280  -0.1280  -0.1280
    -0.0960  -0.0960  -0.0960  -0.0960  -0.0423  -0.0423  -0.0423  -0.0423
    -0.0249  -0.0249  -0.0249  -0.0249  -0.0249  -0.0249  -0.0249  -0.0249
     0.0324   0.0324   0.0324   0.0324   0.0324   0.0324   0.0324   0.0324
     0.0774   0.0774   0.0774   0.0774   0.0774   0.0774   0.0774   0.0774
     0.0838   0.0838   0.0948   0.0948   0.0948   0.0948   0.0948   0.0948
     0.0948   0.0948   0.1103   0.1103   0.1103   0.1103   0.1103   0.1103
     0.1103   0.1103   0.1124   0.1124   0.1344   0.1344   0.1402   0.1402
     0.1402   0.1402   0.1402   0.1402   0.1403   0.1403   0.1495   0.1495
     0.1495   0.1495   0.1675   0.1675   0.1693   0.1693   0.1693   0.1693
     0.1693   0.1693   0.1694   0.1694   0.3337   0.3337   0.3337   0.3337
     0.3337   0.3337   0.3337   0.3337   0.4150   0.4150   0.4150   0.4150
     1.2183   1.2183   1.2183   1.2183   1.2183   1.2183   1.2183   1.2183
     1.3144   1.3144   1.3144   1.3144   1.4068   1.4068   1.4068   1.4068
     1.4068   1.4068   1.4068   1.4068   2.0268   2.0268   2.7678   2.7678
     2.7678   2.7678   2.7678   2.7678   2.7678   2.7678   2.8925   2.8925
     2.8925   2.8925   2.8925   2.8925   2.8925   2.8925   3.3836   3.3836
     3.3836   3.3836   3.4098   3.4098   3.4098   3.4098   3.9452   3.9452
     3.9452   3.9452   4.1438   4.1438   4.1438   4.1438   4.1438   4.1438
     4.1438   4.1438   4.1907   4.1907   4.1907   4.1907   4.1907   4.1907
     4.1907   4.1907   4.2882   4.2882   4.2882   4.2882   4.2882   4.2882
     4.2882   4.2882   4.8507   4.8507   5.0049   5.0049   5.0049   5.0049
     5.0049   5.0049   5.0049   5.0049   5.0197   5.0197   5.0197   5.0197
     5.0197   5.0197   5.0197   5.0197   5.5036   5.5036   5.5036   5.5036
     9.2343   9.2343   9.5950   9.5950   9.9870   9.9870   9.9870   9.9870
     9.9870   9.9870   9.9870   9.9870  10.1745  10.1745  10.1745  10.1745
    10.2415  10.2415  10.6899  10.6899  10.6899  10.6899  10.6899  10.6899
    10.6899  10.6899  10.7635  10.7635  10.7635  10.7635  11.1252  11.1252
    11.1252  11.1252  11.1252  11.1252  11.1252  11.1252  11.3039  11.3039
    11.3039  11.3039  11.3039  11.3039  11.3039  11.3039  11.5672  11.5672
    12.2208  12.2208  12.2208  12.2208  12.2208  12.2208  12.2209  12.2209
    12.4265  12.4266

     occupation numbers 
     1.0000   1.0000   1.0000   1.0000   1.0000   1.0000   1.0000   1.0000
     1.0000   1.0000   1.0000   1.0000   1.0000   1.0000   1.0000   1.0000
     1.0000   1.0000   1.0000   1.0000   1.0000   1.0000   1.0000   1.0000
     1.0000   1.0000   1.0000   1.0000   1.0000   1.0000   1.0000   1.0000
     1.0000   1.0000   1.0000   1.0000   1.0000   1.0000   1.0000   1.0000
     1.0000   1.0000   1.0000   1.0000   1.0000   1.0000   1.0000   1.0000
     1.0000   1.0000   1.0000   1.0000   1.0000   1.0000   1.0000   1.0000
     1.0000   1.0000   1.0000   1.0000   1.0000   1.0000   1.0000   1.0000
     1.0000   1.0000   1.0000   1.0000   1.0000   1.0000   1.0000   1.0000
     1.0000   1.0000   1.0000   1.0000   1.0000   1.0000   1.0000   1.0000
     1.0000   1.0000   1.0000   1.0000   1.0000   1.0000   1.0000   1.0000
     1.0000   1.0000   1.0000   1.0000   1.0000   1.0000   1.0000   1.0000
     1.0000   1.0000   1.0000   1.0000   1.0000   1.0000   1.0000   1.0000
     1.0000   1.0000   1.0000   1.0000   1.0000   1.0000   1.0000   1.0000
     1.0000   1.0000   1.0000   1.0000   1.0000   1.0000   1.0000   1.0000
     1.0000   1.0000   1.0000   1.0000   1.0000   1.0000   1.0000   1.0000
     1.0000   1.0000   1.0000   1.0000   1.0000   1.0000   1.0000   1.0000
     1.0000   1.0000   1.0000   1.0000   1.0000   1.0000   1.0000   1.0000
     1.0000   1.0000   1.0000   1.0000   1.0000   1.0000   1.0000   1.0000
     1.0000   1.0000   1.0000   1.0000   1.0000   1.0000   1.0000   1.0000
     1.0000   1.0000   1.0000   1.0000   1.0000   1.0000   1.0000   1.0000
     1.0000   1.0000   1.0000   1.0000   1.0000   1.0000   1.0000   1.0000
     1.0000   1.0000   1.0000   1.0000   1.0000   1.0000   1.0000   1.0000
     1.0000   1.0000   1.0000   1.0000   1.0000   1.0000   1.0000   1.0000
     1.0000   1.0000   1.0000   1.0000   1.0000   1.0000   1.0000   1.0000
     1.0000   1.0000   1.0000   1.0000   1.0000   1.0000   1.0000   1.0000
     1.0000   1.0000   1.0000   1.0000   1.0000   1.0000   1.0000   1.0000
     1.0000   1.0000   1.0000   1.0000   1.0000   1.0000   1.0000   1.0000
     1.0000   1.0000   1.0000   1.0000   1.0000   1.0000   1.0000   1.0000
     1.0000   1.0000   1.0000   1.0000   1.0000   1.0000   1.0000   1.0000
     1.0000   1.0000   1.0000   1.0000   1.0000   1.0000   1.0000   1.0000
     1.0000   1.0000   1.0000   1.0000   1.0000   1.0000   1.0000   1.0000
     1.0000   1.0000   1.0000   1.0000   1.0000   1.0000   1.0000   1.0000
     1.0000   1.0000   1.0000   1.0000   1.0000   1.0000   1.0000   1.0000
     1.0000   1.0000   1.0000   1.0000   1.0000   1.0000   1.0000   1.0000
     1.0000   1.0000   1.0000   1.0000   1.0000   1.0000   1.0000   1.0000
     0.0000   0.0000   0.0000   0.0000   0.0000   0.0000   0.0000   0.0000
     0.0000   0.0000   0.0000   0.0000   0.0000   0.0000   0.0000   0.0000
     0.0000   0.0000   0.0000   0.0000   0.0000   0.0000   0.0000   0.0000
     0.0000   0.0000   0.0000   0.0000   0.0000   0.0000   0.0000   0.0000
     0.0000   0.0000   0.0000   0.0000   0.0000   0.0000   0.0000   0.0000
     0.0000   0.0000   0.0000   0.0000   0.0000   0.0000   0.0000   0.0000
     0.0000   0.0000   0.0000   0.0000   0.0000   0.0000   0.0000   0.0000
     0.0000   0.0000

          k = 0.0000 0.2500 0.2500 (262324 PWs)   bands (ev):

    -7.2091  -6.9152  -6.9152  -6.6798  -6.6672  -6.6672  -6.4931  -6.4931
    -6.4931  -6.4931  -6.4526  -6.4526  -6.4051  -6.4051  -6.3265  -6.3265
    -6.3017  -6.3017  -6.2460  -6.2460  -6.2460  -6.2460  -6.1545  -6.0829
    -6.0829  -6.0730  -6.0730  -6.0614  -6.0614  -6.0389  -6.0389  -6.0285
    -0.4551  -0.4551  -0.4443  -0.4443  -0.4389  -0.4389  -0.4372  -0.4372
    -0.4187  -0.4155  -0.4022  -0.3957  -0.3420  -0.3273  -0.3273  -0.3244
    -0.3244  -0.3148  -0.3130  -0.3130  -0.3130  -0.3130  -0.3102  -0.3102
    -0.3083  -0.3083  -0.3039  -0.3039  -0.3030  -0.3028  -0.3028  -0.2988
    -0.2946  -0.2946  -0.2917  -0.2917  -0.2870  -0.2870  -0.2870  -0.2870
    -0.2840  -0.2840  -0.2840  -0.2840  -0.2820  -0.2820  -0.2742  -0.2742
    -0.2689  -0.2689  -0.2630  -0.2630  -0.2542  -0.2542  -0.2333  -0.2333
    -0.2333  -0.2333  -0.2146  -0.2146  -0.2146  -0.2146  -0.2052  -0.2052
    -0.1893  -0.1893  -0.1873  -0.1671  -0.1671  -0.1447  -0.1447  -0.1294
    -0.1294  -0.1217  -0.1217  -0.0924  -0.0924  -0.0778  -0.0737  -0.0737
    -0.0565  -0.0285  -0.0285  -0.0137  -0.0137  -0.0013  -0.0013  -0.0013
    -0.0013   0.0075   0.0075   0.0480   0.0510   0.0510   0.0718   0.0718
     0.0722   0.0722   0.0726   0.0726   0.0785   0.0816   0.0816   0.0850
     0.0851   0.0909   0.0909   0.0909   0.0909   0.0958   0.1033   0.1070
     0.1075   0.1075   0.1075   0.1075   0.1084   0.1084   0.1095   0.1095
     0.1157   0.1157   0.1241   0.1241   0.1293   0.1293   0.1331   0.1331
     0.1340   0.1340   0.1344   0.1384   0.1384   0.1470   0.1470   0.1470
     0.1470   0.1537   0.1537   0.1663   0.1685   0.1685   0.1702   0.1702
     0.2164   0.2164   0.2164   0.2164   0.2701   0.2701   0.2897   0.3352
     0.3352   0.3739   0.4062   0.4062   0.4464   0.4464   0.4757   0.4757
     0.6886   0.6886   1.1443   1.1443   1.2547   1.2547   1.2764   1.2764
     1.3205   1.3851   1.3851   1.3894   1.3894   1.3894   1.3894   1.3897
     1.5243   1.5243   1.9343   1.9343   2.0727   2.0727   2.0727   2.0727
     2.5357   2.5357   2.8101   2.8203   2.8683   2.8683   2.9506   2.9506
     2.9598   2.9598   3.0995   3.0995   3.2850   3.3668   3.3668   3.3668
     3.3668   3.4190   3.4190   3.5556   3.5556   3.6311   3.6311   3.6919
     3.6919   3.7063   3.7063   3.7763   3.7838   3.7838   3.8247   3.8247
     4.0624   4.0624   4.0624   4.0624   4.1346   4.1346   4.1963   4.3315
     4.3315   4.4978   4.4978   4.5245   4.6116   4.6116   4.6635   4.6635
     4.6817   4.6817   4.6817   4.6817   4.7157   4.7157   4.8857   4.8857
     4.9485   4.9485   4.9640   4.9640   4.9799   4.9799   5.0952   5.0952
     5.0952   5.0952   5.1554   5.2672   5.2672   5.4194   5.6878   5.8713
     8.7056   9.4780   9.4780   9.6113   9.6113   9.6126   9.8011   9.8011
    10.0411  10.0411  10.1963  10.1963  10.2530  10.2530  10.3659  10.3659
    10.4092  10.4368  10.4368  10.4368  10.4368  10.4960  10.5000  10.5998
    10.5998  10.7149  10.7149  10.7394  10.7394  10.7394  10.7394  11.0709
    11.0709  11.1209  11.1209  11.1662  11.1662  11.1920  11.1920  11.3928
    11.3928  11.5140  11.5140  11.7862  11.7862  11.9079  11.9079  11.9181
    11.9181  12.1758  12.1760  12.1760  12.1760  12.2901  12.2906  12.2906
    12.2906  12.3437

     occupation numbers 
     1.0000   1.0000   1.0000   1.0000   1.0000   1.0000   1.0000   1.0000
     1.0000   1.0000   1.0000   1.0000   1.0000   1.0000   1.0000   1.0000
     1.0000   1.0000   1.0000   1.0000   1.0000   1.0000   1.0000   1.0000
     1.0000   1.0000   1.0000   1.0000   1.0000   1.0000   1.0000   1.0000
     1.0000   1.0000   1.0000   1.0000   1.0000   1.0000   1.0000   1.0000
     1.0000   1.0000   1.0000   1.0000   1.0000   1.0000   1.0000   1.0000
     1.0000   1.0000   1.0000   1.0000   1.0000   1.0000   1.0000   1.0000
     1.0000   1.0000   1.0000   1.0000   1.0000   1.0000   1.0000   1.0000
     1.0000   1.0000   1.0000   1.0000   1.0000   1.0000   1.0000   1.0000
     1.0000   1.0000   1.0000   1.0000   1.0000   1.0000   1.0000   1.0000
     1.0000   1.0000   1.0000   1.0000   1.0000   1.0000   1.0000   1.0000
     1.0000   1.0000   1.0000   1.0000   1.0000   1.0000   1.0000   1.0000
     1.0000   1.0000   1.0000   1.0000   1.0000   1.0000   1.0000   1.0000
     1.0000   1.0000   1.0000   1.0000   1.0000   1.0000   1.0000   1.0000
     1.0000   1.0000   1.0000   1.0000   1.0000   1.0000   1.0000   1.0000
     1.0000   1.0000   1.0000   1.0000   1.0000   1.0000   1.0000   1.0000
     1.0000   1.0000   1.0000   1.0000   1.0000   1.0000   1.0000   1.0000
     1.0000   1.0000   1.0000   1.0000   1.0000   1.0000   1.0000   1.0000
     1.0000   1.0000   1.0000   1.0000   1.0000   1.0000   1.0000   1.0000
     1.0000   1.0000   1.0000   1.0000   1.0000   1.0000   1.0000   1.0000
     1.0000   1.0000   1.0000   1.0000   1.0000   1.0000   1.0000   1.0000
     1.0000   1.0000   1.0000   1.0000   1.0000   1.0000   1.0000   1.0000
     1.0000   1.0000   1.0000   1.0000   1.0000   1.0000   1.0000   1.0000
     1.0000   1.0000   1.0000   1.0000   1.0000   1.0000   1.0000   1.0000
     1.0000   1.0000   1.0000   1.0000   1.0000   1.0000   1.0000   1.0000
     1.0000   1.0000   1.0000   1.0000   1.0000   1.0000   1.0000   1.0000
     1.0000   1.0000   1.0000   1.0000   1.0000   1.0000   1.0000   1.0000
     1.0000   1.0000   1.0000   1.0000   1.0000   1.0000   1.0000   1.0000
     1.0000   1.0000   1.0000   1.0000   1.0000   1.0000   1.0000   1.0000
     1.0000   1.0000   1.0000   1.0000   1.0000   1.0000   1.0000   1.0000
     1.0000   1.0000   1.0000   1.0000   1.0000   1.0000   1.0000   1.0000
     1.0000   1.0000   1.0000   1.0000   1.0000   1.0000   1.0000   1.0000
     1.0000   1.0000   1.0000   1.0000   1.0000   1.0000   1.0000   1.0000
     1.0000   1.0000   1.0000   1.0000   1.0000   1.0000   1.0000   1.0000
     1.0000   1.0000   1.0000   1.0000   1.0000   1.0000   1.0000   1.0000
     1.0000   1.0000   1.0000   1.0000   1.0000   1.0000   1.0000   1.0000
     0.0000   0.0000   0.0000   0.0000   0.0000   0.0000   0.0000   0.0000
     0.0000   0.0000   0.0000   0.0000   0.0000   0.0000   0.0000   0.0000
     0.0000   0.0000   0.0000   0.0000   0.0000   0.0000   0.0000   0.0000
     0.0000   0.0000   0.0000   0.0000   0.0000   0.0000   0.0000   0.0000
     0.0000   0.0000   0.0000   0.0000   0.0000   0.0000   0.0000   0.0000
     0.0000   0.0000   0.0000   0.0000   0.0000   0.0000   0.0000   0.0000
     0.0000   0.0000   0.0000   0.0000   0.0000   0.0000   0.0000   0.0000
     0.0000   0.0000

          k = 0.0000 0.2500-0.5000 (262150 PWs)   bands (ev):

    -7.0943  -7.0943  -6.8223  -6.8223  -6.5976  -6.5976  -6.5976  -6.5976
    -6.4565  -6.4565  -6.4565  -6.4565  -6.4017  -6.4017  -6.2664  -6.2664
    -6.2664  -6.2664  -6.2359  -6.2359  -6.1691  -6.1691  -6.1420  -6.1420
    -6.1420  -6.1420  -6.0845  -6.0845  -6.0737  -6.0737  -6.0321  -6.0321
    -0.4471  -0.4471  -0.4289  -0.4289  -0.4043  -0.4043  -0.3899  -0.3899
    -0.3849  -0.3849  -0.3849  -0.3849  -0.3759  -0.3759  -0.3752  -0.3752
    -0.3685  -0.3685  -0.3648  -0.3648  -0.3263  -0.3263  -0.3168  -0.3168
    -0.3101  -0.3101  -0.3101  -0.3101  -0.3068  -0.3068  -0.3031  -0.3031
    -0.2912  -0.2912  -0.2912  -0.2912  -0.2858  -0.2858  -0.2858  -0.2858
    -0.2825  -0.2825  -0.2825  -0.2825  -0.2775  -0.2775  -0.2775  -0.2775
    -0.2522  -0.2522  -0.2522  -0.2522  -0.2518  -0.2518  -0.2518  -0.2518
    -0.2297  -0.2297  -0.2023  -0.2023  -0.2023  -0.2023  -0.2019  -0.2019
    -0.1705  -0.1705  -0.1566  -0.1566  -0.1507  -0.1507  -0.1507  -0.1507
    -0.1423  -0.1423  -0.1214  -0.1214  -0.1205  -0.1205  -0.1022  -0.1021
    -0.0547  -0.0547  -0.0452  -0.0452  -0.0354  -0.0354   0.0353   0.0353
     0.0362   0.0362   0.0362   0.0362   0.0408   0.0408   0.0408   0.0408
     0.0776   0.0776   0.0850   0.0850   0.0850   0.0850   0.0856   0.0856
     0.0999   0.0999   0.0999   0.0999   0.1051   0.1051   0.1102   0.1102
     0.1102   0.1102   0.1109   0.1109   0.1109   0.1110   0.1204   0.1204
     0.1204   0.1204   0.1250   0.1250   0.1263   0.1263   0.1385   0.1385
     0.1385   0.1385   0.1421   0.1421   0.1421   0.1421   0.1470   0.1471
     0.1512   0.1512   0.1514   0.1514   0.1540   0.1540   0.1655   0.1655
     0.2588   0.2588   0.2735   0.2735   0.2735   0.2735   0.3325   0.3326
     0.3541   0.3541   0.3541   0.3541   0.4192   0.4192   0.4318   0.4318
     0.9798   0.9798   0.9798   0.9798   1.2388   1.2388   1.2388   1.2388
     1.2745   1.2745   1.2951   1.2951   1.4691   1.4691   1.5935   1.5935
     1.5935   1.5935   1.6116   1.6116   1.9720   1.9720   2.2628   2.2628
     2.5217   2.5217   2.5217   2.5217   2.7369   2.7369   3.0098   3.0098
     3.1164   3.1164   3.1164   3.1164   3.1802   3.1802   3.3266   3.3266
     3.3770   3.3770   3.6027   3.6027   3.8006   3.8006   3.8094   3.8094
     3.8236   3.8236   3.9498   3.9498   3.9498   3.9498   3.9500   3.9500
     4.0523   4.0523   4.1856   4.1856   4.2167   4.2167   4.2167   4.2167
     4.4187   4.4187   4.4187   4.4187   4.4762   4.4762   4.5072   4.5072
     4.5770   4.5770   4.5770   4.5770   4.6252   4.6252   4.7590   4.7590
     4.7590   4.7590   4.9563   4.9563   4.9563   4.9563   5.0499   5.0499
     5.0499   5.0499   5.3777   5.3777   5.4595   5.4595   5.6704   5.6704
     9.3314   9.3314   9.8386   9.8386   9.8722   9.8722   9.8722   9.8722
    10.0023  10.0023  10.1687  10.1687  10.2571  10.2571  10.3270  10.3270
    10.3270  10.3270  10.3605  10.3605  10.3605  10.3605  10.4237  10.4237
    10.4461  10.4461  10.8061  10.8061  10.8585  10.8585  10.9477  10.9477
    11.0871  11.0871  11.0871  11.0871  11.1902  11.1902  11.3249  11.3249
    11.4970  11.4970  11.7037  11.7037  11.7037  11.7037  11.7308  11.7308
    11.7497  11.7497  11.9503  11.9503  11.9504  11.9504  12.1071  12.1072
    12.3725  12.3726

     occupation numbers 
     1.0000   1.0000   1.0000   1.0000   1.0000   1.0000   1.0000   1.0000
     1.0000   1.0000   1.0000   1.0000   1.0000   1.0000   1.0000   1.0000
     1.0000   1.0000   1.0000   1.0000   1.0000   1.0000   1.0000   1.0000
     1.0000   1.0000   1.0000   1.0000   1.0000   1.0000   1.0000   1.0000
     1.0000   1.0000   1.0000   1.0000   1.0000   1.0000   1.0000   1.0000
     1.0000   1.0000   1.0000   1.0000   1.0000   1.0000   1.0000   1.0000
     1.0000   1.0000   1.0000   1.0000   1.0000   1.0000   1.0000   1.0000
     1.0000   1.0000   1.0000   1.0000   1.0000   1.0000   1.0000   1.0000
     1.0000   1.0000   1.0000   1.0000   1.0000   1.0000   1.0000   1.0000
     1.0000   1.0000   1.0000   1.0000   1.0000   1.0000   1.0000   1.0000
     1.0000   1.0000   1.0000   1.0000   1.0000   1.0000   1.0000   1.0000
     1.0000   1.0000   1.0000   1.0000   1.0000   1.0000   1.0000   1.0000
     1.0000   1.0000   1.0000   1.0000   1.0000   1.0000   1.0000   1.0000
     1.0000   1.0000   1.0000   1.0000   1.0000   1.0000   1.0000   1.0000
     1.0000   1.0000   1.0000   1.0000   1.0000   1.0000   1.0000   1.0000
     1.0000   1.0000   1.0000   1.0000   1.0000   1.0000   1.0000   1.0000
     1.0000   1.0000   1.0000   1.0000   1.0000   1.0000   1.0000   1.0000
     1.0000   1.0000   1.0000   1.0000   1.0000   1.0000   1.0000   1.0000
     1.0000   1.0000   1.0000   1.0000   1.0000   1.0000   1.0000   1.0000
     1.0000   1.0000   1.0000   1.0000   1.0000   1.0000   1.0000   1.0000
     1.0000   1.0000   1.0000   1.0000   1.0000   1.0000   1.0000   1.0000
     1.0000   1.0000   1.0000   1.0000   1.0000   1.0000   1.0000   1.0000
     1.0000   1.0000   1.0000   1.0000   1.0000   1.0000   1.0000   1.0000
     1.0000   1.0000   1.0000   1.0000   1.0000   1.0000   1.0000   1.0000
     1.0000   1.0000   1.0000   1.0000   1.0000   1.0000   1.0000   1.0000
     1.0000   1.0000   1.0000   1.0000   1.0000   1.0000   1.0000   1.0000
     1.0000   1.0000   1.0000   1.0000   1.0000   1.0000   1.0000   1.0000
     1.0000   1.0000   1.0000   1.0000   1.0000   1.0000   1.0000   1.0000
     1.0000   1.0000   1.0000   1.0000   1.0000   1.0000   1.0000   1.0000
     1.0000   1.0000   1.0000   1.0000   1.0000   1.0000   1.0000   1.0000
     1.0000   1.0000   1.0000   1.0000   1.0000   1.0000   1.0000   1.0000
     1.0000   1.0000   1.0000   1.0000   1.0000   1.0000   1.0000   1.0000
     1.0000   1.0000   1.0000   1.0000   1.0000   1.0000   1.0000   1.0000
     1.0000   1.0000   1.0000   1.0000   1.0000   1.0000   1.0000   1.0000
     1.0000   1.0000   1.0000   1.0000   1.0000   1.0000   1.0000   1.0000
     1.0000   1.0000   1.0000   1.0000   1.0000   1.0000   1.0000   1.0000
     0.0000   0.0000   0.0000   0.0000   0.0000   0.0000   0.0000   0.0000
     0.0000   0.0000   0.0000   0.0000   0.0000   0.0000   0.0000   0.0000
     0.0000   0.0000   0.0000   0.0000   0.0000   0.0000   0.0000   0.0000
     0.0000   0.0000   0.0000   0.0000   0.0000   0.0000   0.0000   0.0000
     0.0000   0.0000   0.0000   0.0000   0.0000   0.0000   0.0000   0.0000
     0.0000   0.0000   0.0000   0.0000   0.0000   0.0000   0.0000   0.0000
     0.0000   0.0000   0.0000   0.0000   0.0000   0.0000   0.0000   0.0000
     0.0000   0.0000

          k = 0.0000-0.5000-0.5000 (262368 PWs)   bands (ev):

    -6.9876  -6.9876  -6.9876  -6.9876  -6.5406  -6.5406  -6.5406  -6.5406
    -6.5406  -6.5406  -6.5406  -6.5406  -6.2085  -6.2085  -6.2085  -6.2085
    -6.2085  -6.2085  -6.2085  -6.2085  -6.1906  -6.1906  -6.1906  -6.1906
    -6.1906  -6.1906  -6.1906  -6.1906  -6.0523  -6.0523  -6.0523  -6.0523
    -0.4113  -0.4113  -0.4113  -0.4113  -0.3803  -0.3803  -0.3803  -0.3803
    -0.3803  -0.3803  -0.3803  -0.3803  -0.3666  -0.3666  -0.3666  -0.3666
    -0.3494  -0.3494  -0.3494  -0.3494  -0.3471  -0.3470  -0.3470  -0.3470
    -0.3470  -0.3470  -0.3470  -0.3470  -0.3386  -0.3386  -0.3386  -0.3385
    -0.2862  -0.2862  -0.2862  -0.2862  -0.2862  -0.2862  -0.2862  -0.2862
    -0.2801  -0.2801  -0.2801  -0.2801  -0.2801  -0.2801  -0.2801  -0.2801
    -0.2288  -0.2288  -0.2288  -0.2288  -0.2288  -0.2288  -0.2288  -0.2288
    -0.2258  -0.2258  -0.2258  -0.2258  -0.2258  -0.2258  -0.2258  -0.2258
    -0.1736  -0.1736  -0.1736  -0.1736  -0.1736  -0.1736  -0.1736  -0.1736
    -0.1242  -0.1242  -0.1242  -0.1242  -0.0978  -0.0978  -0.0978  -0.0978
    -0.0978  -0.0978  -0.0978  -0.0978  -0.0072  -0.0072  -0.0072  -0.0072
     0.0420   0.0420   0.0420   0.0420   0.0420   0.0420   0.0420   0.0420
     0.0848   0.0848   0.0848   0.0848   0.1019   0.1020   0.1020   0.1020
     0.1020   0.1020   0.1020   0.1020   0.1131   0.1131   0.1131   0.1131
     0.1133   0.1133   0.1133   0.1133   0.1133   0.1133   0.1133   0.1133
     0.1353   0.1353   0.1353   0.1353   0.1353   0.1353   0.1353   0.1353
     0.1373   0.1373   0.1373   0.1374   0.1490   0.1490   0.1490   0.1490
     0.1490   0.1490   0.1490   0.1490   0.2008   0.2008   0.2008   0.2008
     0.2008   0.2008   0.2008   0.2008   0.3728   0.3728   0.3728   0.3728
     0.3728   0.3728   0.3728   0.3728   0.4537   0.4537   0.4537   0.4537
     0.9882   0.9882   0.9882   0.9882   0.9882   0.9882   0.9882   0.9882
     1.2562   1.2562   1.2562   1.2562   1.8203   1.8203   1.8203   1.8203
     1.8203   1.8203   1.8203   1.8203   2.0535   2.0535   2.0535   2.0535
     2.0535   2.0535   2.0535   2.0535   2.7694   2.7694   2.7694   2.7694
     3.5259   3.5259   3.5259   3.5259   3.5259   3.5259   3.5259   3.5259
     3.5476   3.5476   3.5476   3.5476   3.5476   3.5476   3.5476   3.5476
     3.9232   3.9232   3.9232   3.9232   3.9802   3.9802   3.9802   3.9802
     3.9802   3.9802   3.9802   3.9802   4.0857   4.0857   4.0857   4.0857
     4.4371   4.4371   4.4371   4.4371   4.4371   4.4371   4.4372   4.4372
     4.7718   4.7718   4.7718   4.7718   4.7718   4.7718   4.7718   4.7718
     4.8440   4.8440   4.8440   4.8440   4.8440   4.8440   4.8440   4.8440
     5.0506   5.0506   5.0506   5.0506   5.7131   5.7131   5.7131   5.7131
     9.6531   9.6531   9.6531   9.6531  10.0093  10.0093  10.0093  10.0093
    10.0093  10.0093  10.0093  10.0093  10.0270  10.0270  10.0270  10.0270
    10.4958  10.4958  10.4958  10.4958  10.4958  10.4958  10.4958  10.4958
    10.7859  10.7859  10.7859  10.7859  10.7859  10.7859  10.7859  10.7859
    10.9071  10.9071  10.9071  10.9071  10.9071  10.9071  10.9071  10.9071
    11.8521  11.8521  11.8521  11.8521  11.8521  11.8521  11.8521  11.8521
    11.8811  11.8811  11.8811  11.8811  11.9956  11.9956  11.9956  11.9956
    12.1812  12.1812

     occupation numbers 
     1.0000   1.0000   1.0000   1.0000   1.0000   1.0000   1.0000   1.0000
     1.0000   1.0000   1.0000   1.0000   1.0000   1.0000   1.0000   1.0000
     1.0000   1.0000   1.0000   1.0000   1.0000   1.0000   1.0000   1.0000
     1.0000   1.0000   1.0000   1.0000   1.0000   1.0000   1.0000   1.0000
     1.0000   1.0000   1.0000   1.0000   1.0000   1.0000   1.0000   1.0000
     1.0000   1.0000   1.0000   1.0000   1.0000   1.0000   1.0000   1.0000
     1.0000   1.0000   1.0000   1.0000   1.0000   1.0000   1.0000   1.0000
     1.0000   1.0000   1.0000   1.0000   1.0000   1.0000   1.0000   1.0000
     1.0000   1.0000   1.0000   1.0000   1.0000   1.0000   1.0000   1.0000
     1.0000   1.0000   1.0000   1.0000   1.0000   1.0000   1.0000   1.0000
     1.0000   1.0000   1.0000   1.0000   1.0000   1.0000   1.0000   1.0000
     1.0000   1.0000   1.0000   1.0000   1.0000   1.0000   1.0000   1.0000
     1.0000   1.0000   1.0000   1.0000   1.0000   1.0000   1.0000   1.0000
     1.0000   1.0000   1.0000   1.0000   1.0000   1.0000   1.0000   1.0000
     1.0000   1.0000   1.0000   1.0000   1.0000   1.0000   1.0000   1.0000
     1.0000   1.0000   1.0000   1.0000   1.0000   1.0000   1.0000   1.0000
     1.0000   1.0000   1.0000   1.0000   1.0000   1.0000   1.0000   1.0000
     1.0000   1.0000   1.0000   1.0000   1.0000   1.0000   1.0000   1.0000
     1.0000   1.0000   1.0000   1.0000   1.0000   1.0000   1.0000   1.0000
     1.0000   1.0000   1.0000   1.0000   1.0000   1.0000   1.0000   1.0000
     1.0000   1.0000   1.0000   1.0000   1.0000   1.0000   1.0000   1.0000
     1.0000   1.0000   1.0000   1.0000   1.0000   1.0000   1.0000   1.0000
     1.0000   1.0000   1.0000   1.0000   1.0000   1.0000   1.0000   1.0000
     1.0000   1.0000   1.0000   1.0000   1.0000   1.0000   1.0000   1.0000
     1.0000   1.0000   1.0000   1.0000   1.0000   1.0000   1.0000   1.0000
     1.0000   1.0000   1.0000   1.0000   1.0000   1.0000   1.0000   1.0000
     1.0000   1.0000   1.0000   1.0000   1.0000   1.0000   1.0000   1.0000
     1.0000   1.0000   1.0000   1.0000   1.0000   1.0000   1.0000   1.0000
     1.0000   1.0000   1.0000   1.0000   1.0000   1.0000   1.0000   1.0000
     1.0000   1.0000   1.0000   1.0000   1.0000   1.0000   1.0000   1.0000
     1.0000   1.0000   1.0000   1.0000   1.0000   1.0000   1.0000   1.0000
     1.0000   1.0000   1.0000   1.0000   1.0000   1.0000   1.0000   1.0000
     1.0000   1.0000   1.0000   1.0000   1.0000   1.0000   1.0000   1.0000
     1.0000   1.0000   1.0000   1.0000   1.0000   1.0000   1.0000   1.0000
     1.0000   1.0000   1.0000   1.0000   1.0000   1.0000   1.0000   1.0000
     1.0000   1.0000   1.0000   1.0000   1.0000   1.0000   1.0000   1.0000
     0.0000   0.0000   0.0000   0.0000   0.0000   0.0000   0.0000   0.0000
[...]
     1.0000   1.0000   1.0000   1.0000   1.0000   1.0000   1.0000   1.0000
     1.0000   1.0000   1.0000   1.0000   1.0000   1.0000   1.0000   1.0000
     1.0000   1.0000   1.0000   1.0000   1.0000   1.0000   1.0000   1.0000
     1.0000   1.0000   1.0000   1.0000   1.0000   1.0000   1.0000   1.0000
     1.0000   1.0000   1.0000   1.0000   1.0000   1.0000   1.0000   1.0000
     1.0000   1.0000   1.0000   1.0000   1.0000   1.0000   1.0000   1.0000
     1.0000   1.0000   1.0000   1.0000   1.0000   1.0000   1.0000   1.0000
     1.0000   1.0000   1.0000   1.0000   1.0000   1.0000   1.0000   1.0000
     1.0000   1.0000   1.0000   1.0000   1.0000   1.0000   1.0000   1.0000
     1.0000   1.0000   1.0000   1.0000   1.0000   1.0000   1.0000   1.0000
     1.0000   1.0000   1.0000   1.0000   1.0000   1.0000   1.0000   1.0000
     1.0000   1.0000   1.0000   1.0000   1.0000   1.0000   1.0000   1.0000
     1.0000   1.0000   1.0000   1.0000   1.0000   1.0000   1.0000   1.0000
     1.0000   1.0000   1.0000   1.0000   1.0000   1.0000   1.0000   1.0000
     1.0000   1.0000   1.0000   1.0000   1.0000   1.0000   1.0000   1.0000
     1.0000   1.0000   1.0000   1.0000   1.0000   1.0000   1.0000   1.0000
     1.0000   1.0000   1.0000   1.0000   1.0000   1.0000   1.0000   1.0000
     1.0000   1.0000   1.0000   1.0000   1.0000   1.0000   1.0000   1.0000
     1.0000   1.0000   1.0000   1.0000   1.0000   1.0000   1.0000   1.0000
     0.0000   0.0000   0.0000   0.0000   0.0000   0.0000   0.0000   0.0000
     0.0000   0.0000   0.0000   0.0000   0.0000   0.0000   0.0000   0.0000
     0.0000   0.0000   0.0000   0.0000   0.0000   0.0000   0.0000   0.0000
     0.0000   0.0000   0.0000   0.0000   0.0000   0.0000   0.0000   0.0000
     0.0000   0.0000   0.0000   0.0000   0.0000   0.0000   0.0000   0.0000
     0.0000   0.0000   0.0000   0.0000   0.0000   0.0000   0.0000   0.0000
     0.0000   0.0000   0.0000   0.0000   0.0000   0.0000   0.0000   0.0000
     0.0000   0.0000

          k = 0.2500-0.5000-0.5000 (262236 PWs)   bands (ev):

    -6.9550  -6.9550  -6.9550  -6.9550  -6.7164  -6.7164  -6.7164  -6.7164
    -6.3587  -6.3587  -6.3587  -6.3587  -6.2059  -6.2059  -6.2059  -6.2059
    -6.2059  -6.2059  -6.2059  -6.2059  -6.1933  -6.1933  -6.1933  -6.1933
    -6.1933  -6.1933  -6.1933  -6.1933  -6.0909  -6.0909  -6.0909  -6.0909
    -0.4013  -0.4013  -0.4013  -0.4013  -0.3677  -0.3677  -0.3677  -0.3677
    -0.3677  -0.3677  -0.3677  -0.3676  -0.3616  -0.3616  -0.3616  -0.3616
    -0.3537  -0.3537  -0.3537  -0.3537  -0.3494  -0.3494  -0.3494  -0.3494
    -0.3405  -0.3405  -0.3405  -0.3405  -0.3376  -0.3376  -0.3376  -0.3376
    -0.3189  -0.3189  -0.3189  -0.3189  -0.3070  -0.3070  -0.3070  -0.3070
    -0.3040  -0.3040  -0.3040  -0.3040  -0.3040  -0.3040  -0.3040  -0.3040
    -0.2322  -0.2322  -0.2322  -0.2322  -0.2089  -0.2089  -0.2089  -0.2089
    -0.2089  -0.2089  -0.2089  -0.2089  -0.1707  -0.1707  -0.1707  -0.1707
    -0.1707  -0.1707  -0.1707  -0.1707  -0.1407  -0.1407  -0.1407  -0.1407
    -0.1395  -0.1395  -0.1395  -0.1395  -0.0982  -0.0982  -0.0981  -0.0981
    -0.0981  -0.0981  -0.0981  -0.0981  -0.0241  -0.0241  -0.0241  -0.0241
    -0.0027  -0.0027  -0.0027  -0.0027  -0.0027  -0.0027  -0.0027  -0.0027
     0.0896   0.0896   0.0896   0.0897   0.0955   0.0955   0.0955   0.0955
     0.1101   0.1101   0.1101   0.1101   0.1195   0.1195   0.1195   0.1195
     0.1310   0.1310   0.1310   0.1310   0.1310   0.1310   0.1310   0.1310
     0.1409   0.1409   0.1409   0.1409   0.1450   0.1450   0.1450   0.1450
     0.1495   0.1495   0.1495   0.1495   0.1502   0.1502   0.1502   0.1502
     0.1502   0.1502   0.1502   0.1502   0.2170   0.2170   0.2170   0.2170
     0.2170   0.2170   0.2170   0.2170   0.3300   0.3300   0.3300   0.3300
     0.3300   0.3300   0.3300   0.3300   0.3971   0.3971   0.3971   0.3971
     1.1218   1.1218   1.1218   1.1218   1.1218   1.1218   1.1218   1.1218
     1.2798   1.2798   1.2798   1.2798   1.6757   1.6757   1.6757   1.6757
     1.6964   1.6964   1.6964   1.6964   1.6964   1.6964   1.6964   1.6964
     2.5268   2.5268   2.5268   2.5268   2.9803   2.9803   2.9803   2.9803
     3.4965   3.4965   3.4965   3.4965   3.4965   3.4965   3.4965   3.4965
     3.5271   3.5271   3.5271   3.5271   3.5271   3.5271   3.5271   3.5271
     3.6193   3.6193   3.6193   3.6193   4.1055   4.1055   4.1055   4.1055
     4.1055   4.1055   4.1055   4.1055   4.1342   4.1342   4.1342   4.1342
     4.1408   4.1408   4.1408   4.1408   4.4098   4.4098   4.4098   4.4098
     4.4098   4.4098   4.4098   4.4098   4.5441   4.5441   4.5441   4.5441
     5.1597   5.1597   5.1597   5.1597   5.2581   5.2581   5.2581   5.2581
     5.2657   5.2657   5.2657   5.2657   5.6413   5.6413   5.6413   5.6413
     9.5178   9.5178   9.5178   9.5178   9.6012   9.6012   9.6012   9.6012
    10.0894  10.0894  10.0894  10.0894  10.2723  10.2723  10.2723  10.2723
    10.2723  10.2723  10.2723  10.2723  10.2794  10.2794  10.2794  10.2794
    10.5116  10.5116  10.5116  10.5116  10.5116  10.5116  10.5116  10.5116
    11.3382  11.3382  11.3382  11.3382  11.3382  11.3382  11.3382  11.3382
    11.8890  11.8890  11.8890  11.8891  11.9362  11.9362  11.9362  11.9362
    12.0463  12.0463  12.0463  12.0463  12.0463  12.0463  12.0463  12.0464
    12.2821  12.2823

     occupation numbers 
     1.0000   1.0000   1.0000   1.0000   1.0000   1.0000   1.0000   1.0000
     1.0000   1.0000   1.0000   1.0000   1.0000   1.0000   1.0000   1.0000
     1.0000   1.0000   1.0000   1.0000   1.0000   1.0000   1.0000   1.0000
     1.0000   1.0000   1.0000   1.0000   1.0000   1.0000   1.0000   1.0000
     1.0000   1.0000   1.0000   1.0000   1.0000   1.0000   1.0000   1.0000
     1.0000   1.0000   1.0000   1.0000   1.0000   1.0000   1.0000   1.0000
     1.0000   1.0000   1.0000   1.0000   1.0000   1.0000   1.0000   1.0000
     1.0000   1.0000   1.0000   1.0000   1.0000   1.0000   1.0000   1.0000
     1.0000   1.0000   1.0000   1.0000   1.0000   1.0000   1.0000   1.0000
     1.0000   1.0000   1.0000   1.0000   1.0000   1.0000   1.0000   1.0000
     1.0000   1.0000   1.0000   1.0000   1.0000   1.0000   1.0000   1.0000
     1.0000   1.0000   1.0000   1.0000   1.0000   1.0000   1.0000   1.0000
     1.0000   1.0000   1.0000   1.0000   1.0000   1.0000   1.0000   1.0000
     1.0000   1.0000   1.0000   1.0000   1.0000   1.0000   1.0000   1.0000
     1.0000   1.0000   1.0000   1.0000   1.0000   1.0000   1.0000   1.0000
     1.0000   1.0000   1.0000   1.0000   1.0000   1.0000   1.0000   1.0000
     1.0000   1.0000   1.0000   1.0000   1.0000   1.0000   1.0000   1.0000
     1.0000   1.0000   1.0000   1.0000   1.0000   1.0000   1.0000   1.0000
     1.0000   1.0000   1.0000   1.0000   1.0000   1.0000   1.0000   1.0000
     1.0000   1.0000   1.0000   1.0000   1.0000   1.0000   1.0000   1.0000
     1.0000   1.0000   1.0000   1.0000   1.0000   1.0000   1.0000   1.0000
     1.0000   1.0000   1.0000   1.0000   1.0000   1.0000   1.0000   1.0000
     1.0000   1.0000   1.0000   1.0000   1.0000   1.0000   1.0000   1.0000
     1.0000   1.0000   1.0000   1.0000   1.0000   1.0000   1.0000   1.0000
     1.0000   1.0000   1.0000   1.0000   1.0000   1.0000   1.0000   1.0000
     1.0000   1.0000   1.0000   1.0000   1.0000   1.0000   1.0000   1.0000
     1.0000   1.0000   1.0000   1.0000   1.0000   1.0000   1.0000   1.0000
     1.0000   1.0000   1.0000   1.0000   1.0000   1.0000   1.0000   1.0000
     1.0000   1.0000   1.0000   1.0000   1.0000   1.0000   1.0000   1.0000
     1.0000   1.0000   1.0000   1.0000   1.0000   1.0000   1.0000   1.0000
     1.0000   1.0000   1.0000   1.0000   1.0000   1.0000   1.0000   1.0000
     1.0000   1.0000   1.0000   1.0000   1.0000   1.0000   1.0000   1.0000
     1.0000   1.0000   1.0000   1.0000   1.0000   1.0000   1.0000   1.0000
     1.0000   1.0000   1.0000   1.0000   1.0000   1.0000   1.0000   1.0000
     1.0000   1.0000   1.0000   1.0000   1.0000   1.0000   1.0000   1.0000
     1.0000   1.0000   1.0000   1.0000   1.0000   1.0000   1.0000   1.0000
     0.0000   0.0000   0.0000   0.0000   0.0000   0.0000   0.0000   0.0000
     0.0000   0.0000   0.0000   0.0000   0.0000   0.0000   0.0000   0.0000
     0.0000   0.0000   0.0000   0.0000   0.0000   0.0000   0.0000   0.0000
     0.0000   0.0000   0.0000   0.0000   0.0000   0.0000   0.0000   0.0000
     0.0000   0.0000   0.0000   0.0000   0.0000   0.0000   0.0000   0.0000
     0.0000   0.0000   0.0000   0.0000   0.0000   0.0000   0.0000   0.0000
     0.0000   0.0000   0.0000   0.0000   0.0000   0.0000   0.0000   0.0000
     0.0000   0.0000

          k =-0.5000-0.5000-0.5000 (262720 PWs)   bands (ev):

    -6.8608  -6.8608  -6.8608  -6.8608  -6.8608  -6.8608  -6.8608  -6.8608
    -6.1996  -6.1996  -6.1996  -6.1996  -6.1996  -6.1996  -6.1996  -6.1996
    -6.1996  -6.1996  -6.1996  -6.1996  -6.1996  -6.1996  -6.1996  -6.1996
    -6.1996  -6.1996  -6.1996  -6.1996  -6.1996  -6.1996  -6.1996  -6.1996
    -0.3727  -0.3727  -0.3727  -0.3727  -0.3727  -0.3727  -0.3727  -0.3727
    -0.3460  -0.3460  -0.3460  -0.3460  -0.3460  -0.3460  -0.3460  -0.3460
    -0.3460  -0.3460  -0.3460  -0.3460  -0.3460  -0.3460  -0.3460  -0.3460
    -0.3371  -0.3371  -0.3371  -0.3371  -0.3371  -0.3371  -0.3371  -0.3371
    -0.3371  -0.3371  -0.3371  -0.3371  -0.3371  -0.3371  -0.3371  -0.3371
    -0.3371  -0.3371  -0.3371  -0.3371  -0.3371  -0.3371  -0.3371  -0.3371
    -0.1818  -0.1818  -0.1818  -0.1818  -0.1818  -0.1818  -0.1818  -0.1818
    -0.1818  -0.1818  -0.1818  -0.1818  -0.1818  -0.1818  -0.1818  -0.1818
    -0.1818  -0.1818  -0.1818  -0.1818  -0.1818  -0.1818  -0.1818  -0.1818
    -0.0688  -0.0688  -0.0688  -0.0688  -0.0688  -0.0688  -0.0688  -0.0688
    -0.0688  -0.0688  -0.0688  -0.0688  -0.0688  -0.0688  -0.0688  -0.0688
    -0.0688  -0.0688  -0.0688  -0.0688  -0.0688  -0.0688  -0.0688  -0.0688
     0.1026   0.1026   0.1026   0.1026   0.1026   0.1026   0.1026   0.1026
     0.1026   0.1026   0.1026   0.1026   0.1026   0.1026   0.1026   0.1026
     0.1461   0.1461   0.1461   0.1461   0.1461   0.1461   0.1461   0.1461
     0.1461   0.1461   0.1461   0.1461   0.1461   0.1461   0.1461   0.1461
     0.1461   0.1461   0.1461   0.1461   0.1461   0.1461   0.1461   0.1461
     0.2638   0.2638   0.2638   0.2638   0.2638   0.2638   0.2638   0.2638
     0.2638   0.2638   0.2638   0.2638   0.2638   0.2638   0.2638   0.2638
     0.2638   0.2638   0.2638   0.2638   0.2638   0.2638   0.2638   0.2638
     1.4112   1.4112   1.4112   1.4112   1.4112   1.4112   1.4112   1.4112
     1.4112   1.4112   1.4112   1.4112   1.4112   1.4112   1.4112   1.4112
     1.4112   1.4112   1.4112   1.4112   1.4112   1.4112   1.4112   1.4112
     3.0705   3.0705   3.0705   3.0705   3.0705   3.0705   3.0705   3.0705
     3.4934   3.4934   3.4934   3.4934   3.4934   3.4934   3.4934   3.4934
     3.4934   3.4934   3.4934   3.4934   3.4934   3.4934   3.4934   3.4934
     3.4934   3.4934   3.4934   3.4934   3.4934   3.4934   3.4934   3.4934
     4.2999   4.2999   4.2999   4.2999   4.2999   4.2999   4.2999   4.2999
     4.2999   4.2999   4.2999   4.2999   4.2999   4.2999   4.2999   4.2999
     4.2999   4.2999   4.2999   4.2999   4.2999   4.2999   4.2999   4.2999
     5.4428   5.4428   5.4428   5.4428   5.4428   5.4428   5.4428   5.4428
     5.4428   5.4428   5.4428   5.4428   5.4428   5.4428   5.4428   5.4428
     9.4012   9.4012   9.4012   9.4012   9.4012   9.4012   9.4012   9.4012
    10.2332  10.2332  10.2332  10.2332  10.2332  10.2332  10.2332  10.2332
    10.2332  10.2332  10.2332  10.2332  10.2332  10.2332  10.2332  10.2332
    10.2332  10.2332  10.2332  10.2332  10.2332  10.2332  10.2332  10.2332
    11.8968  11.8968  11.8968  11.8968  11.8968  11.8968  11.8968  11.8968
    11.8968  11.8968  11.8968  11.8968  11.8968  11.8968  11.8968  11.8968
    11.8968  11.8968  11.8968  11.8968  11.8968  11.8968  11.8968  11.8968
    12.8522  12.8522

     occupation numbers 
     1.0000   1.0000   1.0000   1.0000   1.0000   1.0000   1.0000   1.0000
     1.0000   1.0000   1.0000   1.0000   1.0000   1.0000   1.0000   1.0000
     1.0000   1.0000   1.0000   1.0000   1.0000   1.0000   1.0000   1.0000
     1.0000   1.0000   1.0000   1.0000   1.0000   1.0000   1.0000   1.0000
     1.0000   1.0000   1.0000   1.0000   1.0000   1.0000   1.0000   1.0000
     1.0000   1.0000   1.0000   1.0000   1.0000   1.0000   1.0000   1.0000
     1.0000   1.0000   1.0000   1.0000   1.0000   1.0000   1.0000   1.0000
     1.0000   1.0000   1.0000   1.0000   1.0000   1.0000   1.0000   1.0000
     1.0000   1.0000   1.0000   1.0000   1.0000   1.0000   1.0000   1.0000
     1.0000   1.0000   1.0000   1.0000   1.0000   1.0000   1.0000   1.0000
     1.0000   1.0000   1.0000   1.0000   1.0000   1.0000   1.0000   1.0000
     1.0000   1.0000   1.0000   1.0000   1.0000   1.0000   1.0000   1.0000
     1.0000   1.0000   1.0000   1.0000   1.0000   1.0000   1.0000   1.0000
     1.0000   1.0000   1.0000   1.0000   1.0000   1.0000   1.0000   1.0000
     1.0000   1.0000   1.0000   1.0000   1.0000   1.0000   1.0000   1.0000
     1.0000   1.0000   1.0000   1.0000   1.0000   1.0000   1.0000   1.0000
     1.0000   1.0000   1.0000   1.0000   1.0000   1.0000   1.0000   1.0000
     1.0000   1.0000   1.0000   1.0000   1.0000   1.0000   1.0000   1.0000
     1.0000   1.0000   1.0000   1.0000   1.0000   1.0000   1.0000   1.0000
     1.0000   1.0000   1.0000   1.0000   1.0000   1.0000   1.0000   1.0000
     1.0000   1.0000   1.0000   1.0000   1.0000   1.0000   1.0000   1.0000
     1.0000   1.0000   1.0000   1.0000   1.0000   1.0000   1.0000   1.0000
     1.0000   1.0000   1.0000   1.0000   1.0000   1.0000   1.0000   1.0000
     1.0000   1.0000   1.0000   1.0000   1.0000   1.0000   1.0000   1.0000
     1.0000   1.0000   1.0000   1.0000   1.0000   1.0000   1.0000   1.0000
     1.0000   1.0000   1.0000   1.0000   1.0000   1.0000   1.0000   1.0000
     1.0000   1.0000   1.0000   1.0000   1.0000   1.0000   1.0000   1.0000
     1.0000   1.0000   1.0000   1.0000   1.0000   1.0000   1.0000   1.0000
     1.0000   1.0000   1.0000   1.0000   1.0000   1.0000   1.0000   1.0000
     1.0000   1.0000   1.0000   1.0000   1.0000   1.0000   1.0000   1.0000
     1.0000   1.0000   1.0000   1.0000   1.0000   1.0000   1.0000   1.0000
     1.0000   1.0000   1.0000   1.0000   1.0000   1.0000   1.0000   1.0000
     1.0000   1.0000   1.0000   1.0000   1.0000   1.0000   1.0000   1.0000
     1.0000   1.0000   1.0000   1.0000   1.0000   1.0000   1.0000   1.0000
     1.0000   1.0000   1.0000   1.0000   1.0000   1.0000   1.0000   1.0000
     1.0000   1.0000   1.0000   1.0000   1.0000   1.0000   1.0000   1.0000
     0.0000   0.0000   0.0000   0.0000   0.0000   0.0000   0.0000   0.0000
     0.0000   0.0000   0.0000   0.0000   0.0000   0.0000   0.0000   0.0000
     0.0000   0.0000   0.0000   0.0000   0.0000   0.0000   0.0000   0.0000
     0.0000   0.0000   0.0000   0.0000   0.0000   0.0000   0.0000   0.0000
     0.0000   0.0000   0.0000   0.0000   0.0000   0.0000   0.0000   0.0000
     0.0000   0.0000   0.0000   0.0000   0.0000   0.0000   0.0000   0.0000
     0.0000   0.0000   0.0000   0.0000   0.0000   0.0000   0.0000   0.0000
     0.0000   0.0000

     the Fermi energy is     7.8849 ev

!    total energy              =   -9924.36364033 Ry
     total all-electron energy =   -140500.304228 Ry
     estimated scf accuracy    <          8.7E-09 Ry
     smearing contrib. (-TS)   =      -0.00000000 Ry
     internal energy E=F+TS    =   -9924.36364033 Ry

     The total energy is F=E-TS. E is the sum of the following terms:
     one-electron contribution =   -2708.50954999 Ry
     hartree contribution      =    1945.03746975 Ry
     xc contribution           =   -1675.49055773 Ry
     ewald contribution        =   -2955.55059299 Ry
     one-center paw contrib.   =   -4529.85040937 Ry
      -> PAW hartree energy AE =     123.96377921 Ry
      -> PAW hartree energy PS =    -123.32415726 Ry
      -> PAW xc energy AE      =    -143.25708084 Ry
      -> PAW xc energy PS      =      47.19527524 Ry
      -> total E_H with PAW    =    1945.67709170 Ry
      -> total E_XC with PAW   =   -1771.55236333 Ry

     total magnetization       =     0.00 Bohr mag/cell
     absolute magnetization    =     0.00 Bohr mag/cell

     convergence has been achieved in  11 iterations
 
     init_run     :      5.05s CPU      5.92s WALL (       1 calls)
     electrons    :    136.47s CPU    138.79s WALL (       1 calls)

     Called by init_run:
     wfcinit      :      2.91s CPU      3.29s WALL (       1 calls)
     wfcinit:atom :      0.02s CPU      0.02s WALL (       2 calls)
     wfcinit:wfcr :      2.80s CPU      3.15s WALL (       2 calls)
     potinit      :      0.60s CPU      0.72s WALL (       1 calls)
     hinit0       :      0.32s CPU      0.45s WALL (       1 calls)

     Called by electrons:
     c_bands      :    123.45s CPU    125.22s WALL (      12 calls)
     sum_band     :     10.57s CPU     10.73s WALL (      12 calls)
     v_of_rho     :      0.93s CPU      1.00s WALL (      12 calls)
     v_h          :      0.04s CPU      0.04s WALL (      12 calls)
     v_xc         :      0.89s CPU      0.96s WALL (      12 calls)
     newd         :      0.31s CPU      0.35s WALL (      12 calls)
     PAW_pot      :      1.16s CPU      1.20s WALL (      12 calls)
     mix_rho      :      0.25s CPU      0.27s WALL (      12 calls)

     Called by c_bands:
     init_us_2    :      1.32s CPU      1.35s WALL (      50 calls)
     init_us_2:cp :      1.32s CPU      1.35s WALL (      50 calls)
     cegterg      :    101.59s CPU    103.03s WALL (      24 calls)

     Called by sum_band:
     sum_band:wei :      0.01s CPU      0.01s WALL (      12 calls)
     sum_band:loo :      9.41s CPU      9.51s WALL (      12 calls)
     sum_band:buf :      0.20s CPU      0.22s WALL (      24 calls)
     sum_band:ini :      0.66s CPU      0.66s WALL (      24 calls)
     sum_band:cal :      3.39s CPU      3.42s WALL (      24 calls)
     sum_band:bec :      0.10s CPU      0.10s WALL (      24 calls)
     addusdens    :      0.38s CPU      0.39s WALL (      12 calls)
                                        0.00s GPU  (      12 calls)
     addusd:skk   :      0.01s CPU      0.01s WALL (      24 calls)
                                        0.00s GPU  (      24 calls)

     Called by *egterg:
     cdiaghg      :     11.04s CPU     11.31s WALL (     156 calls)
     cegterg:over :      8.36s CPU      8.44s WALL (     134 calls)
     cegterg:upda :      7.65s CPU      7.72s WALL (     134 calls)
     cegterg:last :     12.39s CPU     12.47s WALL (      56 calls)
     cdiaghg:chol :      0.72s CPU      0.78s WALL (     156 calls)
     cdiaghg:inve :      1.08s CPU      1.09s WALL (     156 calls)
     cdiaghg:para :      1.70s CPU      1.72s WALL (     312 calls)
     h_psi        :     50.28s CPU     51.12s WALL (     160 calls)
     s_psi        :     11.00s CPU     11.07s WALL (     160 calls)
     g_psi        :      0.28s CPU      0.28s WALL (     134 calls)

     Called by h_psi:
     h_psi:calbec :     10.92s CPU     11.04s WALL (     160 calls)
     vloc_psi     :     27.78s CPU     28.09s WALL (     160 calls)
     add_vuspsi   :     11.10s CPU     11.26s WALL (     160 calls)

     General routines
     calbec       :     14.31s CPU     14.46s WALL (     184 calls)
     fft          :      0.80s CPU      1.01s WALL (     252 calls)
     ffts         :      0.14s CPU      0.15s WALL (      24 calls)
     fftw         :     30.54s CPU     30.87s WALL (   56284 calls)
 
     Parallel routines

     PAW routines
     PAW_pot      :      1.16s CPU      1.20s WALL (      12 calls)
     PAW_symme    :      0.08s CPU      0.08s WALL (      24 calls)
 
     PWSCF        :   2m21.95s CPU   2m27.47s WALL

 
   This run was terminated on:  22:27:21  26Jun2024            

=------------------------------------------------------------------------------=
   JOB DONE.
=------------------------------------------------------------------------------=
