
     Program PWSCF v.7.2 starts on  7Jul2024 at  1:25:55 

     This program is part of the open-source Quantum ESPRESSO suite
     for quantum simulation of materials; please cite
         "P. Giannozzi et al., J. Phys.:Condens. Matter 21 395502 (2009);
         "P. Giannozzi et al., J. Phys.:Condens. Matter 29 465901 (2017);
         "P. Giannozzi et al., J. Chem. Phys. 152 154105 (2020);
          URL http://www.quantum-espresso.org", 
     in publications or presentations arising from this work. More details at
     http://www.quantum-espresso.org/quote

     Parallel version (MPI), running on   784 processors

     MPI processes distributed on     7 nodes
     230267 MiB available memory on the printing compute node when the environment starts
 
     Reading input from 1.Fe_vac_in_ZnS.scf.qn2.unrlxd.in

     Current dimensions of program PWSCF are:
     Max number of different atomic species (ntypx) = 10
     Max number of k-points (npk) =  40000
     Max angular momentum in pseudopotentials (lmaxx) =  4
     file S.pbe-n-kjpaw_psl.1.0.0.UPF: wavefunction(s)  3S 3P renormalized
     file Zn.pbe-dnl-kjpaw_psl.1.0.0.UPF: wavefunction(s)  4S 3D renormalized
     file Fe.pbe-spn-kjpaw_psl.1.0.0.UPF: wavefunction(s)  3P 3D renormalized
 
     K-points division:     npool     =       7
     R & G space division:  proc/nbgrp/npool/nimage =     112
     Subspace diagonalization in iterative solution of the eigenvalue problem:
     one sub-group per band group will be used
     scalapack distributed-memory algorithm (size of sub-group:  3*  3 procs)

 
     Parallelization info
     --------------------
     sticks:   dense  smooth     PW     G-vecs:    dense   smooth      PW
     Min         180     180     46                19282    19282    2562
     Max         181     181     47                19291    19291    2573
     Sum       20217   20217   5249              2160009  2160009  287777
 
     Using Slab Decomposition
 


     bravais-lattice index     =            1
     lattice parameter (alat)  =      20.5686  a.u.
     unit-cell volume          =    8701.8437 (a.u.)^3
     number of atoms/cell      =           63
     number of atomic types    =            3
     number of electrons       =       576.00
     number of Kohn-Sham states=          346
     kinetic-energy cutoff     =     150.0000  Ry
     charge density cutoff     =     600.0000  Ry
     scf convergence threshold =      1.0E-08
     mixing beta               =       0.7000
     number of iterations used =            8  plain     mixing
     Exchange-correlation= SLA  PW   PBX  PBC
                           (   1   4   3   4   0   0   0)

     celldm(1)=  20.568554  celldm(2)=   0.000000  celldm(3)=   0.000000
     celldm(4)=   0.000000  celldm(5)=   0.000000  celldm(6)=   0.000000

     crystal axes: (cart. coord. in units of alat)
               a(1) = (   1.000000   0.000000   0.000000 )  
               a(2) = (   0.000000   1.000000   0.000000 )  
               a(3) = (   0.000000   0.000000   1.000000 )  

     reciprocal axes: (cart. coord. in units 2 pi/alat)
               b(1) = (  1.000000  0.000000  0.000000 )  
               b(2) = (  0.000000  1.000000  0.000000 )  
               b(3) = (  0.000000  0.000000  1.000000 )  


     PseudoPot. # 1 for S  read from file:
     /arf/home/amuhaymin/pseudo/S.pbe-n-kjpaw_psl.1.0.0.UPF
     MD5 check sum: fb45dfebcf3e72a4e1bd4a866ec2e262
     Pseudo is Projector augmented-wave + core cor, Zval =  6.0
     Generated using &quot;atomic&quot; code by A. Dal Corso  v.6.3
     Shape of augmentation charge: PSQ
     Using radial grid of 1151 points,  6 beta functions with: 
                l(1) =   0
                l(2) =   0
                l(3) =   1
                l(4) =   1
                l(5) =   2
                l(6) =   2
     Q(r) pseudized with 0 coefficients 


     PseudoPot. # 2 for Zn read from file:
     /arf/home/amuhaymin/pseudo/Zn.pbe-dnl-kjpaw_psl.1.0.0.UPF
     MD5 check sum: c608214d9520ac179f507641260889e3
     Pseudo is Projector augmented-wave + core cor, Zval = 12.0
     Generated using &quot;atomic&quot; code by A. Dal Corso  v.6.2.2
     Shape of augmentation charge: PSQ
     Using radial grid of 1201 points,  6 beta functions with: 
                l(1) =   0
                l(2) =   0
                l(3) =   1
                l(4) =   1
                l(5) =   2
                l(6) =   2
     Q(r) pseudized with 0 coefficients 


     PseudoPot. # 3 for Fe read from file:
     /arf/home/amuhaymin/pseudo/Fe.pbe-spn-kjpaw_psl.1.0.0.UPF
     MD5 check sum: fc81f059e5c5069939230b1155715ae8
     Pseudo is Projector augmented-wave + core cor, Zval = 16.0
     Generated using &quot;atomic&quot; code by A. Dal Corso  v.6.3
     Shape of augmentation charge: PSQ
     Using radial grid of 1191 points,  6 beta functions with: 
                l(1) =   0
                l(2) =   0
                l(3) =   1
                l(4) =   1
                l(5) =   2
                l(6) =   2
     Q(r) pseudized with 0 coefficients 


     atomic species   valence    mass     pseudopotential
        S              6.00    32.06500     S ( 1.00)
        Zn            12.00    65.38000     Zn( 1.00)
        Fe            16.00    63.54600     Fe( 1.00)

     Starting magnetic structure 
     atomic species   magnetization
        S            0.000
        Zn           0.000
        Fe           0.125

      6 Sym. Ops. (no inversion) found


                                    s                        frac. trans.

      isym =  1     identity                                     

 cryst.   s( 1) = (     1          0          0      )
                  (     0          1          0      )
                  (     0          0          1      )

 cart.    s( 1) = (  1.0000000  0.0000000  0.0000000 )
                  (  0.0000000  1.0000000  0.0000000 )
                  (  0.0000000  0.0000000  1.0000000 )


      isym =  2     120 deg rotation - cart. axis [-1,-1,-1]     

 cryst.   s( 2) = (     0          0          1      )
                  (     1          0          0      )
                  (     0          1          0      )

 cart.    s( 2) = (  0.0000000  1.0000000  0.0000000 )
                  (  0.0000000  0.0000000  1.0000000 )
                  (  1.0000000  0.0000000  0.0000000 )


      isym =  3     120 deg rotation - cart. axis [1,1,1]        

 cryst.   s( 3) = (     0          1          0      )
                  (     0          0          1      )
                  (     1          0          0      )

 cart.    s( 3) = (  0.0000000  0.0000000  1.0000000 )
                  (  1.0000000  0.0000000  0.0000000 )
                  (  0.0000000  1.0000000  0.0000000 )


      isym =  4     inv. 180 deg rotation - cart. axis [1,-1,0]  

 cryst.   s( 4) = (     0          1          0      )
                  (     1          0          0      )
                  (     0          0          1      )

 cart.    s( 4) = (  0.0000000  1.0000000  0.0000000 )
                  (  1.0000000  0.0000000  0.0000000 )
                  (  0.0000000  0.0000000  1.0000000 )


      isym =  5     inv. 180 deg rotation - cart. axis [-1,0,1]  

 cryst.   s( 5) = (     0          0          1      )
                  (     0          1          0      )
                  (     1          0          0      )

 cart.    s( 5) = (  0.0000000  0.0000000  1.0000000 )
                  (  0.0000000  1.0000000  0.0000000 )
                  (  1.0000000  0.0000000  0.0000000 )


      isym =  6     inv. 180 deg rotation - cart. axis [0,1,-1]  

 cryst.   s( 6) = (     1          0          0      )
                  (     0          0          1      )
                  (     0          1          0      )

 cart.    s( 6) = (  1.0000000  0.0000000  0.0000000 )
                  (  0.0000000  0.0000000  1.0000000 )
                  (  0.0000000  1.0000000  0.0000000 )


     point group C_3v (3m)  
     there are  3 classes
     the character table:

       E     2C3   3s_v 
A_1    1.00  1.00  1.00
A_2    1.00  1.00 -1.00
E      2.00 -1.00  0.00

     the symmetry operations in each class and the name of the first element:

     E        1
          identity                                               
     2C3      2    3
          120 deg rotation - cart. axis [-1,-1,-1]               
     3s_v     4    5    6
          inv. 180 deg rotation - cart. axis [1,-1,0]            

   Cartesian axes

     site n.     atom                  positions (alat units)
         1           Zn  tau(   1) = (   0.0000000   0.0000000   0.0000000  )
         2           Zn  tau(   2) = (   0.0000000   0.2500000   0.2500000  )
         3           Zn  tau(   3) = (   0.2500000   0.0000000   0.2500000  )
         4           Zn  tau(   4) = (   0.2500000   0.2500000   0.0000000  )
         5           S   tau(   5) = (   0.1250000   0.3750000   0.3750000  )
         6           S   tau(   6) = (   0.1250000   0.1250000   0.1250000  )
         7           S   tau(   7) = (   0.3750000   0.3750000   0.1250000  )
         8           S   tau(   8) = (   0.3750000   0.1250000   0.3750000  )
         9           Zn  tau(   9) = (   0.0000000   0.0000000   0.5000000  )
        10           Zn  tau(  10) = (   0.0000000   0.2500000   0.7500000  )
        11           Zn  tau(  11) = (   0.2500000   0.0000000   0.7500000  )
        12           Zn  tau(  12) = (   0.2500000   0.2500000   0.5000000  )
        13           S   tau(  13) = (   0.1250000   0.3750000   0.8750000  )
        14           S   tau(  14) = (   0.1250000   0.1250000   0.6250000  )
        15           S   tau(  15) = (   0.3750000   0.3750000   0.6250000  )
        16           S   tau(  16) = (   0.3750000   0.1250000   0.8750000  )
        17           Zn  tau(  17) = (   0.0000000   0.5000000   0.0000000  )
        18           Zn  tau(  18) = (   0.0000000   0.7500000   0.2500000  )
        19           Zn  tau(  19) = (   0.2500000   0.5000000   0.2500000  )
        20           Zn  tau(  20) = (   0.2500000   0.7500000   0.0000000  )
        21           S   tau(  21) = (   0.1250000   0.8750000   0.3750000  )
        22           S   tau(  22) = (   0.1250000   0.6250000   0.1250000  )
        23           S   tau(  23) = (   0.3750000   0.8750000   0.1250000  )
        24           S   tau(  24) = (   0.3750000   0.6250000   0.3750000  )
        25           Zn  tau(  25) = (   0.0000000   0.5000000   0.5000000  )
        26           Zn  tau(  26) = (   0.0000000   0.7500000   0.7500000  )
        27           Zn  tau(  27) = (   0.2500000   0.5000000   0.7500000  )
        28           Zn  tau(  28) = (   0.2500000   0.7500000   0.5000000  )
        29           S   tau(  29) = (   0.1250000   0.8750000   0.8750000  )
        30           S   tau(  30) = (   0.1250000   0.6250000   0.6250000  )
        31           S   tau(  31) = (   0.3750000   0.8750000   0.6250000  )
        32           S   tau(  32) = (   0.3750000   0.6250000   0.8750000  )
        33           Zn  tau(  33) = (   0.5000000   0.0000000   0.0000000  )
        34           Zn  tau(  34) = (   0.5000000   0.2500000   0.2500000  )
        35           Zn  tau(  35) = (   0.7500000   0.0000000   0.2500000  )
        36           Zn  tau(  36) = (   0.7500000   0.2500000   0.0000000  )
        37           S   tau(  37) = (   0.6250000   0.3750000   0.3750000  )
        38           S   tau(  38) = (   0.6250000   0.1250000   0.1250000  )
        39           S   tau(  39) = (   0.8750000   0.3750000   0.1250000  )
        40           S   tau(  40) = (   0.8750000   0.1250000   0.3750000  )
        41           Zn  tau(  41) = (   0.5000000   0.0000000   0.5000000  )
        42           Zn  tau(  42) = (   0.5000000   0.2500000   0.7500000  )
        43           Zn  tau(  43) = (   0.7500000   0.0000000   0.7500000  )
        44           Zn  tau(  44) = (   0.7500000   0.2500000   0.5000000  )
        45           S   tau(  45) = (   0.6250000   0.3750000   0.8750000  )
        46           S   tau(  46) = (   0.6250000   0.1250000   0.6250000  )
        47           S   tau(  47) = (   0.8750000   0.3750000   0.6250000  )
        48           S   tau(  48) = (   0.8750000   0.1250000   0.8750000  )
        49           Zn  tau(  49) = (   0.5000000   0.5000000   0.0000000  )
        50           Zn  tau(  50) = (   0.5000000   0.7500000   0.2500000  )
        51           Zn  tau(  51) = (   0.7500000   0.5000000   0.2500000  )
        52           Zn  tau(  52) = (   0.7500000   0.7500000   0.0000000  )
        53           S   tau(  53) = (   0.6250000   0.8750000   0.3750000  )
        54           S   tau(  54) = (   0.6250000   0.6250000   0.1250000  )
        55           S   tau(  55) = (   0.8750000   0.8750000   0.1250000  )
        56           S   tau(  56) = (   0.8750000   0.6250000   0.3750000  )
        57           Fe  tau(  57) = (   0.5000000   0.5000000   0.5000000  )
        58           Zn  tau(  58) = (   0.5000000   0.7500000   0.7500000  )
        59           Zn  tau(  59) = (   0.7500000   0.5000000   0.7500000  )
        60           Zn  tau(  60) = (   0.7500000   0.7500000   0.5000000  )
        61           S   tau(  61) = (   0.6250000   0.8750000   0.8750000  )
        62           S   tau(  62) = (   0.8750000   0.8750000   0.6250000  )
        63           S   tau(  63) = (   0.8750000   0.6250000   0.8750000  )

   Crystallographic axes

     site n.     atom                  positions (cryst. coord.)
         1           Zn  tau(   1) = (  0.0000000  0.0000000  0.0000000  )
         2           Zn  tau(   2) = (  0.0000000  0.2500000  0.2500000  )
         3           Zn  tau(   3) = (  0.2500000  0.0000000  0.2500000  )
         4           Zn  tau(   4) = (  0.2500000  0.2500000  0.0000000  )
         5           S   tau(   5) = (  0.1250000  0.3750000  0.3750000  )
         6           S   tau(   6) = (  0.1250000  0.1250000  0.1250000  )
         7           S   tau(   7) = (  0.3750000  0.3750000  0.1250000  )
         8           S   tau(   8) = (  0.3750000  0.1250000  0.3750000  )
         9           Zn  tau(   9) = (  0.0000000  0.0000000  0.5000000  )
        10           Zn  tau(  10) = (  0.0000000  0.2500000  0.7500000  )
        11           Zn  tau(  11) = (  0.2500000  0.0000000  0.7500000  )
        12           Zn  tau(  12) = (  0.2500000  0.2500000  0.5000000  )
        13           S   tau(  13) = (  0.1250000  0.3750000  0.8750000  )
        14           S   tau(  14) = (  0.1250000  0.1250000  0.6250000  )
        15           S   tau(  15) = (  0.3750000  0.3750000  0.6250000  )
        16           S   tau(  16) = (  0.3750000  0.1250000  0.8750000  )
        17           Zn  tau(  17) = (  0.0000000  0.5000000  0.0000000  )
        18           Zn  tau(  18) = (  0.0000000  0.7500000  0.2500000  )
        19           Zn  tau(  19) = (  0.2500000  0.5000000  0.2500000  )
        20           Zn  tau(  20) = (  0.2500000  0.7500000  0.0000000  )
        21           S   tau(  21) = (  0.1250000  0.8750000  0.3750000  )
        22           S   tau(  22) = (  0.1250000  0.6250000  0.1250000  )
        23           S   tau(  23) = (  0.3750000  0.8750000  0.1250000  )
        24           S   tau(  24) = (  0.3750000  0.6250000  0.3750000  )
        25           Zn  tau(  25) = (  0.0000000  0.5000000  0.5000000  )
        26           Zn  tau(  26) = (  0.0000000  0.7500000  0.7500000  )
        27           Zn  tau(  27) = (  0.2500000  0.5000000  0.7500000  )
        28           Zn  tau(  28) = (  0.2500000  0.7500000  0.5000000  )
        29           S   tau(  29) = (  0.1250000  0.8750000  0.8750000  )
        30           S   tau(  30) = (  0.1250000  0.6250000  0.6250000  )
        31           S   tau(  31) = (  0.3750000  0.8750000  0.6250000  )
        32           S   tau(  32) = (  0.3750000  0.6250000  0.8750000  )
        33           Zn  tau(  33) = (  0.5000000  0.0000000  0.0000000  )
        34           Zn  tau(  34) = (  0.5000000  0.2500000  0.2500000  )
        35           Zn  tau(  35) = (  0.7500000  0.0000000  0.2500000  )
        36           Zn  tau(  36) = (  0.7500000  0.2500000  0.0000000  )
        37           S   tau(  37) = (  0.6250000  0.3750000  0.3750000  )
        38           S   tau(  38) = (  0.6250000  0.1250000  0.1250000  )
        39           S   tau(  39) = (  0.8750000  0.3750000  0.1250000  )
        40           S   tau(  40) = (  0.8750000  0.1250000  0.3750000  )
        41           Zn  tau(  41) = (  0.5000000  0.0000000  0.5000000  )
        42           Zn  tau(  42) = (  0.5000000  0.2500000  0.7500000  )
        43           Zn  tau(  43) = (  0.7500000  0.0000000  0.7500000  )
        44           Zn  tau(  44) = (  0.7500000  0.2500000  0.5000000  )
        45           S   tau(  45) = (  0.6250000  0.3750000  0.8750000  )
        46           S   tau(  46) = (  0.6250000  0.1250000  0.6250000  )
        47           S   tau(  47) = (  0.8750000  0.3750000  0.6250000  )
        48           S   tau(  48) = (  0.8750000  0.1250000  0.8750000  )
        49           Zn  tau(  49) = (  0.5000000  0.5000000  0.0000000  )
        50           Zn  tau(  50) = (  0.5000000  0.7500000  0.2500000  )
        51           Zn  tau(  51) = (  0.7500000  0.5000000  0.2500000  )
        52           Zn  tau(  52) = (  0.7500000  0.7500000  0.0000000  )
        53           S   tau(  53) = (  0.6250000  0.8750000  0.3750000  )
        54           S   tau(  54) = (  0.6250000  0.6250000  0.1250000  )
        55           S   tau(  55) = (  0.8750000  0.8750000  0.1250000  )
        56           S   tau(  56) = (  0.8750000  0.6250000  0.3750000  )
        57           Fe  tau(  57) = (  0.5000000  0.5000000  0.5000000  )
        58           Zn  tau(  58) = (  0.5000000  0.7500000  0.7500000  )
        59           Zn  tau(  59) = (  0.7500000  0.5000000  0.7500000  )
        60           Zn  tau(  60) = (  0.7500000  0.7500000  0.5000000  )
        61           S   tau(  61) = (  0.6250000  0.8750000  0.8750000  )
        62           S   tau(  62) = (  0.8750000  0.8750000  0.6250000  )
        63           S   tau(  63) = (  0.8750000  0.6250000  0.8750000  )

     number of k points=    13  Gaussian smearing, width (Ry)=  0.0010
                       cart. coord. in units 2pi/alat
        k(    1) = (   0.0000000   0.0000000   0.0000000), wk =   0.0156250
        k(    2) = (   0.0000000   0.0000000   0.2500000), wk =   0.0937500
        k(    3) = (   0.0000000   0.0000000  -0.5000000), wk =   0.0468750
        k(    4) = (   0.0000000   0.2500000   0.2500000), wk =   0.0937500
        k(    5) = (   0.0000000   0.2500000  -0.5000000), wk =   0.1875000
        k(    6) = (   0.0000000  -0.5000000  -0.5000000), wk =   0.0468750
        k(    7) = (   0.2500000   0.2500000   0.2500000), wk =   0.0312500
        k(    8) = (   0.2500000   0.2500000  -0.5000000), wk =   0.0937500
        k(    9) = (   0.2500000  -0.5000000  -0.5000000), wk =   0.0937500
        k(   10) = (  -0.5000000  -0.5000000  -0.5000000), wk =   0.0156250
        k(   11) = (  -0.2500000   0.0000000   0.2500000), wk =   0.0937500
        k(   12) = (   0.2500000  -0.2500000   0.2500000), wk =   0.0937500
        k(   13) = (   0.2500000  -0.2500000  -0.5000000), wk =   0.0937500

                       cryst. coord.
        k(    1) = (   0.0000000   0.0000000   0.0000000), wk =   0.0156250
        k(    2) = (   0.0000000   0.0000000   0.2500000), wk =   0.0937500
        k(    3) = (   0.0000000   0.0000000  -0.5000000), wk =   0.0468750
        k(    4) = (   0.0000000   0.2500000   0.2500000), wk =   0.0937500
        k(    5) = (   0.0000000   0.2500000  -0.5000000), wk =   0.1875000
        k(    6) = (   0.0000000  -0.5000000  -0.5000000), wk =   0.0468750
        k(    7) = (   0.2500000   0.2500000   0.2500000), wk =   0.0312500
        k(    8) = (   0.2500000   0.2500000  -0.5000000), wk =   0.0937500
        k(    9) = (   0.2500000  -0.5000000  -0.5000000), wk =   0.0937500
        k(   10) = (  -0.5000000  -0.5000000  -0.5000000), wk =   0.0156250
        k(   11) = (  -0.2500000   0.0000000   0.2500000), wk =   0.0937500
        k(   12) = (   0.2500000  -0.2500000   0.2500000), wk =   0.0937500
        k(   13) = (   0.2500000  -0.2500000  -0.5000000), wk =   0.0937500

     Dense  grid:  2160009 G-vectors     FFT dimensions: ( 162, 162, 162)

     Dynamical RAM for                 wfc:      12.72 MB

     Dynamical RAM for     wfc (w. buffer):      63.62 MB

     Dynamical RAM for           str. fact:       0.88 MB

     Dynamical RAM for           local pot:       0.00 MB

     Dynamical RAM for          nlocal pot:      41.70 MB

     Dynamical RAM for                qrad:       5.90 MB

     Dynamical RAM for          rho,v,vnew:       4.17 MB

     Dynamical RAM for               rhoin:       1.39 MB

     Dynamical RAM for            rho*nmix:       9.42 MB

     Dynamical RAM for           G-vectors:       1.25 MB

     Dynamical RAM for          h,s,v(r/c):       2.42 MB

     Dynamical RAM for          <psi|beta>:       5.99 MB

     Dynamical RAM for                 psi:      25.45 MB

     Dynamical RAM for                hpsi:      25.45 MB

     Dynamical RAM for                spsi:      25.45 MB

     Dynamical RAM for      wfcinit/wfcrot:      34.28 MB

     Dynamical RAM for           addusdens:       9.67 MB

     Estimated static dynamical RAM per process >     122.49 MB

     Estimated max dynamical RAM per process >     216.65 MB

     Estimated total dynamical RAM >     159.70 GB
     Generating pointlists ...
     new r_m :   0.0893 (alat units)  1.8370 (a.u.) for type    1
     new r_m :   0.0893 (alat units)  1.8370 (a.u.) for type    2
     new r_m :   0.0893 (alat units)  1.8370 (a.u.) for type    3

     Initial potential from superposition of free atoms

     starting charge     573.8831, renormalised to     576.0000
     Starting wfcs are  413 randomized atomic wfcs
     Checking if some PAW data can be deallocated... 
       PAW data deallocated on  400 nodes for type:  1
       PAW data deallocated on  396 nodes for type:  2
       PAW data deallocated on  772 nodes for type:  3

     total cpu time spent up to now is       10.6 secs

     Self-consistent Calculation

     iteration #  1     ecut=   150.00 Ry     beta= 0.70
     Davidson diagonalization with overlap

---- Real-time Memory Report at c_bands before calling an iterative solver
          1317 MiB given to the printing process from OS
             0 MiB allocation reported by mallinfo(arena+hblkhd)
        203685 MiB available memory on the node where the printing process lives
------------------
     ethr =  1.00E-02,  avg # of iterations =  4.4

     total cpu time spent up to now is       29.7 secs

     total energy              =   -9935.34349281 Ry
     estimated scf accuracy    <       8.71240219 Ry

     total magnetization       =     0.02 Bohr mag/cell
     absolute magnetization    =     0.64 Bohr mag/cell

     iteration #  2     ecut=   150.00 Ry     beta= 0.70
     Davidson diagonalization with overlap

---- Real-time Memory Report at c_bands before calling an iterative solver
          1438 MiB given to the printing process from OS
             0 MiB allocation reported by mallinfo(arena+hblkhd)
        200617 MiB available memory on the node where the printing process lives
------------------
     ethr =  1.51E-03,  avg # of iterations =  8.3

     total cpu time spent up to now is       55.1 secs

     total energy              =   -9937.83817599 Ry
     estimated scf accuracy    <     108.37102415 Ry

     total magnetization       =    -0.01 Bohr mag/cell
     absolute magnetization    =     0.19 Bohr mag/cell

     iteration #  3     ecut=   150.00 Ry     beta= 0.70
     Davidson diagonalization with overlap

---- Real-time Memory Report at c_bands before calling an iterative solver
          1472 MiB given to the printing process from OS
             0 MiB allocation reported by mallinfo(arena+hblkhd)
        200197 MiB available memory on the node where the printing process lives
------------------
     ethr =  1.51E-03,  avg # of iterations =  5.2

     total cpu time spent up to now is       78.3 secs

     total energy              =   -9941.29151528 Ry
     estimated scf accuracy    <      34.13598736 Ry

     total magnetization       =    -0.01 Bohr mag/cell
     absolute magnetization    =     0.13 Bohr mag/cell

     iteration #  4     ecut=   150.00 Ry     beta= 0.70
     Davidson diagonalization with overlap

---- Real-time Memory Report at c_bands before calling an iterative solver
          1488 MiB given to the printing process from OS
             0 MiB allocation reported by mallinfo(arena+hblkhd)
        200010 MiB available memory on the node where the printing process lives
------------------
     ethr =  1.51E-03,  avg # of iterations =  2.7

     total cpu time spent up to now is       95.9 secs

     total energy              =   -9939.79981915 Ry
     estimated scf accuracy    <      27.13073536 Ry

     total magnetization       =     0.07 Bohr mag/cell
     absolute magnetization    =     0.16 Bohr mag/cell

     iteration #  5     ecut=   150.00 Ry     beta= 0.70
     Davidson diagonalization with overlap

---- Real-time Memory Report at c_bands before calling an iterative solver
          1501 MiB given to the printing process from OS
             0 MiB allocation reported by mallinfo(arena+hblkhd)
        199772 MiB available memory on the node where the printing process lives
------------------
     ethr =  1.51E-03,  avg # of iterations =  9.5

     total cpu time spent up to now is      117.6 secs

     total energy              =   -9941.85275570 Ry
     estimated scf accuracy    <       8.10470454 Ry

     total magnetization       =     0.00 Bohr mag/cell
     absolute magnetization    =     0.22 Bohr mag/cell

     iteration #  6     ecut=   150.00 Ry     beta= 0.70
     Davidson diagonalization with overlap

---- Real-time Memory Report at c_bands before calling an iterative solver
          1513 MiB given to the printing process from OS
             0 MiB allocation reported by mallinfo(arena+hblkhd)
        199562 MiB available memory on the node where the printing process lives
------------------
     ethr =  1.41E-03,  avg # of iterations =  2.0

     total cpu time spent up to now is      133.4 secs

     total energy              =   -9941.97108349 Ry
     estimated scf accuracy    <       0.87783853 Ry

     total magnetization       =     2.00 Bohr mag/cell
     absolute magnetization    =     2.02 Bohr mag/cell

     iteration #  7     ecut=   150.00 Ry     beta= 0.70
     Davidson diagonalization with overlap

---- Real-time Memory Report at c_bands before calling an iterative solver
          1520 MiB given to the printing process from OS
             0 MiB allocation reported by mallinfo(arena+hblkhd)
        199383 MiB available memory on the node where the printing process lives
------------------
     ethr =  1.52E-04,  avg # of iterations =  5.2

     total cpu time spent up to now is      151.4 secs

     total energy              =   -9942.04264069 Ry
     estimated scf accuracy    <       0.24996337 Ry

     total magnetization       =     2.44 Bohr mag/cell
     absolute magnetization    =     2.52 Bohr mag/cell

     iteration #  8     ecut=   150.00 Ry     beta= 0.70
     Davidson diagonalization with overlap

---- Real-time Memory Report at c_bands before calling an iterative solver
          1529 MiB given to the printing process from OS
             0 MiB allocation reported by mallinfo(arena+hblkhd)
        199189 MiB available memory on the node where the printing process lives
------------------
     ethr =  4.34E-05,  avg # of iterations =  5.8

     total cpu time spent up to now is      170.8 secs

     total energy              =   -9942.03917325 Ry
     estimated scf accuracy    <       0.67720913 Ry

     total magnetization       =     2.88 Bohr mag/cell
     absolute magnetization    =     3.05 Bohr mag/cell

     iteration #  9     ecut=   150.00 Ry     beta= 0.70
     Davidson diagonalization with overlap

---- Real-time Memory Report at c_bands before calling an iterative solver
          1538 MiB given to the printing process from OS
             0 MiB allocation reported by mallinfo(arena+hblkhd)
        198962 MiB available memory on the node where the printing process lives
------------------
     ethr =  4.34E-05,  avg # of iterations =  2.0

     total cpu time spent up to now is      186.7 secs

     total energy              =   -9942.07046273 Ry
     estimated scf accuracy    <       0.10743320 Ry

     total magnetization       =     2.82 Bohr mag/cell
     absolute magnetization    =     2.95 Bohr mag/cell

     iteration # 10     ecut=   150.00 Ry     beta= 0.70
     Davidson diagonalization with overlap

---- Real-time Memory Report at c_bands before calling an iterative solver
          1544 MiB given to the printing process from OS
             0 MiB allocation reported by mallinfo(arena+hblkhd)
        198777 MiB available memory on the node where the printing process lives
------------------
     ethr =  1.87E-05,  avg # of iterations =  7.6

     negative rho (up, down):  0.000E+00 2.545E-03

     total cpu time spent up to now is      206.3 secs

     total energy              =   -9942.06598682 Ry
     estimated scf accuracy    <       0.08188061 Ry

     total magnetization       =     2.44 Bohr mag/cell
     absolute magnetization    =     2.90 Bohr mag/cell

     iteration # 11     ecut=   150.00 Ry     beta= 0.70
     Davidson diagonalization with overlap

---- Real-time Memory Report at c_bands before calling an iterative solver
          1558 MiB given to the printing process from OS
             0 MiB allocation reported by mallinfo(arena+hblkhd)
        198565 MiB available memory on the node where the printing process lives
------------------
     ethr =  1.42E-05,  avg # of iterations = 11.5

     negative rho (up, down):  0.000E+00 8.571E-04

     total cpu time spent up to now is      233.2 secs

     total energy              =   -9942.09109082 Ry
     estimated scf accuracy    <       0.04346750 Ry

     total magnetization       =     3.02 Bohr mag/cell
     absolute magnetization    =     3.34 Bohr mag/cell

     iteration # 12     ecut=   150.00 Ry     beta= 0.70
     Davidson diagonalization with overlap

---- Real-time Memory Report at c_bands before calling an iterative solver
          1566 MiB given to the printing process from OS
             0 MiB allocation reported by mallinfo(arena+hblkhd)
        198565 MiB available memory on the node where the printing process lives
------------------
     ethr =  7.55E-06,  avg # of iterations =  3.4

     negative rho (up, down):  0.000E+00 2.488E-04

     total cpu time spent up to now is      250.1 secs

     total energy              =   -9942.09359544 Ry
     estimated scf accuracy    <       0.02448263 Ry

     total magnetization       =     2.98 Bohr mag/cell
     absolute magnetization    =     3.37 Bohr mag/cell

     iteration # 13     ecut=   150.00 Ry     beta= 0.70
     Davidson diagonalization with overlap

---- Real-time Memory Report at c_bands before calling an iterative solver
          1570 MiB given to the printing process from OS
             0 MiB allocation reported by mallinfo(arena+hblkhd)
        198529 MiB available memory on the node where the printing process lives
------------------
     c_bands:  1 eigenvalues not converged
     c_bands:  1 eigenvalues not converged
     ethr =  4.25E-06,  avg # of iterations =  7.5

     negative rho (up, down):  0.000E+00 1.142E-04

     total cpu time spent up to now is      271.3 secs

     total energy              =   -9942.09366008 Ry
     estimated scf accuracy    <       0.01919969 Ry

     total magnetization       =     2.99 Bohr mag/cell
     absolute magnetization    =     3.37 Bohr mag/cell

     iteration # 14     ecut=   150.00 Ry     beta= 0.70
     Davidson diagonalization with overlap

---- Real-time Memory Report at c_bands before calling an iterative solver
          1583 MiB given to the printing process from OS
             0 MiB allocation reported by mallinfo(arena+hblkhd)
        198520 MiB available memory on the node where the printing process lives
------------------
     c_bands:  2 eigenvalues not converged
     ethr =  3.33E-06,  avg # of iterations =  2.7

     negative rho (up, down):  0.000E+00 1.265E-04

     total cpu time spent up to now is      288.5 secs

     total energy              =   -9942.09525506 Ry
     estimated scf accuracy    <       0.00554404 Ry

     total magnetization       =     2.93 Bohr mag/cell
     absolute magnetization    =     3.29 Bohr mag/cell

     iteration # 15     ecut=   150.00 Ry     beta= 0.70
     Davidson diagonalization with overlap

---- Real-time Memory Report at c_bands before calling an iterative solver
          1589 MiB given to the printing process from OS
             0 MiB allocation reported by mallinfo(arena+hblkhd)
        198504 MiB available memory on the node where the printing process lives
------------------
     c_bands:  2 eigenvalues not converged
     c_bands:  1 eigenvalues not converged
     ethr =  9.63E-07,  avg # of iterations = 11.2

     negative rho (up, down):  0.000E+00 1.268E-04

     total cpu time spent up to now is      309.9 secs

     total energy              =   -9942.09667253 Ry
     estimated scf accuracy    <       0.00128664 Ry

     total magnetization       =     2.92 Bohr mag/cell
     absolute magnetization    =     3.26 Bohr mag/cell

     iteration # 16     ecut=   150.00 Ry     beta= 0.70
     Davidson diagonalization with overlap

---- Real-time Memory Report at c_bands before calling an iterative solver
          1599 MiB given to the printing process from OS
             0 MiB allocation reported by mallinfo(arena+hblkhd)
        198472 MiB available memory on the node where the printing process lives
------------------
     c_bands:  1 eigenvalues not converged
     ethr =  2.23E-07,  avg # of iterations =  7.3

     negative rho (up, down):  0.000E+00 1.225E-04

     total cpu time spent up to now is      331.4 secs

     total energy              =   -9942.09726921 Ry
     estimated scf accuracy    <       0.00226362 Ry

     total magnetization       =     2.92 Bohr mag/cell
     absolute magnetization    =     3.22 Bohr mag/cell

     iteration # 17     ecut=   150.00 Ry     beta= 0.70
     Davidson diagonalization with overlap

---- Real-time Memory Report at c_bands before calling an iterative solver
          1607 MiB given to the printing process from OS
             0 MiB allocation reported by mallinfo(arena+hblkhd)
        198452 MiB available memory on the node where the printing process lives
------------------
     ethr =  2.23E-07,  avg # of iterations =  2.7

     negative rho (up, down):  0.000E+00 1.199E-04

     total cpu time spent up to now is      348.1 secs

     total energy              =   -9942.09733185 Ry
     estimated scf accuracy    <       0.00086615 Ry

     total magnetization       =     2.92 Bohr mag/cell
     absolute magnetization    =     3.23 Bohr mag/cell

     iteration # 18     ecut=   150.00 Ry     beta= 0.70
     Davidson diagonalization with overlap

---- Real-time Memory Report at c_bands before calling an iterative solver
          1612 MiB given to the printing process from OS
             0 MiB allocation reported by mallinfo(arena+hblkhd)
        198466 MiB available memory on the node where the printing process lives
------------------
     ethr =  1.50E-07,  avg # of iterations =  3.4

     negative rho (up, down):  0.000E+00 1.202E-04

     total cpu time spent up to now is      363.9 secs

     total energy              =   -9942.09736266 Ry
     estimated scf accuracy    <       0.00027506 Ry

     total magnetization       =     2.92 Bohr mag/cell
     absolute magnetization    =     3.24 Bohr mag/cell

     iteration # 19     ecut=   150.00 Ry     beta= 0.70
     Davidson diagonalization with overlap

---- Real-time Memory Report at c_bands before calling an iterative solver
          1616 MiB given to the printing process from OS
             0 MiB allocation reported by mallinfo(arena+hblkhd)
        198448 MiB available memory on the node where the printing process lives
------------------
     ethr =  4.78E-08,  avg # of iterations =  4.8

     negative rho (up, down):  0.000E+00 1.202E-04

     total cpu time spent up to now is      381.8 secs

     total energy              =   -9942.09739541 Ry
     estimated scf accuracy    <       0.00003028 Ry

     total magnetization       =     2.93 Bohr mag/cell
     absolute magnetization    =     3.24 Bohr mag/cell

     iteration # 20     ecut=   150.00 Ry     beta= 0.70
     Davidson diagonalization with overlap

---- Real-time Memory Report at c_bands before calling an iterative solver
          1621 MiB given to the printing process from OS
             0 MiB allocation reported by mallinfo(arena+hblkhd)
        198413 MiB available memory on the node where the printing process lives
------------------
     ethr =  5.26E-09,  avg # of iterations =  5.9

     negative rho (up, down):  0.000E+00 1.206E-04

     total cpu time spent up to now is      401.8 secs

     total energy              =   -9942.09740358 Ry
     estimated scf accuracy    <       0.00000496 Ry

     total magnetization       =     2.93 Bohr mag/cell
     absolute magnetization    =     3.24 Bohr mag/cell

     iteration # 21     ecut=   150.00 Ry     beta= 0.70
     Davidson diagonalization with overlap

---- Real-time Memory Report at c_bands before calling an iterative solver
          1624 MiB given to the printing process from OS
             0 MiB allocation reported by mallinfo(arena+hblkhd)
        198422 MiB available memory on the node where the printing process lives
------------------
     ethr =  8.62E-10,  avg # of iterations =  4.5

     negative rho (up, down):  0.000E+00 1.208E-04

     total cpu time spent up to now is      420.8 secs

     total energy              =   -9942.09740485 Ry
     estimated scf accuracy    <       0.00000127 Ry

     total magnetization       =     2.93 Bohr mag/cell
     absolute magnetization    =     3.24 Bohr mag/cell

     iteration # 22     ecut=   150.00 Ry     beta= 0.70
     Davidson diagonalization with overlap

---- Real-time Memory Report at c_bands before calling an iterative solver
          1628 MiB given to the printing process from OS
             0 MiB allocation reported by mallinfo(arena+hblkhd)
        198388 MiB available memory on the node where the printing process lives
------------------
     ethr =  2.20E-10,  avg # of iterations =  4.9

     negative rho (up, down):  0.000E+00 1.209E-04

     total cpu time spent up to now is      439.6 secs

     total energy              =   -9942.09740520 Ry
     estimated scf accuracy    <       0.00000006 Ry

     total magnetization       =     2.93 Bohr mag/cell
     absolute magnetization    =     3.24 Bohr mag/cell

     iteration # 23     ecut=   150.00 Ry     beta= 0.70
     Davidson diagonalization with overlap

---- Real-time Memory Report at c_bands before calling an iterative solver
          1632 MiB given to the printing process from OS
             0 MiB allocation reported by mallinfo(arena+hblkhd)
        198371 MiB available memory on the node where the printing process lives
------------------
     ethr =  1.07E-11,  avg # of iterations =  5.0

     negative rho (up, down):  0.000E+00 1.209E-04

     total cpu time spent up to now is      463.7 secs

     total energy              =   -9942.09740523 Ry
     estimated scf accuracy    <       0.00000005 Ry

     total magnetization       =     2.93 Bohr mag/cell
     absolute magnetization    =     3.24 Bohr mag/cell

     iteration # 24     ecut=   150.00 Ry     beta= 0.70
     Davidson diagonalization with overlap

---- Real-time Memory Report at c_bands before calling an iterative solver
          1640 MiB given to the printing process from OS
             0 MiB allocation reported by mallinfo(arena+hblkhd)
        198383 MiB available memory on the node where the printing process lives
------------------
     ethr =  8.64E-12,  avg # of iterations =  4.0

     negative rho (up, down):  0.000E+00 1.209E-04
 
     Magnetic moment per site  (integrated on atomic sphere of radius R)
     atom   1 (R=0.089)  charge= 10.1699  magn= -0.0003
     atom   2 (R=0.089)  charge= 10.1690  magn= -0.0001
     atom   3 (R=0.089)  charge= 10.1690  magn= -0.0001
     atom   4 (R=0.089)  charge= 10.1690  magn= -0.0001
     atom   5 (R=0.089)  charge=  4.0043  magn= -0.0009
     atom   6 (R=0.089)  charge=  4.0047  magn=  0.0003
     atom   7 (R=0.089)  charge=  4.0043  magn= -0.0009
     atom   8 (R=0.089)  charge=  4.0043  magn= -0.0009
     atom   9 (R=0.089)  charge= 10.1698  magn=  0.0003
     atom  10 (R=0.089)  charge= 10.1698  magn= -0.0012
     atom  11 (R=0.089)  charge= 10.1698  magn= -0.0012
     atom  12 (R=0.089)  charge= 10.1702  magn= -0.0007
     atom  13 (R=0.089)  charge=  4.0048  magn=  0.0015
     atom  14 (R=0.089)  charge=  4.0049  magn= -0.0008
     atom  15 (R=0.089)  charge=  3.9977  magn=  0.0114
     atom  16 (R=0.089)  charge=  4.0048  magn=  0.0015
     atom  17 (R=0.089)  charge= 10.1698  magn=  0.0003
     atom  18 (R=0.089)  charge= 10.1698  magn= -0.0012
     atom  19 (R=0.089)  charge= 10.1702  magn= -0.0007
     atom  20 (R=0.089)  charge= 10.1698  magn= -0.0012
     atom  21 (R=0.089)  charge=  4.0048  magn=  0.0015
     atom  22 (R=0.089)  charge=  4.0049  magn= -0.0008
     atom  23 (R=0.089)  charge=  4.0048  magn=  0.0015
     atom  24 (R=0.089)  charge=  3.9977  magn=  0.0114
     atom  25 (R=0.089)  charge= 10.1680  magn=  0.0000
     atom  26 (R=0.089)  charge= 10.1678  magn=  0.0003
     atom  27 (R=0.089)  charge= 10.1695  magn=  0.0015
     atom  28 (R=0.089)  charge= 10.1695  magn=  0.0015
     atom  29 (R=0.089)  charge=  4.0048  magn= -0.0003
     atom  30 (R=0.089)  charge=  4.0043  magn= -0.0005
     atom  31 (R=0.089)  charge=  4.0007  magn= -0.0011
     atom  32 (R=0.089)  charge=  4.0007  magn= -0.0011
     atom  33 (R=0.089)  charge= 10.1698  magn=  0.0003
     atom  34 (R=0.089)  charge= 10.1702  magn= -0.0007
     atom  35 (R=0.089)  charge= 10.1698  magn= -0.0012
     atom  36 (R=0.089)  charge= 10.1698  magn= -0.0012
     atom  37 (R=0.089)  charge=  3.9977  magn=  0.0114
     atom  38 (R=0.089)  charge=  4.0049  magn= -0.0008
     atom  39 (R=0.089)  charge=  4.0048  magn=  0.0015
     atom  40 (R=0.089)  charge=  4.0048  magn=  0.0015
     atom  41 (R=0.089)  charge= 10.1680  magn=  0.0000
     atom  42 (R=0.089)  charge= 10.1695  magn=  0.0015
     atom  43 (R=0.089)  charge= 10.1678  magn=  0.0003
     atom  44 (R=0.089)  charge= 10.1695  magn=  0.0015
     atom  45 (R=0.089)  charge=  4.0007  magn= -0.0011
     atom  46 (R=0.089)  charge=  4.0043  magn= -0.0005
     atom  47 (R=0.089)  charge=  4.0007  magn= -0.0011
     atom  48 (R=0.089)  charge=  4.0048  magn= -0.0003
     atom  49 (R=0.089)  charge= 10.1680  magn=  0.0000
     atom  50 (R=0.089)  charge= 10.1695  magn=  0.0015
     atom  51 (R=0.089)  charge= 10.1695  magn=  0.0015
     atom  52 (R=0.089)  charge= 10.1678  magn=  0.0003
     atom  53 (R=0.089)  charge=  4.0007  magn= -0.0011
     atom  54 (R=0.089)  charge=  4.0043  magn= -0.0005
     atom  55 (R=0.089)  charge=  4.0048  magn= -0.0003
     atom  56 (R=0.089)  charge=  4.0007  magn= -0.0011
     atom  57 (R=0.089)  charge= 14.0791  magn=  2.5981
     atom  58 (R=0.089)  charge= 10.1364  magn= -0.0049
     atom  59 (R=0.089)  charge= 10.1364  magn= -0.0049
     atom  60 (R=0.089)  charge= 10.1364  magn= -0.0049
     atom  61 (R=0.089)  charge=  4.0017  magn= -0.0008
     atom  62 (R=0.089)  charge=  4.0017  magn= -0.0008
     atom  63 (R=0.089)  charge=  4.0017  magn= -0.0008

     total cpu time spent up to now is      481.6 secs

     End of self-consistent calculation

 ------ SPIN UP ------------


          k = 0.0000 0.0000 0.0000 (269825 PWs)   bands (ev):

   -80.0775 -46.1988 -46.1988 -46.1562  -7.6275  -7.1117  -7.1117  -7.1004
    -7.1004  -7.0932  -7.0408  -6.8208  -6.8208  -6.8156  -6.8105  -6.7910
    -6.7910  -6.7855  -6.7827  -6.7827  -6.7698  -6.7683  -6.7683  -6.6427
    -6.6427  -6.6035  -6.4987  -6.4909  -6.4909  -6.4472  -6.4472  -6.4443
    -6.3601  -6.1909  -6.1909  -0.9240  -0.9240  -0.9237  -0.9096  -0.9096
    -0.9043  -0.8639  -0.8639  -0.8475  -0.8401  -0.8401  -0.8325  -0.8024
    -0.7970  -0.7970  -0.7944  -0.7944  -0.7818  -0.7818  -0.7729  -0.7729
    -0.7720  -0.7692  -0.7629  -0.7544  -0.7544  -0.7507  -0.7499  -0.7399
    -0.7399  -0.7369  -0.7369  -0.7282  -0.7270  -0.7270  -0.7264  -0.7219
    -0.7219  -0.7134  -0.7134  -0.7120  -0.7103  -0.7015  -0.7015  -0.6916
    -0.6903  -0.6899  -0.6899  -0.6642  -0.6589  -0.6589  -0.6553  -0.6553
    -0.6514  -0.6355  -0.6074  -0.6074  -0.6007  -0.6007  -0.6006  -0.5892
    -0.5892  -0.5833  -0.5771  -0.5771  -0.5667  -0.5605  -0.5605  -0.5547
    -0.5547  -0.5426  -0.5426  -0.5329  -0.5300  -0.5117  -0.5117  -0.5108
    -0.4812  -0.4797  -0.4797  -0.4639  -0.4639  -0.4637  -0.4557  -0.4557
    -0.4538  -0.4534  -0.4534  -0.4517  -0.4356  -0.4356  -0.4278  -0.4228
    -0.4228  -0.4198  -0.4118  -0.3978  -0.3978  -0.3905  -0.3905  -0.3881
    -0.3828  -0.3828  -0.3792  -0.3792  -0.3749  -0.3749  -0.3740  -0.3731
    -0.3665  -0.3620  -0.3620  -0.3437  -0.3380  -0.3380  -0.3155  -0.3155
    -0.3143  -0.3103  -0.3072  -0.3072  -0.3053  -0.2968  -0.2956  -0.2956
    -0.2883  -0.2883  -0.2775  -0.2775  -0.2753  -0.2750  -0.2612  -0.2612
    -0.2389  -0.1681  -0.1606  -0.1606  -0.1416  -0.1138  -0.1138  -0.1068
    -0.1068  -0.0962  -0.0894  -0.0676  -0.0676  -0.0539  -0.0457  -0.0457
    -0.0042   0.0136   0.0136   0.0606   0.0606   0.0764   0.2180   0.2887
     0.3152   0.3152   0.8325   0.8443   0.8443   0.8773   0.8773   0.8838
     1.0424   1.0424   1.1125   1.3072   1.4236   1.4236   1.4808   1.4808
     1.5020   1.5030   1.5030   1.5096   1.7214   1.7214   2.0890   2.6457
     2.6878   2.6878   2.7059   2.7088   2.7088   2.7090   2.7224   2.7332
     2.7332   2.7440   2.7440   2.7462   2.7848   2.7848   2.8350   2.8350
     2.8788   2.9003   2.9003   2.9294   2.9392   2.9420   2.9420   2.9909
     2.9909   3.0732   3.1121   3.1121   3.2441   3.2521   3.2534   3.2534
     3.5959   3.5959   3.6501   3.9713   3.9713   4.1642   4.1744   4.1744
     4.1914   4.1984   4.1984   4.1986   4.2977   4.3269   4.3269   4.3641
     4.3641   4.4592   4.4592   4.4603   4.4646   4.4721   4.4721   4.4798
     4.4798   4.4846   4.4981   4.4996   4.4996   4.5417   4.5417   4.6253
     5.2232   5.2232   5.2340   5.7136   6.4435   6.4435   6.4953   6.4953
     6.6391   7.7642   8.6147   8.6147   8.6820   8.7405   8.8333   8.8333
     8.9798   8.9798   9.1023   9.4621   9.4808   9.4808   9.5270   9.8181
     9.8181   9.9021   9.9248   9.9248   9.9372   9.9683   9.9683   9.9745
     9.9863   9.9863  10.1331  10.1442  10.1442  10.1521  10.1521  10.1814
    10.1814  10.2083  10.3785  10.6389  10.6389  10.6846  11.0253  11.1187
    11.1187  11.1588  11.1588  11.3027  11.3027  11.3057  11.3085  11.6373
    11.6374  11.6915  11.7985  11.8290  11.8290  11.8507  11.9782  11.9794
    11.9797  11.9951

     occupation numbers 
     1.0000   1.0000   1.0000   1.0000   1.0000   1.0000   1.0000   1.0000
     1.0000   1.0000   1.0000   1.0000   1.0000   1.0000   1.0000   1.0000
     1.0000   1.0000   1.0000   1.0000   1.0000   1.0000   1.0000   1.0000
     1.0000   1.0000   1.0000   1.0000   1.0000   1.0000   1.0000   1.0000
     1.0000   1.0000   1.0000   1.0000   1.0000   1.0000   1.0000   1.0000
     1.0000   1.0000   1.0000   1.0000   1.0000   1.0000   1.0000   1.0000
     1.0000   1.0000   1.0000   1.0000   1.0000   1.0000   1.0000   1.0000
     1.0000   1.0000   1.0000   1.0000   1.0000   1.0000   1.0000   1.0000
     1.0000   1.0000   1.0000   1.0000   1.0000   1.0000   1.0000   1.0000
     1.0000   1.0000   1.0000   1.0000   1.0000   1.0000   1.0000   1.0000
     1.0000   1.0000   1.0000   1.0000   1.0000   1.0000   1.0000   1.0000
     1.0000   1.0000   1.0000   1.0000   1.0000   1.0000   1.0000   1.0000
     1.0000   1.0000   1.0000   1.0000   1.0000   1.0000   1.0000   1.0000
     1.0000   1.0000   1.0000   1.0000   1.0000   1.0000   1.0000   1.0000
     1.0000   1.0000   1.0000   1.0000   1.0000   1.0000   1.0000   1.0000
     1.0000   1.0000   1.0000   1.0000   1.0000   1.0000   1.0000   1.0000
     1.0000   1.0000   1.0000   1.0000   1.0000   1.0000   1.0000   1.0000
     1.0000   1.0000   1.0000   1.0000   1.0000   1.0000   1.0000   1.0000
     1.0000   1.0000   1.0000   1.0000   1.0000   1.0000   1.0000   1.0000
     1.0000   1.0000   1.0000   1.0000   1.0000   1.0000   1.0000   1.0000
     1.0000   1.0000   1.0000   1.0000   1.0000   1.0000   1.0000   1.0000
     1.0000   1.0000   1.0000   1.0000   1.0000   1.0000   1.0000   1.0000
     1.0000   1.0000   1.0000   1.0000   1.0000   1.0000   1.0000   1.0000
     1.0000   1.0000   1.0000   1.0000   1.0000   1.0000   1.0000   1.0000
     1.0000   1.0000   1.0000   1.0000   1.0000   1.0000   1.0000   1.0000
     1.0000   1.0000   1.0000   1.0000   1.0000   1.0000   1.0000   1.0000
     1.0000   1.0000   1.0000   1.0000   1.0000   1.0000   1.0000   1.0000
     1.0000   1.0000   1.0000   1.0000   1.0000   1.0000   1.0000   1.0000
     1.0000   1.0000   1.0000   1.0000   1.0000   1.0000   1.0000   1.0000
     1.0000   1.0000   1.0000   1.0000   1.0000   1.0000   1.0000   1.0000
     1.0000   1.0000   1.0000   1.0000   1.0000   1.0000   1.0000   1.0000
     1.0000   1.0000   1.0000   1.0000   1.0000   1.0000   1.0000   1.0000
     1.0000   1.0000   1.0000   1.0000   1.0000   1.0000   1.0000   1.0000
     1.0000   1.0000   1.0000   1.0000   1.0000   1.0000   1.0000   1.0000
     1.0000   1.0000   1.0000   1.0000   1.0000   1.0000   1.0000   1.0000
     1.0000   1.0000   1.0000   1.0000   1.0000   1.0000   1.0000   1.0000
     1.0000   1.0000   0.0000   0.0000   0.0000   0.0000   0.0000   0.0000
     0.0000   0.0000   0.0000   0.0000   0.0000   0.0000   0.0000   0.0000
     0.0000   0.0000   0.0000   0.0000   0.0000   0.0000   0.0000   0.0000
     0.0000   0.0000   0.0000   0.0000   0.0000   0.0000   0.0000   0.0000
     0.0000   0.0000   0.0000   0.0000   0.0000   0.0000   0.0000   0.0000
     0.0000   0.0000   0.0000   0.0000   0.0000   0.0000   0.0000   0.0000
     0.0000   0.0000   0.0000   0.0000   0.0000   0.0000   0.0000   0.0000
     0.0000   0.0000

          k = 0.0000 0.0000 0.2500 (269876 PWs)   bands (ev):

   -80.0775 -46.1988 -46.1988 -46.1562  -7.5924  -7.3020  -7.0879  -7.0789
    -7.0769  -7.0507  -6.9103  -6.9031  -6.8910  -6.8753  -6.8617  -6.8147
    -6.8028  -6.7863  -6.7859  -6.7330  -6.7219  -6.6998  -6.6608  -6.6352
    -6.6118  -6.5933  -6.5378  -6.5013  -6.4951  -6.4680  -6.4633  -6.4528
    -6.3516  -6.2038  -6.1935  -0.9218  -0.9100  -0.9100  -0.9056  -0.8952
    -0.8902  -0.8606  -0.8525  -0.8441  -0.8374  -0.8335  -0.8235  -0.8096
    -0.8080  -0.8016  -0.7942  -0.7935  -0.7869  -0.7859  -0.7804  -0.7777
    -0.7736  -0.7728  -0.7696  -0.7628  -0.7624  -0.7513  -0.7501  -0.7475
    -0.7457  -0.7434  -0.7382  -0.7372  -0.7359  -0.7307  -0.7288  -0.7246
    -0.7246  -0.7197  -0.7188  -0.7103  -0.7083  -0.7033  -0.6991  -0.6977
    -0.6936  -0.6922  -0.6870  -0.6794  -0.6774  -0.6681  -0.6638  -0.6490
    -0.6440  -0.6433  -0.6339  -0.6315  -0.6189  -0.6164  -0.6037  -0.5991
    -0.5968  -0.5861  -0.5825  -0.5781  -0.5686  -0.5686  -0.5560  -0.5439
    -0.5416  -0.5359  -0.5339  -0.5185  -0.5038  -0.4945  -0.4927  -0.4787
    -0.4786  -0.4746  -0.4707  -0.4671  -0.4639  -0.4615  -0.4501  -0.4487
    -0.4441  -0.4423  -0.4414  -0.4370  -0.4295  -0.4278  -0.4202  -0.4159
    -0.4135  -0.4105  -0.4095  -0.4026  -0.3987  -0.3967  -0.3932  -0.3869
    -0.3852  -0.3849  -0.3819  -0.3813  -0.3772  -0.3737  -0.3697  -0.3644
    -0.3619  -0.3586  -0.3520  -0.3476  -0.3355  -0.3342  -0.3253  -0.3241
    -0.3148  -0.3143  -0.3086  -0.3067  -0.3014  -0.3007  -0.2948  -0.2936
    -0.2824  -0.2802  -0.2801  -0.2763  -0.2711  -0.2687  -0.2596  -0.2589
    -0.2344  -0.2241  -0.2131  -0.1949  -0.1775  -0.1654  -0.1241  -0.1059
    -0.0840  -0.0825  -0.0704  -0.0660  -0.0628  -0.0509  -0.0473  -0.0466
    -0.0240  -0.0110  -0.0089   0.0330   0.0338   0.0497   0.4146   0.4542
     0.4688   0.4691   0.8358   0.8534   0.8712   0.8824   0.8959   0.9130
     1.0099   1.0186   1.0771   1.1806   1.1977   1.2011   1.2203   1.2336
     1.3922   1.4181   1.5981   1.8533   1.8622   1.9194   2.0259   2.2965
     2.4835   2.4970   2.5017   2.5097   2.5625   2.5896   2.6263   2.6348
     2.6394   2.6650   2.7337   2.8115   2.8124   2.8388   2.8826   2.9598
     3.1162   3.1167   3.1279   3.1359   3.1499   3.1588   3.2000   3.2166
     3.2277   3.2582   3.2727   3.2809   3.3054   3.3181   3.3724   3.4650
     3.5746   3.6267   3.7172   3.8438   3.8751   3.9787   3.9975   4.0877
     4.1085   4.1318   4.1378   4.1998   4.2013   4.2342   4.2708   4.2831
     4.3026   4.3155   4.3496   4.3577   4.4352   4.4570   4.4693   4.4736
     4.4779   4.4962   4.5221   4.5506   4.5785   4.5804   4.5974   4.6224
     4.8998   5.1306   5.1503   5.6984   6.4020   6.4351   6.4814   6.4986
     6.8761   7.9892   8.6447   8.7240   8.8682   8.8892   8.9289   9.0050
     9.0136   9.1053   9.2583   9.3999   9.4561   9.6108   9.6403   9.6649
     9.7205   9.8665   9.8720   9.9035   9.9097   9.9429  10.0211  10.0320
    10.0441  10.0989  10.1145  10.1635  10.1682  10.1820  10.2304  10.2491
    10.2947  10.3548  10.4735  10.5385  10.5577  10.6458  10.6730  10.7878
    10.8718  10.9163  10.9795  11.1302  11.1998  11.2546  11.4031  11.5485
    11.5724  11.5946  11.6334  11.6838  11.7014  11.7197  11.7885  11.8317
    11.8505  11.8683

     occupation numbers 
     1.0000   1.0000   1.0000   1.0000   1.0000   1.0000   1.0000   1.0000
     1.0000   1.0000   1.0000   1.0000   1.0000   1.0000   1.0000   1.0000
     1.0000   1.0000   1.0000   1.0000   1.0000   1.0000   1.0000   1.0000
     1.0000   1.0000   1.0000   1.0000   1.0000   1.0000   1.0000   1.0000
     1.0000   1.0000   1.0000   1.0000   1.0000   1.0000   1.0000   1.0000
     1.0000   1.0000   1.0000   1.0000   1.0000   1.0000   1.0000   1.0000
     1.0000   1.0000   1.0000   1.0000   1.0000   1.0000   1.0000   1.0000
     1.0000   1.0000   1.0000   1.0000   1.0000   1.0000   1.0000   1.0000
     1.0000   1.0000   1.0000   1.0000   1.0000   1.0000   1.0000   1.0000
     1.0000   1.0000   1.0000   1.0000   1.0000   1.0000   1.0000   1.0000
     1.0000   1.0000   1.0000   1.0000   1.0000   1.0000   1.0000   1.0000
     1.0000   1.0000   1.0000   1.0000   1.0000   1.0000   1.0000   1.0000
     1.0000   1.0000   1.0000   1.0000   1.0000   1.0000   1.0000   1.0000
     1.0000   1.0000   1.0000   1.0000   1.0000   1.0000   1.0000   1.0000
     1.0000   1.0000   1.0000   1.0000   1.0000   1.0000   1.0000   1.0000
     1.0000   1.0000   1.0000   1.0000   1.0000   1.0000   1.0000   1.0000
     1.0000   1.0000   1.0000   1.0000   1.0000   1.0000   1.0000   1.0000
     1.0000   1.0000   1.0000   1.0000   1.0000   1.0000   1.0000   1.0000
     1.0000   1.0000   1.0000   1.0000   1.0000   1.0000   1.0000   1.0000
     1.0000   1.0000   1.0000   1.0000   1.0000   1.0000   1.0000   1.0000
     1.0000   1.0000   1.0000   1.0000   1.0000   1.0000   1.0000   1.0000
     1.0000   1.0000   1.0000   1.0000   1.0000   1.0000   1.0000   1.0000
     1.0000   1.0000   1.0000   1.0000   1.0000   1.0000   1.0000   1.0000
     1.0000   1.0000   1.0000   1.0000   1.0000   1.0000   1.0000   1.0000
     1.0000   1.0000   1.0000   1.0000   1.0000   1.0000   1.0000   1.0000
     1.0000   1.0000   1.0000   1.0000   1.0000   1.0000   1.0000   1.0000
     1.0000   1.0000   1.0000   1.0000   1.0000   1.0000   1.0000   1.0000
     1.0000   1.0000   1.0000   1.0000   1.0000   1.0000   1.0000   1.0000
     1.0000   1.0000   1.0000   1.0000   1.0000   1.0000   1.0000   1.0000
     1.0000   1.0000   1.0000   1.0000   1.0000   1.0000   1.0000   1.0000
     1.0000   1.0000   1.0000   1.0000   1.0000   1.0000   1.0000   1.0000
     1.0000   1.0000   1.0000   1.0000   1.0000   1.0000   1.0000   1.0000
     1.0000   1.0000   1.0000   1.0000   1.0000   1.0000   1.0000   1.0000
     1.0000   1.0000   1.0000   1.0000   1.0000   1.0000   1.0000   1.0000
     1.0000   1.0000   1.0000   1.0000   1.0000   1.0000   1.0000   1.0000
     1.0000   1.0000   1.0000   1.0000   1.0000   1.0000   1.0000   1.0000
     1.0000   1.0000   0.0000   0.0000   0.0000   0.0000   0.0000   0.0000
     0.0000   0.0000   0.0000   0.0000   0.0000   0.0000   0.0000   0.0000
     0.0000   0.0000   0.0000   0.0000   0.0000   0.0000   0.0000   0.0000
     0.0000   0.0000   0.0000   0.0000   0.0000   0.0000   0.0000   0.0000
     0.0000   0.0000   0.0000   0.0000   0.0000   0.0000   0.0000   0.0000
     0.0000   0.0000   0.0000   0.0000   0.0000   0.0000   0.0000   0.0000
     0.0000   0.0000   0.0000   0.0000   0.0000   0.0000   0.0000   0.0000
     0.0000   0.0000

          k = 0.0000 0.0000-0.5000 (270152 PWs)   bands (ev):

   -80.0775 -46.1988 -46.1988 -46.1562  -7.5211  -7.4325  -7.0465  -7.0397
    -7.0341  -7.0309  -7.0015  -6.9737  -6.9502  -6.8996  -6.8154  -6.8078
    -6.7876  -6.7853  -6.7215  -6.7087  -6.6934  -6.6764  -6.6488  -6.6202
    -6.5719  -6.5717  -6.5605  -6.5425  -6.5063  -6.4935  -6.4874  -6.4590
    -6.3407  -6.2186  -6.1962  -0.9196  -0.9025  -0.8866  -0.8862  -0.8706
    -0.8640  -0.8585  -0.8430  -0.8398  -0.8393  -0.8370  -0.8255  -0.8215
    -0.8196  -0.8171  -0.8046  -0.7891  -0.7878  -0.7862  -0.7860  -0.7806
    -0.7805  -0.7761  -0.7728  -0.7725  -0.7657  -0.7631  -0.7625  -0.7585
    -0.7531  -0.7500  -0.7444  -0.7425  -0.7384  -0.7383  -0.7315  -0.7305
    -0.7265  -0.7243  -0.7216  -0.7172  -0.7102  -0.7048  -0.7042  -0.6999
    -0.6981  -0.6929  -0.6893  -0.6858  -0.6823  -0.6670  -0.6635  -0.6487
    -0.6431  -0.6343  -0.6332  -0.6274  -0.6267  -0.6264  -0.6152  -0.6082
    -0.5946  -0.5850  -0.5795  -0.5793  -0.5752  -0.5751  -0.5565  -0.5367
    -0.5330  -0.5176  -0.5111  -0.5023  -0.4983  -0.4928  -0.4861  -0.4835
    -0.4762  -0.4654  -0.4634  -0.4576  -0.4564  -0.4562  -0.4511  -0.4480
    -0.4408  -0.4380  -0.4335  -0.4331  -0.4298  -0.4268  -0.4223  -0.4192
    -0.4144  -0.4104  -0.4098  -0.4078  -0.4032  -0.4006  -0.3991  -0.3942
    -0.3904  -0.3900  -0.3851  -0.3820  -0.3760  -0.3689  -0.3672  -0.3639
    -0.3602  -0.3581  -0.3472  -0.3418  -0.3405  -0.3369  -0.3351  -0.3265
    -0.3159  -0.3152  -0.3092  -0.3077  -0.3051  -0.3015  -0.2928  -0.2903
    -0.2870  -0.2790  -0.2752  -0.2720  -0.2699  -0.2666  -0.2660  -0.2547
    -0.2529  -0.2304  -0.1892  -0.1857  -0.1457  -0.1382  -0.1197  -0.1162
    -0.0892  -0.0869  -0.0778  -0.0721  -0.0647  -0.0581  -0.0551  -0.0499
    -0.0432  -0.0269  -0.0138  -0.0049  -0.0016   0.0075   0.7051   0.7551
     0.7627   0.7765   0.8150   0.8316   0.8350   0.8403   0.8595   0.8673
     0.9120   0.9205   0.9570   0.9701   0.9835   0.9893   1.0059   1.2427
     1.3014   1.4444   1.5150   1.8323   2.1109   2.2028   2.2420   2.2704
     2.2821   2.3208   2.3213   2.4414   2.4495   2.4520   2.4551   2.4807
     2.5366   2.5543   2.6892   2.8362   2.9041   2.9288   2.9335   2.9484
     3.0330   3.0857   3.1323   3.1883   3.4136   3.4564   3.5143   3.5301
     3.5809   3.6028   3.6560   3.6634   3.6717   3.6782   3.6804   3.6859
     3.6874   3.6937   3.6958   3.7082   3.7189   3.7484   3.7646   3.7936
     3.7956   3.8176   3.8333   3.8580   3.8606   4.0644   4.1756   4.2134
     4.2490   4.3121   4.3574   4.3681   4.4574   4.4648   4.4711   4.4788
     4.4826   4.4851   4.4950   4.5058   4.5181   4.5367   4.5661   4.8456
     4.8577   4.9324   4.9597   5.6912   6.3662   6.4291   6.4769   6.4996
     7.0875   8.1920   8.7488   8.7712   8.9245   9.0654   9.1705   9.2217
     9.3301   9.3942   9.4098   9.4537   9.4777   9.5286   9.5679   9.6040
     9.6083   9.6915   9.7912   9.7981   9.8876   9.9820   9.9908  10.0001
    10.0101  10.0370  10.1178  10.1283  10.1893  10.2362  10.3067  10.3960
    10.4338  10.4643  10.5361  10.5547  10.5698  10.5818  10.6983  10.7017
    10.7315  10.7413  10.9053  10.9102  10.9815  10.9962  11.1148  11.2260
    11.2396  11.2463  11.3774  11.5601  11.5844  11.6316  11.6485  11.6776
    11.8176  11.8459

     occupation numbers 
     1.0000   1.0000   1.0000   1.0000   1.0000   1.0000   1.0000   1.0000
     1.0000   1.0000   1.0000   1.0000   1.0000   1.0000   1.0000   1.0000
     1.0000   1.0000   1.0000   1.0000   1.0000   1.0000   1.0000   1.0000
     1.0000   1.0000   1.0000   1.0000   1.0000   1.0000   1.0000   1.0000
     1.0000   1.0000   1.0000   1.0000   1.0000   1.0000   1.0000   1.0000
     1.0000   1.0000   1.0000   1.0000   1.0000   1.0000   1.0000   1.0000
     1.0000   1.0000   1.0000   1.0000   1.0000   1.0000   1.0000   1.0000
     1.0000   1.0000   1.0000   1.0000   1.0000   1.0000   1.0000   1.0000
     1.0000   1.0000   1.0000   1.0000   1.0000   1.0000   1.0000   1.0000
     1.0000   1.0000   1.0000   1.0000   1.0000   1.0000   1.0000   1.0000
     1.0000   1.0000   1.0000   1.0000   1.0000   1.0000   1.0000   1.0000
     1.0000   1.0000   1.0000   1.0000   1.0000   1.0000   1.0000   1.0000
     1.0000   1.0000   1.0000   1.0000   1.0000   1.0000   1.0000   1.0000
     1.0000   1.0000   1.0000   1.0000   1.0000   1.0000   1.0000   1.0000
     1.0000   1.0000   1.0000   1.0000   1.0000   1.0000   1.0000   1.0000
     1.0000   1.0000   1.0000   1.0000   1.0000   1.0000   1.0000   1.0000
     1.0000   1.0000   1.0000   1.0000   1.0000   1.0000   1.0000   1.0000
     1.0000   1.0000   1.0000   1.0000   1.0000   1.0000   1.0000   1.0000
     1.0000   1.0000   1.0000   1.0000   1.0000   1.0000   1.0000   1.0000
     1.0000   1.0000   1.0000   1.0000   1.0000   1.0000   1.0000   1.0000
     1.0000   1.0000   1.0000   1.0000   1.0000   1.0000   1.0000   1.0000
     1.0000   1.0000   1.0000   1.0000   1.0000   1.0000   1.0000   1.0000
     1.0000   1.0000   1.0000   1.0000   1.0000   1.0000   1.0000   1.0000
     1.0000   1.0000   1.0000   1.0000   1.0000   1.0000   1.0000   1.0000
     1.0000   1.0000   1.0000   1.0000   1.0000   1.0000   1.0000   1.0000
     1.0000   1.0000   1.0000   1.0000   1.0000   1.0000   1.0000   1.0000
     1.0000   1.0000   1.0000   1.0000   1.0000   1.0000   1.0000   1.0000
     1.0000   1.0000   1.0000   1.0000   1.0000   1.0000   1.0000   1.0000
     1.0000   1.0000   1.0000   1.0000   1.0000   1.0000   1.0000   1.0000
     1.0000   1.0000   1.0000   1.0000   1.0000   1.0000   1.0000   1.0000
     1.0000   1.0000   1.0000   1.0000   1.0000   1.0000   1.0000   1.0000
     1.0000   1.0000   1.0000   1.0000   1.0000   1.0000   1.0000   1.0000
     1.0000   1.0000   1.0000   1.0000   1.0000   1.0000   1.0000   1.0000
     1.0000   1.0000   1.0000   1.0000   1.0000   1.0000   1.0000   1.0000
     1.0000   1.0000   1.0000   1.0000   1.0000   1.0000   1.0000   1.0000
     1.0000   1.0000   1.0000   1.0000   1.0000   1.0000   1.0000   1.0000
     1.0000   1.0000   0.0000   0.0000   0.0000   0.0000   0.0000   0.0000
     0.0000   0.0000   0.0000   0.0000   0.0000   0.0000   0.0000   0.0000
     0.0000   0.0000   0.0000   0.0000   0.0000   0.0000   0.0000   0.0000
     0.0000   0.0000   0.0000   0.0000   0.0000   0.0000   0.0000   0.0000
     0.0000   0.0000   0.0000   0.0000   0.0000   0.0000   0.0000   0.0000
     0.0000   0.0000   0.0000   0.0000   0.0000   0.0000   0.0000   0.0000
     0.0000   0.0000   0.0000   0.0000   0.0000   0.0000   0.0000   0.0000
     0.0000   0.0000

          k = 0.0000 0.2500 0.2500 (269929 PWs)   bands (ev):

   -80.0775 -46.1988 -46.1988 -46.1562  -7.5578  -7.2902  -7.2603  -7.0703
    -7.0505  -7.0279  -6.9028  -6.8946  -6.8915  -6.8700  -6.8576  -6.8484
    -6.7818  -6.7621  -6.7459  -6.7444  -6.7023  -6.6644  -6.6584  -6.6113
    -6.6087  -6.5748  -6.5431  -6.5333  -6.5061  -6.4871  -6.4732  -6.4682
    -6.3439  -6.2115  -6.2009  -0.9088  -0.9079  -0.8971  -0.8920  -0.8894
    -0.8794  -0.8495  -0.8493  -0.8415  -0.8303  -0.8265  -0.8193  -0.8137
    -0.8112  -0.8094  -0.7978  -0.7974  -0.7919  -0.7895  -0.7866  -0.7812
    -0.7800  -0.7770  -0.7765  -0.7666  -0.7644  -0.7558  -0.7544  -0.7512
    -0.7484  -0.7480  -0.7450  -0.7393  -0.7384  -0.7347  -0.7312  -0.7308
    -0.7277  -0.7240  -0.7148  -0.7133  -0.7083  -0.7045  -0.7032  -0.6982
    -0.6933  -0.6931  -0.6848  -0.6835  -0.6741  -0.6677  -0.6591  -0.6551
    -0.6459  -0.6391  -0.6379  -0.6255  -0.6197  -0.6193  -0.6081  -0.6071
    -0.6043  -0.5980  -0.5896  -0.5809  -0.5750  -0.5728  -0.5705  -0.5557
    -0.5555  -0.5359  -0.5334  -0.5222  -0.5008  -0.4912  -0.4872  -0.4784
    -0.4776  -0.4760  -0.4745  -0.4682  -0.4602  -0.4579  -0.4538  -0.4518
    -0.4448  -0.4402  -0.4317  -0.4290  -0.4260  -0.4242  -0.4181  -0.4160
    -0.4158  -0.4092  -0.4077  -0.4062  -0.4017  -0.3952  -0.3928  -0.3896
    -0.3894  -0.3827  -0.3810  -0.3786  -0.3757  -0.3729  -0.3689  -0.3650
    -0.3639  -0.3548  -0.3533  -0.3412  -0.3379  -0.3309  -0.3243  -0.3198
    -0.3180  -0.3112  -0.3098  -0.3042  -0.3038  -0.3013  -0.2976  -0.2913
    -0.2887  -0.2801  -0.2757  -0.2702  -0.2699  -0.2640  -0.2439  -0.2420
    -0.2255  -0.2079  -0.1919  -0.1755  -0.1608  -0.1438  -0.1255  -0.1007
    -0.0887  -0.0836  -0.0731  -0.0709  -0.0597  -0.0538  -0.0484  -0.0474
    -0.0242  -0.0236  -0.0151   0.0098   0.0224   0.0406   0.3733   0.4054
     0.7113   0.7367   0.8238   0.8407   0.8512   0.8898   0.9020   0.9374
     0.9406   0.9717   0.9878   0.9934   1.0115   1.1630   1.2000   1.3733
     1.5119   1.5124   1.5760   1.5948   1.7850   1.8791   2.0617   2.1356
     2.3449   2.3941   2.4224   2.4664   2.4967   2.5588   2.5698   2.6690
     2.7052   2.7293   2.8766   2.8785   2.9464   2.9489   3.0011   3.0030
     3.0522   3.1334   3.1478   3.1930   3.1953   3.2224   3.2611   3.2684
     3.2839   3.3289   3.3528   3.3831   3.4606   3.4912   3.5882   3.6081
     3.6326   3.6562   3.7022   3.7612   3.8777   3.9241   3.9357   3.9983
     3.9999   4.0449   4.0732   4.1199   4.1294   4.1387   4.1789   4.1823
     4.2068   4.2319   4.3115   4.3391   4.3801   4.4060   4.4341   4.4444
     4.4675   4.4890   4.5320   4.5360   4.5714   4.5796   4.6758   4.7296
     4.8058   5.0346   5.1831   5.6766   6.4051   6.4353   6.4821   6.4955
     6.9829   8.1562   8.6863   8.7394   8.8988   8.9622   9.1437   9.1506
     9.1669   9.2213   9.2251   9.4739   9.5566   9.5584   9.6923   9.6936
     9.7466   9.7617   9.7742   9.7997   9.8096   9.8699   9.8858   9.9525
    10.0078  10.0504  10.0625  10.1193  10.1339  10.1505  10.2461  10.3451
    10.4037  10.4885  10.5300  10.5695  10.5759  10.6386  10.6740  10.7250
    10.8052  10.8893  10.9273  10.9984  11.0601  11.2016  11.2528  11.3393
    11.3456  11.4936  11.5421  11.5652  11.6254  11.6404  11.6622  11.7103
    11.7588  11.7837

     occupation numbers 
     1.0000   1.0000   1.0000   1.0000   1.0000   1.0000   1.0000   1.0000
     1.0000   1.0000   1.0000   1.0000   1.0000   1.0000   1.0000   1.0000
     1.0000   1.0000   1.0000   1.0000   1.0000   1.0000   1.0000   1.0000
     1.0000   1.0000   1.0000   1.0000   1.0000   1.0000   1.0000   1.0000
     1.0000   1.0000   1.0000   1.0000   1.0000   1.0000   1.0000   1.0000
     1.0000   1.0000   1.0000   1.0000   1.0000   1.0000   1.0000   1.0000
     1.0000   1.0000   1.0000   1.0000   1.0000   1.0000   1.0000   1.0000
     1.0000   1.0000   1.0000   1.0000   1.0000   1.0000   1.0000   1.0000
     1.0000   1.0000   1.0000   1.0000   1.0000   1.0000   1.0000   1.0000
     1.0000   1.0000   1.0000   1.0000   1.0000   1.0000   1.0000   1.0000
     1.0000   1.0000   1.0000   1.0000   1.0000   1.0000   1.0000   1.0000
     1.0000   1.0000   1.0000   1.0000   1.0000   1.0000   1.0000   1.0000
     1.0000   1.0000   1.0000   1.0000   1.0000   1.0000   1.0000   1.0000
     1.0000   1.0000   1.0000   1.0000   1.0000   1.0000   1.0000   1.0000
     1.0000   1.0000   1.0000   1.0000   1.0000   1.0000   1.0000   1.0000
     1.0000   1.0000   1.0000   1.0000   1.0000   1.0000   1.0000   1.0000
     1.0000   1.0000   1.0000   1.0000   1.0000   1.0000   1.0000   1.0000
     1.0000   1.0000   1.0000   1.0000   1.0000   1.0000   1.0000   1.0000
     1.0000   1.0000   1.0000   1.0000   1.0000   1.0000   1.0000   1.0000
     1.0000   1.0000   1.0000   1.0000   1.0000   1.0000   1.0000   1.0000
     1.0000   1.0000   1.0000   1.0000   1.0000   1.0000   1.0000   1.0000
     1.0000   1.0000   1.0000   1.0000   1.0000   1.0000   1.0000   1.0000
     1.0000   1.0000   1.0000   1.0000   1.0000   1.0000   1.0000   1.0000
     1.0000   1.0000   1.0000   1.0000   1.0000   1.0000   1.0000   1.0000
     1.0000   1.0000   1.0000   1.0000   1.0000   1.0000   1.0000   1.0000
     1.0000   1.0000   1.0000   1.0000   1.0000   1.0000   1.0000   1.0000
     1.0000   1.0000   1.0000   1.0000   1.0000   1.0000   1.0000   1.0000
     1.0000   1.0000   1.0000   1.0000   1.0000   1.0000   1.0000   1.0000
     1.0000   1.0000   1.0000   1.0000   1.0000   1.0000   1.0000   1.0000
     1.0000   1.0000   1.0000   1.0000   1.0000   1.0000   1.0000   1.0000
     1.0000   1.0000   1.0000   1.0000   1.0000   1.0000   1.0000   1.0000
     1.0000   1.0000   1.0000   1.0000   1.0000   1.0000   1.0000   1.0000
     1.0000   1.0000   1.0000   1.0000   1.0000   1.0000   1.0000   1.0000
     1.0000   1.0000   1.0000   1.0000   1.0000   1.0000   1.0000   1.0000
     1.0000   1.0000   1.0000   1.0000   1.0000   1.0000   1.0000   1.0000
     1.0000   1.0000   1.0000   1.0000   1.0000   1.0000   1.0000   1.0000
     1.0000   1.0000   0.0000   0.0000   0.0000   0.0000   0.0000   0.0000
     0.0000   0.0000   0.0000   0.0000   0.0000   0.0000   0.0000   0.0000
     0.0000   0.0000   0.0000   0.0000   0.0000   0.0000   0.0000   0.0000
     0.0000   0.0000   0.0000   0.0000   0.0000   0.0000   0.0000   0.0000
     0.0000   0.0000   0.0000   0.0000   0.0000   0.0000   0.0000   0.0000
     0.0000   0.0000   0.0000   0.0000   0.0000   0.0000   0.0000   0.0000
     0.0000   0.0000   0.0000   0.0000   0.0000   0.0000   0.0000   0.0000
     0.0000   0.0000

          k = 0.0000 0.2500-0.5000 (269962 PWs)   bands (ev):

   -80.0775 -46.1988 -46.1988 -46.1562  -7.4874  -7.4043  -7.2254  -7.1404
    -7.0221  -7.0130  -6.9542  -6.9415  -6.8827  -6.8759  -6.8373  -6.7983
    -6.7821  -6.7520  -6.7004  -6.6913  -6.6780  -6.6496  -6.6411  -6.6075
    -6.5943  -6.5863  -6.5615  -6.5417  -6.5266  -6.5157  -6.4937  -6.4748
    -6.3354  -6.2240  -6.2047  -0.9068  -0.8881  -0.8863  -0.8790  -0.8654
    -0.8548  -0.8491  -0.8414  -0.8389  -0.8330  -0.8298  -0.8198  -0.8179
    -0.8156  -0.8145  -0.8070  -0.8022  -0.8005  -0.7934  -0.7894  -0.7855
    -0.7824  -0.7807  -0.7763  -0.7736  -0.7706  -0.7636  -0.7601  -0.7593
    -0.7555  -0.7523  -0.7496  -0.7458  -0.7421  -0.7393  -0.7353  -0.7333
    -0.7288  -0.7236  -0.7186  -0.7163  -0.7149  -0.7107  -0.7040  -0.6964
    -0.6918  -0.6891  -0.6862  -0.6838  -0.6722  -0.6658  -0.6575  -0.6482
    -0.6450  -0.6395  -0.6342  -0.6308  -0.6247  -0.6196  -0.6156  -0.6101
    -0.6053  -0.5921  -0.5896  -0.5840  -0.5757  -0.5689  -0.5663  -0.5567
    -0.5531  -0.5466  -0.5394  -0.5310  -0.5224  -0.5167  -0.5014  -0.4938
    -0.4907  -0.4819  -0.4733  -0.4670  -0.4618  -0.4562  -0.4495  -0.4448
    -0.4402  -0.4358  -0.4304  -0.4255  -0.4236  -0.4202  -0.4166  -0.4155
    -0.4099  -0.4070  -0.4036  -0.4015  -0.3995  -0.3974  -0.3912  -0.3883
    -0.3846  -0.3824  -0.3797  -0.3782  -0.3773  -0.3738  -0.3677  -0.3640
    -0.3567  -0.3514  -0.3483  -0.3442  -0.3359  -0.3313  -0.3264  -0.3229
    -0.3155  -0.3113  -0.3065  -0.3016  -0.2991  -0.2957  -0.2910  -0.2879
    -0.2814  -0.2777  -0.2732  -0.2703  -0.2638  -0.2587  -0.2416  -0.2249
    -0.2070  -0.1968  -0.1777  -0.1682  -0.1509  -0.1353  -0.1214  -0.1079
    -0.0983  -0.0845  -0.0703  -0.0674  -0.0590  -0.0561  -0.0483  -0.0440
    -0.0329  -0.0314  -0.0138  -0.0029   0.0067   0.0135   0.5722   0.5905
     0.6134   0.6427   0.7885   0.8234   0.8307   0.8443   0.8583   0.8874
     0.9257   0.9849   1.0513   1.0931   1.1481   1.1589   1.1710   1.2719
     1.3090   1.4406   1.4835   1.6969   1.8227   1.9169   1.9896   2.0584
     2.0894   2.3026   2.3396   2.4414   2.5928   2.6142   2.6778   2.6882
     2.7060   2.7224   2.7663   2.8221   2.8589   2.9532   2.9581   3.0810
     3.1427   3.2073   3.3249   3.3291   3.3572   3.3803   3.4048   3.4228
     3.4424   3.4791   3.5012   3.5053   3.5338   3.5764   3.6242   3.6573
     3.6963   3.7151   3.7390   3.7789   3.8050   3.8454   3.8623   3.9054
     3.9182   3.9512   3.9824   3.9913   4.0143   4.0613   4.0850   4.1093
     4.1153   4.1800   4.2165   4.2321   4.2512   4.3198   4.3509   4.3946
     4.4159   4.4497   4.4853   4.5156   4.5275   4.7460   4.8114   4.8278
     4.8390   5.0078   5.0712   5.6943   6.3796   6.4135   6.4830   6.4960
     7.0916   8.3230   8.6172   8.8193   8.9891   9.1636   9.2594   9.2878
     9.3145   9.3664   9.4399   9.4822   9.5005   9.5254   9.5691   9.6389
     9.6813   9.6930   9.7437   9.7501   9.7854   9.8141   9.8298   9.8824
     9.9277   9.9811  10.0573  10.1194  10.1957  10.2133  10.2622  10.3595
    10.3746  10.4281  10.4668  10.5137  10.6015  10.6352  10.7100  10.7634
    10.7971  10.8876  10.9617  10.9914  11.0733  11.1839  11.2171  11.2320
    11.2490  11.2939  11.3204  11.3533  11.4325  11.4668  11.5304  11.5579
    11.6164  11.6677

     occupation numbers 
     1.0000   1.0000   1.0000   1.0000   1.0000   1.0000   1.0000   1.0000
     1.0000   1.0000   1.0000   1.0000   1.0000   1.0000   1.0000   1.0000
     1.0000   1.0000   1.0000   1.0000   1.0000   1.0000   1.0000   1.0000
     1.0000   1.0000   1.0000   1.0000   1.0000   1.0000   1.0000   1.0000
     1.0000   1.0000   1.0000   1.0000   1.0000   1.0000   1.0000   1.0000
     1.0000   1.0000   1.0000   1.0000   1.0000   1.0000   1.0000   1.0000
     1.0000   1.0000   1.0000   1.0000   1.0000   1.0000   1.0000   1.0000
     1.0000   1.0000   1.0000   1.0000   1.0000   1.0000   1.0000   1.0000
     1.0000   1.0000   1.0000   1.0000   1.0000   1.0000   1.0000   1.0000
     1.0000   1.0000   1.0000   1.0000   1.0000   1.0000   1.0000   1.0000
     1.0000   1.0000   1.0000   1.0000   1.0000   1.0000   1.0000   1.0000
     1.0000   1.0000   1.0000   1.0000   1.0000   1.0000   1.0000   1.0000
     1.0000   1.0000   1.0000   1.0000   1.0000   1.0000   1.0000   1.0000
     1.0000   1.0000   1.0000   1.0000   1.0000   1.0000   1.0000   1.0000
     1.0000   1.0000   1.0000   1.0000   1.0000   1.0000   1.0000   1.0000
     1.0000   1.0000   1.0000   1.0000   1.0000   1.0000   1.0000   1.0000
     1.0000   1.0000   1.0000   1.0000   1.0000   1.0000   1.0000   1.0000
     1.0000   1.0000   1.0000   1.0000   1.0000   1.0000   1.0000   1.0000
     1.0000   1.0000   1.0000   1.0000   1.0000   1.0000   1.0000   1.0000
     1.0000   1.0000   1.0000   1.0000   1.0000   1.0000   1.0000   1.0000
     1.0000   1.0000   1.0000   1.0000   1.0000   1.0000   1.0000   1.0000
     1.0000   1.0000   1.0000   1.0000   1.0000   1.0000   1.0000   1.0000
     1.0000   1.0000   1.0000   1.0000   1.0000   1.0000   1.0000   1.0000
     1.0000   1.0000   1.0000   1.0000   1.0000   1.0000   1.0000   1.0000
     1.0000   1.0000   1.0000   1.0000   1.0000   1.0000   1.0000   1.0000
     1.0000   1.0000   1.0000   1.0000   1.0000   1.0000   1.0000   1.0000
     1.0000   1.0000   1.0000   1.0000   1.0000   1.0000   1.0000   1.0000
     1.0000   1.0000   1.0000   1.0000   1.0000   1.0000   1.0000   1.0000
     1.0000   1.0000   1.0000   1.0000   1.0000   1.0000   1.0000   1.0000
     1.0000   1.0000   1.0000   1.0000   1.0000   1.0000   1.0000   1.0000
     1.0000   1.0000   1.0000   1.0000   1.0000   1.0000   1.0000   1.0000
     1.0000   1.0000   1.0000   1.0000   1.0000   1.0000   1.0000   1.0000
     1.0000   1.0000   1.0000   1.0000   1.0000   1.0000   1.0000   1.0000
     1.0000   1.0000   1.0000   1.0000   1.0000   1.0000   1.0000   1.0000
     1.0000   1.0000   1.0000   1.0000   1.0000   1.0000   1.0000   1.0000
     1.0000   1.0000   1.0000   1.0000   1.0000   1.0000   1.0000   1.0000
     1.0000   0.0034   0.0000   0.0000   0.0000   0.0000   0.0000   0.0000
     0.0000   0.0000   0.0000   0.0000   0.0000   0.0000   0.0000   0.0000
     0.0000   0.0000   0.0000   0.0000   0.0000   0.0000   0.0000   0.0000
     0.0000   0.0000   0.0000   0.0000   0.0000   0.0000   0.0000   0.0000
     0.0000   0.0000   0.0000   0.0000   0.0000   0.0000   0.0000   0.0000
     0.0000   0.0000   0.0000   0.0000   0.0000   0.0000   0.0000   0.0000
     0.0000   0.0000   0.0000   0.0000   0.0000   0.0000   0.0000   0.0000
     0.0000   0.0000

          k = 0.0000-0.5000-0.5000 (269920 PWs)   bands (ev):

   -80.0775 -46.1988 -46.1988 -46.1562  -7.4118  -7.3581  -7.3527  -7.2362
    -6.9915  -6.9798  -6.9438  -6.9397  -6.9321  -6.9257  -6.8311  -6.7675
    -6.7002  -6.6893  -6.6578  -6.6476  -6.6426  -6.6396  -6.6347  -6.6327
    -6.6112  -6.5964  -6.5932  -6.5901  -6.5604  -6.5257  -6.4924  -6.4868
    -6.3286  -6.2332  -6.2108  -0.8880  -0.8875  -0.8694  -0.8629  -0.8603
    -0.8510  -0.8420  -0.8390  -0.8328  -0.8252  -0.8238  -0.8203  -0.8200
    -0.8152  -0.8138  -0.8093  -0.8075  -0.8003  -0.7997  -0.7996  -0.7864
    -0.7851  -0.7814  -0.7781  -0.7735  -0.7730  -0.7720  -0.7695  -0.7639
    -0.7547  -0.7526  -0.7493  -0.7459  -0.7437  -0.7418  -0.7390  -0.7389
    -0.7326  -0.7251  -0.7239  -0.7195  -0.7188  -0.7120  -0.7047  -0.6968
    -0.6864  -0.6853  -0.6842  -0.6758  -0.6631  -0.6619  -0.6600  -0.6578
    -0.6462  -0.6431  -0.6427  -0.6396  -0.6269  -0.6187  -0.6156  -0.6131
    -0.6070  -0.6049  -0.5962  -0.5931  -0.5839  -0.5751  -0.5735  -0.5686
    -0.5652  -0.5590  -0.5382  -0.5381  -0.5366  -0.5245  -0.5128  -0.5099
    -0.5030  -0.4900  -0.4725  -0.4662  -0.4618  -0.4493  -0.4487  -0.4442
    -0.4407  -0.4354  -0.4340  -0.4268  -0.4217  -0.4187  -0.4159  -0.4125
    -0.4050  -0.4016  -0.4009  -0.4006  -0.3938  -0.3912  -0.3911  -0.3888
    -0.3861  -0.3833  -0.3757  -0.3740  -0.3698  -0.3695  -0.3656  -0.3646
    -0.3597  -0.3492  -0.3425  -0.3412  -0.3316  -0.3296  -0.3271  -0.3229
    -0.3102  -0.3083  -0.3009  -0.3007  -0.2954  -0.2876  -0.2840  -0.2815
    -0.2757  -0.2755  -0.2680  -0.2653  -0.2646  -0.2581  -0.2445  -0.2304
    -0.2296  -0.2083  -0.1618  -0.1439  -0.1305  -0.1121  -0.1070  -0.0865
    -0.0830  -0.0732  -0.0709  -0.0643  -0.0520  -0.0467  -0.0453  -0.0350
    -0.0254  -0.0150  -0.0079   0.0022   0.0244   0.0260   0.5589   0.5598
     0.5744   0.6086   0.6372   0.6939   0.7285   0.7306   0.8059   0.9011
     0.9091   1.0425   1.2294   1.3296   1.3321   1.3376   1.3565   1.3889
     1.4971   1.4990   1.5317   1.5757   1.5798   1.5840   1.6211   1.8206
     1.8225   2.2556   2.3624   2.4175   2.4436   2.4481   2.9829   3.0048
     3.0349   3.0466   3.0523   3.0607   3.0686   3.0848   3.0933   3.1049
     3.1052   3.1596   3.1617   3.1799   3.2016   3.3016   3.3343   3.3383
     3.3904   3.4786   3.4931   3.5049   3.5146   3.5179   3.5502   3.5753
     3.5952   3.6120   3.6544   3.6546   3.7840   3.8542   3.9072   3.9131
     3.9341   3.9388   4.0060   4.0099   4.0682   4.1117   4.1548   4.1746
     4.2315   4.2532   4.2600   4.2705   4.3015   4.3048   4.3271   4.3395
     4.3483   4.3865   4.3875   4.4488   4.5002   4.5212   4.5735   4.9604
     4.9641   5.1009   5.1618   5.6968   6.3671   6.4277   6.4770   6.5018
[...]
     1.0000   1.0000   1.0000   1.0000   1.0000   1.0000   1.0000   1.0000
     1.0000   1.0000   1.0000   1.0000   1.0000   1.0000   1.0000   1.0000
     1.0000   1.0000   1.0000   1.0000   1.0000   1.0000   1.0000   1.0000
     1.0000   1.0000   1.0000   1.0000   1.0000   1.0000   1.0000   1.0000
     1.0000   1.0000   1.0000   1.0000   1.0000   1.0000   1.0000   1.0000
     1.0000   1.0000   1.0000   1.0000   1.0000   1.0000   1.0000   1.0000
     1.0000   1.0000   1.0000   1.0000   1.0000   1.0000   1.0000   1.0000
     1.0000   1.0000   1.0000   1.0000   1.0000   1.0000   1.0000   1.0000
     1.0000   1.0000   1.0000   1.0000   1.0000   1.0000   1.0000   1.0000
     1.0000   1.0000   1.0000   1.0000   1.0000   1.0000   1.0000   1.0000
     1.0000   1.0000   1.0000   1.0000   1.0000   1.0000   1.0000   1.0000
     1.0000   1.0000   1.0000   1.0000   1.0000   1.0000   1.0000   1.0000
     1.0000   1.0000   1.0000   1.0000   1.0000   1.0000   1.0000   1.0000
     1.0000   1.0000   1.0000   1.0000   1.0000   1.0000   1.0000   1.0000
     1.0000   1.0000   1.0000   1.0000   1.0000   1.0000   1.0000   1.0000
     1.0000   1.0000   1.0000   1.0000   1.0000   1.0000   1.0000   1.0000
     1.0000   1.0000   1.0000   1.0000   1.0000   1.0000   1.0000   1.0000
     1.0000   1.0000   1.0000   1.0000   1.0000   1.0000   1.0000   0.0000
     0.0000   0.0000   0.0000   0.0000   0.0000   0.0000   0.0000   0.0000
     0.0000   0.0000   0.0000   0.0000   0.0000   0.0000   0.0000   0.0000
     0.0000   0.0000   0.0000   0.0000   0.0000   0.0000   0.0000   0.0000
     0.0000   0.0000   0.0000   0.0000   0.0000   0.0000   0.0000   0.0000
     0.0000   0.0000   0.0000   0.0000   0.0000   0.0000   0.0000   0.0000
     0.0000   0.0000   0.0000   0.0000   0.0000   0.0000   0.0000   0.0000
     0.0000   0.0000   0.0000   0.0000   0.0000   0.0000   0.0000   0.0000
     0.0000   0.0000

          k = 0.2500-0.2500 0.2500 (269935 PWs)   bands (ev):

   -77.0599 -43.2282 -43.2282 -43.2206  -7.5240  -7.2617  -7.2578  -7.2267
    -7.0467  -7.0375  -6.9976  -6.8576  -6.8511  -6.8494  -6.8167  -6.7693
    -6.7679  -6.7579  -6.7390  -6.7277  -6.7250  -6.6537  -6.6330  -6.6091
    -6.5841  -6.5822  -6.5431  -6.5378  -6.5376  -6.4962  -6.4957  -6.4901
    -6.3116  -6.1879  -6.1862  -0.8988  -0.8981  -0.8967  -0.8797  -0.8777
    -0.8707  -0.8452  -0.8406  -0.8352  -0.8282  -0.8209  -0.8160  -0.8119
    -0.8099  -0.8097  -0.8065  -0.8039  -0.7983  -0.7940  -0.7907  -0.7872
    -0.7866  -0.7796  -0.7794  -0.7721  -0.7709  -0.7640  -0.7598  -0.7552
    -0.7517  -0.7502  -0.7455  -0.7437  -0.7391  -0.7390  -0.7360  -0.7343
    -0.7298  -0.7269  -0.7248  -0.7175  -0.7115  -0.7057  -0.7018  -0.6940
    -0.6927  -0.6907  -0.6864  -0.6766  -0.6713  -0.6704  -0.6573  -0.6526
    -0.6454  -0.6402  -0.6303  -0.6298  -0.6208  -0.6141  -0.6123  -0.6070
    -0.5954  -0.5901  -0.5855  -0.5752  -0.5739  -0.5684  -0.5662  -0.5542
    -0.5475  -0.5455  -0.5379  -0.5298  -0.5241  -0.5204  -0.5043  -0.5022
    -0.4901  -0.4859  -0.4796  -0.4652  -0.4641  -0.4538  -0.4522  -0.4484
    -0.4437  -0.4390  -0.4355  -0.4262  -0.4246  -0.4202  -0.4156  -0.4123
    -0.4120  -0.4056  -0.4040  -0.4009  -0.3981  -0.3957  -0.3946  -0.3891
    -0.3857  -0.3822  -0.3816  -0.3788  -0.3769  -0.3711  -0.3651  -0.3598
    -0.3568  -0.3504  -0.3444  -0.3396  -0.3369  -0.3363  -0.3243  -0.3232
    -0.3135  -0.3108  -0.3025  -0.2994  -0.2944  -0.2913  -0.2901  -0.2866
    -0.2811  -0.2766  -0.2708  -0.2688  -0.2644  -0.2598  -0.2505  -0.2202
    -0.2010  -0.1991  -0.1802  -0.1726  -0.1610  -0.1413  -0.1286  -0.1278
    -0.0928  -0.0917  -0.0727  -0.0711  -0.0557  -0.0527  -0.0493  -0.0432
    -0.0374  -0.0340  -0.0078  -0.0035  -0.0008   0.0211   0.4963   0.5409
     0.5431   0.7757   0.7799   0.7949   0.8748   0.8843   0.9027   0.9281
     0.9401   0.9604   1.0662   1.1078   1.1158   1.1741   1.2344   1.2777
     1.2835   1.3559   1.4922   1.6631   1.8877   1.9286   1.9964   2.1037
     2.1147   2.3862   2.5645   2.5838   2.5938   2.6142   2.6441   2.6513
     2.7218   2.7558   2.7775   2.9567   2.9703   2.9876   3.0431   3.0480
     3.1321   3.1852   3.2100   3.2217   3.2419   3.2610   3.3362   3.3426
     3.3551   3.3575   3.3930   3.4277   3.4493   3.5109   3.5895   3.6005
     3.7048   3.7473   3.8027   3.8729   3.9119   3.9180   3.9261   3.9572
     3.9800   4.0146   4.0221   4.0507   4.0717   4.1191   4.1227   4.1495
     4.1584   4.1722   4.2180   4.2275   4.2670   4.3136   4.4895   4.5063
     4.5483   4.6098   4.6273   4.6374   4.6644   4.6901   4.7688   4.7878
     4.8579   5.1551   5.1699   6.9145   7.7605   7.8121   8.1646   8.5206
     8.5386   8.7162   8.8261   9.0149   9.0184   9.1611   9.2557   9.2585
     9.3003   9.3593   9.3767   9.4033   9.4507   9.5212   9.5919   9.5935
     9.7065   9.7886   9.7970   9.8962   9.9619   9.9750  10.0003  10.0397
    10.0989  10.1082  10.1531  10.1608  10.1852  10.1868  10.2096  10.2323
    10.2419  10.2890  10.3120  10.3514  10.4839  10.6720  10.7644  10.8553
    10.9780  11.0112  11.0564  11.1460  11.2545  11.2726  11.2829  11.3155
    11.3318  11.3631  11.4199  11.5353  11.5473  11.6264  11.6989  11.6998
    11.7147  11.8249

     occupation numbers 
     1.0000   1.0000   1.0000   1.0000   1.0000   1.0000   1.0000   1.0000
     1.0000   1.0000   1.0000   1.0000   1.0000   1.0000   1.0000   1.0000
     1.0000   1.0000   1.0000   1.0000   1.0000   1.0000   1.0000   1.0000
     1.0000   1.0000   1.0000   1.0000   1.0000   1.0000   1.0000   1.0000
     1.0000   1.0000   1.0000   1.0000   1.0000   1.0000   1.0000   1.0000
     1.0000   1.0000   1.0000   1.0000   1.0000   1.0000   1.0000   1.0000
     1.0000   1.0000   1.0000   1.0000   1.0000   1.0000   1.0000   1.0000
     1.0000   1.0000   1.0000   1.0000   1.0000   1.0000   1.0000   1.0000
     1.0000   1.0000   1.0000   1.0000   1.0000   1.0000   1.0000   1.0000
     1.0000   1.0000   1.0000   1.0000   1.0000   1.0000   1.0000   1.0000
     1.0000   1.0000   1.0000   1.0000   1.0000   1.0000   1.0000   1.0000
     1.0000   1.0000   1.0000   1.0000   1.0000   1.0000   1.0000   1.0000
     1.0000   1.0000   1.0000   1.0000   1.0000   1.0000   1.0000   1.0000
     1.0000   1.0000   1.0000   1.0000   1.0000   1.0000   1.0000   1.0000
     1.0000   1.0000   1.0000   1.0000   1.0000   1.0000   1.0000   1.0000
     1.0000   1.0000   1.0000   1.0000   1.0000   1.0000   1.0000   1.0000
     1.0000   1.0000   1.0000   1.0000   1.0000   1.0000   1.0000   1.0000
     1.0000   1.0000   1.0000   1.0000   1.0000   1.0000   1.0000   1.0000
     1.0000   1.0000   1.0000   1.0000   1.0000   1.0000   1.0000   1.0000
     1.0000   1.0000   1.0000   1.0000   1.0000   1.0000   1.0000   1.0000
     1.0000   1.0000   1.0000   1.0000   1.0000   1.0000   1.0000   1.0000
     1.0000   1.0000   1.0000   1.0000   1.0000   1.0000   1.0000   1.0000
     1.0000   1.0000   1.0000   1.0000   1.0000   1.0000   1.0000   1.0000
     1.0000   1.0000   1.0000   1.0000   1.0000   1.0000   1.0000   1.0000
     1.0000   1.0000   1.0000   1.0000   1.0000   1.0000   1.0000   1.0000
     1.0000   1.0000   1.0000   1.0000   1.0000   1.0000   1.0000   1.0000
     1.0000   1.0000   1.0000   1.0000   1.0000   1.0000   1.0000   1.0000
     1.0000   1.0000   1.0000   1.0000   1.0000   1.0000   1.0000   1.0000
     1.0000   1.0000   1.0000   1.0000   1.0000   1.0000   1.0000   1.0000
     1.0000   1.0000   1.0000   1.0000   1.0000   1.0000   1.0000   1.0000
     1.0000   1.0000   1.0000   1.0000   1.0000   1.0000   1.0000   1.0000
     1.0000   1.0000   1.0000   1.0000   1.0000   1.0000   1.0000   1.0000
     1.0000   1.0000   1.0000   1.0000   1.0000   1.0000   1.0000   1.0000
     1.0000   1.0000   1.0000   1.0000   1.0000   1.0000   1.0000   1.0000
     1.0000   1.0000   1.0000   1.0000   1.0000   1.0000   1.0000   1.0000
     1.0000   1.0000   1.0000   1.0000   1.0000   1.0000   1.0000   0.0000
     0.0000   0.0000   0.0000   0.0000   0.0000   0.0000   0.0000   0.0000
     0.0000   0.0000   0.0000   0.0000   0.0000   0.0000   0.0000   0.0000
     0.0000   0.0000   0.0000   0.0000   0.0000   0.0000   0.0000   0.0000
     0.0000   0.0000   0.0000   0.0000   0.0000   0.0000   0.0000   0.0000
     0.0000   0.0000   0.0000   0.0000   0.0000   0.0000   0.0000   0.0000
     0.0000   0.0000   0.0000   0.0000   0.0000   0.0000   0.0000   0.0000
     0.0000   0.0000   0.0000   0.0000   0.0000   0.0000   0.0000   0.0000
     0.0000   0.0000

          k = 0.2500-0.2500-0.5000 (269988 PWs)   bands (ev):

   -77.0599 -43.2282 -43.2282 -43.2206  -7.4545  -7.3763  -7.2058  -7.1987
    -7.1347  -7.0958  -7.0078  -6.8735  -6.8306  -6.8263  -6.7841  -6.7671
    -6.7624  -6.7416  -6.6870  -6.6687  -6.6576  -6.6503  -6.6395  -6.6157
    -6.6027  -6.5804  -6.5660  -6.5605  -6.5344  -6.5312  -6.5123  -6.5029
    -6.3047  -6.2009  -6.1883  -0.8976  -0.8810  -0.8807  -0.8723  -0.8590
    -0.8505  -0.8423  -0.8363  -0.8329  -0.8285  -0.8251  -0.8169  -0.8159
    -0.8150  -0.8102  -0.8079  -0.8050  -0.8016  -0.8007  -0.7975  -0.7924
    -0.7884  -0.7854  -0.7805  -0.7772  -0.7745  -0.7705  -0.7653  -0.7630
    -0.7590  -0.7556  -0.7525  -0.7490  -0.7443  -0.7419  -0.7395  -0.7338
    -0.7317  -0.7272  -0.7233  -0.7193  -0.7128  -0.7054  -0.7006  -0.6972
    -0.6927  -0.6892  -0.6831  -0.6734  -0.6669  -0.6623  -0.6547  -0.6472
    -0.6434  -0.6403  -0.6360  -0.6295  -0.6277  -0.6184  -0.6127  -0.6059
    -0.6036  -0.5945  -0.5864  -0.5820  -0.5810  -0.5754  -0.5659  -0.5642
    -0.5542  -0.5434  -0.5397  -0.5327  -0.5176  -0.5149  -0.5062  -0.4992
    -0.4913  -0.4858  -0.4847  -0.4832  -0.4728  -0.4635  -0.4593  -0.4511
    -0.4458  -0.4446  -0.4295  -0.4251  -0.4236  -0.4182  -0.4149  -0.4129
    -0.4093  -0.4039  -0.3992  -0.3973  -0.3948  -0.3936  -0.3869  -0.3844
    -0.3835  -0.3813  -0.3787  -0.3766  -0.3712  -0.3680  -0.3644  -0.3596
    -0.3557  -0.3521  -0.3441  -0.3411  -0.3363  -0.3287  -0.3255  -0.3210
    -0.3117  -0.3045  -0.3023  -0.2967  -0.2907  -0.2899  -0.2847  -0.2815
    -0.2786  -0.2724  -0.2657  -0.2632  -0.2621  -0.2493  -0.2399  -0.2314
    -0.2131  -0.1935  -0.1744  -0.1707  -0.1564  -0.1434  -0.1336  -0.1087
    -0.0986  -0.0931  -0.0762  -0.0702  -0.0628  -0.0573  -0.0520  -0.0470
    -0.0321  -0.0283  -0.0233  -0.0083   0.0005   0.0117   0.5171   0.6020
     0.7365   0.7606   0.7998   0.8168   0.8315   0.8619   0.9187   0.9242
     0.9391   0.9599   0.9859   1.0029   1.0487   1.0809   1.1725   1.3648
     1.4244   1.5031   1.5357   1.5703   1.6029   1.7010   1.8433   2.1366
     2.4823   2.5295   2.5344   2.5566   2.5692   2.5751   2.6292   2.6969
     2.7283   2.7537   2.7972   2.8151   2.8819   2.9542   2.9823   3.0374
     3.2119   3.2732   3.3305   3.3489   3.4084   3.4196   3.4371   3.4565
     3.4753   3.5005   3.5132   3.5483   3.5908   3.6041   3.6192   3.6281
     3.6318   3.6420   3.6484   3.7092   3.7299   3.7400   3.7752   3.7939
     3.8190   3.8970   3.9324   3.9912   4.0046   4.0717   4.0811   4.1424
     4.1487   4.1742   4.2136   4.2977   4.3369   4.3652   4.3786   4.4078
     4.4363   4.5985   4.7105   4.7603   4.7886   4.8365   4.8624   4.9145
     4.9655   5.0166   5.0320   6.9374   7.7818   7.7976   8.3146   8.4129
     8.7042   8.7880   8.8406   8.9309   9.0408   9.1483   9.2016   9.2773
     9.3097   9.3238   9.4144   9.5301   9.5428   9.5635   9.5807   9.5959
     9.6455   9.7018   9.7205   9.7741   9.7930   9.8336   9.8502   9.8918
     9.9779  10.0029  10.0578  10.0786  10.1531  10.1831  10.2389  10.2836
    10.3038  10.4308  10.4772  10.6334  10.6874  10.7067  10.7937  10.8399
    10.8771  10.9232  11.0308  11.1463  11.1665  11.2122  11.3390  11.3833
    11.4112  11.4506  11.4530  11.4944  11.5227  11.5559  11.5798  11.6011
    11.6074  11.6196

     occupation numbers 
     1.0000   1.0000   1.0000   1.0000   1.0000   1.0000   1.0000   1.0000
     1.0000   1.0000   1.0000   1.0000   1.0000   1.0000   1.0000   1.0000
     1.0000   1.0000   1.0000   1.0000   1.0000   1.0000   1.0000   1.0000
     1.0000   1.0000   1.0000   1.0000   1.0000   1.0000   1.0000   1.0000
     1.0000   1.0000   1.0000   1.0000   1.0000   1.0000   1.0000   1.0000
     1.0000   1.0000   1.0000   1.0000   1.0000   1.0000   1.0000   1.0000
     1.0000   1.0000   1.0000   1.0000   1.0000   1.0000   1.0000   1.0000
     1.0000   1.0000   1.0000   1.0000   1.0000   1.0000   1.0000   1.0000
     1.0000   1.0000   1.0000   1.0000   1.0000   1.0000   1.0000   1.0000
     1.0000   1.0000   1.0000   1.0000   1.0000   1.0000   1.0000   1.0000
     1.0000   1.0000   1.0000   1.0000   1.0000   1.0000   1.0000   1.0000
     1.0000   1.0000   1.0000   1.0000   1.0000   1.0000   1.0000   1.0000
     1.0000   1.0000   1.0000   1.0000   1.0000   1.0000   1.0000   1.0000
     1.0000   1.0000   1.0000   1.0000   1.0000   1.0000   1.0000   1.0000
     1.0000   1.0000   1.0000   1.0000   1.0000   1.0000   1.0000   1.0000
     1.0000   1.0000   1.0000   1.0000   1.0000   1.0000   1.0000   1.0000
     1.0000   1.0000   1.0000   1.0000   1.0000   1.0000   1.0000   1.0000
     1.0000   1.0000   1.0000   1.0000   1.0000   1.0000   1.0000   1.0000
     1.0000   1.0000   1.0000   1.0000   1.0000   1.0000   1.0000   1.0000
     1.0000   1.0000   1.0000   1.0000   1.0000   1.0000   1.0000   1.0000
     1.0000   1.0000   1.0000   1.0000   1.0000   1.0000   1.0000   1.0000
     1.0000   1.0000   1.0000   1.0000   1.0000   1.0000   1.0000   1.0000
     1.0000   1.0000   1.0000   1.0000   1.0000   1.0000   1.0000   1.0000
     1.0000   1.0000   1.0000   1.0000   1.0000   1.0000   1.0000   1.0000
     1.0000   1.0000   1.0000   1.0000   1.0000   1.0000   1.0000   1.0000
     1.0000   1.0000   1.0000   1.0000   1.0000   1.0000   1.0000   1.0000
     1.0000   1.0000   1.0000   1.0000   1.0000   1.0000   1.0000   1.0000
     1.0000   1.0000   1.0000   1.0000   1.0000   1.0000   1.0000   1.0000
     1.0000   1.0000   1.0000   1.0000   1.0000   1.0000   1.0000   1.0000
     1.0000   1.0000   1.0000   1.0000   1.0000   1.0000   1.0000   1.0000
     1.0000   1.0000   1.0000   1.0000   1.0000   1.0000   1.0000   1.0000
     1.0000   1.0000   1.0000   1.0000   1.0000   1.0000   1.0000   1.0000
     1.0000   1.0000   1.0000   1.0000   1.0000   1.0000   1.0000   1.0000
     1.0000   1.0000   1.0000   1.0000   1.0000   1.0000   1.0000   1.0000
     1.0000   1.0000   1.0000   1.0000   1.0000   1.0000   1.0000   1.0000
     1.0000   1.0000   1.0000   1.0000   1.0000   1.0000   0.0338   0.0000
     0.0000   0.0000   0.0000   0.0000   0.0000   0.0000   0.0000   0.0000
     0.0000   0.0000   0.0000   0.0000   0.0000   0.0000   0.0000   0.0000
     0.0000   0.0000   0.0000   0.0000   0.0000   0.0000   0.0000   0.0000
     0.0000   0.0000   0.0000   0.0000   0.0000   0.0000   0.0000   0.0000
     0.0000   0.0000   0.0000   0.0000   0.0000   0.0000   0.0000   0.0000
     0.0000   0.0000   0.0000   0.0000   0.0000   0.0000   0.0000   0.0000
     0.0000   0.0000   0.0000   0.0000   0.0000   0.0000   0.0000   0.0000
     0.0000   0.0000

     the Fermi energy is     8.2970 ev

!    total energy              =   -9942.09740524 Ry
     total all-electron energy =   -138653.836383 Ry
     estimated scf accuracy    <          2.8E-09 Ry
     smearing contrib. (-TS)   =      -0.00006787 Ry
     internal energy E=F+TS    =   -9942.09733737 Ry

     The total energy is F=E-TS. E is the sum of the following terms:
     one-electron contribution =   -2892.45055147 Ry
     hartree contribution      =    2014.73512280 Ry
     xc contribution           =   -1651.36455019 Ry
     ewald contribution        =   -2941.96206788 Ry
     one-center paw contrib.   =   -4471.05529063 Ry
      -> PAW hartree energy AE =     123.54421984 Ry
      -> PAW hartree energy PS =    -122.90407876 Ry
      -> PAW xc energy AE      =    -143.22931434 Ry
      -> PAW xc energy PS      =      47.16754446 Ry
      -> total E_H with PAW    =    2015.37526388 Ry
      -> total E_XC with PAW   =   -1747.42632007 Ry

     total magnetization       =     2.93 Bohr mag/cell
     absolute magnetization    =     3.24 Bohr mag/cell

     convergence has been achieved in  24 iterations

     Writing all to output data dir ./out/Fe_vac_qn2_unrlxd.save/
 
     init_run     :      8.94s CPU      9.87s WALL (       1 calls)
     electrons    :    464.65s CPU    471.33s WALL (       1 calls)

     Called by init_run:
     wfcinit      :      5.58s CPU      5.98s WALL (       1 calls)
     wfcinit:atom :      0.06s CPU      0.07s WALL (       4 calls)
     wfcinit:wfcr :      5.29s CPU      5.62s WALL (       4 calls)
     potinit      :      1.20s CPU      1.34s WALL (       1 calls)
     hinit0       :      0.45s CPU      0.61s WALL (       1 calls)

     Called by electrons:
     c_bands      :    417.35s CPU    423.05s WALL (      24 calls)
     sum_band     :     40.82s CPU     41.31s WALL (      24 calls)
     v_of_rho     :      1.80s CPU      1.92s WALL (      25 calls)
     v_h          :      0.09s CPU      0.09s WALL (      25 calls)
     v_xc         :      1.72s CPU      1.83s WALL (      25 calls)
     newd         :      1.17s CPU      1.22s WALL (      25 calls)
     PAW_pot      :      3.14s CPU      3.19s WALL (      25 calls)
     mix_rho      :      0.70s CPU      0.73s WALL (      24 calls)

     Called by c_bands:
     init_us_2    :      5.36s CPU      5.42s WALL (     196 calls)
     init_us_2:cp :      5.36s CPU      5.42s WALL (     196 calls)
     cegterg      :    335.47s CPU    340.48s WALL (      96 calls)

     Called by sum_band:
     sum_band:wei :      0.16s CPU      0.16s WALL (      24 calls)
     sum_band:loo :     37.45s CPU     37.89s WALL (      24 calls)
     sum_band:buf :      0.80s CPU      0.93s WALL (      96 calls)
     sum_band:ini :      2.62s CPU      2.64s WALL (      96 calls)
     sum_band:cal :     14.04s CPU     14.14s WALL (      96 calls)
     sum_band:bec :      0.28s CPU      0.29s WALL (      96 calls)
     addusdens    :      1.42s CPU      1.43s WALL (      24 calls)
                                        0.00s GPU  (      24 calls)
     addusd:skk   :      0.02s CPU      0.02s WALL (      72 calls)
                                        0.00s GPU  (      72 calls)

     Called by *egterg:
     cdiaghg      :     35.51s CPU     35.87s WALL (     686 calls)
     cegterg:over :     24.85s CPU     25.03s WALL (     590 calls)
     cegterg:upda :     24.40s CPU     24.62s WALL (     590 calls)
     cegterg:last :     40.51s CPU     40.75s WALL (     193 calls)
     cdiaghg:chol :      2.20s CPU      2.26s WALL (     686 calls)
     cdiaghg:inve :      3.17s CPU      3.20s WALL (     686 calls)
     cdiaghg:para :      5.05s CPU      5.08s WALL (    1372 calls)
     h_psi        :    165.98s CPU    168.68s WALL (     690 calls)
     s_psi        :     37.79s CPU     38.04s WALL (     690 calls)
     g_psi        :      0.80s CPU      0.81s WALL (     590 calls)

     Called by h_psi:
     h_psi:calbec :     37.18s CPU     37.45s WALL (     690 calls)
     vloc_psi     :     88.66s CPU     89.50s WALL (     690 calls)
     add_vuspsi   :     38.74s CPU     39.23s WALL (     690 calls)

     General routines
     calbec       :     51.21s CPU     51.59s WALL (     786 calls)
     fft          :      1.28s CPU      1.56s WALL (     523 calls)
     ffts         :      0.10s CPU      0.10s WALL (      48 calls)
     fftw         :    100.19s CPU    101.14s WALL (  186180 calls)
 
     Parallel routines

     PAW routines
     PAW_pot      :      3.14s CPU      3.19s WALL (      25 calls)
     PAW_symme    :      0.06s CPU      0.06s WALL (      49 calls)
 
     PWSCF        :   8m 0.06s CPU   8m11.88s WALL

 
   This run was terminated on:   1:34: 7   7Jul2024            

=------------------------------------------------------------------------------=
   JOB DONE.
=------------------------------------------------------------------------------=
