
     Program PWSCF v.7.2 starts on  7Jul2024 at  1:34:12 

     This program is part of the open-source Quantum ESPRESSO suite
     for quantum simulation of materials; please cite
         "P. Giannozzi et al., J. Phys.:Condens. Matter 21 395502 (2009);
         "P. Giannozzi et al., J. Phys.:Condens. Matter 29 465901 (2017);
         "P. Giannozzi et al., J. Chem. Phys. 152 154105 (2020);
          URL http://www.quantum-espresso.org", 
     in publications or presentations arising from this work. More details at
     http://www.quantum-espresso.org/quote

     Parallel version (MPI), running on   784 processors

     MPI processes distributed on     7 nodes
     223981 MiB available memory on the printing compute node when the environment starts
 
     Reading input from 2.Fe_vac_in_ZnS.nscf.qn2.unrlxd.in

     Current dimensions of program PWSCF are:
     Max number of different atomic species (ntypx) = 10
     Max number of k-points (npk) =  40000
     Max angular momentum in pseudopotentials (lmaxx) =  4

     Atomic positions and unit cell read from directory:
     ./out/Fe_vac_qn2_unrlxd.save/
 
     file S.pbe-n-kjpaw_psl.1.0.0.UPF: wavefunction(s)  3S 3P renormalized
     file Zn.pbe-dnl-kjpaw_psl.1.0.0.UPF: wavefunction(s)  4S 3D renormalized
     file Fe.pbe-spn-kjpaw_psl.1.0.0.UPF: wavefunction(s)  3P 3D renormalized
     [opt_tetra]  Optimized tetrahedron method is used.
 
     K-points division:     npool     =       7
     R & G space division:  proc/nbgrp/npool/nimage =     112
     Subspace diagonalization in iterative solution of the eigenvalue problem:
     one sub-group per band group will be used
     scalapack distributed-memory algorithm (size of sub-group:  3*  3 procs)

 
     Parallelization info
     --------------------
     sticks:   dense  smooth     PW     G-vecs:    dense   smooth      PW
     Min         180     180     46                19282    19282    2562
     Max         181     181     47                19291    19291    2573
     Sum       20217   20217   5249              2160009  2160009  287777
 
     Using Slab Decomposition
 


     bravais-lattice index     =            1
     lattice parameter (alat)  =      20.5686  a.u.
     unit-cell volume          =    8701.8437 (a.u.)^3
     number of atoms/cell      =           63
     number of atomic types    =            3
     number of electrons       =       576.00
     number of Kohn-Sham states=          346
     kinetic-energy cutoff     =     150.0000  Ry
     charge density cutoff     =     600.0000  Ry
     Exchange-correlation= SLA  PW   PBX  PBC
                           (   1   4   3   4   0   0   0)

     celldm(1)=  20.568554  celldm(2)=   0.000000  celldm(3)=   0.000000
     celldm(4)=   0.000000  celldm(5)=   0.000000  celldm(6)=   0.000000

     crystal axes: (cart. coord. in units of alat)
               a(1) = (   1.000000   0.000000   0.000000 )  
               a(2) = (   0.000000   1.000000   0.000000 )  
               a(3) = (   0.000000   0.000000   1.000000 )  

     reciprocal axes: (cart. coord. in units 2 pi/alat)
               b(1) = (  1.000000  0.000000  0.000000 )  
               b(2) = (  0.000000  1.000000  0.000000 )  
               b(3) = (  0.000000  0.000000  1.000000 )  


     PseudoPot. # 1 for S  read from file:
     /arf/home/amuhaymin/pseudo/S.pbe-n-kjpaw_psl.1.0.0.UPF
     MD5 check sum: fb45dfebcf3e72a4e1bd4a866ec2e262
     Pseudo is Projector augmented-wave + core cor, Zval =  6.0
     Generated using &quot;atomic&quot; code by A. Dal Corso  v.6.3
     Shape of augmentation charge: PSQ
     Using radial grid of 1151 points,  6 beta functions with: 
                l(1) =   0
                l(2) =   0
                l(3) =   1
                l(4) =   1
                l(5) =   2
                l(6) =   2
     Q(r) pseudized with 0 coefficients 


     PseudoPot. # 2 for Zn read from file:
     /arf/home/amuhaymin/pseudo/Zn.pbe-dnl-kjpaw_psl.1.0.0.UPF
     MD5 check sum: c608214d9520ac179f507641260889e3
     Pseudo is Projector augmented-wave + core cor, Zval = 12.0
     Generated using &quot;atomic&quot; code by A. Dal Corso  v.6.2.2
     Shape of augmentation charge: PSQ
     Using radial grid of 1201 points,  6 beta functions with: 
                l(1) =   0
                l(2) =   0
                l(3) =   1
                l(4) =   1
                l(5) =   2
                l(6) =   2
     Q(r) pseudized with 0 coefficients 


     PseudoPot. # 3 for Fe read from file:
     /arf/home/amuhaymin/pseudo/Fe.pbe-spn-kjpaw_psl.1.0.0.UPF
     MD5 check sum: fc81f059e5c5069939230b1155715ae8
     Pseudo is Projector augmented-wave + core cor, Zval = 16.0
     Generated using &quot;atomic&quot; code by A. Dal Corso  v.6.3
     Shape of augmentation charge: PSQ
     Using radial grid of 1191 points,  6 beta functions with: 
                l(1) =   0
                l(2) =   0
                l(3) =   1
                l(4) =   1
                l(5) =   2
                l(6) =   2
     Q(r) pseudized with 0 coefficients 


     atomic species   valence    mass     pseudopotential
        S              6.00    32.06500     S ( 1.00)
        Zn            12.00    65.38000     Zn( 1.00)
        Fe            16.00    63.54600     Fe( 1.00)

     Starting magnetic structure 
     atomic species   magnetization
        S            0.000
        Zn           0.000
        Fe           0.125

      6 Sym. Ops. (no inversion) found


                                    s                        frac. trans.

      isym =  1     identity                                     

 cryst.   s( 1) = (     1          0          0      )
                  (     0          1          0      )
                  (     0          0          1      )

 cart.    s( 1) = (  1.0000000  0.0000000  0.0000000 )
                  (  0.0000000  1.0000000  0.0000000 )
                  (  0.0000000  0.0000000  1.0000000 )


      isym =  2     120 deg rotation - cart. axis [-1,-1,-1]     

 cryst.   s( 2) = (     0          0          1      )
                  (     1          0          0      )
                  (     0          1          0      )

 cart.    s( 2) = (  0.0000000  1.0000000  0.0000000 )
                  (  0.0000000  0.0000000  1.0000000 )
                  (  1.0000000  0.0000000  0.0000000 )


      isym =  3     120 deg rotation - cart. axis [1,1,1]        

 cryst.   s( 3) = (     0          1          0      )
                  (     0          0          1      )
                  (     1          0          0      )

 cart.    s( 3) = (  0.0000000  0.0000000  1.0000000 )
                  (  1.0000000  0.0000000  0.0000000 )
                  (  0.0000000  1.0000000  0.0000000 )


      isym =  4     inv. 180 deg rotation - cart. axis [1,-1,0]  

 cryst.   s( 4) = (     0          1          0      )
                  (     1          0          0      )
                  (     0          0          1      )

 cart.    s( 4) = (  0.0000000  1.0000000  0.0000000 )
                  (  1.0000000  0.0000000  0.0000000 )
                  (  0.0000000  0.0000000  1.0000000 )


      isym =  5     inv. 180 deg rotation - cart. axis [-1,0,1]  

 cryst.   s( 5) = (     0          0          1      )
                  (     0          1          0      )
                  (     1          0          0      )

 cart.    s( 5) = (  0.0000000  0.0000000  1.0000000 )
                  (  0.0000000  1.0000000  0.0000000 )
                  (  1.0000000  0.0000000  0.0000000 )


      isym =  6     inv. 180 deg rotation - cart. axis [0,1,-1]  

 cryst.   s( 6) = (     1          0          0      )
                  (     0          0          1      )
                  (     0          1          0      )

 cart.    s( 6) = (  1.0000000  0.0000000  0.0000000 )
                  (  0.0000000  0.0000000  1.0000000 )
                  (  0.0000000  1.0000000  0.0000000 )


     point group C_3v (3m)  
     there are  3 classes
     the character table:

       E     2C3   3s_v 
A_1    1.00  1.00  1.00
A_2    1.00  1.00 -1.00
E      2.00 -1.00  0.00

     the symmetry operations in each class and the name of the first element:

     E        1
          identity                                               
     2C3      2    3
          120 deg rotation - cart. axis [-1,-1,-1]               
     3s_v     4    5    6
          inv. 180 deg rotation - cart. axis [1,-1,0]            

   Cartesian axes

     site n.     atom                  positions (alat units)
         1           Zn  tau(   1) = (   0.0000000   0.0000000   0.0000000  )
         2           Zn  tau(   2) = (   0.0000000   0.2500000   0.2500000  )
         3           Zn  tau(   3) = (   0.2500000   0.0000000   0.2500000  )
         4           Zn  tau(   4) = (   0.2500000   0.2500000   0.0000000  )
         5           S   tau(   5) = (   0.1250000   0.3750000   0.3750000  )
         6           S   tau(   6) = (   0.1250000   0.1250000   0.1250000  )
         7           S   tau(   7) = (   0.3750000   0.3750000   0.1250000  )
         8           S   tau(   8) = (   0.3750000   0.1250000   0.3750000  )
         9           Zn  tau(   9) = (   0.0000000   0.0000000   0.5000000  )
        10           Zn  tau(  10) = (   0.0000000   0.2500000   0.7500000  )
        11           Zn  tau(  11) = (   0.2500000   0.0000000   0.7500000  )
        12           Zn  tau(  12) = (   0.2500000   0.2500000   0.5000000  )
        13           S   tau(  13) = (   0.1250000   0.3750000   0.8750000  )
        14           S   tau(  14) = (   0.1250000   0.1250000   0.6250000  )
        15           S   tau(  15) = (   0.3750000   0.3750000   0.6250000  )
        16           S   tau(  16) = (   0.3750000   0.1250000   0.8750000  )
        17           Zn  tau(  17) = (   0.0000000   0.5000000   0.0000000  )
        18           Zn  tau(  18) = (   0.0000000   0.7500000   0.2500000  )
        19           Zn  tau(  19) = (   0.2500000   0.5000000   0.2500000  )
        20           Zn  tau(  20) = (   0.2500000   0.7500000   0.0000000  )
        21           S   tau(  21) = (   0.1250000   0.8750000   0.3750000  )
        22           S   tau(  22) = (   0.1250000   0.6250000   0.1250000  )
        23           S   tau(  23) = (   0.3750000   0.8750000   0.1250000  )
        24           S   tau(  24) = (   0.3750000   0.6250000   0.3750000  )
        25           Zn  tau(  25) = (   0.0000000   0.5000000   0.5000000  )
        26           Zn  tau(  26) = (   0.0000000   0.7500000   0.7500000  )
        27           Zn  tau(  27) = (   0.2500000   0.5000000   0.7500000  )
        28           Zn  tau(  28) = (   0.2500000   0.7500000   0.5000000  )
        29           S   tau(  29) = (   0.1250000   0.8750000   0.8750000  )
        30           S   tau(  30) = (   0.1250000   0.6250000   0.6250000  )
        31           S   tau(  31) = (   0.3750000   0.8750000   0.6250000  )
        32           S   tau(  32) = (   0.3750000   0.6250000   0.8750000  )
        33           Zn  tau(  33) = (   0.5000000   0.0000000   0.0000000  )
        34           Zn  tau(  34) = (   0.5000000   0.2500000   0.2500000  )
        35           Zn  tau(  35) = (   0.7500000   0.0000000   0.2500000  )
        36           Zn  tau(  36) = (   0.7500000   0.2500000   0.0000000  )
        37           S   tau(  37) = (   0.6250000   0.3750000   0.3750000  )
        38           S   tau(  38) = (   0.6250000   0.1250000   0.1250000  )
        39           S   tau(  39) = (   0.8750000   0.3750000   0.1250000  )
        40           S   tau(  40) = (   0.8750000   0.1250000   0.3750000  )
        41           Zn  tau(  41) = (   0.5000000   0.0000000   0.5000000  )
        42           Zn  tau(  42) = (   0.5000000   0.2500000   0.7500000  )
        43           Zn  tau(  43) = (   0.7500000   0.0000000   0.7500000  )
        44           Zn  tau(  44) = (   0.7500000   0.2500000   0.5000000  )
        45           S   tau(  45) = (   0.6250000   0.3750000   0.8750000  )
        46           S   tau(  46) = (   0.6250000   0.1250000   0.6250000  )
        47           S   tau(  47) = (   0.8750000   0.3750000   0.6250000  )
        48           S   tau(  48) = (   0.8750000   0.1250000   0.8750000  )
        49           Zn  tau(  49) = (   0.5000000   0.5000000   0.0000000  )
        50           Zn  tau(  50) = (   0.5000000   0.7500000   0.2500000  )
        51           Zn  tau(  51) = (   0.7500000   0.5000000   0.2500000  )
        52           Zn  tau(  52) = (   0.7500000   0.7500000   0.0000000  )
        53           S   tau(  53) = (   0.6250000   0.8750000   0.3750000  )
        54           S   tau(  54) = (   0.6250000   0.6250000   0.1250000  )
        55           S   tau(  55) = (   0.8750000   0.8750000   0.1250000  )
        56           S   tau(  56) = (   0.8750000   0.6250000   0.3750000  )
        57           Fe  tau(  57) = (   0.5000000   0.5000000   0.5000000  )
        58           Zn  tau(  58) = (   0.5000000   0.7500000   0.7500000  )
        59           Zn  tau(  59) = (   0.7500000   0.5000000   0.7500000  )
        60           Zn  tau(  60) = (   0.7500000   0.7500000   0.5000000  )
        61           S   tau(  61) = (   0.6250000   0.8750000   0.8750000  )
        62           S   tau(  62) = (   0.8750000   0.8750000   0.6250000  )
        63           S   tau(  63) = (   0.8750000   0.6250000   0.8750000  )

   Crystallographic axes

     site n.     atom                  positions (cryst. coord.)
         1           Zn  tau(   1) = (  0.0000000  0.0000000  0.0000000  )
         2           Zn  tau(   2) = (  0.0000000  0.2500000  0.2500000  )
         3           Zn  tau(   3) = (  0.2500000  0.0000000  0.2500000  )
         4           Zn  tau(   4) = (  0.2500000  0.2500000  0.0000000  )
         5           S   tau(   5) = (  0.1250000  0.3750000  0.3750000  )
         6           S   tau(   6) = (  0.1250000  0.1250000  0.1250000  )
         7           S   tau(   7) = (  0.3750000  0.3750000  0.1250000  )
         8           S   tau(   8) = (  0.3750000  0.1250000  0.3750000  )
         9           Zn  tau(   9) = (  0.0000000  0.0000000  0.5000000  )
        10           Zn  tau(  10) = (  0.0000000  0.2500000  0.7500000  )
        11           Zn  tau(  11) = (  0.2500000  0.0000000  0.7500000  )
        12           Zn  tau(  12) = (  0.2500000  0.2500000  0.5000000  )
        13           S   tau(  13) = (  0.1250000  0.3750000  0.8750000  )
        14           S   tau(  14) = (  0.1250000  0.1250000  0.6250000  )
        15           S   tau(  15) = (  0.3750000  0.3750000  0.6250000  )
        16           S   tau(  16) = (  0.3750000  0.1250000  0.8750000  )
        17           Zn  tau(  17) = (  0.0000000  0.5000000  0.0000000  )
        18           Zn  tau(  18) = (  0.0000000  0.7500000  0.2500000  )
        19           Zn  tau(  19) = (  0.2500000  0.5000000  0.2500000  )
        20           Zn  tau(  20) = (  0.2500000  0.7500000  0.0000000  )
        21           S   tau(  21) = (  0.1250000  0.8750000  0.3750000  )
        22           S   tau(  22) = (  0.1250000  0.6250000  0.1250000  )
        23           S   tau(  23) = (  0.3750000  0.8750000  0.1250000  )
        24           S   tau(  24) = (  0.3750000  0.6250000  0.3750000  )
        25           Zn  tau(  25) = (  0.0000000  0.5000000  0.5000000  )
        26           Zn  tau(  26) = (  0.0000000  0.7500000  0.7500000  )
        27           Zn  tau(  27) = (  0.2500000  0.5000000  0.7500000  )
        28           Zn  tau(  28) = (  0.2500000  0.7500000  0.5000000  )
        29           S   tau(  29) = (  0.1250000  0.8750000  0.8750000  )
        30           S   tau(  30) = (  0.1250000  0.6250000  0.6250000  )
        31           S   tau(  31) = (  0.3750000  0.8750000  0.6250000  )
        32           S   tau(  32) = (  0.3750000  0.6250000  0.8750000  )
        33           Zn  tau(  33) = (  0.5000000  0.0000000  0.0000000  )
        34           Zn  tau(  34) = (  0.5000000  0.2500000  0.2500000  )
        35           Zn  tau(  35) = (  0.7500000  0.0000000  0.2500000  )
        36           Zn  tau(  36) = (  0.7500000  0.2500000  0.0000000  )
        37           S   tau(  37) = (  0.6250000  0.3750000  0.3750000  )
        38           S   tau(  38) = (  0.6250000  0.1250000  0.1250000  )
        39           S   tau(  39) = (  0.8750000  0.3750000  0.1250000  )
        40           S   tau(  40) = (  0.8750000  0.1250000  0.3750000  )
        41           Zn  tau(  41) = (  0.5000000  0.0000000  0.5000000  )
        42           Zn  tau(  42) = (  0.5000000  0.2500000  0.7500000  )
        43           Zn  tau(  43) = (  0.7500000  0.0000000  0.7500000  )
        44           Zn  tau(  44) = (  0.7500000  0.2500000  0.5000000  )
        45           S   tau(  45) = (  0.6250000  0.3750000  0.8750000  )
        46           S   tau(  46) = (  0.6250000  0.1250000  0.6250000  )
        47           S   tau(  47) = (  0.8750000  0.3750000  0.6250000  )
        48           S   tau(  48) = (  0.8750000  0.1250000  0.8750000  )
        49           Zn  tau(  49) = (  0.5000000  0.5000000  0.0000000  )
        50           Zn  tau(  50) = (  0.5000000  0.7500000  0.2500000  )
        51           Zn  tau(  51) = (  0.7500000  0.5000000  0.2500000  )
        52           Zn  tau(  52) = (  0.7500000  0.7500000  0.0000000  )
        53           S   tau(  53) = (  0.6250000  0.8750000  0.3750000  )
        54           S   tau(  54) = (  0.6250000  0.6250000  0.1250000  )
        55           S   tau(  55) = (  0.8750000  0.8750000  0.1250000  )
        56           S   tau(  56) = (  0.8750000  0.6250000  0.3750000  )
        57           Fe  tau(  57) = (  0.5000000  0.5000000  0.5000000  )
        58           Zn  tau(  58) = (  0.5000000  0.7500000  0.7500000  )
        59           Zn  tau(  59) = (  0.7500000  0.5000000  0.7500000  )
        60           Zn  tau(  60) = (  0.7500000  0.7500000  0.5000000  )
        61           S   tau(  61) = (  0.6250000  0.8750000  0.8750000  )
        62           S   tau(  62) = (  0.8750000  0.8750000  0.6250000  )
        63           S   tau(  63) = (  0.8750000  0.6250000  0.8750000  )

     number of k points=    13 (tetrahedron method)
                       cart. coord. in units 2pi/alat
        k(    1) = (   0.0000000   0.0000000   0.0000000), wk =   0.0156250
        k(    2) = (   0.0000000   0.0000000   0.2500000), wk =   0.0937500
        k(    3) = (   0.0000000   0.0000000  -0.5000000), wk =   0.0468750
        k(    4) = (   0.0000000   0.2500000   0.2500000), wk =   0.0937500
        k(    5) = (   0.0000000   0.2500000  -0.5000000), wk =   0.1875000
        k(    6) = (   0.0000000  -0.5000000  -0.5000000), wk =   0.0468750
        k(    7) = (   0.2500000   0.2500000   0.2500000), wk =   0.0312500
        k(    8) = (   0.2500000   0.2500000  -0.5000000), wk =   0.0937500
        k(    9) = (   0.2500000  -0.5000000  -0.5000000), wk =   0.0937500
        k(   10) = (  -0.5000000  -0.5000000  -0.5000000), wk =   0.0156250
        k(   11) = (  -0.2500000   0.0000000   0.2500000), wk =   0.0937500
        k(   12) = (   0.2500000  -0.2500000   0.2500000), wk =   0.0937500
        k(   13) = (   0.2500000  -0.2500000  -0.5000000), wk =   0.0937500

                       cryst. coord.
        k(    1) = (   0.0000000   0.0000000   0.0000000), wk =   0.0156250
        k(    2) = (   0.0000000   0.0000000   0.2500000), wk =   0.0937500
        k(    3) = (   0.0000000   0.0000000  -0.5000000), wk =   0.0468750
        k(    4) = (   0.0000000   0.2500000   0.2500000), wk =   0.0937500
        k(    5) = (   0.0000000   0.2500000  -0.5000000), wk =   0.1875000
        k(    6) = (   0.0000000  -0.5000000  -0.5000000), wk =   0.0468750
        k(    7) = (   0.2500000   0.2500000   0.2500000), wk =   0.0312500
        k(    8) = (   0.2500000   0.2500000  -0.5000000), wk =   0.0937500
        k(    9) = (   0.2500000  -0.5000000  -0.5000000), wk =   0.0937500
        k(   10) = (  -0.5000000  -0.5000000  -0.5000000), wk =   0.0156250
        k(   11) = (  -0.2500000   0.0000000   0.2500000), wk =   0.0937500
        k(   12) = (   0.2500000  -0.2500000   0.2500000), wk =   0.0937500
        k(   13) = (   0.2500000  -0.2500000  -0.5000000), wk =   0.0937500

     Dense  grid:  2160009 G-vectors     FFT dimensions: ( 162, 162, 162)

     Dynamical RAM for                 wfc:      12.72 MB

     Dynamical RAM for     wfc (w. buffer):      63.62 MB

     Dynamical RAM for           str. fact:       0.88 MB

     Dynamical RAM for           local pot:       0.00 MB

     Dynamical RAM for          nlocal pot:      41.70 MB

     Dynamical RAM for                qrad:       5.90 MB

     Dynamical RAM for          rho,v,vnew:       4.17 MB

     Dynamical RAM for           G-vectors:       1.25 MB

     Dynamical RAM for          h,s,v(r/c):       2.42 MB

     Dynamical RAM for          <psi|beta>:       5.99 MB

     Dynamical RAM for                 psi:      25.45 MB

     Dynamical RAM for                hpsi:      25.45 MB

     Dynamical RAM for                spsi:      25.45 MB

     Dynamical RAM for      wfcinit/wfcrot:      34.28 MB

     Dynamical RAM for           addusdens:       9.67 MB

     Estimated static dynamical RAM per process >     121.10 MB

     Estimated max dynamical RAM per process >     205.85 MB

     Estimated total dynamical RAM >     157.60 GB
     Generating pointlists ...
     new r_m :   0.0893 (alat units)  1.8370 (a.u.) for type    1
     new r_m :   0.0893 (alat units)  1.8370 (a.u.) for type    2
     new r_m :   0.0893 (alat units)  1.8370 (a.u.) for type    3

     The potential is recalculated from file :
     ./out/Fe_vac_qn2_unrlxd.save/charge-density


     negative rho (up, down):  0.000E+00 1.209E-04
     Starting wfcs are  413 randomized atomic wfcs
     Checking if some PAW data can be deallocated... 
       PAW data deallocated on  400 nodes for type:  1
       PAW data deallocated on  396 nodes for type:  2
       PAW data deallocated on  772 nodes for type:  3

     Band Structure Calculation
     Davidson diagonalization with overlap

     Computing kpt #:     1  of     4 on this pool
     c_bands:  2 eigenvalues not converged
     total cpu time spent up to now is       84.4 secs

     Computing kpt #:     2  of     4 on this pool
     c_bands:  2 eigenvalues not converged
     total cpu time spent up to now is      163.5 secs

     Computing kpt #:     3  of     4 on this pool
     c_bands:  2 eigenvalues not converged
     total cpu time spent up to now is      241.9 secs

     Computing kpt #:     4  of     4 on this pool
     total cpu time spent up to now is      301.8 secs

     ethr =  1.74E-12,  avg # of iterations =103.0

     total cpu time spent up to now is      308.5 secs

     End of band structure calculation

 ------ SPIN UP ------------


          k = 0.0000 0.0000 0.0000 (269825 PWs)   bands (ev):

   -80.0770 -46.1982 -46.1982 -46.1558  -7.6275  -7.1117  -7.1117  -7.1005
    -7.1005  -7.0932  -7.0408  -6.8208  -6.8208  -6.8157  -6.8106  -6.7910
    -6.7910  -6.7855  -6.7827  -6.7827  -6.7697  -6.7683  -6.7683  -6.6428
    -6.6428  -6.6034  -6.4988  -6.4909  -6.4909  -6.4471  -6.4471  -6.4444
    -6.3601  -6.1909  -6.1909  -0.9240  -0.9240  -0.9237  -0.9096  -0.9096
    -0.9043  -0.8640  -0.8640  -0.8475  -0.8401  -0.8401  -0.8325  -0.8025
    -0.7970  -0.7970  -0.7945  -0.7945  -0.7819  -0.7819  -0.7729  -0.7729
    -0.7720  -0.7692  -0.7629  -0.7544  -0.7544  -0.7507  -0.7499  -0.7399
    -0.7399  -0.7370  -0.7370  -0.7282  -0.7269  -0.7269  -0.7265  -0.7219
    -0.7219  -0.7134  -0.7134  -0.7120  -0.7103  -0.7016  -0.7016  -0.6916
    -0.6904  -0.6899  -0.6899  -0.6641  -0.6589  -0.6589  -0.6553  -0.6553
    -0.6514  -0.6357  -0.6074  -0.6074  -0.6008  -0.6008  -0.6006  -0.5892
    -0.5892  -0.5833  -0.5772  -0.5772  -0.5667  -0.5606  -0.5606  -0.5548
    -0.5548  -0.5426  -0.5426  -0.5329  -0.5301  -0.5116  -0.5116  -0.5108
    -0.4813  -0.4797  -0.4797  -0.4640  -0.4640  -0.4638  -0.4558  -0.4558
    -0.4538  -0.4534  -0.4534  -0.4518  -0.4356  -0.4356  -0.4278  -0.4229
    -0.4229  -0.4198  -0.4118  -0.3977  -0.3977  -0.3905  -0.3905  -0.3881
    -0.3829  -0.3829  -0.3793  -0.3793  -0.3748  -0.3748  -0.3740  -0.3730
    -0.3666  -0.3620  -0.3620  -0.3437  -0.3381  -0.3381  -0.3156  -0.3156
    -0.3144  -0.3104  -0.3073  -0.3073  -0.3054  -0.2969  -0.2957  -0.2957
    -0.2884  -0.2884  -0.2776  -0.2776  -0.2754  -0.2751  -0.2613  -0.2613
    -0.2390  -0.1681  -0.1607  -0.1607  -0.1416  -0.1138  -0.1138  -0.1067
    -0.1067  -0.0961  -0.0894  -0.0675  -0.0674  -0.0537  -0.0455  -0.0455
    -0.0041   0.0136   0.0136   0.0607   0.0607   0.0764   0.2180   0.2887
     0.3152   0.3152   0.8325   0.8443   0.8443   0.8772   0.8772   0.8838
     1.0424   1.0424   1.1125   1.3072   1.4236   1.4236   1.4808   1.4808
     1.5020   1.5029   1.5029   1.5096   1.7214   1.7214   2.0890   2.6457
     2.6878   2.6878   2.7059   2.7088   2.7088   2.7090   2.7224   2.7332
     2.7332   2.7440   2.7440   2.7461   2.7848   2.7848   2.8350   2.8350
     2.8788   2.9003   2.9003   2.9294   2.9392   2.9420   2.9420   2.9909
     2.9909   3.0732   3.1121   3.1121   3.2441   3.2521   3.2534   3.2534
     3.5959   3.5959   3.6501   3.9713   3.9713   4.1642   4.1744   4.1744
     4.1914   4.1984   4.1984   4.1986   4.2977   4.3269   4.3269   4.3641
     4.3641   4.4591   4.4591   4.4602   4.4646   4.4720   4.4720   4.4798
     4.4798   4.4846   4.4981   4.4996   4.4996   4.5417   4.5417   4.6253
     5.2232   5.2232   5.2341   5.7138   6.4438   6.4438   6.4957   6.4957
     6.6392   7.7642   8.6147   8.6147   8.6820   8.7405   8.8333   8.8333
     8.9799   8.9799   9.1023   9.4621   9.4808   9.4808   9.5271   9.8181
     9.8181   9.9021   9.9248   9.9248   9.9373   9.9683   9.9683   9.9745
     9.9863   9.9863  10.1331  10.1442  10.1442  10.1521  10.1521  10.1814
    10.1814  10.2083  10.3786  10.6389  10.6389  10.6846  11.0253  11.1187
    11.1187  11.1588  11.1588  11.3027  11.3027  11.3057  11.3084  11.6373
    11.6373  11.6914  11.7981  11.8288  11.8288  11.8502  11.9777  11.9777
    11.9792  11.9936

     occupation numbers 
     1.0000   1.0000   1.0000   1.0000   1.0000   1.0000   1.0000   1.0000
     1.0000   1.0000   1.0000   1.0000   1.0000   1.0000   1.0000   1.0000
     1.0000   1.0000   1.0000   1.0000   1.0000   1.0000   1.0000   1.0000
     1.0000   1.0000   1.0000   1.0000   1.0000   1.0000   1.0000   1.0000
     1.0000   1.0000   1.0000   1.0000   1.0000   1.0000   1.0000   1.0000
     1.0000   1.0000   1.0000   1.0000   1.0000   1.0000   1.0000   1.0000
     1.0000   1.0000   1.0000   1.0000   1.0000   1.0000   1.0000   1.0000
     1.0000   1.0000   1.0000   1.0000   1.0000   1.0000   1.0000   1.0000
     1.0000   1.0000   1.0000   1.0000   1.0000   1.0000   1.0000   1.0000
     1.0000   1.0000   1.0000   1.0000   1.0000   1.0000   1.0000   1.0000
     1.0000   1.0000   1.0000   1.0000   1.0000   1.0000   1.0000   1.0000
     1.0000   1.0000   1.0000   1.0000   1.0000   1.0000   1.0000   1.0000
     1.0000   1.0000   1.0000   1.0000   1.0000   1.0000   1.0000   1.0000
     1.0000   1.0000   1.0000   1.0000   1.0000   1.0000   1.0000   1.0000
     1.0000   1.0000   1.0000   1.0000   1.0000   1.0000   1.0000   1.0000
     1.0000   1.0000   1.0000   1.0000   1.0000   1.0000   1.0000   1.0000
     1.0000   1.0000   1.0000   1.0000   1.0000   1.0000   1.0000   1.0000
     1.0000   1.0000   1.0000   1.0000   1.0000   1.0000   1.0000   1.0000
     1.0000   1.0000   1.0000   1.0000   1.0000   1.0000   1.0000   1.0000
     1.0000   1.0000   1.0000   1.0000   1.0000   1.0000   1.0000   1.0000
     1.0000   1.0000   1.0000   1.0000   1.0000   1.0000   1.0000   1.0000
     1.0000   1.0000   1.0000   1.0000   1.0000   1.0000   1.0000   1.0000
     1.0000   1.0000   1.0000   1.0000   1.0000   1.0000   1.0000   1.0000
     1.0000   1.0000   1.0000   1.0000   1.0000   1.0000   1.0000   1.0000
     1.0000   1.0000   1.0000   1.0000   1.0000   1.0000   1.0000   1.0000
     1.0000   1.0000   1.0000   1.0000   1.0000   1.0000   1.0000   1.0000
     1.0000   1.0000   1.0000   1.0000   1.0000   1.0000   1.0000   1.0000
     1.0000   1.0000   1.0000   1.0000   1.0000   1.0000   1.0000   1.0000
     1.0000   1.0000   1.0000   1.0000   1.0000   1.0000   1.0000   1.0000
     1.0000   1.0000   1.0000   1.0000   1.0000   1.0000   1.0000   1.0000
     1.0000   1.0000   1.0000   1.0000   1.0000   1.0000   1.0000   1.0000
     1.0000   1.0000   1.0000   1.0000   1.0000   1.0000   1.0000   1.0000
     1.0000   1.0000   1.0000   1.0000   1.0000   1.0000   1.0000   1.0000
     1.0000   1.0000   1.0000   1.0000   1.0000   1.0000   1.0000   1.0000
     1.0000   1.0000   1.0000   1.0000   1.0000   1.0000   1.0000   1.0000
     1.0000   1.0000   1.0000   1.0000   1.0000   1.0000   1.0000   1.0000
     1.0000   1.0688   0.0000   0.0000   0.0000   0.0000   0.0000   0.0000
     0.0000   0.0000   0.0000   0.0000   0.0000   0.0000   0.0000   0.0000
     0.0000   0.0000   0.0000   0.0000   0.0000   0.0000   0.0000   0.0000
     0.0000   0.0000   0.0000   0.0000   0.0000   0.0000   0.0000   0.0000
     0.0000   0.0000   0.0000   0.0000   0.0000   0.0000   0.0000   0.0000
     0.0000   0.0000   0.0000   0.0000   0.0000   0.0000   0.0000   0.0000
     0.0000   0.0000   0.0000   0.0000   0.0000   0.0000   0.0000   0.0000
     0.0000   0.0000

          k = 0.0000 0.0000 0.2500 (269876 PWs)   bands (ev):

   -80.0770 -46.1982 -46.1982 -46.1558  -7.5924  -7.3020  -7.0879  -7.0789
    -7.0769  -7.0507  -6.9104  -6.9031  -6.8910  -6.8753  -6.8617  -6.8148
    -6.8029  -6.7863  -6.7859  -6.7330  -6.7220  -6.6998  -6.6608  -6.6353
    -6.6118  -6.5932  -6.5378  -6.5014  -6.4952  -6.4680  -6.4633  -6.4528
    -6.3516  -6.2038  -6.1935  -0.9219  -0.9101  -0.9101  -0.9056  -0.8952
    -0.8902  -0.8606  -0.8525  -0.8441  -0.8374  -0.8335  -0.8235  -0.8097
    -0.8081  -0.8017  -0.7942  -0.7935  -0.7869  -0.7860  -0.7805  -0.7777
    -0.7736  -0.7728  -0.7697  -0.7627  -0.7624  -0.7513  -0.7501  -0.7475
    -0.7457  -0.7434  -0.7383  -0.7372  -0.7359  -0.7308  -0.7288  -0.7246
    -0.7246  -0.7197  -0.7188  -0.7104  -0.7083  -0.7033  -0.6992  -0.6977
    -0.6937  -0.6923  -0.6870  -0.6794  -0.6774  -0.6682  -0.6639  -0.6491
    -0.6441  -0.6433  -0.6340  -0.6316  -0.6190  -0.6164  -0.6038  -0.5992
    -0.5968  -0.5862  -0.5826  -0.5782  -0.5687  -0.5686  -0.5560  -0.5440
    -0.5416  -0.5359  -0.5339  -0.5185  -0.5038  -0.4945  -0.4927  -0.4787
    -0.4787  -0.4746  -0.4707  -0.4672  -0.4640  -0.4616  -0.4502  -0.4487
    -0.4441  -0.4423  -0.4415  -0.4370  -0.4295  -0.4279  -0.4203  -0.4158
    -0.4135  -0.4105  -0.4094  -0.4025  -0.3987  -0.3967  -0.3932  -0.3869
    -0.3852  -0.3849  -0.3819  -0.3813  -0.3772  -0.3737  -0.3697  -0.3644
    -0.3620  -0.3587  -0.3521  -0.3476  -0.3355  -0.3343  -0.3254  -0.3242
    -0.3149  -0.3143  -0.3087  -0.3067  -0.3015  -0.3008  -0.2949  -0.2937
    -0.2825  -0.2803  -0.2802  -0.2765  -0.2712  -0.2688  -0.2597  -0.2590
    -0.2345  -0.2241  -0.2131  -0.1949  -0.1775  -0.1654  -0.1241  -0.1060
    -0.0839  -0.0824  -0.0703  -0.0659  -0.0626  -0.0507  -0.0471  -0.0465
    -0.0240  -0.0109  -0.0089   0.0330   0.0339   0.0497   0.4146   0.4542
     0.4688   0.4691   0.8358   0.8533   0.8712   0.8824   0.8958   0.9129
     1.0099   1.0186   1.0771   1.1806   1.1977   1.2011   1.2203   1.2336
     1.3922   1.4182   1.5981   1.8533   1.8622   1.9194   2.0259   2.2965
     2.4835   2.4970   2.5017   2.5097   2.5625   2.5896   2.6263   2.6348
     2.6393   2.6650   2.7337   2.8114   2.8125   2.8388   2.8826   2.9598
     3.1161   3.1166   3.1279   3.1359   3.1499   3.1589   3.2000   3.2166
     3.2277   3.2582   3.2727   3.2809   3.3054   3.3181   3.3724   3.4650
     3.5746   3.6267   3.7172   3.8438   3.8751   3.9788   3.9975   4.0877
     4.1085   4.1318   4.1378   4.1998   4.2013   4.2342   4.2708   4.2831
     4.3026   4.3155   4.3496   4.3577   4.4352   4.4570   4.4693   4.4735
     4.4780   4.4962   4.5221   4.5506   4.5785   4.5804   4.5974   4.6224
     4.8998   5.1306   5.1503   5.6987   6.4023   6.4355   6.4818   6.4990
     6.8763   7.9893   8.6448   8.7241   8.8682   8.8892   8.9290   9.0050
     9.0136   9.1053   9.2583   9.4000   9.4561   9.6108   9.6403   9.6648
     9.7205   9.8665   9.8720   9.9035   9.9097   9.9429  10.0211  10.0320
    10.0441  10.0989  10.1145  10.1635  10.1682  10.1820  10.2304  10.2491
    10.2947  10.3548  10.4735  10.5385  10.5577  10.6458  10.6730  10.7878
    10.8718  10.9163  10.9795  11.1302  11.1998  11.2546  11.4031  11.5484
    11.5724  11.5943  11.6330  11.6836  11.7011  11.7192  11.7877  11.8304
    11.8440  11.8650

     occupation numbers 
     1.0000   1.0000   1.0000   1.0000   1.0000   1.0000   1.0000   1.0000
     1.0000   1.0000   1.0000   1.0000   1.0000   1.0000   1.0000   1.0000
     1.0000   1.0000   1.0000   1.0000   1.0000   1.0000   1.0000   1.0000
     1.0000   1.0000   1.0000   1.0000   1.0000   1.0000   1.0000   1.0000
     1.0000   1.0000   1.0000   1.0000   1.0000   1.0000   1.0000   1.0000
     1.0000   1.0000   1.0000   1.0000   1.0000   1.0000   1.0000   1.0000
     1.0000   1.0000   1.0000   1.0000   1.0000   1.0000   1.0000   1.0000
     1.0000   1.0000   1.0000   1.0000   1.0000   1.0000   1.0000   1.0000
     1.0000   1.0000   1.0000   1.0000   1.0000   1.0000   1.0000   1.0000
     1.0000   1.0000   1.0000   1.0000   1.0000   1.0000   1.0000   1.0000
     1.0000   1.0000   1.0000   1.0000   1.0000   1.0000   1.0000   1.0000
     1.0000   1.0000   1.0000   1.0000   1.0000   1.0000   1.0000   1.0000
     1.0000   1.0000   1.0000   1.0000   1.0000   1.0000   1.0000   1.0000
     1.0000   1.0000   1.0000   1.0000   1.0000   1.0000   1.0000   1.0000
     1.0000   1.0000   1.0000   1.0000   1.0000   1.0000   1.0000   1.0000
     1.0000   1.0000   1.0000   1.0000   1.0000   1.0000   1.0000   1.0000
     1.0000   1.0000   1.0000   1.0000   1.0000   1.0000   1.0000   1.0000
     1.0000   1.0000   1.0000   1.0000   1.0000   1.0000   1.0000   1.0000
     1.0000   1.0000   1.0000   1.0000   1.0000   1.0000   1.0000   1.0000
     1.0000   1.0000   1.0000   1.0000   1.0000   1.0000   1.0000   1.0000
     1.0000   1.0000   1.0000   1.0000   1.0000   1.0000   1.0000   1.0000
     1.0000   1.0000   1.0000   1.0000   1.0000   1.0000   1.0000   1.0000
     1.0000   1.0000   1.0000   1.0000   1.0000   1.0000   1.0000   1.0000
     1.0000   1.0000   1.0000   1.0000   1.0000   1.0000   1.0000   1.0000
     1.0000   1.0000   1.0000   1.0000   1.0000   1.0000   1.0000   1.0000
     1.0000   1.0000   1.0000   1.0000   1.0000   1.0000   1.0000   1.0000
     1.0000   1.0000   1.0000   1.0000   1.0000   1.0000   1.0000   1.0000
     1.0000   1.0000   1.0000   1.0000   1.0000   1.0000   1.0000   1.0000
     1.0000   1.0000   1.0000   1.0000   1.0000   1.0000   1.0000   1.0000
     1.0000   1.0000   1.0000   1.0000   1.0000   1.0000   1.0000   1.0000
     1.0000   1.0000   1.0000   1.0000   1.0000   1.0000   1.0000   1.0000
     1.0000   1.0000   1.0000   1.0000   1.0000   1.0000   1.0000   1.0000
     1.0000   1.0000   1.0000   1.0000   1.0000   1.0000   1.0000   1.0000
     1.0000   1.0000   1.0000   1.0000   1.0000   1.0000   1.0000   1.0000
     1.0000   1.0000   1.0000   1.0000   1.0000   1.0000   1.0000   1.0000
     1.0000   1.0000   1.0000   1.0000   1.0000   1.0000   1.0000   1.0000
     1.0000   1.0615   0.0000   0.0000   0.0000   0.0000   0.0000   0.0000
     0.0000   0.0000   0.0000   0.0000   0.0000   0.0000   0.0000   0.0000
     0.0000   0.0000   0.0000   0.0000   0.0000   0.0000   0.0000   0.0000
     0.0000   0.0000   0.0000   0.0000   0.0000   0.0000   0.0000   0.0000
     0.0000   0.0000   0.0000   0.0000   0.0000   0.0000   0.0000   0.0000
     0.0000   0.0000   0.0000   0.0000   0.0000   0.0000   0.0000   0.0000
     0.0000   0.0000   0.0000   0.0000   0.0000   0.0000   0.0000   0.0000
     0.0000   0.0000

          k = 0.0000 0.0000-0.5000 (270152 PWs)   bands (ev):

   -80.0770 -46.1982 -46.1982 -46.1558  -7.5211  -7.4325  -7.0466  -7.0398
    -7.0342  -7.0309  -7.0015  -6.9737  -6.9502  -6.8996  -6.8155  -6.8078
    -6.7876  -6.7853  -6.7215  -6.7088  -6.6934  -6.6763  -6.6488  -6.6203
    -6.5719  -6.5717  -6.5605  -6.5425  -6.5063  -6.4935  -6.4875  -6.4590
    -6.3407  -6.2186  -6.1962  -0.9197  -0.9025  -0.8867  -0.8863  -0.8706
    -0.8640  -0.8586  -0.8430  -0.8399  -0.8394  -0.8371  -0.8255  -0.8215
    -0.8196  -0.8171  -0.8046  -0.7891  -0.7879  -0.7862  -0.7860  -0.7807
    -0.7805  -0.7762  -0.7728  -0.7725  -0.7657  -0.7631  -0.7626  -0.7585
    -0.7531  -0.7500  -0.7444  -0.7425  -0.7384  -0.7384  -0.7315  -0.7305
    -0.7265  -0.7243  -0.7216  -0.7172  -0.7103  -0.7048  -0.7042  -0.7000
    -0.6982  -0.6929  -0.6893  -0.6859  -0.6823  -0.6671  -0.6635  -0.6487
    -0.6431  -0.6343  -0.6333  -0.6275  -0.6268  -0.6265  -0.6152  -0.6082
    -0.5947  -0.5851  -0.5796  -0.5793  -0.5752  -0.5752  -0.5565  -0.5367
    -0.5331  -0.5177  -0.5111  -0.5024  -0.4983  -0.4929  -0.4862  -0.4835
    -0.4762  -0.4655  -0.4634  -0.4576  -0.4565  -0.4563  -0.4511  -0.4480
    -0.4408  -0.4380  -0.4335  -0.4331  -0.4298  -0.4269  -0.4223  -0.4192
    -0.4144  -0.4104  -0.4098  -0.4078  -0.4032  -0.4006  -0.3991  -0.3943
    -0.3903  -0.3900  -0.3850  -0.3820  -0.3760  -0.3690  -0.3672  -0.3640
    -0.3602  -0.3581  -0.3472  -0.3418  -0.3405  -0.3368  -0.3351  -0.3266
    -0.3160  -0.3152  -0.3094  -0.3078  -0.3052  -0.3016  -0.2929  -0.2904
    -0.2871  -0.2791  -0.2753  -0.2721  -0.2700  -0.2667  -0.2660  -0.2548
    -0.2530  -0.2304  -0.1892  -0.1857  -0.1457  -0.1382  -0.1197  -0.1161
    -0.0891  -0.0869  -0.0777  -0.0720  -0.0645  -0.0580  -0.0550  -0.0497
    -0.0430  -0.0268  -0.0137  -0.0048  -0.0015   0.0075   0.7051   0.7551
     0.7627   0.7765   0.8150   0.8315   0.8350   0.8403   0.8594   0.8672
     0.9120   0.9205   0.9570   0.9701   0.9835   0.9892   1.0058   1.2427
     1.3014   1.4444   1.5150   1.8323   2.1109   2.2028   2.2420   2.2704
     2.2821   2.3208   2.3213   2.4414   2.4494   2.4519   2.4551   2.4806
     2.5365   2.5543   2.6892   2.8363   2.9040   2.9288   2.9335   2.9484
     3.0329   3.0858   3.1323   3.1884   3.4136   3.4563   3.5143   3.5301
     3.5809   3.6028   3.6560   3.6634   3.6717   3.6782   3.6804   3.6859
     3.6873   3.6937   3.6958   3.7082   3.7189   3.7484   3.7646   3.7936
     3.7956   3.8176   3.8333   3.8580   3.8606   4.0644   4.1756   4.2134
     4.2490   4.3121   4.3573   4.3681   4.4574   4.4647   4.4711   4.4788
     4.4826   4.4851   4.4950   4.5058   4.5181   4.5367   4.5661   4.8456
     4.8577   4.9324   4.9597   5.6916   6.3665   6.4294   6.4773   6.5000
     7.0876   8.1921   8.7489   8.7713   8.9245   9.0654   9.1705   9.2217
     9.3301   9.3942   9.4098   9.4538   9.4777   9.5286   9.5679   9.6040
     9.6083   9.6915   9.7911   9.7982   9.8876   9.9820   9.9908  10.0001
    10.0101  10.0370  10.1178  10.1282  10.1893  10.2362  10.3067  10.3960
    10.4338  10.4642  10.5361  10.5547  10.5698  10.5818  10.6983  10.7017
    10.7315  10.7413  10.9053  10.9102  10.9815  10.9962  11.1148  11.2259
    11.2396  11.2463  11.3774  11.5601  11.5844  11.6315  11.6485  11.6772
    11.8174  11.8445

     occupation numbers 
     1.0000   1.0000   1.0000   1.0000   1.0000   1.0000   1.0000   1.0000
     1.0000   1.0000   1.0000   1.0000   1.0000   1.0000   1.0000   1.0000
     1.0000   1.0000   1.0000   1.0000   1.0000   1.0000   1.0000   1.0000
     1.0000   1.0000   1.0000   1.0000   1.0000   1.0000   1.0000   1.0000
     1.0000   1.0000   1.0000   1.0000   1.0000   1.0000   1.0000   1.0000
     1.0000   1.0000   1.0000   1.0000   1.0000   1.0000   1.0000   1.0000
     1.0000   1.0000   1.0000   1.0000   1.0000   1.0000   1.0000   1.0000
     1.0000   1.0000   1.0000   1.0000   1.0000   1.0000   1.0000   1.0000
     1.0000   1.0000   1.0000   1.0000   1.0000   1.0000   1.0000   1.0000
     1.0000   1.0000   1.0000   1.0000   1.0000   1.0000   1.0000   1.0000
     1.0000   1.0000   1.0000   1.0000   1.0000   1.0000   1.0000   1.0000
     1.0000   1.0000   1.0000   1.0000   1.0000   1.0000   1.0000   1.0000
     1.0000   1.0000   1.0000   1.0000   1.0000   1.0000   1.0000   1.0000
     1.0000   1.0000   1.0000   1.0000   1.0000   1.0000   1.0000   1.0000
     1.0000   1.0000   1.0000   1.0000   1.0000   1.0000   1.0000   1.0000
     1.0000   1.0000   1.0000   1.0000   1.0000   1.0000   1.0000   1.0000
     1.0000   1.0000   1.0000   1.0000   1.0000   1.0000   1.0000   1.0000
     1.0000   1.0000   1.0000   1.0000   1.0000   1.0000   1.0000   1.0000
     1.0000   1.0000   1.0000   1.0000   1.0000   1.0000   1.0000   1.0000
     1.0000   1.0000   1.0000   1.0000   1.0000   1.0000   1.0000   1.0000
     1.0000   1.0000   1.0000   1.0000   1.0000   1.0000   1.0000   1.0000
     1.0000   1.0000   1.0000   1.0000   1.0000   1.0000   1.0000   1.0000
     1.0000   1.0000   1.0000   1.0000   1.0000   1.0000   1.0000   1.0000
     1.0000   1.0000   1.0000   1.0000   1.0000   1.0000   1.0000   1.0000
     1.0000   1.0000   1.0000   1.0000   1.0000   1.0000   1.0000   1.0000
     1.0000   1.0000   1.0000   1.0000   1.0000   1.0000   1.0000   1.0000
     1.0000   1.0000   1.0000   1.0000   1.0000   1.0000   1.0000   1.0000
     1.0000   1.0000   1.0000   1.0000   1.0000   1.0000   1.0000   1.0000
     1.0000   1.0000   1.0000   1.0000   1.0000   1.0000   1.0000   1.0000
     1.0000   1.0000   1.0000   1.0000   1.0000   1.0000   1.0000   1.0000
     1.0000   1.0000   1.0000   1.0000   1.0000   1.0000   1.0000   1.0000
     1.0000   1.0000   1.0000   1.0000   1.0000   1.0000   1.0000   1.0000
     1.0000   1.0000   1.0000   1.0000   1.0000   1.0000   1.0000   1.0000
     1.0000   1.0000   1.0000   1.0000   1.0000   1.0000   1.0000   1.0000
     1.0000   1.0000   1.0000   1.0000   1.0000   1.0000   1.0000   1.0000
     1.0000   1.0000   1.0000   1.0000   1.0000   1.0000   1.0000   1.0000
     1.0000   0.9702   0.0000   0.0000   0.0000   0.0000   0.0000   0.0000
     0.0000   0.0000   0.0000   0.0000   0.0000   0.0000   0.0000   0.0000
     0.0000   0.0000   0.0000   0.0000   0.0000   0.0000   0.0000   0.0000
     0.0000   0.0000   0.0000   0.0000   0.0000   0.0000   0.0000   0.0000
     0.0000   0.0000   0.0000   0.0000   0.0000   0.0000   0.0000   0.0000
     0.0000   0.0000   0.0000   0.0000   0.0000   0.0000   0.0000   0.0000
     0.0000   0.0000   0.0000   0.0000   0.0000   0.0000   0.0000   0.0000
     0.0000   0.0000

          k = 0.0000 0.2500 0.2500 (269929 PWs)   bands (ev):

   -80.0770 -46.1982 -46.1982 -46.1558  -7.5578  -7.2902  -7.2603  -7.0704
    -7.0505  -7.0279  -6.9028  -6.8946  -6.8916  -6.8700  -6.8577  -6.8484
    -6.7817  -6.7621  -6.7459  -6.7443  -6.7024  -6.6644  -6.6584  -6.6113
    -6.6087  -6.5748  -6.5432  -6.5333  -6.5061  -6.4870  -6.4731  -6.4682
    -6.3439  -6.2116  -6.2009  -0.9089  -0.9079  -0.8972  -0.8920  -0.8894
    -0.8794  -0.8495  -0.8494  -0.8416  -0.8303  -0.8265  -0.8193  -0.8137
    -0.8112  -0.8095  -0.7979  -0.7974  -0.7919  -0.7895  -0.7867  -0.7812
    -0.7800  -0.7770  -0.7765  -0.7666  -0.7645  -0.7558  -0.7545  -0.7513
    -0.7484  -0.7481  -0.7450  -0.7393  -0.7384  -0.7347  -0.7312  -0.7308
    -0.7278  -0.7240  -0.7148  -0.7134  -0.7083  -0.7046  -0.7032  -0.6982
    -0.6933  -0.6932  -0.6848  -0.6835  -0.6742  -0.6677  -0.6591  -0.6551
    -0.6460  -0.6392  -0.6379  -0.6255  -0.6198  -0.6193  -0.6082  -0.6072
    -0.6044  -0.5980  -0.5896  -0.5810  -0.5751  -0.5728  -0.5706  -0.5557
    -0.5555  -0.5359  -0.5334  -0.5222  -0.5008  -0.4913  -0.4872  -0.4784
    -0.4777  -0.4761  -0.4745  -0.4682  -0.4602  -0.4580  -0.4538  -0.4519
    -0.4449  -0.4401  -0.4316  -0.4291  -0.4260  -0.4243  -0.4181  -0.4161
    -0.4158  -0.4093  -0.4077  -0.4061  -0.4017  -0.3952  -0.3929  -0.3896
    -0.3894  -0.3827  -0.3810  -0.3786  -0.3757  -0.3729  -0.3689  -0.3650
    -0.3640  -0.3549  -0.3533  -0.3412  -0.3379  -0.3310  -0.3243  -0.3199
    -0.3181  -0.3113  -0.3098  -0.3043  -0.3039  -0.3014  -0.2977  -0.2914
    -0.2888  -0.2802  -0.2758  -0.2703  -0.2700  -0.2641  -0.2439  -0.2421
    -0.2256  -0.2079  -0.1920  -0.1756  -0.1608  -0.1438  -0.1255  -0.1007
    -0.0885  -0.0834  -0.0730  -0.0708  -0.0596  -0.0537  -0.0482  -0.0473
    -0.0241  -0.0235  -0.0150   0.0099   0.0225   0.0406   0.3733   0.4054
     0.7113   0.7367   0.8238   0.8407   0.8512   0.8897   0.9020   0.9373
     0.9406   0.9717   0.9878   0.9934   1.0115   1.1630   1.2001   1.3733
     1.5119   1.5124   1.5760   1.5948   1.7850   1.8791   2.0617   2.1356
     2.3449   2.3941   2.4224   2.4664   2.4967   2.5588   2.5698   2.6689
     2.7052   2.7293   2.8766   2.8785   2.9464   2.9488   3.0011   3.0030
     3.0522   3.1334   3.1478   3.1930   3.1953   3.2224   3.2611   3.2684
     3.2839   3.3289   3.3528   3.3831   3.4606   3.4912   3.5882   3.6081
     3.6326   3.6562   3.7022   3.7612   3.8777   3.9241   3.9357   3.9982
     3.9999   4.0449   4.0732   4.1199   4.1294   4.1387   4.1789   4.1823
     4.2068   4.2319   4.3115   4.3391   4.3801   4.4060   4.4341   4.4444
     4.4675   4.4890   4.5320   4.5360   4.5714   4.5796   4.6758   4.7296
     4.8058   5.0346   5.1831   5.6770   6.4054   6.4356   6.4825   6.4959
     6.9831   8.1562   8.6863   8.7395   8.8988   8.9622   9.1437   9.1506
     9.1669   9.2213   9.2251   9.4739   9.5566   9.5584   9.6923   9.6936
     9.7466   9.7617   9.7742   9.7997   9.8096   9.8699   9.8859   9.9525
    10.0078  10.0504  10.0625  10.1193  10.1339  10.1505  10.2462  10.3451
    10.4037  10.4885  10.5300  10.5694  10.5759  10.6386  10.6740  10.7250
    10.8052  10.8893  10.9272  10.9984  11.0601  11.2016  11.2528  11.3392
    11.3455  11.4935  11.5420  11.5650  11.6252  11.6404  11.6619  11.7100
    11.7577  11.7835

     occupation numbers 
     1.0000   1.0000   1.0000   1.0000   1.0000   1.0000   1.0000   1.0000
     1.0000   1.0000   1.0000   1.0000   1.0000   1.0000   1.0000   1.0000
     1.0000   1.0000   1.0000   1.0000   1.0000   1.0000   1.0000   1.0000
     1.0000   1.0000   1.0000   1.0000   1.0000   1.0000   1.0000   1.0000
     1.0000   1.0000   1.0000   1.0000   1.0000   1.0000   1.0000   1.0000
     1.0000   1.0000   1.0000   1.0000   1.0000   1.0000   1.0000   1.0000
     1.0000   1.0000   1.0000   1.0000   1.0000   1.0000   1.0000   1.0000
     1.0000   1.0000   1.0000   1.0000   1.0000   1.0000   1.0000   1.0000
     1.0000   1.0000   1.0000   1.0000   1.0000   1.0000   1.0000   1.0000
     1.0000   1.0000   1.0000   1.0000   1.0000   1.0000   1.0000   1.0000
     1.0000   1.0000   1.0000   1.0000   1.0000   1.0000   1.0000   1.0000
     1.0000   1.0000   1.0000   1.0000   1.0000   1.0000   1.0000   1.0000
     1.0000   1.0000   1.0000   1.0000   1.0000   1.0000   1.0000   1.0000
     1.0000   1.0000   1.0000   1.0000   1.0000   1.0000   1.0000   1.0000
     1.0000   1.0000   1.0000   1.0000   1.0000   1.0000   1.0000   1.0000
     1.0000   1.0000   1.0000   1.0000   1.0000   1.0000   1.0000   1.0000
     1.0000   1.0000   1.0000   1.0000   1.0000   1.0000   1.0000   1.0000
     1.0000   1.0000   1.0000   1.0000   1.0000   1.0000   1.0000   1.0000
     1.0000   1.0000   1.0000   1.0000   1.0000   1.0000   1.0000   1.0000
     1.0000   1.0000   1.0000   1.0000   1.0000   1.0000   1.0000   1.0000
     1.0000   1.0000   1.0000   1.0000   1.0000   1.0000   1.0000   1.0000
     1.0000   1.0000   1.0000   1.0000   1.0000   1.0000   1.0000   1.0000
     1.0000   1.0000   1.0000   1.0000   1.0000   1.0000   1.0000   1.0000
     1.0000   1.0000   1.0000   1.0000   1.0000   1.0000   1.0000   1.0000
     1.0000   1.0000   1.0000   1.0000   1.0000   1.0000   1.0000   1.0000
     1.0000   1.0000   1.0000   1.0000   1.0000   1.0000   1.0000   1.0000
     1.0000   1.0000   1.0000   1.0000   1.0000   1.0000   1.0000   1.0000
     1.0000   1.0000   1.0000   1.0000   1.0000   1.0000   1.0000   1.0000
     1.0000   1.0000   1.0000   1.0000   1.0000   1.0000   1.0000   1.0000
     1.0000   1.0000   1.0000   1.0000   1.0000   1.0000   1.0000   1.0000
     1.0000   1.0000   1.0000   1.0000   1.0000   1.0000   1.0000   1.0000
     1.0000   1.0000   1.0000   1.0000   1.0000   1.0000   1.0000   1.0000
     1.0000   1.0000   1.0000   1.0000   1.0000   1.0000   1.0000   1.0000
     1.0000   1.0000   1.0000   1.0000   1.0000   1.0000   1.0000   1.0000
     1.0000   1.0000   1.0000   1.0000   1.0000   1.0000   1.0000   1.0000
     1.0000   1.0000   1.0000   1.0000   1.0000   1.0000   1.0000   1.0000
     1.0000   0.8411   0.0000   0.0000   0.0000   0.0000   0.0000   0.0000
     0.0000   0.0000   0.0000   0.0000   0.0000   0.0000   0.0000   0.0000
     0.0000   0.0000   0.0000   0.0000   0.0000   0.0000   0.0000   0.0000
     0.0000   0.0000   0.0000   0.0000   0.0000   0.0000   0.0000   0.0000
     0.0000   0.0000   0.0000   0.0000   0.0000   0.0000   0.0000   0.0000
     0.0000   0.0000   0.0000   0.0000   0.0000   0.0000   0.0000   0.0000
     0.0000   0.0000   0.0000   0.0000   0.0000   0.0000   0.0000   0.0000
     0.0000   0.0000

          k = 0.0000 0.2500-0.5000 (269962 PWs)   bands (ev):

   -80.0770 -46.1982 -46.1982 -46.1558  -7.4874  -7.4043  -7.2254  -7.1404
    -7.0221  -7.0130  -6.9543  -6.9415  -6.8827  -6.8759  -6.8373  -6.7983
    -6.7821  -6.7520  -6.7005  -6.6913  -6.6780  -6.6496  -6.6411  -6.6075
    -6.5943  -6.5863  -6.5616  -6.5417  -6.5266  -6.5158  -6.4937  -6.4747
    -6.3354  -6.2240  -6.2047  -0.9068  -0.8881  -0.8863  -0.8791  -0.8654
    -0.8548  -0.8492  -0.8414  -0.8390  -0.8330  -0.8298  -0.8199  -0.8179
    -0.8157  -0.8145  -0.8071  -0.8022  -0.8005  -0.7934  -0.7894  -0.7855
    -0.7824  -0.7807  -0.7764  -0.7736  -0.7706  -0.7636  -0.7601  -0.7593
    -0.7555  -0.7522  -0.7496  -0.7458  -0.7421  -0.7393  -0.7353  -0.7334
    -0.7288  -0.7236  -0.7187  -0.7163  -0.7149  -0.7107  -0.7040  -0.6964
    -0.6919  -0.6891  -0.6862  -0.6838  -0.6722  -0.6658  -0.6576  -0.6482
    -0.6451  -0.6395  -0.6342  -0.6309  -0.6248  -0.6196  -0.6156  -0.6101
    -0.6054  -0.5922  -0.5896  -0.5840  -0.5757  -0.5690  -0.5664  -0.5568
    -0.5531  -0.5466  -0.5394  -0.5310  -0.5224  -0.5167  -0.5015  -0.4938
    -0.4908  -0.4820  -0.4733  -0.4670  -0.4619  -0.4562  -0.4495  -0.4448
    -0.4402  -0.4359  -0.4304  -0.4255  -0.4236  -0.4202  -0.4166  -0.4156
    -0.4099  -0.4070  -0.4036  -0.4015  -0.3995  -0.3974  -0.3912  -0.3883
    -0.3846  -0.3824  -0.3798  -0.3783  -0.3773  -0.3738  -0.3677  -0.3641
    -0.3568  -0.3515  -0.3483  -0.3443  -0.3359  -0.3313  -0.3264  -0.3229
    -0.3156  -0.3114  -0.3066  -0.3017  -0.2992  -0.2958  -0.2911  -0.2880
    -0.2815  -0.2778  -0.2733  -0.2704  -0.2639  -0.2588  -0.2416  -0.2250
    -0.2070  -0.1968  -0.1777  -0.1683  -0.1509  -0.1353  -0.1214  -0.1078
    -0.0983  -0.0844  -0.0702  -0.0673  -0.0589  -0.0560  -0.0482  -0.0439
    -0.0329  -0.0313  -0.0137  -0.0028   0.0068   0.0136   0.5722   0.5905
     0.6134   0.6427   0.7885   0.8234   0.8307   0.8443   0.8583   0.8874
     0.9256   0.9848   1.0513   1.0931   1.1481   1.1589   1.1710   1.2719
     1.3090   1.4406   1.4835   1.6969   1.8227   1.9169   1.9896   2.0584
     2.0894   2.3026   2.3396   2.4414   2.5928   2.6142   2.6778   2.6882
     2.7060   2.7224   2.7663   2.8221   2.8589   2.9532   2.9581   3.0810
     3.1427   3.2073   3.3249   3.3291   3.3572   3.3803   3.4048   3.4228
     3.4424   3.4791   3.5012   3.5052   3.5338   3.5764   3.6242   3.6573
     3.6963   3.7151   3.7390   3.7789   3.8050   3.8454   3.8623   3.9054
     3.9182   3.9512   3.9824   3.9913   4.0143   4.0613   4.0850   4.1093
     4.1153   4.1800   4.2165   4.2320   4.2512   4.3198   4.3509   4.3946
     4.4159   4.4497   4.4853   4.5156   4.5275   4.7461   4.8114   4.8278
     4.8390   5.0078   5.0712   5.6946   6.3800   6.4139   6.4834   6.4964
     7.0917   8.3231   8.6173   8.8194   8.9891   9.1636   9.2594   9.2878
     9.3145   9.3664   9.4399   9.4822   9.5005   9.5254   9.5691   9.6389
     9.6813   9.6929   9.7437   9.7501   9.7853   9.8141   9.8298   9.8824
     9.9277   9.9811  10.0573  10.1194  10.1957  10.2132  10.2622  10.3595
    10.3746  10.4281  10.4668  10.5137  10.6015  10.6352  10.7100  10.7633
    10.7971  10.8876  10.9617  10.9914  11.0732  11.1839  11.2171  11.2320
    11.2490  11.2938  11.3204  11.3532  11.4323  11.4667  11.5303  11.5578
    11.6163  11.6674

     occupation numbers 
     1.0000   1.0000   1.0000   1.0000   1.0000   1.0000   1.0000   1.0000
     1.0000   1.0000   1.0000   1.0000   1.0000   1.0000   1.0000   1.0000
     1.0000   1.0000   1.0000   1.0000   1.0000   1.0000   1.0000   1.0000
     1.0000   1.0000   1.0000   1.0000   1.0000   1.0000   1.0000   1.0000
     1.0000   1.0000   1.0000   1.0000   1.0000   1.0000   1.0000   1.0000
     1.0000   1.0000   1.0000   1.0000   1.0000   1.0000   1.0000   1.0000
     1.0000   1.0000   1.0000   1.0000   1.0000   1.0000   1.0000   1.0000
     1.0000   1.0000   1.0000   1.0000   1.0000   1.0000   1.0000   1.0000
     1.0000   1.0000   1.0000   1.0000   1.0000   1.0000   1.0000   1.0000
     1.0000   1.0000   1.0000   1.0000   1.0000   1.0000   1.0000   1.0000
     1.0000   1.0000   1.0000   1.0000   1.0000   1.0000   1.0000   1.0000
     1.0000   1.0000   1.0000   1.0000   1.0000   1.0000   1.0000   1.0000
     1.0000   1.0000   1.0000   1.0000   1.0000   1.0000   1.0000   1.0000
     1.0000   1.0000   1.0000   1.0000   1.0000   1.0000   1.0000   1.0000
     1.0000   1.0000   1.0000   1.0000   1.0000   1.0000   1.0000   1.0000
     1.0000   1.0000   1.0000   1.0000   1.0000   1.0000   1.0000   1.0000
     1.0000   1.0000   1.0000   1.0000   1.0000   1.0000   1.0000   1.0000
     1.0000   1.0000   1.0000   1.0000   1.0000   1.0000   1.0000   1.0000
     1.0000   1.0000   1.0000   1.0000   1.0000   1.0000   1.0000   1.0000
     1.0000   1.0000   1.0000   1.0000   1.0000   1.0000   1.0000   1.0000
     1.0000   1.0000   1.0000   1.0000   1.0000   1.0000   1.0000   1.0000
     1.0000   1.0000   1.0000   1.0000   1.0000   1.0000   1.0000   1.0000
     1.0000   1.0000   1.0000   1.0000   1.0000   1.0000   1.0000   1.0000
     1.0000   1.0000   1.0000   1.0000   1.0000   1.0000   1.0000   1.0000
     1.0000   1.0000   1.0000   1.0000   1.0000   1.0000   1.0000   1.0000
     1.0000   1.0000   1.0000   1.0000   1.0000   1.0000   1.0000   1.0000
     1.0000   1.0000   1.0000   1.0000   1.0000   1.0000   1.0000   1.0000
     1.0000   1.0000   1.0000   1.0000   1.0000   1.0000   1.0000   1.0000
     1.0000   1.0000   1.0000   1.0000   1.0000   1.0000   1.0000   1.0000
     1.0000   1.0000   1.0000   1.0000   1.0000   1.0000   1.0000   1.0000
     1.0000   1.0000   1.0000   1.0000   1.0000   1.0000   1.0000   1.0000
     1.0000   1.0000   1.0000   1.0000   1.0000   1.0000   1.0000   1.0000
     1.0000   1.0000   1.0000   1.0000   1.0000   1.0000   1.0000   1.0000
     1.0000   1.0000   1.0000   1.0000   1.0000   1.0000   1.0000   1.0000
     1.0000   1.0000   1.0000   1.0000   1.0000   1.0000   1.0000   1.0000
     1.0000   1.0000   1.0000   1.0000   1.0000   1.0000   1.0000   1.0000
     1.0000   0.3410   0.0000   0.0000   0.0000   0.0000   0.0000   0.0000
     0.0000   0.0000   0.0000   0.0000   0.0000   0.0000   0.0000   0.0000
     0.0000   0.0000   0.0000   0.0000   0.0000   0.0000   0.0000   0.0000
     0.0000   0.0000   0.0000   0.0000   0.0000   0.0000   0.0000   0.0000
     0.0000   0.0000   0.0000   0.0000   0.0000   0.0000   0.0000   0.0000
     0.0000   0.0000   0.0000   0.0000   0.0000   0.0000   0.0000   0.0000
     0.0000   0.0000   0.0000   0.0000   0.0000   0.0000   0.0000   0.0000
     0.0000   0.0000

          k = 0.0000-0.5000-0.5000 (269920 PWs)   bands (ev):

   -80.0770 -46.1982 -46.1982 -46.1558  -7.4118  -7.3581  -7.3528  -7.2362
    -6.9916  -6.9798  -6.9438  -6.9397  -6.9322  -6.9258  -6.8311  -6.7675
    -6.7003  -6.6893  -6.6579  -6.6477  -6.6427  -6.6396  -6.6346  -6.6327
    -6.6112  -6.5964  -6.5932  -6.5900  -6.5605  -6.5257  -6.4925  -6.4868
    -6.3286  -6.2332  -6.2108  -0.8881  -0.8876  -0.8695  -0.8629  -0.8603
    -0.8510  -0.8421  -0.8391  -0.8329  -0.8252  -0.8239  -0.8203  -0.8201
    -0.8153  -0.8138  -0.8092  -0.8075  -0.8003  -0.7997  -0.7996  -0.7865
    -0.7851  -0.7814  -0.7782  -0.7735  -0.7730  -0.7720  -0.7695  -0.7640
    -0.7547  -0.7526  -0.7493  -0.7459  -0.7438  -0.7419  -0.7390  -0.7390
    -0.7327  -0.7251  -0.7240  -0.7196  -0.7188  -0.7120  -0.7047  -0.6969
    -0.6865  -0.6853  -0.6842  -0.6758  -0.6632  -0.6619  -0.6600  -0.6579
    -0.6462  -0.6432  -0.6428  -0.6397  -0.6269  -0.6187  -0.6156  -0.6131
    -0.6071  -0.6050  -0.5962  -0.5931  -0.5839  -0.5752  -0.5735  -0.5687
    -0.5653  -0.5590  -0.5383  -0.5382  -0.5367  -0.5246  -0.5129  -0.5099
    -0.5031  -0.4901  -0.4726  -0.4662  -0.4618  -0.4494  -0.4487  -0.4442
    -0.4407  -0.4354  -0.4341  -0.4267  -0.4217  -0.4188  -0.4160  -0.4126
    -0.4050  -0.4015  -0.4009  -0.4006  -0.3938  -0.3912  -0.3911  -0.3888
    -0.3862  -0.3834  -0.3757  -0.3740  -0.3698  -0.3696  -0.3656  -0.3647
    -0.3598  -0.3493  -0.3426  -0.3412  -0.3317  -0.3296  -0.3272  -0.3229
    -0.3103  -0.3084  -0.3010  -0.3008  -0.2955  -0.2877  -0.2841  -0.2816
    -0.2758  -0.2756  -0.2681  -0.2653  -0.2647  -0.2582  -0.2446  -0.2305
    -0.2296  -0.2083  -0.1618  -0.1439  -0.1305  -0.1121  -0.1068  -0.0865
    -0.0829  -0.0731  -0.0708  -0.0642  -0.0518  -0.0465  -0.0452  -0.0349
    -0.0253  -0.0150  -0.0078   0.0022   0.0245   0.0260   0.5589   0.5598
     0.5744   0.6086   0.6372   0.6939   0.7285   0.7306   0.8059   0.9011
     0.9091   1.0425   1.2294   1.3296   1.3322   1.3376   1.3565   1.3890
     1.4971   1.4990   1.5317   1.5756   1.5798   1.5840   1.6211   1.8206
     1.8225   2.2556   2.3624   2.4175   2.4436   2.4481   2.9829   3.0048
     3.0349   3.0466   3.0523   3.0607   3.0686   3.0848   3.0933   3.1049
     3.1052   3.1596   3.1617   3.1799   3.2015   3.3016   3.3344   3.3383
     3.3904   3.4786   3.4931   3.5049   3.5145   3.5179   3.5502   3.5753
     3.5952   3.6120   3.6544   3.6546   3.7840   3.8542   3.9072   3.9130
     3.9341   3.9388   4.0060   4.0099   4.0682   4.1117   4.1548   4.1746
     4.2315   4.2532   4.2599   4.2705   4.3015   4.3048   4.3271   4.3395
     4.3484   4.3865   4.3876   4.4488   4.5002   4.5211   4.5735   4.9604
     4.9641   5.1009   5.1618   5.6971   6.3675   6.4280   6.4774   6.5022
     7.0977   8.5116   8.5343   8.8820   8.9687   9.1449   9.2885   9.3517
     9.3584   9.3855   9.3858   9.4086   9.4741   9.4839   9.4866   9.4960
     9.6204   9.6934   9.8612   9.9117   9.9494   9.9612  10.0106  10.0133
    10.0513  10.0848  10.0849  10.0967  10.1593  10.1758  10.1760  10.2186
    10.2398  10.2510  10.2588  10.2733  10.2929  10.3545  10.3965  10.6573
    10.7677  11.0197  11.0937  11.2291  11.2836  11.2997  11.3013  11.3077
    11.3280  11.3951  11.3951  11.4244  11.4523  11.4714  11.5150  11.5290
    11.5359  11.6007

     occupation numbers 
     1.0000   1.0000   1.0000   1.0000   1.0000   1.0000   1.0000   1.0000
     1.0000   1.0000   1.0000   1.0000   1.0000   1.0000   1.0000   1.0000
     1.0000   1.0000   1.0000   1.0000   1.0000   1.0000   1.0000   1.0000
     1.0000   1.0000   1.0000   1.0000   1.0000   1.0000   1.0000   1.0000
     1.0000   1.0000   1.0000   1.0000   1.0000   1.0000   1.0000   1.0000
     1.0000   1.0000   1.0000   1.0000   1.0000   1.0000   1.0000   1.0000
     1.0000   1.0000   1.0000   1.0000   1.0000   1.0000   1.0000   1.0000
     1.0000   1.0000   1.0000   1.0000   1.0000   1.0000   1.0000   1.0000
     1.0000   1.0000   1.0000   1.0000   1.0000   1.0000   1.0000   1.0000
     1.0000   1.0000   1.0000   1.0000   1.0000   1.0000   1.0000   1.0000
     1.0000   1.0000   1.0000   1.0000   1.0000   1.0000   1.0000   1.0000
     1.0000   1.0000   1.0000   1.0000   1.0000   1.0000   1.0000   1.0000
     1.0000   1.0000   1.0000   1.0000   1.0000   1.0000   1.0000   1.0000
     1.0000   1.0000   1.0000   1.0000   1.0000   1.0000   1.0000   1.0000
     1.0000   1.0000   1.0000   1.0000   1.0000   1.0000   1.0000   1.0000
     1.0000   1.0000   1.0000   1.0000   1.0000   1.0000   1.0000   1.0000
     1.0000   1.0000   1.0000   1.0000   1.0000   1.0000   1.0000   1.0000
     1.0000   1.0000   1.0000   1.0000   1.0000   1.0000   1.0000   1.0000
     1.0000   1.0000   1.0000   1.0000   1.0000   1.0000   1.0000   1.0000
     1.0000   1.0000   1.0000   1.0000   1.0000   1.0000   1.0000   1.0000
     1.0000   1.0000   1.0000   1.0000   1.0000   1.0000   1.0000   1.0000
     1.0000   1.0000   1.0000   1.0000   1.0000   1.0000   1.0000   1.0000
     1.0000   1.0000   1.0000   1.0000   1.0000   1.0000   1.0000   1.0000
     1.0000   1.0000   1.0000   1.0000   1.0000   1.0000   1.0000   1.0000
     1.0000   1.0000   1.0000   1.0000   1.0000   1.0000   1.0000   1.0000
     1.0000   1.0000   1.0000   1.0000   1.0000   1.0000   1.0000   1.0000
     1.0000   1.0000   1.0000   1.0000   1.0000   1.0000   1.0000   1.0000
     1.0000   1.0000   1.0000   1.0000   1.0000   1.0000   1.0000   1.0000
     1.0000   1.0000   1.0000   1.0000   1.0000   1.0000   1.0000   1.0000
     1.0000   1.0000   1.0000   1.0000   1.0000   1.0000   1.0000   1.0000
     1.0000   1.0000   1.0000   1.0000   1.0000   1.0000   1.0000   1.0000
     1.0000   1.0000   1.0000   1.0000   1.0000   1.0000   1.0000   1.0000
     1.0000   1.0000   1.0000   1.0000   1.0000   1.0000   1.0000   1.0000
     1.0000   1.0000   1.0000   1.0000   1.0000   1.0000   1.0000   1.0000
     1.0000   1.0000   1.0000   1.0000   1.0000   1.0000   1.0000   1.0000
     1.0000   1.0000   1.0000   1.0000   1.0000   1.0000   1.0000   1.0000
     1.0000  -0.0374   0.0000   0.0000   0.0000   0.0000   0.0000   0.0000
     0.0000   0.0000   0.0000   0.0000   0.0000   0.0000   0.0000   0.0000
     0.0000   0.0000   0.0000   0.0000   0.0000   0.0000   0.0000   0.0000
     0.0000   0.0000   0.0000   0.0000   0.0000   0.0000   0.0000   0.0000
     0.0000   0.0000   0.0000   0.0000   0.0000   0.0000   0.0000   0.0000
     0.0000   0.0000   0.0000   0.0000   0.0000   0.0000   0.0000   0.0000
     0.0000   0.0000   0.0000   0.0000   0.0000   0.0000   0.0000   0.0000
     0.0000   0.0000

          k = 0.2500 0.2500 0.2500 (269935 PWs)   bands (ev):

   -80.0770 -46.1982 -46.1982 -46.1558  -7.5238  -7.2621  -7.2621  -7.2252
    -7.0457  -7.0457  -6.9875  -6.8525  -6.8525  -6.8462  -6.8256  -6.7664
    -6.7664  -6.7610  -6.7396  -6.7255  -6.7255  -6.6497  -6.6497  -6.5959
    -6.5863  -6.5863  -6.5437  -6.5379  -6.5379  -6.4934  -6.4934  -6.4920
    -6.3362  -6.2141  -6.2141  -0.8976  -0.8961  -0.8961  -0.8804  -0.8804
    -0.8718  -0.8447  -0.8381  -0.8381  -0.8212  -0.8212  -0.8177  -0.8160
    -0.8160  -0.8135  -0.8005  -0.8005  -0.7998  -0.7899  -0.7899  -0.7876
    -0.7839  -0.7798  -0.7798  -0.7744  -0.7744  -0.7619  -0.7619  -0.7497
    -0.7494  -0.7466  -0.7466  -0.7453  -0.7453  -0.7392  -0.7336  -0.7333
    -0.7333  -0.7257  -0.7213  -0.7213  -0.7137  -0.7056  -0.6981  -0.6981
    -0.6867  -0.6822  -0.6822  -0.6762  -0.6762  -0.6737  -0.6609  -0.6582
    -0.6582  -0.6390  -0.6390  -0.6288  -0.6112  -0.6112  -0.6086  -0.5994
    -0.5994  -0.5959  -0.5928  -0.5814  -0.5814  -0.5670  -0.5670  -0.5527
    -0.5527  -0.5525  -0.5363  -0.5287  -0.5193  -0.5193  -0.4952  -0.4908
    -0.4908  -0.4860  -0.4814  -0.4814  -0.4593  -0.4593  -0.4584  -0.4533
    -0.4434  -0.4434  -0.4272  -0.4272  -0.4208  -0.4208  -0.4149  -0.4098
    -0.4080  -0.4043  -0.4043  -0.3990  -0.3990  -0.3949  -0.3912  -0.3905
    -0.3905  -0.3843  -0.3843  -0.3746  -0.3722  -0.3722  -0.3644  -0.3571
    -0.3571  -0.3531  -0.3486  -0.3486  -0.3292  -0.3292  -0.3274  -0.3159
    -0.3159  -0.3113  -0.3095  -0.2996  -0.2996  -0.2922  -0.2882  -0.2882
    -0.2819  -0.2791  -0.2791  -0.2682  -0.2666  -0.2666  -0.2419  -0.2227
    -0.2227  -0.1990  -0.1703  -0.1639  -0.1639  -0.1357  -0.1357  -0.1206
    -0.0837  -0.0837  -0.0644  -0.0632  -0.0632  -0.0582  -0.0564  -0.0564
    -0.0280  -0.0280  -0.0276   0.0114   0.0114   0.0152   0.5117   0.5475
     0.5475   0.7725   0.7790   0.7790   0.8758   0.8758   0.8970   0.9340
     0.9340   0.9357   1.0856   1.1079   1.1079   1.1272   1.2466   1.2466
     1.2763   1.4848   1.4848   1.6000   1.8695   1.9081   1.9081   2.1013
     2.1013   2.3881   2.5722   2.5746   2.5746   2.6087   2.6087   2.6496
     2.7116   2.7286   2.7286   2.9620   2.9620   2.9986   3.0688   3.0688
     3.0877   3.2036   3.2150   3.2150   3.2481   3.2481   3.3055   3.3424
     3.3516   3.3516   3.3963   3.3963   3.4271   3.5086   3.5216   3.5216
     3.7288   3.7288   3.7339   3.8713   3.9098   3.9098   3.9168   3.9188
     3.9188   3.9878   3.9878   4.0369   4.0686   4.0703   4.0703   4.1450
     4.1501   4.1501   4.2030   4.2030   4.2278   4.3465   4.3765   4.3765
     4.5241   4.5816   4.5816   4.6180   4.6863   4.6863   4.7605   4.7605
     4.8768   5.0864   5.0864   5.6506   6.4428   6.4428   6.4870   6.4870
     7.0112   8.2894   8.7553   8.7553   8.7777   9.0588   9.2197   9.2197
     9.2473   9.3300   9.3300   9.3358   9.4395   9.4395   9.5643   9.5643
     9.6204   9.7492   9.7492   9.8327   9.9384   9.9831   9.9831  10.0268
    10.0497  10.0497  10.1403  10.1722  10.1722  10.1729  10.2051  10.2051
    10.2178  10.2523  10.2523  10.3331  10.3331  10.4312  10.7801  10.7801
    10.9549  11.0153  11.0153  11.0873  11.2623  11.2623  11.2653  11.3321
    11.3321  11.3368  11.3511  11.4765  11.4765  11.6128  11.6701  11.6927
    11.6927  11.7881

     occupation numbers 
     1.0000   1.0000   1.0000   1.0000   1.0000   1.0000   1.0000   1.0000
     1.0000   1.0000   1.0000   1.0000   1.0000   1.0000   1.0000   1.0000
     1.0000   1.0000   1.0000   1.0000   1.0000   1.0000   1.0000   1.0000
     1.0000   1.0000   1.0000   1.0000   1.0000   1.0000   1.0000   1.0000
     1.0000   1.0000   1.0000   1.0000   1.0000   1.0000   1.0000   1.0000
     1.0000   1.0000   1.0000   1.0000   1.0000   1.0000   1.0000   1.0000
     1.0000   1.0000   1.0000   1.0000   1.0000   1.0000   1.0000   1.0000
     1.0000   1.0000   1.0000   1.0000   1.0000   1.0000   1.0000   1.0000
     1.0000   1.0000   1.0000   1.0000   1.0000   1.0000   1.0000   1.0000
     1.0000   1.0000   1.0000   1.0000   1.0000   1.0000   1.0000   1.0000
     1.0000   1.0000   1.0000   1.0000   1.0000   1.0000   1.0000   1.0000
     1.0000   1.0000   1.0000   1.0000   1.0000   1.0000   1.0000   1.0000
     1.0000   1.0000   1.0000   1.0000   1.0000   1.0000   1.0000   1.0000
     1.0000   1.0000   1.0000   1.0000   1.0000   1.0000   1.0000   1.0000
     1.0000   1.0000   1.0000   1.0000   1.0000   1.0000   1.0000   1.0000
     1.0000   1.0000   1.0000   1.0000   1.0000   1.0000   1.0000   1.0000
     1.0000   1.0000   1.0000   1.0000   1.0000   1.0000   1.0000   1.0000
     1.0000   1.0000   1.0000   1.0000   1.0000   1.0000   1.0000   1.0000
     1.0000   1.0000   1.0000   1.0000   1.0000   1.0000   1.0000   1.0000
     1.0000   1.0000   1.0000   1.0000   1.0000   1.0000   1.0000   1.0000
     1.0000   1.0000   1.0000   1.0000   1.0000   1.0000   1.0000   1.0000
     1.0000   1.0000   1.0000   1.0000   1.0000   1.0000   1.0000   1.0000
     1.0000   1.0000   1.0000   1.0000   1.0000   1.0000   1.0000   1.0000
     1.0000   1.0000   1.0000   1.0000   1.0000   1.0000   1.0000   1.0000
     1.0000   1.0000   1.0000   1.0000   1.0000   1.0000   1.0000   1.0000
     1.0000   1.0000   1.0000   1.0000   1.0000   1.0000   1.0000   1.0000
     1.0000   1.0000   1.0000   1.0000   1.0000   1.0000   1.0000   1.0000
     1.0000   1.0000   1.0000   1.0000   1.0000   1.0000   1.0000   1.0000
     1.0000   1.0000   1.0000   1.0000   1.0000   1.0000   1.0000   1.0000
     1.0000   1.0000   1.0000   1.0000   1.0000   1.0000   1.0000   1.0000
     1.0000   1.0000   1.0000   1.0000   1.0000   1.0000   1.0000   1.0000
     1.0000   1.0000   1.0000   1.0000   1.0000   1.0000   1.0000   1.0000
     1.0000   1.0000   1.0000   1.0000   1.0000   1.0000   1.0000   1.0000
     1.0000   1.0000   1.0000   1.0000   1.0000   1.0000   1.0000   1.0000
     1.0000   1.0000   1.0000   1.0000   1.0000   1.0000   1.0000   1.0000
     1.0000   1.0000   1.0000   1.0000   1.0000   1.0000   1.0000   1.0000
     1.0000   0.3125   0.0000   0.0000   0.0000   0.0000   0.0000   0.0000
     0.0000   0.0000   0.0000   0.0000   0.0000   0.0000   0.0000   0.0000
     0.0000   0.0000   0.0000   0.0000   0.0000   0.0000   0.0000   0.0000
     0.0000   0.0000   0.0000   0.0000   0.0000   0.0000   0.0000   0.0000
     0.0000   0.0000   0.0000   0.0000   0.0000   0.0000   0.0000   0.0000
     0.0000   0.0000   0.0000   0.0000   0.0000   0.0000   0.0000   0.0000
     0.0000   0.0000   0.0000   0.0000   0.0000   0.0000   0.0000   0.0000
     0.0000   0.0000

          k = 0.2500 0.2500-0.5000 (269988 PWs)   bands (ev):

   -80.0770 -46.1982 -46.1982 -46.1558  -7.4547  -7.3757  -7.2040  -7.1997
    -7.1517  -7.0818  -7.0077  -6.8721  -6.8303  -6.8258  -6.7918  -6.7700
    -6.7540  -6.7385  -6.6875  -6.6755  -6.6611  -6.6507  -6.6407  -6.6097
    -6.5973  -6.5786  -6.5776  -6.5557  -6.5337  -6.5222  -6.5215  -6.5001
    -6.3300  -6.2274  -6.2167  -0.8961  -0.8812  -0.8801  -0.8749  -0.8590
    -0.8491  -0.8419  -0.8342  -0.8329  -0.8297  -0.8250  -0.8186  -0.8158
    -0.8148  -0.8099  -0.8090  -0.8060  -0.7998  -0.7993  -0.7965  -0.7913
    -0.7896  -0.7847  -0.7800  -0.7784  -0.7738  -0.7732  -0.7684  -0.7600
    -0.7576  -0.7553  -0.7519  -0.7472  -0.7458  -0.7439  -0.7369  -0.7360
    -0.7301  -0.7299  -0.7249  -0.7194  -0.7151  -0.7034  -0.7003  -0.6942
    -0.6909  -0.6870  -0.6773  -0.6770  -0.6643  -0.6634  -0.6552  -0.6544
    -0.6465  -0.6461  -0.6319  -0.6304  -0.6256  -0.6223  -0.6123  -0.6054
    -0.6048  -0.5965  -0.5958  -0.5867  -0.5832  -0.5773  -0.5691  -0.5597
    -0.5524  -0.5484  -0.5328  -0.5216  -0.5169  -0.5144  -0.5040  -0.5019
    -0.4948  -0.4928  -0.4838  -0.4826  -0.4707  -0.4695  -0.4615  -0.4555
    -0.4501  -0.4424  -0.4314  -0.4296  -0.4206  -0.4182  -0.4140  -0.4112
    -0.4054  -0.4006  -0.3986  -0.3977  -0.3943  -0.3938  -0.3897  -0.3861
    -0.3838  -0.3820  -0.3781  -0.3768  -0.3715  -0.3694  -0.3660  -0.3538
    -0.3536  -0.3474  -0.3426  -0.3422  -0.3379  -0.3296  -0.3277  -0.3247
    -0.3096  -0.3088  -0.3052  -0.2943  -0.2900  -0.2880  -0.2839  -0.2827
    -0.2801  -0.2735  -0.2719  -0.2672  -0.2614  -0.2541  -0.2479  -0.2393
    -0.2165  -0.2033  -0.1830  -0.1719  -0.1555  -0.1231  -0.1127  -0.1057
    -0.1048  -0.0873  -0.0709  -0.0634  -0.0564  -0.0518  -0.0503  -0.0488
    -0.0388  -0.0266  -0.0174  -0.0103  -0.0027   0.0204   0.5111   0.5862
     0.7456   0.7523   0.7655   0.8133   0.8368   0.8552   0.9054   0.9181
     0.9480   0.9592   0.9764   1.0052   1.0260   1.0949   1.2920   1.3519
     1.3954   1.4952   1.5502   1.5693   1.5930   1.6600   1.7601   2.1106
     2.4625   2.4893   2.5354   2.5443   2.5504   2.6078   2.6711   2.6758
     2.7034   2.7489   2.7511   2.8296   2.8498   2.9291   2.9781   3.0203
     3.2040   3.2556   3.3162   3.3372   3.3959   3.4012   3.4154   3.4425
     3.4540   3.4677   3.5247   3.5512   3.5540   3.6061   3.6159   3.6281
     3.6281   3.6351   3.6592   3.6727   3.7023   3.7218   3.7376   3.7622
     3.7898   3.8571   3.8976   3.9768   4.0091   4.0118   4.0484   4.0967
     4.1312   4.1862   4.2164   4.2538   4.3019   4.3161   4.3541   4.3748
     4.3983   4.5252   4.6536   4.6811   4.7872   4.8190   4.8748   4.8989
     4.9390   4.9502   5.0257   5.6853   6.4037   6.4327   6.4834   6.4916
     7.0432   8.3920   8.6936   8.7600   8.9302   9.0082   9.1033   9.2050
     9.2803   9.3427   9.3843   9.3905   9.5213   9.5537   9.5550   9.6245
     9.6274   9.7122   9.7166   9.7519   9.7596   9.8242   9.8705   9.8804
     9.8902   9.9233   9.9940  10.0321  10.0616  10.1018  10.2164  10.2768
    10.2940  10.3958  10.4058  10.4904  10.6721  10.6793  10.7300  10.7634
    10.8244  10.8894  11.0411  11.0690  11.1828  11.2088  11.3028  11.3844
    11.4281  11.4340  11.4762  11.5046  11.5060  11.5472  11.5553  11.5795
    11.6005  11.6204

     occupation numbers 
     1.0000   1.0000   1.0000   1.0000   1.0000   1.0000   1.0000   1.0000
     1.0000   1.0000   1.0000   1.0000   1.0000   1.0000   1.0000   1.0000
     1.0000   1.0000   1.0000   1.0000   1.0000   1.0000   1.0000   1.0000
     1.0000   1.0000   1.0000   1.0000   1.0000   1.0000   1.0000   1.0000
     1.0000   1.0000   1.0000   1.0000   1.0000   1.0000   1.0000   1.0000
     1.0000   1.0000   1.0000   1.0000   1.0000   1.0000   1.0000   1.0000
     1.0000   1.0000   1.0000   1.0000   1.0000   1.0000   1.0000   1.0000
     1.0000   1.0000   1.0000   1.0000   1.0000   1.0000   1.0000   1.0000
     1.0000   1.0000   1.0000   1.0000   1.0000   1.0000   1.0000   1.0000
     1.0000   1.0000   1.0000   1.0000   1.0000   1.0000   1.0000   1.0000
     1.0000   1.0000   1.0000   1.0000   1.0000   1.0000   1.0000   1.0000
     1.0000   1.0000   1.0000   1.0000   1.0000   1.0000   1.0000   1.0000
     1.0000   1.0000   1.0000   1.0000   1.0000   1.0000   1.0000   1.0000
     1.0000   1.0000   1.0000   1.0000   1.0000   1.0000   1.0000   1.0000
     1.0000   1.0000   1.0000   1.0000   1.0000   1.0000   1.0000   1.0000
     1.0000   1.0000   1.0000   1.0000   1.0000   1.0000   1.0000   1.0000
     1.0000   1.0000   1.0000   1.0000   1.0000   1.0000   1.0000   1.0000
     1.0000   1.0000   1.0000   1.0000   1.0000   1.0000   1.0000   1.0000
     1.0000   1.0000   1.0000   1.0000   1.0000   1.0000   1.0000   1.0000
     1.0000   1.0000   1.0000   1.0000   1.0000   1.0000   1.0000   1.0000
     1.0000   1.0000   1.0000   1.0000   1.0000   1.0000   1.0000   1.0000
     1.0000   1.0000   1.0000   1.0000   1.0000   1.0000   1.0000   1.0000
     1.0000   1.0000   1.0000   1.0000   1.0000   1.0000   1.0000   1.0000
     1.0000   1.0000   1.0000   1.0000   1.0000   1.0000   1.0000   1.0000
     1.0000   1.0000   1.0000   1.0000   1.0000   1.0000   1.0000   1.0000
     1.0000   1.0000   1.0000   1.0000   1.0000   1.0000   1.0000   1.0000
     1.0000   1.0000   1.0000   1.0000   1.0000   1.0000   1.0000   1.0000
     1.0000   1.0000   1.0000   1.0000   1.0000   1.0000   1.0000   1.0000
     1.0000   1.0000   1.0000   1.0000   1.0000   1.0000   1.0000   1.0000
     1.0000   1.0000   1.0000   1.0000   1.0000   1.0000   1.0000   1.0000
     1.0000   1.0000   1.0000   1.0000   1.0000   1.0000   1.0000   1.0000
     1.0000   1.0000   1.0000   1.0000   1.0000   1.0000   1.0000   1.0000
     1.0000   1.0000   1.0000   1.0000   1.0000   1.0000   1.0000   1.0000
     1.0000   1.0000   1.0000   1.0000   1.0000   1.0000   1.0000   1.0000
     1.0000   1.0000   1.0000   1.0000   1.0000   1.0000   1.0000   1.0000
     1.0000   1.0000   1.0000   1.0000   1.0000   1.0000   1.0000   1.0000
     1.0000   0.0670   0.0000   0.0000   0.0000   0.0000   0.0000   0.0000
     0.0000   0.0000   0.0000   0.0000   0.0000   0.0000   0.0000   0.0000
     0.0000   0.0000   0.0000   0.0000   0.0000   0.0000   0.0000   0.0000
     0.0000   0.0000   0.0000   0.0000   0.0000   0.0000   0.0000   0.0000
     0.0000   0.0000   0.0000   0.0000   0.0000   0.0000   0.0000   0.0000
     0.0000   0.0000   0.0000   0.0000   0.0000   0.0000   0.0000   0.0000
     0.0000   0.0000   0.0000   0.0000   0.0000   0.0000   0.0000   0.0000
     0.0000   0.0000

          k = 0.2500-0.5000-0.5000 (269956 PWs)   bands (ev):

   -80.0770 -46.1982 -46.1982 -46.1558  -7.3819  -7.3283  -7.3243  -7.2240
    -7.1483  -7.0994  -7.0904  -6.9145  -6.8166  -6.7755  -6.7727  -6.6982
    -6.6876  -6.6846  -6.6568  -6.6470  -6.6434  -6.6394  -6.6340  -6.6324
    -6.6120  -6.5984  -6.5927  -6.5902  -6.5715  -6.5555  -6.5208  -6.5179
    -6.3252  -6.2364  -6.2238  -0.8820  -0.8814  -0.8715  -0.8547  -0.8542
    -0.8426  -0.8395  -0.8306  -0.8294  -0.8250  -0.8219  -0.8183  -0.8159
    -0.8144  -0.8098  -0.8072  -0.8046  -0.8034  -0.7997  -0.7991  -0.7957
    -0.7956  -0.7926  -0.7831  -0.7795  -0.7767  -0.7741  -0.7704  -0.7655
    -0.7617  -0.7597  -0.7588  -0.7540  -0.7514  -0.7471  -0.7447  -0.7424
    -0.7354  -0.7350  -0.7276  -0.7248  -0.7193  -0.7014  -0.6941  -0.6925
    -0.6831  -0.6792  -0.6789  -0.6680  -0.6632  -0.6578  -0.6565  -0.6480
    -0.6459  -0.6412  -0.6346  -0.6277  -0.6251  -0.6216  -0.6189  -0.6108
    -0.6012  -0.5972  -0.5953  -0.5872  -0.5768  -0.5759  -0.5665  -0.5611
    -0.5520  -0.5498  -0.5403  -0.5378  -0.5285  -0.5263  -0.5110  -0.5092
    -0.5084  -0.5022  -0.4881  -0.4847  -0.4773  -0.4698  -0.4631  -0.4557
    -0.4544  -0.4510  -0.4367  -0.4308  -0.4228  -0.4179  -0.4110  -0.4075
    -0.4064  -0.3991  -0.3965  -0.3959  -0.3937  -0.3909  -0.3897  -0.3834
    -0.3827  -0.3784  -0.3744  -0.3715  -0.3671  -0.3665  -0.3616  -0.3558
    -0.3541  -0.3501  -0.3410  -0.3358  -0.3328  -0.3287  -0.3223  -0.3138
    -0.3083  -0.2983  -0.2969  -0.2919  -0.2884  -0.2806  -0.2792  -0.2774
    -0.2714  -0.2701  -0.2647  -0.2601  -0.2517  -0.2515  -0.2388  -0.2236
    -0.2233  -0.2105  -0.1717  -0.1669  -0.1567  -0.1514  -0.1296  -0.1214
    -0.1067  -0.0941  -0.0877  -0.0699  -0.0650  -0.0551  -0.0487  -0.0473
    -0.0394  -0.0273  -0.0181  -0.0146   0.0050   0.0052   0.6748   0.6813
     0.6940   0.7184   0.7454   0.7738   0.7997   0.8104   0.8340   0.9061
     0.9170   0.9540   1.1818   1.2049   1.2158   1.2229   1.2234   1.2419
     1.2510   1.2592   1.2617   1.4899   1.5568   1.7876   2.0465   2.0869
     2.1062   2.3100   2.5485   2.5940   2.6065   2.6115   2.9203   2.9615
     2.9873   3.0167   3.0190   3.0234   3.0370   3.0524   3.0581   3.0599
     3.0720   3.0748   3.0856   3.0946   3.1096   3.1505   3.2089   3.3092
     3.3095   3.4041   3.5533   3.5623   3.6011   3.6167   3.6268   3.6337
     3.6440   3.6441   3.6690   3.6735   3.6807   3.7090   3.7246   3.7899
     3.8196   3.8369   3.8756   3.8880   3.9078   3.9095   3.9640   3.9876
     4.0203   4.0494   4.0666   4.3578   4.3746   4.4736   4.5977   4.6070
     4.6408   4.6830   4.6976   4.7075   4.7232   4.7424   4.7582   4.9392
     4.9545   5.0501   5.0962   5.6991   6.4011   6.4305   6.4831   6.4979
     6.9991   8.5407   8.5466   8.8015   8.8541   8.9691   8.9744   9.0107
     9.1450   9.2635   9.3868   9.4632   9.5307   9.5493   9.6003   9.6574
     9.6766   9.6885   9.7190   9.7233   9.7363   9.7748   9.8063   9.8352
     9.8426   9.8610   9.8750   9.9059   9.9504   9.9710  10.0681  10.1894
    10.3008  10.4135  10.5224  10.6971  10.7018  10.7178  10.7245  10.8604
    10.9774  11.0301  11.0928  11.2353  11.2826  11.2929  11.2971  11.3559
    11.3927  11.4121  11.4386  11.4709  11.4713  11.5232  11.6474  11.6668
    11.7039  11.7255

     occupation numbers 
     1.0000   1.0000   1.0000   1.0000   1.0000   1.0000   1.0000   1.0000
     1.0000   1.0000   1.0000   1.0000   1.0000   1.0000   1.0000   1.0000
     1.0000   1.0000   1.0000   1.0000   1.0000   1.0000   1.0000   1.0000
     1.0000   1.0000   1.0000   1.0000   1.0000   1.0000   1.0000   1.0000
     1.0000   1.0000   1.0000   1.0000   1.0000   1.0000   1.0000   1.0000
     1.0000   1.0000   1.0000   1.0000   1.0000   1.0000   1.0000   1.0000
     1.0000   1.0000   1.0000   1.0000   1.0000   1.0000   1.0000   1.0000
     1.0000   1.0000   1.0000   1.0000   1.0000   1.0000   1.0000   1.0000
     1.0000   1.0000   1.0000   1.0000   1.0000   1.0000   1.0000   1.0000
     1.0000   1.0000   1.0000   1.0000   1.0000   1.0000   1.0000   1.0000
     1.0000   1.0000   1.0000   1.0000   1.0000   1.0000   1.0000   1.0000
     1.0000   1.0000   1.0000   1.0000   1.0000   1.0000   1.0000   1.0000
     1.0000   1.0000   1.0000   1.0000   1.0000   1.0000   1.0000   1.0000
[...]
     4.8363   5.0830   5.2505   6.8859   7.7759   7.8056   8.1194   8.4642
     8.5345   8.7537   8.8075   8.9331   8.9782   9.0733   9.1384   9.2127
     9.2901   9.3654   9.4271   9.4938   9.5630   9.6810   9.6964   9.7354
     9.7604   9.7728   9.7942   9.8112   9.8276   9.9013   9.9307   9.9779
    10.0293  10.0644  10.1044  10.1257  10.1783  10.2102  10.3166  10.3309
    10.4535  10.5277  10.5384  10.5742  10.6426  10.7089  10.7241  10.7786
    10.8098  10.8643  10.9441  11.0031  11.1436  11.2398  11.2752  11.3498
    11.4256  11.4937  11.5625  11.5996  11.6475  11.6677  11.7098  11.7342
    11.7693  11.8254

     occupation numbers 
     1.0000   1.0000   1.0000   1.0000   1.0000   1.0000   1.0000   1.0000
     1.0000   1.0000   1.0000   1.0000   1.0000   1.0000   1.0000   1.0000
     1.0000   1.0000   1.0000   1.0000   1.0000   1.0000   1.0000   1.0000
     1.0000   1.0000   1.0000   1.0000   1.0000   1.0000   1.0000   1.0000
     1.0000   1.0000   1.0000   1.0000   1.0000   1.0000   1.0000   1.0000
     1.0000   1.0000   1.0000   1.0000   1.0000   1.0000   1.0000   1.0000
     1.0000   1.0000   1.0000   1.0000   1.0000   1.0000   1.0000   1.0000
     1.0000   1.0000   1.0000   1.0000   1.0000   1.0000   1.0000   1.0000
     1.0000   1.0000   1.0000   1.0000   1.0000   1.0000   1.0000   1.0000
     1.0000   1.0000   1.0000   1.0000   1.0000   1.0000   1.0000   1.0000
     1.0000   1.0000   1.0000   1.0000   1.0000   1.0000   1.0000   1.0000
     1.0000   1.0000   1.0000   1.0000   1.0000   1.0000   1.0000   1.0000
     1.0000   1.0000   1.0000   1.0000   1.0000   1.0000   1.0000   1.0000
     1.0000   1.0000   1.0000   1.0000   1.0000   1.0000   1.0000   1.0000
     1.0000   1.0000   1.0000   1.0000   1.0000   1.0000   1.0000   1.0000
     1.0000   1.0000   1.0000   1.0000   1.0000   1.0000   1.0000   1.0000
     1.0000   1.0000   1.0000   1.0000   1.0000   1.0000   1.0000   1.0000
     1.0000   1.0000   1.0000   1.0000   1.0000   1.0000   1.0000   1.0000
     1.0000   1.0000   1.0000   1.0000   1.0000   1.0000   1.0000   1.0000
     1.0000   1.0000   1.0000   1.0000   1.0000   1.0000   1.0000   1.0000
     1.0000   1.0000   1.0000   1.0000   1.0000   1.0000   1.0000   1.0000
     1.0000   1.0000   1.0000   1.0000   1.0000   1.0000   1.0000   1.0000
     1.0000   1.0000   1.0000   1.0000   1.0000   1.0000   1.0000   1.0000
     1.0000   1.0000   1.0000   1.0000   1.0000   1.0000   1.0000   1.0000
     1.0000   1.0000   1.0000   1.0000   1.0000   1.0000   1.0000   1.0000
     1.0000   1.0000   1.0000   1.0000   1.0000   1.0000   1.0000   1.0000
     1.0000   1.0000   1.0000   1.0000   1.0000   1.0000   1.0000   1.0000
     1.0000   1.0000   1.0000   1.0000   1.0000   1.0000   1.0000   1.0000
     1.0000   1.0000   1.0000   1.0000   1.0000   1.0000   1.0000   1.0000
     1.0000   1.0000   1.0000   1.0000   1.0000   1.0000   1.0000   1.0000
     1.0000   1.0000   1.0000   1.0000   1.0000   1.0000   1.0000   1.0000
     1.0000   1.0000   1.0000   1.0000   1.0000   1.0000   1.0000   1.0000
     1.0000   1.0000   1.0000   1.0000   1.0000   1.0000   1.0000   1.0000
     1.0000   1.0000   1.0000   1.0000   1.0000   1.0000   1.0000   1.0000
     1.0000   1.0000   1.0000   1.0000   1.0000   1.0000   1.0000   1.0000
     1.0000   1.0000   1.0000   1.0000   1.0000   1.0000   0.9488   0.0000
     0.0000   0.0000   0.0000   0.0000   0.0000   0.0000   0.0000   0.0000
     0.0000   0.0000   0.0000   0.0000   0.0000   0.0000   0.0000   0.0000
     0.0000   0.0000   0.0000   0.0000   0.0000   0.0000   0.0000   0.0000
     0.0000   0.0000   0.0000   0.0000   0.0000   0.0000   0.0000   0.0000
     0.0000   0.0000   0.0000   0.0000   0.0000   0.0000   0.0000   0.0000
     0.0000   0.0000   0.0000   0.0000   0.0000   0.0000   0.0000   0.0000
     0.0000   0.0000   0.0000   0.0000   0.0000   0.0000   0.0000   0.0000
     0.0000   0.0000

          k = 0.2500-0.2500 0.2500 (269935 PWs)   bands (ev):

   -77.0594 -43.2277 -43.2277 -43.2200  -7.5241  -7.2617  -7.2578  -7.2267
    -7.0467  -7.0375  -6.9977  -6.8576  -6.8512  -6.8494  -6.8167  -6.7693
    -6.7679  -6.7580  -6.7390  -6.7276  -6.7250  -6.6538  -6.6330  -6.6091
    -6.5841  -6.5822  -6.5432  -6.5378  -6.5376  -6.4962  -6.4956  -6.4901
    -6.3116  -6.1879  -6.1862  -0.8989  -0.8981  -0.8968  -0.8797  -0.8777
    -0.8707  -0.8453  -0.8407  -0.8353  -0.8283  -0.8209  -0.8160  -0.8120
    -0.8100  -0.8097  -0.8066  -0.8039  -0.7983  -0.7940  -0.7908  -0.7872
    -0.7866  -0.7796  -0.7795  -0.7721  -0.7708  -0.7640  -0.7598  -0.7552
    -0.7518  -0.7502  -0.7455  -0.7437  -0.7391  -0.7390  -0.7360  -0.7343
    -0.7298  -0.7269  -0.7248  -0.7175  -0.7115  -0.7057  -0.7018  -0.6940
    -0.6927  -0.6907  -0.6864  -0.6766  -0.6713  -0.6704  -0.6574  -0.6526
    -0.6454  -0.6403  -0.6303  -0.6298  -0.6208  -0.6141  -0.6124  -0.6070
    -0.5955  -0.5901  -0.5855  -0.5753  -0.5740  -0.5685  -0.5662  -0.5542
    -0.5475  -0.5456  -0.5379  -0.5298  -0.5241  -0.5204  -0.5043  -0.5023
    -0.4902  -0.4860  -0.4797  -0.4653  -0.4641  -0.4539  -0.4522  -0.4484
    -0.4438  -0.4391  -0.4356  -0.4262  -0.4246  -0.4202  -0.4157  -0.4124
    -0.4121  -0.4055  -0.4040  -0.4008  -0.3981  -0.3956  -0.3946  -0.3891
    -0.3857  -0.3822  -0.3816  -0.3788  -0.3769  -0.3711  -0.3651  -0.3599
    -0.3568  -0.3504  -0.3444  -0.3396  -0.3370  -0.3363  -0.3244  -0.3232
    -0.3135  -0.3109  -0.3026  -0.2995  -0.2945  -0.2914  -0.2902  -0.2867
    -0.2812  -0.2767  -0.2709  -0.2689  -0.2645  -0.2599  -0.2506  -0.2202
    -0.2010  -0.1991  -0.1803  -0.1727  -0.1610  -0.1413  -0.1286  -0.1278
    -0.0927  -0.0916  -0.0725  -0.0710  -0.0556  -0.0526  -0.0492  -0.0431
    -0.0374  -0.0339  -0.0077  -0.0035  -0.0007   0.0211   0.4963   0.5409
     0.5431   0.7757   0.7798   0.7949   0.8747   0.8843   0.9027   0.9281
     0.9400   0.9604   1.0662   1.1078   1.1158   1.1740   1.2343   1.2777
     1.2835   1.3559   1.4922   1.6631   1.8877   1.9285   1.9964   2.1037
     2.1147   2.3862   2.5645   2.5837   2.5938   2.6142   2.6441   2.6513
     2.7218   2.7558   2.7775   2.9567   2.9703   2.9876   3.0430   3.0480
     3.1321   3.1852   3.2100   3.2217   3.2419   3.2610   3.3362   3.3426
     3.3551   3.3575   3.3930   3.4277   3.4493   3.5109   3.5895   3.6005
     3.7048   3.7473   3.8027   3.8728   3.9119   3.9180   3.9261   3.9572
     3.9800   4.0146   4.0221   4.0507   4.0716   4.1191   4.1227   4.1494
     4.1584   4.1722   4.2179   4.2275   4.2670   4.3136   4.4895   4.5063
     4.5483   4.6098   4.6273   4.6374   4.6644   4.6901   4.7688   4.7878
     4.8579   5.1551   5.1699   6.9146   7.7609   7.8124   8.1646   8.5207
     8.5387   8.7163   8.8263   9.0150   9.0186   9.1611   9.2557   9.2585
     9.3003   9.3593   9.3767   9.4033   9.4507   9.5212   9.5919   9.5935
     9.7065   9.7886   9.7970   9.8962   9.9620   9.9750  10.0003  10.0397
    10.0989  10.1082  10.1531  10.1607  10.1851  10.1867  10.2096  10.2323
    10.2419  10.2890  10.3120  10.3514  10.4839  10.6720  10.7644  10.8553
    10.9780  11.0112  11.0564  11.1460  11.2544  11.2725  11.2829  11.3154
    11.3318  11.3631  11.4199  11.5352  11.5473  11.6263  11.6984  11.6998
    11.7146  11.8197

     occupation numbers 
     1.0000   1.0000   1.0000   1.0000   1.0000   1.0000   1.0000   1.0000
     1.0000   1.0000   1.0000   1.0000   1.0000   1.0000   1.0000   1.0000
     1.0000   1.0000   1.0000   1.0000   1.0000   1.0000   1.0000   1.0000
     1.0000   1.0000   1.0000   1.0000   1.0000   1.0000   1.0000   1.0000
     1.0000   1.0000   1.0000   1.0000   1.0000   1.0000   1.0000   1.0000
     1.0000   1.0000   1.0000   1.0000   1.0000   1.0000   1.0000   1.0000
     1.0000   1.0000   1.0000   1.0000   1.0000   1.0000   1.0000   1.0000
     1.0000   1.0000   1.0000   1.0000   1.0000   1.0000   1.0000   1.0000
     1.0000   1.0000   1.0000   1.0000   1.0000   1.0000   1.0000   1.0000
     1.0000   1.0000   1.0000   1.0000   1.0000   1.0000   1.0000   1.0000
     1.0000   1.0000   1.0000   1.0000   1.0000   1.0000   1.0000   1.0000
     1.0000   1.0000   1.0000   1.0000   1.0000   1.0000   1.0000   1.0000
     1.0000   1.0000   1.0000   1.0000   1.0000   1.0000   1.0000   1.0000
     1.0000   1.0000   1.0000   1.0000   1.0000   1.0000   1.0000   1.0000
     1.0000   1.0000   1.0000   1.0000   1.0000   1.0000   1.0000   1.0000
     1.0000   1.0000   1.0000   1.0000   1.0000   1.0000   1.0000   1.0000
     1.0000   1.0000   1.0000   1.0000   1.0000   1.0000   1.0000   1.0000
     1.0000   1.0000   1.0000   1.0000   1.0000   1.0000   1.0000   1.0000
     1.0000   1.0000   1.0000   1.0000   1.0000   1.0000   1.0000   1.0000
     1.0000   1.0000   1.0000   1.0000   1.0000   1.0000   1.0000   1.0000
     1.0000   1.0000   1.0000   1.0000   1.0000   1.0000   1.0000   1.0000
     1.0000   1.0000   1.0000   1.0000   1.0000   1.0000   1.0000   1.0000
     1.0000   1.0000   1.0000   1.0000   1.0000   1.0000   1.0000   1.0000
     1.0000   1.0000   1.0000   1.0000   1.0000   1.0000   1.0000   1.0000
     1.0000   1.0000   1.0000   1.0000   1.0000   1.0000   1.0000   1.0000
     1.0000   1.0000   1.0000   1.0000   1.0000   1.0000   1.0000   1.0000
     1.0000   1.0000   1.0000   1.0000   1.0000   1.0000   1.0000   1.0000
     1.0000   1.0000   1.0000   1.0000   1.0000   1.0000   1.0000   1.0000
     1.0000   1.0000   1.0000   1.0000   1.0000   1.0000   1.0000   1.0000
     1.0000   1.0000   1.0000   1.0000   1.0000   1.0000   1.0000   1.0000
     1.0000   1.0000   1.0000   1.0000   1.0000   1.0000   1.0000   1.0000
     1.0000   1.0000   1.0000   1.0000   1.0000   1.0000   1.0000   1.0000
     1.0000   1.0000   1.0000   1.0000   1.0000   1.0000   1.0000   1.0000
     1.0000   1.0000   1.0000   1.0000   1.0000   1.0000   1.0000   1.0000
     1.0000   1.0000   1.0000   1.0000   1.0000   1.0000   1.0000   1.0000
     1.0000   1.0000   1.0000   1.0000   1.0000   1.0000   0.7772   0.0000
     0.0000   0.0000   0.0000   0.0000   0.0000   0.0000   0.0000   0.0000
     0.0000   0.0000   0.0000   0.0000   0.0000   0.0000   0.0000   0.0000
     0.0000   0.0000   0.0000   0.0000   0.0000   0.0000   0.0000   0.0000
     0.0000   0.0000   0.0000   0.0000   0.0000   0.0000   0.0000   0.0000
     0.0000   0.0000   0.0000   0.0000   0.0000   0.0000   0.0000   0.0000
     0.0000   0.0000   0.0000   0.0000   0.0000   0.0000   0.0000   0.0000
     0.0000   0.0000   0.0000   0.0000   0.0000   0.0000   0.0000   0.0000
     0.0000   0.0000

          k = 0.2500-0.2500-0.5000 (269988 PWs)   bands (ev):

   -77.0594 -43.2277 -43.2277 -43.2201  -7.4545  -7.3764  -7.2058  -7.1987
    -7.1347  -7.0958  -7.0078  -6.8735  -6.8307  -6.8263  -6.7841  -6.7671
    -6.7625  -6.7415  -6.6870  -6.6688  -6.6576  -6.6502  -6.6395  -6.6157
    -6.6027  -6.5805  -6.5660  -6.5605  -6.5344  -6.5312  -6.5123  -6.5028
    -6.3047  -6.2009  -6.1883  -0.8977  -0.8811  -0.8807  -0.8723  -0.8590
    -0.8506  -0.8423  -0.8363  -0.8329  -0.8286  -0.8251  -0.8169  -0.8160
    -0.8151  -0.8103  -0.8079  -0.8050  -0.8016  -0.8007  -0.7976  -0.7924
    -0.7884  -0.7854  -0.7805  -0.7772  -0.7745  -0.7706  -0.7653  -0.7630
    -0.7590  -0.7556  -0.7525  -0.7490  -0.7443  -0.7419  -0.7395  -0.7338
    -0.7317  -0.7272  -0.7233  -0.7194  -0.7128  -0.7054  -0.7007  -0.6973
    -0.6927  -0.6893  -0.6831  -0.6734  -0.6670  -0.6623  -0.6548  -0.6472
    -0.6434  -0.6404  -0.6360  -0.6295  -0.6278  -0.6184  -0.6127  -0.6059
    -0.6036  -0.5946  -0.5865  -0.5820  -0.5811  -0.5755  -0.5660  -0.5643
    -0.5542  -0.5434  -0.5397  -0.5327  -0.5177  -0.5150  -0.5062  -0.4993
    -0.4914  -0.4859  -0.4847  -0.4832  -0.4729  -0.4635  -0.4594  -0.4511
    -0.4459  -0.4447  -0.4296  -0.4251  -0.4237  -0.4182  -0.4150  -0.4129
    -0.4093  -0.4038  -0.3992  -0.3973  -0.3947  -0.3936  -0.3869  -0.3844
    -0.3835  -0.3814  -0.3787  -0.3767  -0.3712  -0.3680  -0.3644  -0.3596
    -0.3558  -0.3521  -0.3441  -0.3412  -0.3364  -0.3288  -0.3256  -0.3211
    -0.3118  -0.3046  -0.3024  -0.2968  -0.2908  -0.2900  -0.2848  -0.2816
    -0.2787  -0.2725  -0.2658  -0.2633  -0.2622  -0.2493  -0.2399  -0.2315
    -0.2131  -0.1935  -0.1744  -0.1707  -0.1564  -0.1435  -0.1336  -0.1086
    -0.0985  -0.0930  -0.0761  -0.0701  -0.0626  -0.0572  -0.0519  -0.0469
    -0.0320  -0.0281  -0.0231  -0.0082   0.0006   0.0118   0.5171   0.6020
     0.7365   0.7606   0.7998   0.8168   0.8315   0.8619   0.9187   0.9242
     0.9391   0.9599   0.9858   1.0029   1.0487   1.0809   1.1725   1.3648
     1.4244   1.5031   1.5357   1.5703   1.6029   1.7010   1.8433   2.1366
     2.4823   2.5295   2.5344   2.5566   2.5692   2.5751   2.6291   2.6969
     2.7282   2.7537   2.7972   2.8151   2.8819   2.9542   2.9823   3.0374
     3.2118   3.2732   3.3305   3.3489   3.4084   3.4195   3.4371   3.4565
     3.4752   3.5005   3.5132   3.5483   3.5908   3.6041   3.6192   3.6281
     3.6317   3.6420   3.6484   3.7092   3.7299   3.7400   3.7752   3.7939
     3.8190   3.8970   3.9324   3.9912   4.0046   4.0717   4.0811   4.1424
     4.1487   4.1742   4.2136   4.2977   4.3369   4.3652   4.3785   4.4078
     4.4363   4.5986   4.7104   4.7603   4.7886   4.8364   4.8624   4.9145
     4.9655   5.0166   5.0320   6.9376   7.7822   7.7979   8.3147   8.4130
     8.7044   8.7882   8.8407   8.9309   9.0408   9.1484   9.2017   9.2773
     9.3097   9.3238   9.4144   9.5301   9.5428   9.5635   9.5807   9.5959
     9.6455   9.7017   9.7205   9.7741   9.7930   9.8336   9.8502   9.8918
     9.9779  10.0029  10.0578  10.0786  10.1531  10.1831  10.2389  10.2837
    10.3038  10.4308  10.4772  10.6334  10.6874  10.7066  10.7937  10.8399
    10.8771  10.9232  11.0308  11.1463  11.1665  11.2121  11.3390  11.3833
    11.4112  11.4506  11.4529  11.4944  11.5227  11.5558  11.5797  11.6011
    11.6072  11.6194

     occupation numbers 
     1.0000   1.0000   1.0000   1.0000   1.0000   1.0000   1.0000   1.0000
     1.0000   1.0000   1.0000   1.0000   1.0000   1.0000   1.0000   1.0000
     1.0000   1.0000   1.0000   1.0000   1.0000   1.0000   1.0000   1.0000
     1.0000   1.0000   1.0000   1.0000   1.0000   1.0000   1.0000   1.0000
     1.0000   1.0000   1.0000   1.0000   1.0000   1.0000   1.0000   1.0000
     1.0000   1.0000   1.0000   1.0000   1.0000   1.0000   1.0000   1.0000
     1.0000   1.0000   1.0000   1.0000   1.0000   1.0000   1.0000   1.0000
     1.0000   1.0000   1.0000   1.0000   1.0000   1.0000   1.0000   1.0000
     1.0000   1.0000   1.0000   1.0000   1.0000   1.0000   1.0000   1.0000
     1.0000   1.0000   1.0000   1.0000   1.0000   1.0000   1.0000   1.0000
     1.0000   1.0000   1.0000   1.0000   1.0000   1.0000   1.0000   1.0000
     1.0000   1.0000   1.0000   1.0000   1.0000   1.0000   1.0000   1.0000
     1.0000   1.0000   1.0000   1.0000   1.0000   1.0000   1.0000   1.0000
     1.0000   1.0000   1.0000   1.0000   1.0000   1.0000   1.0000   1.0000
     1.0000   1.0000   1.0000   1.0000   1.0000   1.0000   1.0000   1.0000
     1.0000   1.0000   1.0000   1.0000   1.0000   1.0000   1.0000   1.0000
     1.0000   1.0000   1.0000   1.0000   1.0000   1.0000   1.0000   1.0000
     1.0000   1.0000   1.0000   1.0000   1.0000   1.0000   1.0000   1.0000
     1.0000   1.0000   1.0000   1.0000   1.0000   1.0000   1.0000   1.0000
     1.0000   1.0000   1.0000   1.0000   1.0000   1.0000   1.0000   1.0000
     1.0000   1.0000   1.0000   1.0000   1.0000   1.0000   1.0000   1.0000
     1.0000   1.0000   1.0000   1.0000   1.0000   1.0000   1.0000   1.0000
     1.0000   1.0000   1.0000   1.0000   1.0000   1.0000   1.0000   1.0000
     1.0000   1.0000   1.0000   1.0000   1.0000   1.0000   1.0000   1.0000
     1.0000   1.0000   1.0000   1.0000   1.0000   1.0000   1.0000   1.0000
     1.0000   1.0000   1.0000   1.0000   1.0000   1.0000   1.0000   1.0000
     1.0000   1.0000   1.0000   1.0000   1.0000   1.0000   1.0000   1.0000
     1.0000   1.0000   1.0000   1.0000   1.0000   1.0000   1.0000   1.0000
     1.0000   1.0000   1.0000   1.0000   1.0000   1.0000   1.0000   1.0000
     1.0000   1.0000   1.0000   1.0000   1.0000   1.0000   1.0000   1.0000
     1.0000   1.0000   1.0000   1.0000   1.0000   1.0000   1.0000   1.0000
     1.0000   1.0000   1.0000   1.0000   1.0000   1.0000   1.0000   1.0000
     1.0000   1.0000   1.0000   1.0000   1.0000   1.0000   1.0000   1.0000
     1.0000   1.0000   1.0000   1.0000   1.0000   1.0000   1.0000   1.0000
     1.0000   1.0000   1.0000   1.0000   1.0000   1.0000   1.0000   1.0000
     1.0000   1.0000   1.0000   1.0000   1.0000   1.0000   0.2600   0.0000
     0.0000   0.0000   0.0000   0.0000   0.0000   0.0000   0.0000   0.0000
     0.0000   0.0000   0.0000   0.0000   0.0000   0.0000   0.0000   0.0000
     0.0000   0.0000   0.0000   0.0000   0.0000   0.0000   0.0000   0.0000
     0.0000   0.0000   0.0000   0.0000   0.0000   0.0000   0.0000   0.0000
     0.0000   0.0000   0.0000   0.0000   0.0000   0.0000   0.0000   0.0000
     0.0000   0.0000   0.0000   0.0000   0.0000   0.0000   0.0000   0.0000
     0.0000   0.0000   0.0000   0.0000   0.0000   0.0000   0.0000   0.0000
     0.0000   0.0000

     the Fermi energy is     8.2671 ev
     (compare with:     8.2970 eV, computed in scf)

     Writing all to output data dir ./out/Fe_vac_qn2_unrlxd.save/
 
     init_run     :      3.56s CPU      3.99s WALL (       1 calls)
     electrons    :    300.63s CPU    303.28s WALL (       1 calls)

     Called by init_run:
     wfcinit      :      0.00s CPU      0.01s WALL (       1 calls)
     wfcinit:atom :      0.06s CPU      0.07s WALL (       4 calls)
     wfcinit:wfcr :      4.94s CPU      5.09s WALL (       4 calls)
     potinit      :      1.36s CPU      1.51s WALL (       1 calls)
     hinit0       :      0.43s CPU      0.52s WALL (       1 calls)

     Called by electrons:
     c_bands      :    299.36s CPU    301.98s WALL (       1 calls)
     v_of_rho     :      0.30s CPU      0.37s WALL (       1 calls)
     v_h          :      0.01s CPU      0.01s WALL (       1 calls)
     v_xc         :      0.29s CPU      0.35s WALL (       1 calls)
     newd         :      0.08s CPU      0.09s WALL (       1 calls)
     PAW_pot      :      0.58s CPU      0.59s WALL (       1 calls)

     Called by c_bands:
     init_us_2    :      0.10s CPU      0.13s WALL (       4 calls)
     init_us_2:cp :      0.10s CPU      0.13s WALL (       4 calls)
     cegterg      :    245.66s CPU    247.89s WALL (      23 calls)

     Called by sum_band:

     Called by *egterg:
     cdiaghg      :     28.19s CPU     28.35s WALL (     463 calls)
     cegterg:over :     23.06s CPU     23.24s WALL (     459 calls)
     cegterg:upda :     21.29s CPU     21.41s WALL (     459 calls)
     cegterg:last :     38.55s CPU     38.79s WALL (     130 calls)
     cdiaghg:chol :      1.81s CPU      1.82s WALL (     463 calls)
     cdiaghg:inve :      2.67s CPU      2.69s WALL (     463 calls)
     cdiaghg:para :      4.24s CPU      4.27s WALL (     926 calls)
     h_psi        :    109.26s CPU    110.42s WALL (     486 calls)
     s_psi        :     24.82s CPU     24.97s WALL (     486 calls)
     g_psi        :      0.77s CPU      0.77s WALL (     459 calls)

     Called by h_psi:
     h_psi:calbec :     24.60s CPU     24.80s WALL (     486 calls)
     vloc_psi     :     57.71s CPU     58.20s WALL (     486 calls)
     add_vuspsi   :     25.79s CPU     26.01s WALL (     486 calls)

     General routines
     calbec       :     24.60s CPU     24.80s WALL (     486 calls)
     fft          :      0.48s CPU      0.65s WALL (      21 calls)
     fftw         :     53.66s CPU     54.12s WALL (  100080 calls)
 
     Parallel routines

     PAW routines
     PAW_pot      :      0.58s CPU      0.59s WALL (       1 calls)
 
     PWSCF        :   5m10.99s CPU   5m19.03s WALL

 
   This run was terminated on:   1:39:31   7Jul2024            

=------------------------------------------------------------------------------=
   JOB DONE.
=------------------------------------------------------------------------------=
