
     Program PWSCF v.7.2 starts on  1Jul2024 at  3:55: 3 

     This program is part of the open-source Quantum ESPRESSO suite
     for quantum simulation of materials; please cite
         "P. Giannozzi et al., J. Phys.:Condens. Matter 21 395502 (2009);
         "P. Giannozzi et al., J. Phys.:Condens. Matter 29 465901 (2017);
         "P. Giannozzi et al., J. Chem. Phys. 152 154105 (2020);
          URL http://www.quantum-espresso.org", 
     in publications or presentations arising from this work. More details at
     http://www.quantum-espresso.org/quote

     Parallel version (MPI), running on  1120 processors

     MPI processes distributed on    10 nodes
     228965 MiB available memory on the printing compute node when the environment starts
 
     Waiting for input...
     Reading input from standard input

     Current dimensions of program PWSCF are:
     Max number of different atomic species (ntypx) = 10
     Max number of k-points (npk) =  40000
     Max angular momentum in pseudopotentials (lmaxx) =  4
     file S.pbe-n-kjpaw_psl.1.0.0.UPF: wavefunction(s)  3S 3P renormalized
     file Zn.pbe-dnl-kjpaw_psl.1.0.0.UPF: wavefunction(s)  4S 3D renormalized
     Found identity + (  0.0000  0.2500  0.2500) symmetry
     This is a supercell, fractional translations are disabled
 
     K-points division:     npool     =      10
     R & G space division:  proc/nbgrp/npool/nimage =     112
     Subspace diagonalization in iterative solution of the eigenvalue problem:
     one sub-group per band group will be used
     scalapack distributed-memory algorithm (size of sub-group:  3*  3 procs)

 
     Parallelization info
     --------------------
     sticks:   dense  smooth     PW     G-vecs:    dense   smooth      PW
     Min         126     126     33                11287    11287    1523
     Max         128     128     34                11292    11292    1528
     Sum       14137   14137   3721              1264415  1264415  170709
 
     Using Slab Decomposition
 


     bravais-lattice index     =            1
     lattice parameter (alat)  =      20.5686  a.u.
     unit-cell volume          =    8701.8437 (a.u.)^3
     number of atoms/cell      =           64
     number of atomic types    =            2
     number of electrons       =       576.00
     number of Kohn-Sham states=          345
     kinetic-energy cutoff     =     105.0000  Ry
     charge density cutoff     =     420.0000  Ry
     scf convergence threshold =      1.0E-06
     mixing beta               =       0.7000
     number of iterations used =            8  plain     mixing
     Exchange-correlation= SLA  PW   PBX  PBC
                           (   1   4   3   4   0   0   0)
     Hubbard projectors: ortho-atomic
     Hubbard parameters of DFT+U (Dudarev formulation) in eV:
     U(S-3p) =  5.0000
     U(Zn-3d) =  0.0000

     Internal variables: lda_plus_u = T, lda_plus_u_kind = 0

     celldm(1)=  20.568554  celldm(2)=   0.000000  celldm(3)=   0.000000
     celldm(4)=   0.000000  celldm(5)=   0.000000  celldm(6)=   0.000000

     crystal axes: (cart. coord. in units of alat)
               a(1) = (   1.000000   0.000000   0.000000 )  
               a(2) = (   0.000000   1.000000   0.000000 )  
               a(3) = (   0.000000   0.000000   1.000000 )  

     reciprocal axes: (cart. coord. in units 2 pi/alat)
               b(1) = (  1.000000  0.000000  0.000000 )  
               b(2) = (  0.000000  1.000000  0.000000 )  
               b(3) = (  0.000000  0.000000  1.000000 )  


     PseudoPot. # 1 for S  read from file:
     /arf/home/amuhaymin/pseudo/S.pbe-n-kjpaw_psl.1.0.0.UPF
     MD5 check sum: fb45dfebcf3e72a4e1bd4a866ec2e262
     Pseudo is Projector augmented-wave + core cor, Zval =  6.0
     Generated using &quot;atomic&quot; code by A. Dal Corso  v.6.3
     Shape of augmentation charge: PSQ
     Using radial grid of 1151 points,  6 beta functions with: 
                l(1) =   0
                l(2) =   0
                l(3) =   1
                l(4) =   1
                l(5) =   2
                l(6) =   2
     Q(r) pseudized with 0 coefficients 


     PseudoPot. # 2 for Zn read from file:
     /arf/home/amuhaymin/pseudo/Zn.pbe-dnl-kjpaw_psl.1.0.0.UPF
     MD5 check sum: c608214d9520ac179f507641260889e3
     Pseudo is Projector augmented-wave + core cor, Zval = 12.0
     Generated using &quot;atomic&quot; code by A. Dal Corso  v.6.2.2
     Shape of augmentation charge: PSQ
     Using radial grid of 1201 points,  6 beta functions with: 
                l(1) =   0
                l(2) =   0
                l(3) =   1
                l(4) =   1
                l(5) =   2
                l(6) =   2
     Q(r) pseudized with 0 coefficients 


     atomic species   valence    mass     pseudopotential
        S              6.00    32.06500     S ( 1.00)
        Zn            12.00    65.38000     Zn( 1.00)

     24 Sym. Ops. (no inversion) found


                                    s                        frac. trans.

      isym =  1     identity                                     

 cryst.   s( 1) = (     1          0          0      )
                  (     0          1          0      )
                  (     0          0          1      )

 cart.    s( 1) = (  1.0000000  0.0000000  0.0000000 )
                  (  0.0000000  1.0000000  0.0000000 )
                  (  0.0000000  0.0000000  1.0000000 )


      isym =  2     180 deg rotation - cart. axis [0,0,1]        

 cryst.   s( 2) = (    -1          0          0      )
                  (     0         -1          0      )
                  (     0          0          1      )

 cart.    s( 2) = ( -1.0000000  0.0000000  0.0000000 )
                  (  0.0000000 -1.0000000  0.0000000 )
                  (  0.0000000  0.0000000  1.0000000 )


      isym =  3     180 deg rotation - cart. axis [0,1,0]        

 cryst.   s( 3) = (    -1          0          0      )
                  (     0          1          0      )
                  (     0          0         -1      )

 cart.    s( 3) = ( -1.0000000  0.0000000  0.0000000 )
                  (  0.0000000  1.0000000  0.0000000 )
                  (  0.0000000  0.0000000 -1.0000000 )


      isym =  4     180 deg rotation - cart. axis [1,0,0]        

 cryst.   s( 4) = (     1          0          0      )
                  (     0         -1          0      )
                  (     0          0         -1      )

 cart.    s( 4) = (  1.0000000  0.0000000  0.0000000 )
                  (  0.0000000 -1.0000000  0.0000000 )
                  (  0.0000000  0.0000000 -1.0000000 )


      isym =  5     120 deg rotation - cart. axis [-1,-1,-1]     

 cryst.   s( 5) = (     0          0          1      )
                  (     1          0          0      )
                  (     0          1          0      )

 cart.    s( 5) = (  0.0000000  1.0000000  0.0000000 )
                  (  0.0000000  0.0000000  1.0000000 )
                  (  1.0000000  0.0000000  0.0000000 )


      isym =  6     120 deg rotation - cart. axis [-1,1,1]       

 cryst.   s( 6) = (     0          0         -1      )
                  (    -1          0          0      )
                  (     0          1          0      )

 cart.    s( 6) = (  0.0000000 -1.0000000  0.0000000 )
                  (  0.0000000  0.0000000  1.0000000 )
                  ( -1.0000000  0.0000000  0.0000000 )


      isym =  7     120 deg rotation - cart. axis [1,1,-1]       

 cryst.   s( 7) = (     0          0         -1      )
                  (     1          0          0      )
                  (     0         -1          0      )

 cart.    s( 7) = (  0.0000000  1.0000000  0.0000000 )
                  (  0.0000000  0.0000000 -1.0000000 )
                  ( -1.0000000  0.0000000  0.0000000 )


      isym =  8     120 deg rotation - cart. axis [1,-1,1]       

 cryst.   s( 8) = (     0          0          1      )
                  (    -1          0          0      )
                  (     0         -1          0      )

 cart.    s( 8) = (  0.0000000 -1.0000000  0.0000000 )
                  (  0.0000000  0.0000000 -1.0000000 )
                  (  1.0000000  0.0000000  0.0000000 )


      isym =  9     120 deg rotation - cart. axis [1,1,1]        

 cryst.   s( 9) = (     0          1          0      )
                  (     0          0          1      )
                  (     1          0          0      )

 cart.    s( 9) = (  0.0000000  0.0000000  1.0000000 )
                  (  1.0000000  0.0000000  0.0000000 )
                  (  0.0000000  1.0000000  0.0000000 )


      isym = 10     120 deg rotation - cart. axis [-1,1,-1]      

 cryst.   s(10) = (     0         -1          0      )
                  (     0          0         -1      )
                  (     1          0          0      )

 cart.    s(10) = (  0.0000000  0.0000000  1.0000000 )
                  ( -1.0000000  0.0000000  0.0000000 )
                  (  0.0000000 -1.0000000  0.0000000 )


      isym = 11     120 deg rotation - cart. axis [1,-1,-1]      

 cryst.   s(11) = (     0         -1          0      )
                  (     0          0          1      )
                  (    -1          0          0      )

 cart.    s(11) = (  0.0000000  0.0000000 -1.0000000 )
                  ( -1.0000000  0.0000000  0.0000000 )
                  (  0.0000000  1.0000000  0.0000000 )


      isym = 12     120 deg rotation - cart. axis [-1,-1,1]      

 cryst.   s(12) = (     0          1          0      )
                  (     0          0         -1      )
                  (    -1          0          0      )

 cart.    s(12) = (  0.0000000  0.0000000 -1.0000000 )
                  (  1.0000000  0.0000000  0.0000000 )
                  (  0.0000000 -1.0000000  0.0000000 )


      isym = 13     inv. 180 deg rotation - cart. axis [1,1,0]   

 cryst.   s(13) = (     0         -1          0      )
                  (    -1          0          0      )
                  (     0          0          1      )

 cart.    s(13) = (  0.0000000 -1.0000000  0.0000000 )
                  ( -1.0000000  0.0000000  0.0000000 )
                  (  0.0000000  0.0000000  1.0000000 )


      isym = 14     inv. 180 deg rotation - cart. axis [1,-1,0]  

 cryst.   s(14) = (     0          1          0      )
                  (     1          0          0      )
                  (     0          0          1      )

 cart.    s(14) = (  0.0000000  1.0000000  0.0000000 )
                  (  1.0000000  0.0000000  0.0000000 )
                  (  0.0000000  0.0000000  1.0000000 )


      isym = 15     inv.  90 deg rotation - cart. axis [0,0,-1]  

 cryst.   s(15) = (     0          1          0      )
                  (    -1          0          0      )
                  (     0          0         -1      )

 cart.    s(15) = (  0.0000000 -1.0000000  0.0000000 )
                  (  1.0000000  0.0000000  0.0000000 )
                  (  0.0000000  0.0000000 -1.0000000 )


      isym = 16     inv.  90 deg rotation - cart. axis [0,0,1]   

 cryst.   s(16) = (     0         -1          0      )
                  (     1          0          0      )
                  (     0          0         -1      )

 cart.    s(16) = (  0.0000000  1.0000000  0.0000000 )
                  ( -1.0000000  0.0000000  0.0000000 )
                  (  0.0000000  0.0000000 -1.0000000 )


      isym = 17     inv. 180 deg rotation - cart. axis [1,0,1]   

 cryst.   s(17) = (     0          0         -1      )
                  (     0          1          0      )
                  (    -1          0          0      )

 cart.    s(17) = (  0.0000000  0.0000000 -1.0000000 )
                  (  0.0000000  1.0000000  0.0000000 )
                  ( -1.0000000  0.0000000  0.0000000 )


      isym = 18     inv. 180 deg rotation - cart. axis [-1,0,1]  

 cryst.   s(18) = (     0          0          1      )
                  (     0          1          0      )
                  (     1          0          0      )

 cart.    s(18) = (  0.0000000  0.0000000  1.0000000 )
                  (  0.0000000  1.0000000  0.0000000 )
                  (  1.0000000  0.0000000  0.0000000 )


      isym = 19     inv.  90 deg rotation - cart. axis [0,1,0]   

 cryst.   s(19) = (     0          0          1      )
                  (     0         -1          0      )
                  (    -1          0          0      )

 cart.    s(19) = (  0.0000000  0.0000000 -1.0000000 )
                  (  0.0000000 -1.0000000  0.0000000 )
                  (  1.0000000  0.0000000  0.0000000 )


      isym = 20     inv.  90 deg rotation - cart. axis [0,-1,0]  

 cryst.   s(20) = (     0          0         -1      )
                  (     0         -1          0      )
                  (     1          0          0      )

 cart.    s(20) = (  0.0000000  0.0000000  1.0000000 )
                  (  0.0000000 -1.0000000  0.0000000 )
                  ( -1.0000000  0.0000000  0.0000000 )


      isym = 21     inv. 180 deg rotation - cart. axis [0,1,1]   

 cryst.   s(21) = (     1          0          0      )
                  (     0          0         -1      )
                  (     0         -1          0      )

 cart.    s(21) = (  1.0000000  0.0000000  0.0000000 )
                  (  0.0000000  0.0000000 -1.0000000 )
                  (  0.0000000 -1.0000000  0.0000000 )


      isym = 22     inv. 180 deg rotation - cart. axis [0,1,-1]  

 cryst.   s(22) = (     1          0          0      )
                  (     0          0          1      )
                  (     0          1          0      )

 cart.    s(22) = (  1.0000000  0.0000000  0.0000000 )
                  (  0.0000000  0.0000000  1.0000000 )
                  (  0.0000000  1.0000000  0.0000000 )


      isym = 23     inv.  90 deg rotation - cart. axis [-1,0,0]  

 cryst.   s(23) = (    -1          0          0      )
                  (     0          0          1      )
                  (     0         -1          0      )

 cart.    s(23) = ( -1.0000000  0.0000000  0.0000000 )
                  (  0.0000000  0.0000000 -1.0000000 )
                  (  0.0000000  1.0000000  0.0000000 )


      isym = 24     inv.  90 deg rotation - cart. axis [1,0,0]   

 cryst.   s(24) = (    -1          0          0      )
                  (     0          0         -1      )
                  (     0          1          0      )

 cart.    s(24) = ( -1.0000000  0.0000000  0.0000000 )
                  (  0.0000000  0.0000000  1.0000000 )
                  (  0.0000000 -1.0000000  0.0000000 )


     point group T_d (-43m) 
     there are  5 classes
     the character table:

       E     8C3   3C2   6S4   6s_d 
A_1    1.00  1.00  1.00  1.00  1.00
A_2    1.00  1.00  1.00 -1.00 -1.00
E      2.00 -1.00  2.00  0.00  0.00
T_1    3.00  0.00 -1.00  1.00 -1.00
T_2    3.00  0.00 -1.00 -1.00  1.00

     the symmetry operations in each class and the name of the first element:

     E        1
          identity                                               
     8C3      5    7    8    6   12    9   10   11
          120 deg rotation - cart. axis [-1,-1,-1]               
     3C2      2    3    4
          180 deg rotation - cart. axis [0,0,1]                  
     6S4     15   16   20   19   23   24
          inv.  90 deg rotation - cart. axis [0,0,-1]            
     6s_d    13   14   17   18   21   22
          inv. 180 deg rotation - cart. axis [1,1,0]             

   Cartesian axes

     site n.     atom                  positions (alat units)
         1           Zn  tau(   1) = (   0.0000000   0.0000000   0.0000000  )
         2           Zn  tau(   2) = (   0.0000000   0.2500000   0.2500000  )
         3           Zn  tau(   3) = (   0.2500000   0.0000000   0.2500000  )
         4           Zn  tau(   4) = (   0.2500000   0.2500000   0.0000000  )
         5           S   tau(   5) = (   0.1250000   0.3750000   0.3750000  )
         6           S   tau(   6) = (   0.1250000   0.1250000   0.1250000  )
         7           S   tau(   7) = (   0.3750000   0.3750000   0.1250000  )
         8           S   tau(   8) = (   0.3750000   0.1250000   0.3750000  )
         9           Zn  tau(   9) = (   0.0000000   0.0000000   0.5000000  )
        10           Zn  tau(  10) = (   0.0000000   0.2500000   0.7500000  )
        11           Zn  tau(  11) = (   0.2500000   0.0000000   0.7500000  )
        12           Zn  tau(  12) = (   0.2500000   0.2500000   0.5000000  )
        13           S   tau(  13) = (   0.1250000   0.3750000   0.8750000  )
        14           S   tau(  14) = (   0.1250000   0.1250000   0.6250000  )
        15           S   tau(  15) = (   0.3750000   0.3750000   0.6250000  )
        16           S   tau(  16) = (   0.3750000   0.1250000   0.8750000  )
        17           Zn  tau(  17) = (   0.0000000   0.5000000   0.0000000  )
        18           Zn  tau(  18) = (   0.0000000   0.7500000   0.2500000  )
        19           Zn  tau(  19) = (   0.2500000   0.5000000   0.2500000  )
        20           Zn  tau(  20) = (   0.2500000   0.7500000   0.0000000  )
        21           S   tau(  21) = (   0.1250000   0.8750000   0.3750000  )
        22           S   tau(  22) = (   0.1250000   0.6250000   0.1250000  )
        23           S   tau(  23) = (   0.3750000   0.8750000   0.1250000  )
        24           S   tau(  24) = (   0.3750000   0.6250000   0.3750000  )
        25           Zn  tau(  25) = (   0.0000000   0.5000000   0.5000000  )
        26           Zn  tau(  26) = (   0.0000000   0.7500000   0.7500000  )
        27           Zn  tau(  27) = (   0.2500000   0.5000000   0.7500000  )
        28           Zn  tau(  28) = (   0.2500000   0.7500000   0.5000000  )
        29           S   tau(  29) = (   0.1250000   0.8750000   0.8750000  )
        30           S   tau(  30) = (   0.1250000   0.6250000   0.6250000  )
        31           S   tau(  31) = (   0.3750000   0.8750000   0.6250000  )
        32           S   tau(  32) = (   0.3750000   0.6250000   0.8750000  )
        33           Zn  tau(  33) = (   0.5000000   0.0000000   0.0000000  )
        34           Zn  tau(  34) = (   0.5000000   0.2500000   0.2500000  )
        35           Zn  tau(  35) = (   0.7500000   0.0000000   0.2500000  )
        36           Zn  tau(  36) = (   0.7500000   0.2500000   0.0000000  )
        37           S   tau(  37) = (   0.6250000   0.3750000   0.3750000  )
        38           S   tau(  38) = (   0.6250000   0.1250000   0.1250000  )
        39           S   tau(  39) = (   0.8750000   0.3750000   0.1250000  )
        40           S   tau(  40) = (   0.8750000   0.1250000   0.3750000  )
        41           Zn  tau(  41) = (   0.5000000   0.0000000   0.5000000  )
        42           Zn  tau(  42) = (   0.5000000   0.2500000   0.7500000  )
        43           Zn  tau(  43) = (   0.7500000   0.0000000   0.7500000  )
        44           Zn  tau(  44) = (   0.7500000   0.2500000   0.5000000  )
        45           S   tau(  45) = (   0.6250000   0.3750000   0.8750000  )
        46           S   tau(  46) = (   0.6250000   0.1250000   0.6250000  )
        47           S   tau(  47) = (   0.8750000   0.3750000   0.6250000  )
        48           S   tau(  48) = (   0.8750000   0.1250000   0.8750000  )
        49           Zn  tau(  49) = (   0.5000000   0.5000000   0.0000000  )
        50           Zn  tau(  50) = (   0.5000000   0.7500000   0.2500000  )
        51           Zn  tau(  51) = (   0.7500000   0.5000000   0.2500000  )
        52           Zn  tau(  52) = (   0.7500000   0.7500000   0.0000000  )
        53           S   tau(  53) = (   0.6250000   0.8750000   0.3750000  )
        54           S   tau(  54) = (   0.6250000   0.6250000   0.1250000  )
        55           S   tau(  55) = (   0.8750000   0.8750000   0.1250000  )
        56           S   tau(  56) = (   0.8750000   0.6250000   0.3750000  )
        57           Zn  tau(  57) = (   0.5000000   0.5000000   0.5000000  )
        58           Zn  tau(  58) = (   0.5000000   0.7500000   0.7500000  )
        59           Zn  tau(  59) = (   0.7500000   0.5000000   0.7500000  )
        60           Zn  tau(  60) = (   0.7500000   0.7500000   0.5000000  )
        61           S   tau(  61) = (   0.6250000   0.8750000   0.8750000  )
        62           S   tau(  62) = (   0.6250000   0.6250000   0.6250000  )
        63           S   tau(  63) = (   0.8750000   0.8750000   0.6250000  )
        64           S   tau(  64) = (   0.8750000   0.6250000   0.8750000  )

   Crystallographic axes

     site n.     atom                  positions (cryst. coord.)
         1           Zn  tau(   1) = (  0.0000000  0.0000000  0.0000000  )
         2           Zn  tau(   2) = (  0.0000000  0.2500000  0.2500000  )
         3           Zn  tau(   3) = (  0.2500000  0.0000000  0.2500000  )
         4           Zn  tau(   4) = (  0.2500000  0.2500000  0.0000000  )
         5           S   tau(   5) = (  0.1250000  0.3750000  0.3750000  )
         6           S   tau(   6) = (  0.1250000  0.1250000  0.1250000  )
         7           S   tau(   7) = (  0.3750000  0.3750000  0.1250000  )
         8           S   tau(   8) = (  0.3750000  0.1250000  0.3750000  )
         9           Zn  tau(   9) = (  0.0000000  0.0000000  0.5000000  )
        10           Zn  tau(  10) = (  0.0000000  0.2500000  0.7500000  )
        11           Zn  tau(  11) = (  0.2500000  0.0000000  0.7500000  )
        12           Zn  tau(  12) = (  0.2500000  0.2500000  0.5000000  )
        13           S   tau(  13) = (  0.1250000  0.3750000  0.8750000  )
        14           S   tau(  14) = (  0.1250000  0.1250000  0.6250000  )
        15           S   tau(  15) = (  0.3750000  0.3750000  0.6250000  )
        16           S   tau(  16) = (  0.3750000  0.1250000  0.8750000  )
        17           Zn  tau(  17) = (  0.0000000  0.5000000  0.0000000  )
        18           Zn  tau(  18) = (  0.0000000  0.7500000  0.2500000  )
        19           Zn  tau(  19) = (  0.2500000  0.5000000  0.2500000  )
        20           Zn  tau(  20) = (  0.2500000  0.7500000  0.0000000  )
        21           S   tau(  21) = (  0.1250000  0.8750000  0.3750000  )
        22           S   tau(  22) = (  0.1250000  0.6250000  0.1250000  )
        23           S   tau(  23) = (  0.3750000  0.8750000  0.1250000  )
        24           S   tau(  24) = (  0.3750000  0.6250000  0.3750000  )
        25           Zn  tau(  25) = (  0.0000000  0.5000000  0.5000000  )
        26           Zn  tau(  26) = (  0.0000000  0.7500000  0.7500000  )
        27           Zn  tau(  27) = (  0.2500000  0.5000000  0.7500000  )
        28           Zn  tau(  28) = (  0.2500000  0.7500000  0.5000000  )
        29           S   tau(  29) = (  0.1250000  0.8750000  0.8750000  )
        30           S   tau(  30) = (  0.1250000  0.6250000  0.6250000  )
        31           S   tau(  31) = (  0.3750000  0.8750000  0.6250000  )
        32           S   tau(  32) = (  0.3750000  0.6250000  0.8750000  )
        33           Zn  tau(  33) = (  0.5000000  0.0000000  0.0000000  )
        34           Zn  tau(  34) = (  0.5000000  0.2500000  0.2500000  )
        35           Zn  tau(  35) = (  0.7500000  0.0000000  0.2500000  )
        36           Zn  tau(  36) = (  0.7500000  0.2500000  0.0000000  )
        37           S   tau(  37) = (  0.6250000  0.3750000  0.3750000  )
        38           S   tau(  38) = (  0.6250000  0.1250000  0.1250000  )
        39           S   tau(  39) = (  0.8750000  0.3750000  0.1250000  )
        40           S   tau(  40) = (  0.8750000  0.1250000  0.3750000  )
        41           Zn  tau(  41) = (  0.5000000  0.0000000  0.5000000  )
        42           Zn  tau(  42) = (  0.5000000  0.2500000  0.7500000  )
        43           Zn  tau(  43) = (  0.7500000  0.0000000  0.7500000  )
        44           Zn  tau(  44) = (  0.7500000  0.2500000  0.5000000  )
        45           S   tau(  45) = (  0.6250000  0.3750000  0.8750000  )
        46           S   tau(  46) = (  0.6250000  0.1250000  0.6250000  )
        47           S   tau(  47) = (  0.8750000  0.3750000  0.6250000  )
        48           S   tau(  48) = (  0.8750000  0.1250000  0.8750000  )
        49           Zn  tau(  49) = (  0.5000000  0.5000000  0.0000000  )
        50           Zn  tau(  50) = (  0.5000000  0.7500000  0.2500000  )
        51           Zn  tau(  51) = (  0.7500000  0.5000000  0.2500000  )
        52           Zn  tau(  52) = (  0.7500000  0.7500000  0.0000000  )
        53           S   tau(  53) = (  0.6250000  0.8750000  0.3750000  )
        54           S   tau(  54) = (  0.6250000  0.6250000  0.1250000  )
        55           S   tau(  55) = (  0.8750000  0.8750000  0.1250000  )
        56           S   tau(  56) = (  0.8750000  0.6250000  0.3750000  )
        57           Zn  tau(  57) = (  0.5000000  0.5000000  0.5000000  )
        58           Zn  tau(  58) = (  0.5000000  0.7500000  0.7500000  )
        59           Zn  tau(  59) = (  0.7500000  0.5000000  0.7500000  )
        60           Zn  tau(  60) = (  0.7500000  0.7500000  0.5000000  )
        61           S   tau(  61) = (  0.6250000  0.8750000  0.8750000  )
        62           S   tau(  62) = (  0.6250000  0.6250000  0.6250000  )
        63           S   tau(  63) = (  0.8750000  0.8750000  0.6250000  )
        64           S   tau(  64) = (  0.8750000  0.6250000  0.8750000  )

     number of k points=    10
                       cart. coord. in units 2pi/alat
        k(    1) = (   0.0000000   0.0000000   0.0000000), wk =   0.0312500
        k(    2) = (   0.0000000   0.0000000   0.2500000), wk =   0.1875000
        k(    3) = (   0.0000000   0.0000000  -0.5000000), wk =   0.0937500
        k(    4) = (   0.0000000   0.2500000   0.2500000), wk =   0.3750000
        k(    5) = (   0.0000000   0.2500000  -0.5000000), wk =   0.3750000
        k(    6) = (   0.0000000  -0.5000000  -0.5000000), wk =   0.0937500
        k(    7) = (   0.2500000   0.2500000   0.2500000), wk =   0.2500000
        k(    8) = (   0.2500000   0.2500000  -0.5000000), wk =   0.3750000
        k(    9) = (   0.2500000  -0.5000000  -0.5000000), wk =   0.1875000
        k(   10) = (  -0.5000000  -0.5000000  -0.5000000), wk =   0.0312500

                       cryst. coord.
        k(    1) = (   0.0000000   0.0000000   0.0000000), wk =   0.0312500
        k(    2) = (   0.0000000   0.0000000   0.2500000), wk =   0.1875000
        k(    3) = (   0.0000000   0.0000000  -0.5000000), wk =   0.0937500
        k(    4) = (   0.0000000   0.2500000   0.2500000), wk =   0.3750000
        k(    5) = (   0.0000000   0.2500000  -0.5000000), wk =   0.3750000
        k(    6) = (   0.0000000  -0.5000000  -0.5000000), wk =   0.0937500
        k(    7) = (   0.2500000   0.2500000   0.2500000), wk =   0.2500000
        k(    8) = (   0.2500000   0.2500000  -0.5000000), wk =   0.3750000
        k(    9) = (   0.2500000  -0.5000000  -0.5000000), wk =   0.1875000
        k(   10) = (  -0.5000000  -0.5000000  -0.5000000), wk =   0.0312500

     Dense  grid:  1264415 G-vectors     FFT dimensions: ( 135, 135, 135)

     Dynamical RAM for                 wfc:       7.43 MB

     Dynamical RAM for     wfc (w. buffer):       7.43 MB

     Dynamical RAM for             U proj.:       5.51 MB

     Dynamical RAM for  U proj. (w. buff.):       5.51 MB

     Dynamical RAM for           str. fact:       0.34 MB

     Dynamical RAM for           local pot:       0.00 MB

     Dynamical RAM for          nlocal pot:      24.80 MB

     Dynamical RAM for                qrad:       3.29 MB

     Dynamical RAM for          rho,v,vnew:       1.35 MB

     Dynamical RAM for               rhoin:       0.45 MB

     Dynamical RAM for            rho*nmix:       2.76 MB

     Dynamical RAM for           G-vectors:       0.73 MB

     Dynamical RAM for          h,s,v(r/c):       2.42 MB

     Dynamical RAM for          <psi|beta>:       6.06 MB

     Dynamical RAM for                 psi:      14.86 MB

     Dynamical RAM for                hpsi:      14.86 MB

     Dynamical RAM for                spsi:      14.86 MB

     Dynamical RAM for      wfcinit/wfcrot:      21.88 MB

     Dynamical RAM for           addusdens:       3.91 MB

     Estimated static dynamical RAM per process >      45.82 MB

     Estimated max dynamical RAM per process >     101.63 MB

     Estimated total dynamical RAM >     108.44 GB

     Initial potential from superposition of free atoms

     starting charge     575.8798, renormalised to     576.0000

     HUBBARD ENERGY =    7.8399  (Ry)

     STARTING HUBBARD OCCUPATIONS:

     =================== HUBBARD OCCUPATIONS ===================
     ------------------------ ATOM    1 ------------------------
     Tr[ns(  1)] =   9.70000
     eigenvalues:
       0.970  0.970  0.970  0.970  0.970
     eigenvectors (columns):
       1.000  0.000  0.000  0.000  0.000
       0.000  1.000  0.000  0.000  0.000
       0.000  0.000  1.000  0.000  0.000
       0.000  0.000  0.000  1.000  0.000
       0.000  0.000  0.000  0.000  1.000
     occupation matrix ns (before diag.):
       0.970  0.000  0.000  0.000  0.000
       0.000  0.970  0.000  0.000  0.000
       0.000  0.000  0.970  0.000  0.000
       0.000  0.000  0.000  0.970  0.000
       0.000  0.000  0.000  0.000  0.970
     ------------------------ ATOM    2 ------------------------
     Tr[ns(  2)] =   9.70000
     eigenvalues:
       0.970  0.970  0.970  0.970  0.970
     eigenvectors (columns):
       1.000  0.000  0.000  0.000  0.000
       0.000  1.000  0.000  0.000  0.000
       0.000  0.000  1.000  0.000  0.000
       0.000  0.000  0.000  1.000  0.000
       0.000  0.000  0.000  0.000  1.000
     occupation matrix ns (before diag.):
       0.970  0.000  0.000  0.000  0.000
       0.000  0.970  0.000  0.000  0.000
       0.000  0.000  0.970  0.000  0.000
       0.000  0.000  0.000  0.970  0.000
       0.000  0.000  0.000  0.000  0.970
     ------------------------ ATOM    3 ------------------------
     Tr[ns(  3)] =   9.70000
     eigenvalues:
       0.970  0.970  0.970  0.970  0.970
     eigenvectors (columns):
       1.000  0.000  0.000  0.000  0.000
       0.000  1.000  0.000  0.000  0.000
       0.000  0.000  1.000  0.000  0.000
       0.000  0.000  0.000  1.000  0.000
       0.000  0.000  0.000  0.000  1.000
     occupation matrix ns (before diag.):
       0.970  0.000  0.000  0.000  0.000
       0.000  0.970  0.000  0.000  0.000
       0.000  0.000  0.970  0.000  0.000
       0.000  0.000  0.000  0.970  0.000
       0.000  0.000  0.000  0.000  0.970
     ------------------------ ATOM    4 ------------------------
     Tr[ns(  4)] =   9.70000
     eigenvalues:
       0.970  0.970  0.970  0.970  0.970
     eigenvectors (columns):
       1.000  0.000  0.000  0.000  0.000
       0.000  1.000  0.000  0.000  0.000
       0.000  0.000  1.000  0.000  0.000
       0.000  0.000  0.000  1.000  0.000
       0.000  0.000  0.000  0.000  1.000
     occupation matrix ns (before diag.):
       0.970  0.000  0.000  0.000  0.000
       0.000  0.970  0.000  0.000  0.000
       0.000  0.000  0.970  0.000  0.000
       0.000  0.000  0.000  0.970  0.000
       0.000  0.000  0.000  0.000  0.970
     ------------------------ ATOM    5 ------------------------
     Tr[ns(  5)] =   4.00000
     eigenvalues:
       0.667  0.667  0.667
     eigenvectors (columns):
       1.000  0.000  0.000
       0.000  1.000  0.000
       0.000  0.000  1.000
     occupation matrix ns (before diag.):
       0.667  0.000  0.000
       0.000  0.667  0.000
       0.000  0.000  0.667
     ------------------------ ATOM    6 ------------------------
     Tr[ns(  6)] =   4.00000
     eigenvalues:
       0.667  0.667  0.667
     eigenvectors (columns):
       1.000  0.000  0.000
       0.000  1.000  0.000
       0.000  0.000  1.000
     occupation matrix ns (before diag.):
       0.667  0.000  0.000
       0.000  0.667  0.000
       0.000  0.000  0.667
     ------------------------ ATOM    7 ------------------------
     Tr[ns(  7)] =   4.00000
     eigenvalues:
       0.667  0.667  0.667
     eigenvectors (columns):
       1.000  0.000  0.000
       0.000  1.000  0.000
       0.000  0.000  1.000
     occupation matrix ns (before diag.):
       0.667  0.000  0.000
       0.000  0.667  0.000
       0.000  0.000  0.667
     ------------------------ ATOM    8 ------------------------
     Tr[ns(  8)] =   4.00000
     eigenvalues:
       0.667  0.667  0.667
     eigenvectors (columns):
       1.000  0.000  0.000
       0.000  1.000  0.000
       0.000  0.000  1.000
     occupation matrix ns (before diag.):
       0.667  0.000  0.000
       0.000  0.667  0.000
       0.000  0.000  0.667
     ------------------------ ATOM    9 ------------------------
     Tr[ns(  9)] =   9.70000
     eigenvalues:
       0.970  0.970  0.970  0.970  0.970
     eigenvectors (columns):
       1.000  0.000  0.000  0.000  0.000
       0.000  1.000  0.000  0.000  0.000
       0.000  0.000  1.000  0.000  0.000
       0.000  0.000  0.000  1.000  0.000
       0.000  0.000  0.000  0.000  1.000
     occupation matrix ns (before diag.):
       0.970  0.000  0.000  0.000  0.000
       0.000  0.970  0.000  0.000  0.000
       0.000  0.000  0.970  0.000  0.000
       0.000  0.000  0.000  0.970  0.000
       0.000  0.000  0.000  0.000  0.970
     ------------------------ ATOM   10 ------------------------
     Tr[ns( 10)] =   9.70000
     eigenvalues:
       0.970  0.970  0.970  0.970  0.970
     eigenvectors (columns):
       1.000  0.000  0.000  0.000  0.000
       0.000  1.000  0.000  0.000  0.000
       0.000  0.000  1.000  0.000  0.000
       0.000  0.000  0.000  1.000  0.000
       0.000  0.000  0.000  0.000  1.000
     occupation matrix ns (before diag.):
       0.970  0.000  0.000  0.000  0.000
       0.000  0.970  0.000  0.000  0.000
       0.000  0.000  0.970  0.000  0.000
       0.000  0.000  0.000  0.970  0.000
       0.000  0.000  0.000  0.000  0.970
     ------------------------ ATOM   11 ------------------------
     Tr[ns( 11)] =   9.70000
     eigenvalues:
       0.970  0.970  0.970  0.970  0.970
     eigenvectors (columns):
       1.000  0.000  0.000  0.000  0.000
       0.000  1.000  0.000  0.000  0.000
       0.000  0.000  1.000  0.000  0.000
       0.000  0.000  0.000  1.000  0.000
       0.000  0.000  0.000  0.000  1.000
     occupation matrix ns (before diag.):
       0.970  0.000  0.000  0.000  0.000
       0.000  0.970  0.000  0.000  0.000
       0.000  0.000  0.970  0.000  0.000
       0.000  0.000  0.000  0.970  0.000
       0.000  0.000  0.000  0.000  0.970
     ------------------------ ATOM   12 ------------------------
     Tr[ns( 12)] =   9.70000
     eigenvalues:
       0.970  0.970  0.970  0.970  0.970
     eigenvectors (columns):
       1.000  0.000  0.000  0.000  0.000
       0.000  1.000  0.000  0.000  0.000
       0.000  0.000  1.000  0.000  0.000
       0.000  0.000  0.000  1.000  0.000
       0.000  0.000  0.000  0.000  1.000
     occupation matrix ns (before diag.):
       0.970  0.000  0.000  0.000  0.000
       0.000  0.970  0.000  0.000  0.000
       0.000  0.000  0.970  0.000  0.000
       0.000  0.000  0.000  0.970  0.000
       0.000  0.000  0.000  0.000  0.970
     ------------------------ ATOM   13 ------------------------
     Tr[ns( 13)] =   4.00000
     eigenvalues:
       0.667  0.667  0.667
     eigenvectors (columns):
       1.000  0.000  0.000
       0.000  1.000  0.000
       0.000  0.000  1.000
     occupation matrix ns (before diag.):
       0.667  0.000  0.000
       0.000  0.667  0.000
       0.000  0.000  0.667
     ------------------------ ATOM   14 ------------------------
     Tr[ns( 14)] =   4.00000
     eigenvalues:
       0.667  0.667  0.667
     eigenvectors (columns):
       1.000  0.000  0.000
       0.000  1.000  0.000
       0.000  0.000  1.000
     occupation matrix ns (before diag.):
       0.667  0.000  0.000
       0.000  0.667  0.000
       0.000  0.000  0.667
     ------------------------ ATOM   15 ------------------------
     Tr[ns( 15)] =   4.00000
     eigenvalues:
       0.667  0.667  0.667
     eigenvectors (columns):
       1.000  0.000  0.000
       0.000  1.000  0.000
       0.000  0.000  1.000
     occupation matrix ns (before diag.):
       0.667  0.000  0.000
       0.000  0.667  0.000
       0.000  0.000  0.667
     ------------------------ ATOM   16 ------------------------
     Tr[ns( 16)] =   4.00000
     eigenvalues:
       0.667  0.667  0.667
     eigenvectors (columns):
       1.000  0.000  0.000
       0.000  1.000  0.000
       0.000  0.000  1.000
     occupation matrix ns (before diag.):
       0.667  0.000  0.000
       0.000  0.667  0.000
       0.000  0.000  0.667
     ------------------------ ATOM   17 ------------------------
     Tr[ns( 17)] =   9.70000
     eigenvalues:
       0.970  0.970  0.970  0.970  0.970
     eigenvectors (columns):
       1.000  0.000  0.000  0.000  0.000
       0.000  1.000  0.000  0.000  0.000
       0.000  0.000  1.000  0.000  0.000
       0.000  0.000  0.000  1.000  0.000
       0.000  0.000  0.000  0.000  1.000
     occupation matrix ns (before diag.):
       0.970  0.000  0.000  0.000  0.000
       0.000  0.970  0.000  0.000  0.000
       0.000  0.000  0.970  0.000  0.000
       0.000  0.000  0.000  0.970  0.000
       0.000  0.000  0.000  0.000  0.970
     ------------------------ ATOM   18 ------------------------
     Tr[ns( 18)] =   9.70000
     eigenvalues:
       0.970  0.970  0.970  0.970  0.970
     eigenvectors (columns):
       1.000  0.000  0.000  0.000  0.000
       0.000  1.000  0.000  0.000  0.000
       0.000  0.000  1.000  0.000  0.000
       0.000  0.000  0.000  1.000  0.000
       0.000  0.000  0.000  0.000  1.000
     occupation matrix ns (before diag.):
       0.970  0.000  0.000  0.000  0.000
       0.000  0.970  0.000  0.000  0.000
       0.000  0.000  0.970  0.000  0.000
       0.000  0.000  0.000  0.970  0.000
       0.000  0.000  0.000  0.000  0.970
     ------------------------ ATOM   19 ------------------------
     Tr[ns( 19)] =   9.70000
     eigenvalues:
       0.970  0.970  0.970  0.970  0.970
     eigenvectors (columns):
       1.000  0.000  0.000  0.000  0.000
       0.000  1.000  0.000  0.000  0.000
       0.000  0.000  1.000  0.000  0.000
       0.000  0.000  0.000  1.000  0.000
       0.000  0.000  0.000  0.000  1.000
     occupation matrix ns (before diag.):
       0.970  0.000  0.000  0.000  0.000
       0.000  0.970  0.000  0.000  0.000
       0.000  0.000  0.970  0.000  0.000
       0.000  0.000  0.000  0.970  0.000
       0.000  0.000  0.000  0.000  0.970
     ------------------------ ATOM   20 ------------------------
     Tr[ns( 20)] =   9.70000
     eigenvalues:
       0.970  0.970  0.970  0.970  0.970
     eigenvectors (columns):
       1.000  0.000  0.000  0.000  0.000
       0.000  1.000  0.000  0.000  0.000
       0.000  0.000  1.000  0.000  0.000
       0.000  0.000  0.000  1.000  0.000
       0.000  0.000  0.000  0.000  1.000
     occupation matrix ns (before diag.):
       0.970  0.000  0.000  0.000  0.000
       0.000  0.970  0.000  0.000  0.000
       0.000  0.000  0.970  0.000  0.000
       0.000  0.000  0.000  0.970  0.000
       0.000  0.000  0.000  0.000  0.970
     ------------------------ ATOM   21 ------------------------
     Tr[ns( 21)] =   4.00000
     eigenvalues:
       0.667  0.667  0.667
     eigenvectors (columns):
       1.000  0.000  0.000
       0.000  1.000  0.000
       0.000  0.000  1.000
     occupation matrix ns (before diag.):
       0.667  0.000  0.000
       0.000  0.667  0.000
       0.000  0.000  0.667
     ------------------------ ATOM   22 ------------------------
     Tr[ns( 22)] =   4.00000
     eigenvalues:
       0.667  0.667  0.667
     eigenvectors (columns):
       1.000  0.000  0.000
       0.000  1.000  0.000
       0.000  0.000  1.000
     occupation matrix ns (before diag.):
       0.667  0.000  0.000
       0.000  0.667  0.000
       0.000  0.000  0.667
     ------------------------ ATOM   23 ------------------------
     Tr[ns( 23)] =   4.00000
     eigenvalues:
       0.667  0.667  0.667
     eigenvectors (columns):
       1.000  0.000  0.000
       0.000  1.000  0.000
       0.000  0.000  1.000
     occupation matrix ns (before diag.):
       0.667  0.000  0.000
       0.000  0.667  0.000
       0.000  0.000  0.667
     ------------------------ ATOM   24 ------------------------
     Tr[ns( 24)] =   4.00000
     eigenvalues:
       0.667  0.667  0.667
     eigenvectors (columns):
       1.000  0.000  0.000
       0.000  1.000  0.000
       0.000  0.000  1.000
     occupation matrix ns (before diag.):
       0.667  0.000  0.000
       0.000  0.667  0.000
       0.000  0.000  0.667
     ------------------------ ATOM   25 ------------------------
     Tr[ns( 25)] =   9.70000
     eigenvalues:
       0.970  0.970  0.970  0.970  0.970
     eigenvectors (columns):
       1.000  0.000  0.000  0.000  0.000
       0.000  1.000  0.000  0.000  0.000
       0.000  0.000  1.000  0.000  0.000
       0.000  0.000  0.000  1.000  0.000
       0.000  0.000  0.000  0.000  1.000
     occupation matrix ns (before diag.):
       0.970  0.000  0.000  0.000  0.000
       0.000  0.970  0.000  0.000  0.000
       0.000  0.000  0.970  0.000  0.000
       0.000  0.000  0.000  0.970  0.000
       0.000  0.000  0.000  0.000  0.970
     ------------------------ ATOM   26 ------------------------
     Tr[ns( 26)] =   9.70000
     eigenvalues:
       0.970  0.970  0.970  0.970  0.970
     eigenvectors (columns):
       1.000  0.000  0.000  0.000  0.000
       0.000  1.000  0.000  0.000  0.000
       0.000  0.000  1.000  0.000  0.000
       0.000  0.000  0.000  1.000  0.000
       0.000  0.000  0.000  0.000  1.000
     occupation matrix ns (before diag.):
       0.970  0.000  0.000  0.000  0.000
       0.000  0.970  0.000  0.000  0.000
       0.000  0.000  0.970  0.000  0.000
       0.000  0.000  0.000  0.970  0.000
       0.000  0.000  0.000  0.000  0.970
     ------------------------ ATOM   27 ------------------------
     Tr[ns( 27)] =   9.70000
     eigenvalues:
       0.970  0.970  0.970  0.970  0.970
     eigenvectors (columns):
       1.000  0.000  0.000  0.000  0.000
       0.000  1.000  0.000  0.000  0.000
       0.000  0.000  1.000  0.000  0.000
       0.000  0.000  0.000  1.000  0.000
       0.000  0.000  0.000  0.000  1.000
     occupation matrix ns (before diag.):
       0.970  0.000  0.000  0.000  0.000
       0.000  0.970  0.000  0.000  0.000
       0.000  0.000  0.970  0.000  0.000
       0.000  0.000  0.000  0.970  0.000
       0.000  0.000  0.000  0.000  0.970
     ------------------------ ATOM   28 ------------------------
     Tr[ns( 28)] =   9.70000
     eigenvalues:
       0.970  0.970  0.970  0.970  0.970
     eigenvectors (columns):
       1.000  0.000  0.000  0.000  0.000
       0.000  1.000  0.000  0.000  0.000
       0.000  0.000  1.000  0.000  0.000
       0.000  0.000  0.000  1.000  0.000
       0.000  0.000  0.000  0.000  1.000
     occupation matrix ns (before diag.):
       0.970  0.000  0.000  0.000  0.000
       0.000  0.970  0.000  0.000  0.000
       0.000  0.000  0.970  0.000  0.000
       0.000  0.000  0.000  0.970  0.000
       0.000  0.000  0.000  0.000  0.970
     ------------------------ ATOM   29 ------------------------
     Tr[ns( 29)] =   4.00000
     eigenvalues:
       0.667  0.667  0.667
     eigenvectors (columns):
       1.000  0.000  0.000
       0.000  1.000  0.000
       0.000  0.000  1.000
     occupation matrix ns (before diag.):
       0.667  0.000  0.000
       0.000  0.667  0.000
       0.000  0.000  0.667
     ------------------------ ATOM   30 ------------------------
     Tr[ns( 30)] =   4.00000
     eigenvalues:
       0.667  0.667  0.667
     eigenvectors (columns):
       1.000  0.000  0.000
       0.000  1.000  0.000
       0.000  0.000  1.000
     occupation matrix ns (before diag.):
       0.667  0.000  0.000
       0.000  0.667  0.000
       0.000  0.000  0.667
     ------------------------ ATOM   31 ------------------------
     Tr[ns( 31)] =   4.00000
     eigenvalues:
       0.667  0.667  0.667
     eigenvectors (columns):
       1.000  0.000  0.000
       0.000  1.000  0.000
       0.000  0.000  1.000
     occupation matrix ns (before diag.):
       0.667  0.000  0.000
       0.000  0.667  0.000
       0.000  0.000  0.667
     ------------------------ ATOM   32 ------------------------
     Tr[ns( 32)] =   4.00000
     eigenvalues:
       0.667  0.667  0.667
     eigenvectors (columns):
       1.000  0.000  0.000
       0.000  1.000  0.000
       0.000  0.000  1.000
     occupation matrix ns (before diag.):
       0.667  0.000  0.000
       0.000  0.667  0.000
       0.000  0.000  0.667
     ------------------------ ATOM   33 ------------------------
     Tr[ns( 33)] =   9.70000
     eigenvalues:
       0.970  0.970  0.970  0.970  0.970
     eigenvectors (columns):
       1.000  0.000  0.000  0.000  0.000
       0.000  1.000  0.000  0.000  0.000
       0.000  0.000  1.000  0.000  0.000
       0.000  0.000  0.000  1.000  0.000
       0.000  0.000  0.000  0.000  1.000
     occupation matrix ns (before diag.):
       0.970  0.000  0.000  0.000  0.000
       0.000  0.970  0.000  0.000  0.000
       0.000  0.000  0.970  0.000  0.000
       0.000  0.000  0.000  0.970  0.000
       0.000  0.000  0.000  0.000  0.970
     ------------------------ ATOM   34 ------------------------
     Tr[ns( 34)] =   9.70000
     eigenvalues:
       0.970  0.970  0.970  0.970  0.970
     eigenvectors (columns):
       1.000  0.000  0.000  0.000  0.000
       0.000  1.000  0.000  0.000  0.000
       0.000  0.000  1.000  0.000  0.000
       0.000  0.000  0.000  1.000  0.000
       0.000  0.000  0.000  0.000  1.000
     occupation matrix ns (before diag.):
       0.970  0.000  0.000  0.000  0.000
       0.000  0.970  0.000  0.000  0.000
       0.000  0.000  0.970  0.000  0.000
       0.000  0.000  0.000  0.970  0.000
       0.000  0.000  0.000  0.000  0.970
     ------------------------ ATOM   35 ------------------------
     Tr[ns( 35)] =   9.70000
     eigenvalues:
       0.970  0.970  0.970  0.970  0.970
     eigenvectors (columns):
       1.000  0.000  0.000  0.000  0.000
       0.000  1.000  0.000  0.000  0.000
       0.000  0.000  1.000  0.000  0.000
       0.000  0.000  0.000  1.000  0.000
       0.000  0.000  0.000  0.000  1.000
     occupation matrix ns (before diag.):
       0.970  0.000  0.000  0.000  0.000
       0.000  0.970  0.000  0.000  0.000
       0.000  0.000  0.970  0.000  0.000
       0.000  0.000  0.000  0.970  0.000
       0.000  0.000  0.000  0.000  0.970
     ------------------------ ATOM   36 ------------------------
     Tr[ns( 36)] =   9.70000
     eigenvalues:
       0.970  0.970  0.970  0.970  0.970
     eigenvectors (columns):
       1.000  0.000  0.000  0.000  0.000
       0.000  1.000  0.000  0.000  0.000
       0.000  0.000  1.000  0.000  0.000
       0.000  0.000  0.000  1.000  0.000
       0.000  0.000  0.000  0.000  1.000
     occupation matrix ns (before diag.):
       0.970  0.000  0.000  0.000  0.000
       0.000  0.970  0.000  0.000  0.000
       0.000  0.000  0.970  0.000  0.000
       0.000  0.000  0.000  0.970  0.000
       0.000  0.000  0.000  0.000  0.970
     ------------------------ ATOM   37 ------------------------
     Tr[ns( 37)] =   4.00000
     eigenvalues:
       0.667  0.667  0.667
     eigenvectors (columns):
       1.000  0.000  0.000
       0.000  1.000  0.000
       0.000  0.000  1.000
     occupation matrix ns (before diag.):
       0.667  0.000  0.000
       0.000  0.667  0.000
       0.000  0.000  0.667
     ------------------------ ATOM   38 ------------------------
     Tr[ns( 38)] =   4.00000
     eigenvalues:
       0.667  0.667  0.667
     eigenvectors (columns):
       1.000  0.000  0.000
       0.000  1.000  0.000
       0.000  0.000  1.000
     occupation matrix ns (before diag.):
       0.667  0.000  0.000
       0.000  0.667  0.000
       0.000  0.000  0.667
     ------------------------ ATOM   39 ------------------------
     Tr[ns( 39)] =   4.00000
     eigenvalues:
       0.667  0.667  0.667
     eigenvectors (columns):
       1.000  0.000  0.000
       0.000  1.000  0.000
       0.000  0.000  1.000
     occupation matrix ns (before diag.):
       0.667  0.000  0.000
       0.000  0.667  0.000
       0.000  0.000  0.667
     ------------------------ ATOM   40 ------------------------
     Tr[ns( 40)] =   4.00000
     eigenvalues:
       0.667  0.667  0.667
     eigenvectors (columns):
       1.000  0.000  0.000
       0.000  1.000  0.000
       0.000  0.000  1.000
     occupation matrix ns (before diag.):
       0.667  0.000  0.000
       0.000  0.667  0.000
       0.000  0.000  0.667
     ------------------------ ATOM   41 ------------------------
     Tr[ns( 41)] =   9.70000
     eigenvalues:
       0.970  0.970  0.970  0.970  0.970
     eigenvectors (columns):
       1.000  0.000  0.000  0.000  0.000
       0.000  1.000  0.000  0.000  0.000
       0.000  0.000  1.000  0.000  0.000
       0.000  0.000  0.000  1.000  0.000
       0.000  0.000  0.000  0.000  1.000
     occupation matrix ns (before diag.):
       0.970  0.000  0.000  0.000  0.000
       0.000  0.970  0.000  0.000  0.000
       0.000  0.000  0.970  0.000  0.000
       0.000  0.000  0.000  0.970  0.000
       0.000  0.000  0.000  0.000  0.970
     ------------------------ ATOM   42 ------------------------
     Tr[ns( 42)] =   9.70000
     eigenvalues:
       0.970  0.970  0.970  0.970  0.970
     eigenvectors (columns):
       1.000  0.000  0.000  0.000  0.000
       0.000  1.000  0.000  0.000  0.000
       0.000  0.000  1.000  0.000  0.000
       0.000  0.000  0.000  1.000  0.000
       0.000  0.000  0.000  0.000  1.000
     occupation matrix ns (before diag.):
       0.970  0.000  0.000  0.000  0.000
       0.000  0.970  0.000  0.000  0.000
       0.000  0.000  0.970  0.000  0.000
       0.000  0.000  0.000  0.970  0.000
       0.000  0.000  0.000  0.000  0.970
     ------------------------ ATOM   43 ------------------------
     Tr[ns( 43)] =   9.70000
     eigenvalues:
       0.970  0.970  0.970  0.970  0.970
     eigenvectors (columns):
       1.000  0.000  0.000  0.000  0.000
       0.000  1.000  0.000  0.000  0.000
       0.000  0.000  1.000  0.000  0.000
       0.000  0.000  0.000  1.000  0.000
       0.000  0.000  0.000  0.000  1.000
     occupation matrix ns (before diag.):
       0.970  0.000  0.000  0.000  0.000
       0.000  0.970  0.000  0.000  0.000
       0.000  0.000  0.970  0.000  0.000
       0.000  0.000  0.000  0.970  0.000
       0.000  0.000  0.000  0.000  0.970
     ------------------------ ATOM   44 ------------------------
     Tr[ns( 44)] =   9.70000
     eigenvalues:
       0.970  0.970  0.970  0.970  0.970
     eigenvectors (columns):
       1.000  0.000  0.000  0.000  0.000
       0.000  1.000  0.000  0.000  0.000
       0.000  0.000  1.000  0.000  0.000
       0.000  0.000  0.000  1.000  0.000
       0.000  0.000  0.000  0.000  1.000
     occupation matrix ns (before diag.):
       0.970  0.000  0.000  0.000  0.000
       0.000  0.970  0.000  0.000  0.000
       0.000  0.000  0.970  0.000  0.000
       0.000  0.000  0.000  0.970  0.000
       0.000  0.000  0.000  0.000  0.970
     ------------------------ ATOM   45 ------------------------
     Tr[ns( 45)] =   4.00000
     eigenvalues:
       0.667  0.667  0.667
     eigenvectors (columns):
       1.000  0.000  0.000
       0.000  1.000  0.000
       0.000  0.000  1.000
     occupation matrix ns (before diag.):
       0.667  0.000  0.000
       0.000  0.667  0.000
       0.000  0.000  0.667
     ------------------------ ATOM   46 ------------------------
     Tr[ns( 46)] =   4.00000
     eigenvalues:
       0.667  0.667  0.667
     eigenvectors (columns):
       1.000  0.000  0.000
       0.000  1.000  0.000
       0.000  0.000  1.000
     occupation matrix ns (before diag.):
       0.667  0.000  0.000
       0.000  0.667  0.000
       0.000  0.000  0.667
     ------------------------ ATOM   47 ------------------------
     Tr[ns( 47)] =   4.00000
     eigenvalues:
       0.667  0.667  0.667
     eigenvectors (columns):
       1.000  0.000  0.000
       0.000  1.000  0.000
       0.000  0.000  1.000
     occupation matrix ns (before diag.):
       0.667  0.000  0.000
       0.000  0.667  0.000
       0.000  0.000  0.667
     ------------------------ ATOM   48 ------------------------
     Tr[ns( 48)] =   4.00000
     eigenvalues:
       0.667  0.667  0.667
     eigenvectors (columns):
       1.000  0.000  0.000
       0.000  1.000  0.000
       0.000  0.000  1.000
     occupation matrix ns (before diag.):
       0.667  0.000  0.000
       0.000  0.667  0.000
       0.000  0.000  0.667
     ------------------------ ATOM   49 ------------------------
     Tr[ns( 49)] =   9.70000
     eigenvalues:
       0.970  0.970  0.970  0.970  0.970
     eigenvectors (columns):
       1.000  0.000  0.000  0.000  0.000
       0.000  1.000  0.000  0.000  0.000
       0.000  0.000  1.000  0.000  0.000
       0.000  0.000  0.000  1.000  0.000
       0.000  0.000  0.000  0.000  1.000
     occupation matrix ns (before diag.):
       0.970  0.000  0.000  0.000  0.000
       0.000  0.970  0.000  0.000  0.000
       0.000  0.000  0.970  0.000  0.000
       0.000  0.000  0.000  0.970  0.000
       0.000  0.000  0.000  0.000  0.970
     ------------------------ ATOM   50 ------------------------
     Tr[ns( 50)] =   9.70000
     eigenvalues:
       0.970  0.970  0.970  0.970  0.970
     eigenvectors (columns):
       1.000  0.000  0.000  0.000  0.000
       0.000  1.000  0.000  0.000  0.000
       0.000  0.000  1.000  0.000  0.000
       0.000  0.000  0.000  1.000  0.000
       0.000  0.000  0.000  0.000  1.000
     occupation matrix ns (before diag.):
       0.970  0.000  0.000  0.000  0.000
       0.000  0.970  0.000  0.000  0.000
       0.000  0.000  0.970  0.000  0.000
       0.000  0.000  0.000  0.970  0.000
       0.000  0.000  0.000  0.000  0.970
     ------------------------ ATOM   51 ------------------------
     Tr[ns( 51)] =   9.70000
     eigenvalues:
       0.970  0.970  0.970  0.970  0.970
     eigenvectors (columns):
       1.000  0.000  0.000  0.000  0.000
       0.000  1.000  0.000  0.000  0.000
       0.000  0.000  1.000  0.000  0.000
       0.000  0.000  0.000  1.000  0.000
       0.000  0.000  0.000  0.000  1.000
     occupation matrix ns (before diag.):
       0.970  0.000  0.000  0.000  0.000
       0.000  0.970  0.000  0.000  0.000
       0.000  0.000  0.970  0.000  0.000
       0.000  0.000  0.000  0.970  0.000
       0.000  0.000  0.000  0.000  0.970
     ------------------------ ATOM   52 ------------------------
     Tr[ns( 52)] =   9.70000
     eigenvalues:
       0.970  0.970  0.970  0.970  0.970
     eigenvectors (columns):
       1.000  0.000  0.000  0.000  0.000
       0.000  1.000  0.000  0.000  0.000
       0.000  0.000  1.000  0.000  0.000
       0.000  0.000  0.000  1.000  0.000
       0.000  0.000  0.000  0.000  1.000
     occupation matrix ns (before diag.):
       0.970  0.000  0.000  0.000  0.000
       0.000  0.970  0.000  0.000  0.000
       0.000  0.000  0.970  0.000  0.000
       0.000  0.000  0.000  0.970  0.000
       0.000  0.000  0.000  0.000  0.970
     ------------------------ ATOM   53 ------------------------
     Tr[ns( 53)] =   4.00000
     eigenvalues:
       0.667  0.667  0.667
     eigenvectors (columns):
       1.000  0.000  0.000
       0.000  1.000  0.000
       0.000  0.000  1.000
     occupation matrix ns (before diag.):
       0.667  0.000  0.000
       0.000  0.667  0.000
       0.000  0.000  0.667
     ------------------------ ATOM   54 ------------------------
     Tr[ns( 54)] =   4.00000
     eigenvalues:
       0.667  0.667  0.667
     eigenvectors (columns):
       1.000  0.000  0.000
       0.000  1.000  0.000
       0.000  0.000  1.000
     occupation matrix ns (before diag.):
       0.667  0.000  0.000
       0.000  0.667  0.000
       0.000  0.000  0.667
     ------------------------ ATOM   55 ------------------------
     Tr[ns( 55)] =   4.00000
     eigenvalues:
       0.667  0.667  0.667
     eigenvectors (columns):
       1.000  0.000  0.000
       0.000  1.000  0.000
       0.000  0.000  1.000
     occupation matrix ns (before diag.):
       0.667  0.000  0.000
       0.000  0.667  0.000
       0.000  0.000  0.667
     ------------------------ ATOM   56 ------------------------
     Tr[ns( 56)] =   4.00000
     eigenvalues:
       0.667  0.667  0.667
     eigenvectors (columns):
       1.000  0.000  0.000
       0.000  1.000  0.000
       0.000  0.000  1.000
     occupation matrix ns (before diag.):
       0.667  0.000  0.000
       0.000  0.667  0.000
       0.000  0.000  0.667
     ------------------------ ATOM   57 ------------------------
     Tr[ns( 57)] =   9.70000
     eigenvalues:
       0.970  0.970  0.970  0.970  0.970
     eigenvectors (columns):
       1.000  0.000  0.000  0.000  0.000
       0.000  1.000  0.000  0.000  0.000
       0.000  0.000  1.000  0.000  0.000
       0.000  0.000  0.000  1.000  0.000
       0.000  0.000  0.000  0.000  1.000
     occupation matrix ns (before diag.):
       0.970  0.000  0.000  0.000  0.000
       0.000  0.970  0.000  0.000  0.000
       0.000  0.000  0.970  0.000  0.000
       0.000  0.000  0.000  0.970  0.000
       0.000  0.000  0.000  0.000  0.970
     ------------------------ ATOM   58 ------------------------
     Tr[ns( 58)] =   9.70000
     eigenvalues:
       0.970  0.970  0.970  0.970  0.970
     eigenvectors (columns):
       1.000  0.000  0.000  0.000  0.000
       0.000  1.000  0.000  0.000  0.000
       0.000  0.000  1.000  0.000  0.000
       0.000  0.000  0.000  1.000  0.000
       0.000  0.000  0.000  0.000  1.000
     occupation matrix ns (before diag.):
       0.970  0.000  0.000  0.000  0.000
       0.000  0.970  0.000  0.000  0.000
       0.000  0.000  0.970  0.000  0.000
       0.000  0.000  0.000  0.970  0.000
       0.000  0.000  0.000  0.000  0.970
     ------------------------ ATOM   59 ------------------------
     Tr[ns( 59)] =   9.70000
     eigenvalues:
       0.970  0.970  0.970  0.970  0.970
     eigenvectors (columns):
       1.000  0.000  0.000  0.000  0.000
       0.000  1.000  0.000  0.000  0.000
       0.000  0.000  1.000  0.000  0.000
       0.000  0.000  0.000  1.000  0.000
       0.000  0.000  0.000  0.000  1.000
     occupation matrix ns (before diag.):
       0.970  0.000  0.000  0.000  0.000
       0.000  0.970  0.000  0.000  0.000
       0.000  0.000  0.970  0.000  0.000
       0.000  0.000  0.000  0.970  0.000
       0.000  0.000  0.000  0.000  0.970
     ------------------------ ATOM   60 ------------------------
     Tr[ns( 60)] =   9.70000
     eigenvalues:
       0.970  0.970  0.970  0.970  0.970
     eigenvectors (columns):
       1.000  0.000  0.000  0.000  0.000
       0.000  1.000  0.000  0.000  0.000
       0.000  0.000  1.000  0.000  0.000
       0.000  0.000  0.000  1.000  0.000
       0.000  0.000  0.000  0.000  1.000
     occupation matrix ns (before diag.):
       0.970  0.000  0.000  0.000  0.000
       0.000  0.970  0.000  0.000  0.000
       0.000  0.000  0.970  0.000  0.000
       0.000  0.000  0.000  0.970  0.000
       0.000  0.000  0.000  0.000  0.970
     ------------------------ ATOM   61 ------------------------
     Tr[ns( 61)] =   4.00000
     eigenvalues:
       0.667  0.667  0.667
     eigenvectors (columns):
       1.000  0.000  0.000
       0.000  1.000  0.000
       0.000  0.000  1.000
     occupation matrix ns (before diag.):
       0.667  0.000  0.000
       0.000  0.667  0.000
       0.000  0.000  0.667
     ------------------------ ATOM   62 ------------------------
     Tr[ns( 62)] =   4.00000
     eigenvalues:
       0.667  0.667  0.667
     eigenvectors (columns):
       1.000  0.000  0.000
       0.000  1.000  0.000
       0.000  0.000  1.000
     occupation matrix ns (before diag.):
       0.667  0.000  0.000
       0.000  0.667  0.000
       0.000  0.000  0.667
     ------------------------ ATOM   63 ------------------------
     Tr[ns( 63)] =   4.00000
     eigenvalues:
       0.667  0.667  0.667
     eigenvectors (columns):
       1.000  0.000  0.000
       0.000  1.000  0.000
       0.000  0.000  1.000
     occupation matrix ns (before diag.):
       0.667  0.000  0.000
       0.000  0.667  0.000
       0.000  0.000  0.667
     ------------------------ ATOM   64 ------------------------
     Tr[ns( 64)] =   4.00000
     eigenvalues:
       0.667  0.667  0.667
     eigenvectors (columns):
       1.000  0.000  0.000
       0.000  1.000  0.000
       0.000  0.000  1.000
     occupation matrix ns (before diag.):
       0.667  0.000  0.000
       0.000  0.667  0.000
       0.000  0.000  0.667

     Number of occupied Hubbard levels =  438.4000

     Atomic wfc used for Hubbard projectors are orthogonalized

     Starting wfcs are  416 randomized atomic wfcs
     Checking if some PAW data can be deallocated... 
       PAW data deallocated on  560 nodes for type:  1
       PAW data deallocated on  560 nodes for type:  2

     total cpu time spent up to now is       25.1 secs

     Self-consistent Calculation

     iteration #  1     ecut=   105.00 Ry     beta= 0.70
     Davidson diagonalization with overlap

---- Real-time Memory Report at c_bands before calling an iterative solver
           447 MiB given to the printing process from OS
             0 MiB allocation reported by mallinfo(arena+hblkhd)
        214281 MiB available memory on the node where the printing process lives
------------------
     ethr =  1.00E-02,  avg # of iterations =  4.5

     =================== HUBBARD OCCUPATIONS ===================
     ------------------------ ATOM    1 ------------------------
     Tr[ns(  1)] =   9.97011
     eigenvalues:
       0.996  0.996  0.996  0.998  0.998
     eigenvectors (columns):
       0.000  0.000 -0.000  0.068 -0.998
       0.339 -0.037 -0.940  0.000  0.000
       0.618 -0.745  0.252  0.000  0.000
      -0.000 -0.000  0.000  0.998  0.068
      -0.710 -0.666 -0.229 -0.000 -0.000
     occupation matrix ns (before diag.):
       0.998 -0.000 -0.000  0.000  0.000
      -0.000  0.996 -0.000  0.000  0.000
      -0.000 -0.000  0.996  0.000  0.000
       0.000  0.000  0.000  0.998 -0.000
       0.000  0.000  0.000 -0.000  0.996
     ------------------------ ATOM    2 ------------------------
     Tr[ns(  2)] =   9.97027
     eigenvalues:
       0.996  0.996  0.996  0.998  0.998
     eigenvectors (columns):
      -0.000 -0.001  0.000 -0.866 -0.500
      -0.110 -0.707 -0.699  0.001 -0.000
       0.988  0.000 -0.155  0.000 -0.000
       0.000 -0.000 -0.000 -0.500  0.866
       0.110 -0.707  0.699  0.001  0.000
     occupation matrix ns (before diag.):
       0.998 -0.000  0.000 -0.000 -0.000
      -0.000  0.996  0.000 -0.000 -0.000
       0.000  0.000  0.996 -0.000 -0.000
      -0.000 -0.000 -0.000  0.998 -0.000
      -0.000 -0.000 -0.000 -0.000  0.996
     ------------------------ ATOM    3 ------------------------
     Tr[ns(  3)] =   9.97027
     eigenvalues:
       0.996  0.996  0.996  0.998  0.998
     eigenvectors (columns):
      -0.000  0.001 -0.000 -0.866 -0.500
       0.988 -0.000  0.155  0.000 -0.000
      -0.110  0.707  0.699  0.001 -0.000
      -0.000 -0.000 -0.000  0.500 -0.866
       0.110  0.707 -0.699  0.001  0.000
     occupation matrix ns (before diag.):
       0.998  0.000 -0.000  0.000 -0.000
       0.000  0.996  0.000  0.000 -0.000
      -0.000  0.000  0.996  0.000 -0.000
       0.000  0.000  0.000  0.998  0.000
      -0.000 -0.000 -0.000  0.000  0.996
     ------------------------ ATOM    4 ------------------------
     Tr[ns(  4)] =   9.97027
     eigenvalues:
       0.996  0.996  0.996  0.998  0.998
     eigenvectors (columns):
      -0.000 -0.000 -0.000 -0.000 -1.000
       0.110 -0.707 -0.699 -0.001  0.000
       0.110  0.707 -0.699  0.001  0.000
       0.000 -0.001  0.000  1.000 -0.000
       0.988 -0.000  0.155 -0.000 -0.000
     occupation matrix ns (before diag.):
       0.998 -0.000 -0.000  0.000  0.000
      -0.000  0.996  0.000 -0.000 -0.000
      -0.000  0.000  0.996  0.000 -0.000
       0.000 -0.000  0.000  0.998 -0.000
       0.000 -0.000 -0.000 -0.000  0.996
     ------------------------ ATOM    5 ------------------------
     Tr[ns(  5)] =   4.82093
     eigenvalues:
       0.803  0.803  0.804
     eigenvectors (columns):
       0.707  0.348 -0.616
       0.000 -0.871 -0.492
       0.707 -0.348  0.616
     occupation matrix ns (before diag.):
       0.803  0.000 -0.000
       0.000  0.803 -0.000
      -0.000 -0.000  0.803
     ------------------------ ATOM    6 ------------------------
     Tr[ns(  6)] =   4.82159
     eigenvalues:
       0.804  0.804  0.804
     eigenvectors (columns):
      -0.577 -0.751  0.320
       0.577 -0.653 -0.491
       0.577 -0.099  0.810
     occupation matrix ns (before diag.):
       0.804  0.000  0.000
       0.000  0.804 -0.000
       0.000 -0.000  0.804
     ------------------------ ATOM    7 ------------------------
     Tr[ns(  7)] =   4.82093
     eigenvalues:
       0.803  0.803  0.804
     eigenvectors (columns):
       0.000  0.871  0.492
       0.707 -0.348  0.616
      -0.707 -0.348  0.616
     occupation matrix ns (before diag.):
       0.803  0.000  0.000
       0.000  0.803  0.000
       0.000  0.000  0.803
     ------------------------ ATOM    8 ------------------------
     Tr[ns(  8)] =   4.82093
     eigenvalues:
       0.803  0.803  0.804
     eigenvectors (columns):
       0.707 -0.348  0.616
       0.707  0.348 -0.616
       0.000  0.871  0.492
     occupation matrix ns (before diag.):
       0.803 -0.000  0.000
      -0.000  0.803 -0.000
       0.000 -0.000  0.803
     ------------------------ ATOM    9 ------------------------
     Tr[ns(  9)] =   9.97021
     eigenvalues:
       0.996  0.996  0.996  0.998  0.998
     eigenvectors (columns):
      -0.000 -0.000 -0.000  0.000  1.000
      -0.000 -0.444 -0.896 -0.000 -0.000
      -0.000 -0.896  0.444 -0.000 -0.000
       0.000  0.000  0.000 -1.000  0.000
       1.000 -0.000 -0.000  0.000  0.000
     occupation matrix ns (before diag.):
       0.998 -0.000 -0.000  0.000  0.000
      -0.000  0.996 -0.000  0.000  0.000
      -0.000 -0.000  0.996  0.000  0.000
       0.000  0.000  0.000  0.998 -0.000
       0.000  0.000  0.000 -0.000  0.996
     ------------------------ ATOM   10 ------------------------
     Tr[ns( 10)] =   9.97027
     eigenvalues:
       0.996  0.996  0.996  0.998  0.998
     eigenvectors (columns):
      -0.000 -0.001  0.000 -0.866 -0.500
      -0.110 -0.707 -0.699  0.001 -0.000
      -0.988  0.000  0.155  0.000  0.000
       0.000 -0.000 -0.000 -0.500  0.866
      -0.110  0.707 -0.699 -0.001 -0.000
     occupation matrix ns (before diag.):
       0.998 -0.000 -0.000 -0.000  0.000
      -0.000  0.996 -0.000 -0.000  0.000
      -0.000 -0.000  0.996  0.000 -0.000
      -0.000 -0.000  0.000  0.998  0.000
       0.000  0.000 -0.000  0.000  0.996
     ------------------------ ATOM   11 ------------------------
     Tr[ns( 11)] =   9.97027
     eigenvalues:
       0.996  0.996  0.996  0.998  0.998
     eigenvectors (columns):
      -0.000 -0.001  0.000 -0.866 -0.500
      -0.988  0.000  0.155  0.000  0.000
      -0.110 -0.707 -0.699  0.001 -0.000
      -0.000  0.000  0.000  0.500 -0.866
      -0.110  0.707 -0.699 -0.001 -0.000
     occupation matrix ns (before diag.):
       0.998 -0.000 -0.000  0.000  0.000
      -0.000  0.996 -0.000 -0.000 -0.000
      -0.000 -0.000  0.996  0.000  0.000
       0.000 -0.000  0.000  0.998 -0.000
       0.000 -0.000  0.000 -0.000  0.996
     ------------------------ ATOM   12 ------------------------
     Tr[ns( 12)] =   9.97024
     eigenvalues:
       0.996  0.996  0.996  0.998  0.998
     eigenvectors (columns):
      -0.001  0.003 -0.000  0.000  1.000
      -0.516 -0.484 -0.707  0.001  0.001
      -0.516 -0.484  0.707 -0.001  0.001
       0.000 -0.000  0.002  1.000 -0.000
       0.684 -0.729 -0.000 -0.000  0.003
     occupation matrix ns (before diag.):
       0.998  0.000  0.000  0.000  0.000
       0.000  0.996 -0.000  0.000  0.000
       0.000 -0.000  0.996 -0.000  0.000
       0.000  0.000 -0.000  0.998 -0.000
       0.000  0.000  0.000 -0.000  0.996
     ------------------------ ATOM   13 ------------------------
     Tr[ns( 13)] =   4.82136
     eigenvalues:
       0.804  0.804  0.804
     eigenvectors (columns):
      -0.193  0.680 -0.707
      -0.193  0.680  0.707
       0.962  0.273 -0.000
     occupation matrix ns (before diag.):
       0.804 -0.000  0.000
      -0.000  0.804  0.000
       0.000  0.000  0.804
     ------------------------ ATOM   14 ------------------------
     Tr[ns( 14)] =   4.82136
     eigenvalues:
       0.804  0.804  0.804
     eigenvectors (columns):
       0.962 -0.273  0.000
      -0.193 -0.680  0.707
      -0.193 -0.680 -0.707
     occupation matrix ns (before diag.):
       0.804  0.000  0.000
       0.000  0.804 -0.000
       0.000 -0.000  0.804
     ------------------------ ATOM   15 ------------------------
     Tr[ns( 15)] =   4.82044
     eigenvalues:
       0.803  0.803  0.803
     eigenvectors (columns):
       0.519  0.630  0.577
       0.286 -0.765  0.577
      -0.805  0.135  0.577
     occupation matrix ns (before diag.):
       0.803  0.000  0.000
       0.000  0.803  0.000
       0.000  0.000  0.803
     ------------------------ ATOM   16 ------------------------
     Tr[ns( 16)] =   4.82136
     eigenvalues:
       0.804  0.804  0.804
     eigenvectors (columns):
      -0.193 -0.680 -0.707
       0.962 -0.273 -0.000
      -0.193 -0.680  0.707
     occupation matrix ns (before diag.):
       0.804  0.000 -0.000
       0.000  0.804  0.000
      -0.000  0.000  0.804
     ------------------------ ATOM   17 ------------------------
     Tr[ns( 17)] =   9.97021
     eigenvalues:
       0.996  0.996  0.996  0.998  0.998
     eigenvectors (columns):
      -0.000 -0.000 -0.000  0.866 -0.500
      -1.000  0.000 -0.000 -0.000 -0.000
      -0.000 -0.621  0.784 -0.000 -0.000
       0.000  0.000  0.000 -0.500 -0.866
       0.000  0.784  0.621  0.000  0.000
     occupation matrix ns (before diag.):
       0.998 -0.000 -0.000  0.000  0.000
      -0.000  0.996 -0.000  0.000  0.000
      -0.000 -0.000  0.996  0.000  0.000
       0.000  0.000  0.000  0.998 -0.000
       0.000  0.000  0.000 -0.000  0.996
     ------------------------ ATOM   18 ------------------------
     Tr[ns( 18)] =   9.97027
     eigenvalues:
       0.996  0.996  0.996  0.998  0.998
     eigenvectors (columns):
      -0.000  0.001 -0.000 -0.866 -0.500
       0.110 -0.707 -0.699 -0.001  0.000
      -0.988  0.000 -0.155  0.000  0.000
       0.000  0.000  0.000 -0.500  0.866
       0.110  0.707 -0.699  0.001  0.000
     occupation matrix ns (before diag.):
       0.998  0.000 -0.000 -0.000 -0.000
       0.000  0.996  0.000  0.000  0.000
      -0.000  0.000  0.996  0.000  0.000
      -0.000  0.000  0.000  0.998 -0.000
      -0.000  0.000  0.000 -0.000  0.996
     ------------------------ ATOM   19 ------------------------
     Tr[ns( 19)] =   9.97024
     eigenvalues:
       0.996  0.996  0.996  0.998  0.998
     eigenvectors (columns):
      -0.001 -0.001 -0.002  0.866  0.500
       0.684  0.729 -0.000 -0.000  0.003
       0.516 -0.484  0.707  0.001 -0.001
      -0.001 -0.002  0.001 -0.500  0.866
      -0.516  0.484  0.707  0.001  0.001
     occupation matrix ns (before diag.):
       0.998  0.000  0.000  0.000  0.000
       0.000  0.996 -0.000  0.000  0.000
       0.000 -0.000  0.996 -0.000  0.000
       0.000  0.000 -0.000  0.998  0.000
       0.000  0.000  0.000  0.000  0.996
     ------------------------ ATOM   20 ------------------------
     Tr[ns( 20)] =   9.97027
     eigenvalues:
       0.996  0.996  0.996  0.998  0.998
     eigenvectors (columns):
       0.000  0.000  0.000 -0.000 -1.000
       0.110  0.707 -0.699  0.001 -0.000
      -0.110  0.707  0.699  0.001  0.000
       0.000 -0.001  0.000  1.000 -0.000
       0.988  0.000  0.155 -0.000  0.000
     occupation matrix ns (before diag.):
       0.998  0.000 -0.000  0.000 -0.000
       0.000  0.996 -0.000  0.000 -0.000
      -0.000 -0.000  0.996  0.000  0.000
       0.000  0.000  0.000  0.998 -0.000
      -0.000 -0.000  0.000 -0.000  0.996
     ------------------------ ATOM   21 ------------------------
     Tr[ns( 21)] =   4.82136
     eigenvalues:
       0.804  0.804  0.804
     eigenvectors (columns):
       0.962 -0.273 -0.000
       0.193  0.680  0.707
      -0.193 -0.680  0.707
     occupation matrix ns (before diag.):
       0.804 -0.000  0.000
      -0.000  0.804  0.000
       0.000  0.000  0.804
     ------------------------ ATOM   22 ------------------------
     Tr[ns( 22)] =   4.82136
     eigenvalues:
       0.804  0.804  0.804
     eigenvectors (columns):
      -0.193  0.680  0.707
       0.193 -0.680  0.707
       0.962  0.273  0.000
     occupation matrix ns (before diag.):
       0.804  0.000  0.000
       0.000  0.804 -0.000
       0.000 -0.000  0.804
     ------------------------ ATOM   23 ------------------------
     Tr[ns( 23)] =   4.82136
     eigenvalues:
       0.804  0.804  0.804
     eigenvectors (columns):
      -0.193 -0.680  0.707
      -0.962  0.273 -0.000
      -0.193 -0.680 -0.707
     occupation matrix ns (before diag.):
       0.804 -0.000 -0.000
      -0.000  0.804 -0.000
      -0.000 -0.000  0.804
     ------------------------ ATOM   24 ------------------------
     Tr[ns( 24)] =   4.82044
     eigenvalues:
       0.803  0.803  0.803
     eigenvectors (columns):
       0.332  0.746  0.577
       0.812  0.085 -0.577
       0.480 -0.661  0.577
     occupation matrix ns (before diag.):
       0.803 -0.000  0.000
      -0.000  0.803 -0.000
       0.000 -0.000  0.803
     ------------------------ ATOM   25 ------------------------
     Tr[ns( 25)] =   9.97031
     eigenvalues:
       0.996  0.996  0.996  0.998  0.998
     eigenvectors (columns):
      -0.000 -0.000 -0.000  0.500 -0.866
      -0.346 -0.938  0.000 -0.000  0.000
      -0.000 -0.000 -1.000 -0.000  0.000
       0.000  0.000  0.000 -0.866 -0.500
       0.938 -0.346 -0.000  0.000  0.000
     occupation matrix ns (before diag.):
       0.998 -0.000 -0.000  0.000  0.000
      -0.000  0.996 -0.000  0.000  0.000
      -0.000 -0.000  0.996  0.000  0.000
       0.000  0.000  0.000  0.998 -0.000
       0.000  0.000  0.000 -0.000  0.996
     ------------------------ ATOM   26 ------------------------
     Tr[ns( 26)] =   9.97027
     eigenvalues:
       0.996  0.996  0.996  0.998  0.998
     eigenvectors (columns):
      -0.000  0.001 -0.000 -0.866 -0.500
       0.110 -0.707 -0.699 -0.001  0.000
       0.988 -0.000  0.155  0.000 -0.000
       0.000  0.000  0.000 -0.500  0.866
      -0.110 -0.707  0.699 -0.001 -0.000
     occupation matrix ns (before diag.):
       0.998  0.000  0.000 -0.000  0.000
       0.000  0.996 -0.000  0.000 -0.000
       0.000 -0.000  0.996 -0.000  0.000
      -0.000  0.000 -0.000  0.998  0.000
       0.000 -0.000  0.000  0.000  0.996
     ------------------------ ATOM   27 ------------------------
     Tr[ns( 27)] =   9.97024
     eigenvalues:
       0.996  0.996  0.996  0.998  0.998
     eigenvectors (columns):
      -0.001 -0.001 -0.002  0.866  0.500
      -0.684 -0.729 -0.000 -0.000 -0.003
       0.516 -0.484  0.707  0.001 -0.001
      -0.001 -0.002  0.001 -0.500  0.866
       0.516 -0.484 -0.707 -0.001 -0.001
     occupation matrix ns (before diag.):
       0.998 -0.000  0.000  0.000 -0.000
      -0.000  0.996  0.000 -0.000  0.000
       0.000  0.000  0.996 -0.000 -0.000
       0.000 -0.000 -0.000  0.998 -0.000
      -0.000  0.000 -0.000 -0.000  0.996
     ------------------------ ATOM   28 ------------------------
     Tr[ns( 28)] =   9.97024
     eigenvalues:
       0.996  0.996  0.996  0.998  0.998
     eigenvectors (columns):
      -0.001  0.003  0.000 -0.000  1.000
       0.516  0.484  0.707 -0.001 -0.001
      -0.516 -0.484  0.707 -0.001  0.001
      -0.000 -0.000  0.002  1.000  0.000
      -0.684  0.729  0.000 -0.000 -0.003
     occupation matrix ns (before diag.):
       0.998 -0.000  0.000  0.000 -0.000
      -0.000  0.996  0.000 -0.000  0.000
       0.000  0.000  0.996 -0.000 -0.000
       0.000 -0.000 -0.000  0.998 -0.000
      -0.000  0.000 -0.000 -0.000  0.996
     ------------------------ ATOM   29 ------------------------
     Tr[ns( 29)] =   4.82159
     eigenvalues:
       0.804  0.804  0.804
     eigenvectors (columns):
       0.577  0.254 -0.776
       0.577  0.545  0.608
      -0.577  0.799 -0.168
     occupation matrix ns (before diag.):
       0.804 -0.000  0.000
      -0.000  0.804  0.000
       0.000  0.000  0.804
     ------------------------ ATOM   30 ------------------------
     Tr[ns( 30)] =   4.82093
     eigenvalues:
       0.803  0.803  0.804
     eigenvectors (columns):
      -0.707  0.348 -0.616
      -0.000  0.871  0.492
      -0.707 -0.348  0.616
     occupation matrix ns (before diag.):
       0.803 -0.000 -0.000
      -0.000  0.803  0.000
      -0.000  0.000  0.803
     ------------------------ ATOM   31 ------------------------
     Tr[ns( 31)] =   4.82093
     eigenvalues:
       0.803  0.803  0.804
     eigenvectors (columns):
       0.707  0.348  0.616
      -0.707  0.348  0.616
      -0.000 -0.871  0.492
     occupation matrix ns (before diag.):
       0.803  0.000  0.000
       0.000  0.803  0.000
       0.000  0.000  0.803
     ------------------------ ATOM   32 ------------------------
     Tr[ns( 32)] =   4.82093
     eigenvalues:
       0.803  0.803  0.804
     eigenvectors (columns):
       0.000  0.871  0.492
       0.707  0.348 -0.616
       0.707 -0.348  0.616
     occupation matrix ns (before diag.):
       0.803 -0.000  0.000
      -0.000  0.803 -0.000
       0.000 -0.000  0.803
     ------------------------ ATOM   33 ------------------------
     Tr[ns( 33)] =   9.97021
     eigenvalues:
       0.996  0.996  0.996  0.998  0.998
     eigenvectors (columns):
       0.000 -0.000 -0.000 -0.866  0.500
       0.000 -0.336 -0.942  0.000 -0.000
       1.000  0.000  0.000  0.000 -0.000
      -0.000  0.000  0.000 -0.500 -0.866
      -0.000  0.942 -0.336  0.000  0.000
     occupation matrix ns (before diag.):
       0.998 -0.000 -0.000 -0.000  0.000
      -0.000  0.996 -0.000  0.000  0.000
      -0.000 -0.000  0.996  0.000  0.000
      -0.000  0.000  0.000  0.998 -0.000
       0.000  0.000  0.000 -0.000  0.996
     ------------------------ ATOM   34 ------------------------
     Tr[ns( 34)] =   9.97024
     eigenvalues:
       0.996  0.996  0.996  0.998  0.998
     eigenvectors (columns):
      -0.001 -0.001 -0.002  0.866  0.500
       0.516 -0.484  0.707  0.001 -0.001
       0.684  0.729 -0.000 -0.000  0.003
       0.001  0.002 -0.001  0.500 -0.866
      -0.516  0.484  0.707  0.001  0.001
     occupation matrix ns (before diag.):
       0.998  0.000  0.000 -0.000  0.000
       0.000  0.996 -0.000  0.000  0.000
       0.000 -0.000  0.996 -0.000  0.000
      -0.000  0.000 -0.000  0.998 -0.000
       0.000  0.000  0.000 -0.000  0.996
     ------------------------ ATOM   35 ------------------------
     Tr[ns( 35)] =   9.97027
     eigenvalues:
       0.996  0.996  0.996  0.998  0.998
     eigenvectors (columns):
      -0.000 -0.001  0.000 -0.866 -0.500
      -0.988 -0.000  0.155  0.000  0.000
       0.110  0.707  0.699 -0.001  0.000
      -0.000  0.000  0.000  0.500 -0.866
       0.110 -0.707  0.699  0.001  0.000
     occupation matrix ns (before diag.):
       0.998 -0.000  0.000  0.000 -0.000
      -0.000  0.996  0.000 -0.000  0.000
       0.000  0.000  0.996 -0.000  0.000
       0.000 -0.000 -0.000  0.998  0.000
      -0.000  0.000  0.000  0.000  0.996
     ------------------------ ATOM   36 ------------------------
     Tr[ns( 36)] =   9.97027
     eigenvalues:
[...]
     1.0000   1.0000   1.0000   1.0000   1.0000   1.0000   1.0000   1.0000
     1.0000   1.0000   1.0000   1.0000   1.0000   1.0000   1.0000   1.0000
     1.0000   1.0000   1.0000   1.0000   1.0000   1.0000   1.0000   1.0000
     1.0000   1.0000   1.0000   1.0000   1.0000   1.0000   1.0000   1.0000
     1.0000   1.0000   1.0000   1.0000   1.0000   1.0000   1.0000   1.0000
     1.0000   1.0000   1.0000   1.0000   1.0000   1.0000   1.0000   1.0000
     1.0000   1.0000   1.0000   1.0000   1.0000   1.0000   1.0000   1.0000
     1.0000   1.0000   1.0000   1.0000   1.0000   1.0000   1.0000   1.0000
     1.0000   1.0000   1.0000   1.0000   1.0000   1.0000   1.0000   1.0000
     1.0000   1.0000   1.0000   1.0000   1.0000   1.0000   1.0000   1.0000
     1.0000   1.0000   1.0000   1.0000   1.0000   1.0000   1.0000   1.0000
     1.0000   1.0000   1.0000   1.0000   1.0000   1.0000   1.0000   1.0000
     1.0000   1.0000   1.0000   1.0000   1.0000   1.0000   1.0000   1.0000
     1.0000   1.0000   1.0000   1.0000   1.0000   1.0000   1.0000   1.0000
     1.0000   1.0000   1.0000   1.0000   1.0000   1.0000   1.0000   1.0000
     1.0000   1.0000   1.0000   1.0000   1.0000   1.0000   1.0000   1.0000
     1.0000   1.0000   1.0000   1.0000   1.0000   1.0000   1.0000   1.0000
     1.0000   1.0000   1.0000   1.0000   1.0000   1.0000   1.0000   1.0000
     0.0000   0.0000   0.0000   0.0000   0.0000   0.0000   0.0000   0.0000
     0.0000   0.0000   0.0000   0.0000   0.0000   0.0000   0.0000   0.0000
     0.0000   0.0000   0.0000   0.0000   0.0000   0.0000   0.0000   0.0000
     0.0000   0.0000   0.0000   0.0000   0.0000   0.0000   0.0000   0.0000
     0.0000   0.0000   0.0000   0.0000   0.0000   0.0000   0.0000   0.0000
     0.0000   0.0000   0.0000   0.0000   0.0000   0.0000   0.0000   0.0000
     0.0000   0.0000   0.0000   0.0000   0.0000   0.0000   0.0000   0.0000
     0.0000

          k = 0.2500-0.5000-0.5000 (158052 PWs)   bands (ev):

    -6.8220  -6.8220  -6.8219  -6.8219  -6.5858  -6.5858  -6.5858  -6.5858
    -6.2307  -6.2307  -6.2307  -6.2307  -6.0775  -6.0775  -6.0775  -6.0775
    -6.0775  -6.0775  -6.0775  -6.0775  -6.0663  -6.0663  -6.0663  -6.0663
    -6.0663  -6.0663  -6.0663  -6.0663  -5.9629  -5.9629  -5.9629  -5.9629
    -1.0065  -1.0065  -1.0065  -1.0065  -1.0054  -1.0054  -1.0054  -1.0054
    -1.0054  -1.0054  -1.0054  -1.0054  -0.9673  -0.9673  -0.9673  -0.9673
    -0.9616  -0.9616  -0.9616  -0.9616  -0.9535  -0.9534  -0.9534  -0.9534
    -0.9491  -0.9491  -0.9491  -0.9491  -0.9375  -0.9375  -0.9375  -0.9375
    -0.9057  -0.9057  -0.9057  -0.9057  -0.9056  -0.9056  -0.9056  -0.9056
    -0.9035  -0.9035  -0.9035  -0.9035  -0.9029  -0.9029  -0.9029  -0.9028
    -0.8115  -0.8115  -0.8115  -0.8115  -0.7881  -0.7881  -0.7881  -0.7881
    -0.7881  -0.7881  -0.7881  -0.7881  -0.7445  -0.7445  -0.7444  -0.7444
    -0.7444  -0.7444  -0.7444  -0.7444  -0.7319  -0.7319  -0.7319  -0.7319
    -0.7150  -0.7150  -0.7150  -0.7150  -0.6694  -0.6694  -0.6694  -0.6694
    -0.6693  -0.6693  -0.6693  -0.6693  -0.5735  -0.5735  -0.5735  -0.5735
    -0.5650  -0.5650  -0.5649  -0.5649  -0.5649  -0.5649  -0.5649  -0.5649
    -0.4410  -0.4409  -0.4409  -0.4409  -0.4355  -0.4354  -0.4354  -0.4354
    -0.4225  -0.4225  -0.4225  -0.4224  -0.4142  -0.4142  -0.4142  -0.4142
    -0.4059  -0.4059  -0.4058  -0.4058  -0.4058  -0.4058  -0.4058  -0.4058
    -0.3962  -0.3961  -0.3961  -0.3961  -0.3916  -0.3916  -0.3916  -0.3916
    -0.3885  -0.3884  -0.3884  -0.3884  -0.3875  -0.3874  -0.3874  -0.3874
    -0.3874  -0.3874  -0.3874  -0.3874  -0.3230  -0.3230  -0.3230  -0.3230
    -0.3229  -0.3229  -0.3229  -0.3229  -0.2363  -0.2363  -0.2363  -0.2363
    -0.2362  -0.2362  -0.2362  -0.2362  -0.1526  -0.1526  -0.1526  -0.1526
     0.2960   0.2960   0.2960   0.2960   0.2961   0.2961   0.2961   0.2961
     0.4159   0.4159   0.4159   0.4159   0.8450   0.8450   0.8450   0.8450
     0.8500   0.8500   0.8500   0.8500   0.8500   0.8500   0.8500   0.8500
     1.6362   1.6362   1.6362   1.6362   2.0116   2.0116   2.0116   2.0116
     2.4613   2.4613   2.4613   2.4613   2.4613   2.4613   2.4613   2.4613
     2.5104   2.5104   2.5104   2.5104   2.5105   2.5105   2.5105   2.5105
     2.6356   2.6356   2.6356   2.6356   2.9755   2.9755   2.9755   2.9755
     2.9755   2.9755   2.9755   2.9755   2.9962   2.9962   2.9962   2.9962
     3.0508   3.0508   3.0508   3.0508   3.2530   3.2530   3.2530   3.2530
     3.2530   3.2530   3.2530   3.2530   3.3728   3.3728   3.3728   3.3728
     3.9318   3.9318   3.9318   3.9318   4.0298   4.0298   4.0298   4.0298
     4.0347   4.0347   4.0347   4.0348   4.3548   4.3548   4.3548   4.3548
     8.9708   8.9708   8.9708   8.9708   9.0971   9.0971   9.0971   9.0971
     9.6321   9.6321   9.6321   9.6321   9.7253   9.7253   9.7253   9.7254
     9.7949   9.7949   9.7949   9.7949   9.7949   9.7949   9.7949   9.7949
     9.9539   9.9539   9.9539   9.9539   9.9539   9.9539   9.9539   9.9539
    10.7032  10.7032  10.7032  10.7032  10.7032  10.7032  10.7032  10.7032
    11.1992  11.1992  11.1992  11.1992  11.3921  11.3921  11.3921  11.3921
    11.4769  11.4769  11.4769  11.4769  11.4769  11.4770  11.4770  11.4770
    11.8226

     occupation numbers 
     1.0000   1.0000   1.0000   1.0000   1.0000   1.0000   1.0000   1.0000
     1.0000   1.0000   1.0000   1.0000   1.0000   1.0000   1.0000   1.0000
     1.0000   1.0000   1.0000   1.0000   1.0000   1.0000   1.0000   1.0000
     1.0000   1.0000   1.0000   1.0000   1.0000   1.0000   1.0000   1.0000
     1.0000   1.0000   1.0000   1.0000   1.0000   1.0000   1.0000   1.0000
     1.0000   1.0000   1.0000   1.0000   1.0000   1.0000   1.0000   1.0000
     1.0000   1.0000   1.0000   1.0000   1.0000   1.0000   1.0000   1.0000
     1.0000   1.0000   1.0000   1.0000   1.0000   1.0000   1.0000   1.0000
     1.0000   1.0000   1.0000   1.0000   1.0000   1.0000   1.0000   1.0000
     1.0000   1.0000   1.0000   1.0000   1.0000   1.0000   1.0000   1.0000
     1.0000   1.0000   1.0000   1.0000   1.0000   1.0000   1.0000   1.0000
     1.0000   1.0000   1.0000   1.0000   1.0000   1.0000   1.0000   1.0000
     1.0000   1.0000   1.0000   1.0000   1.0000   1.0000   1.0000   1.0000
     1.0000   1.0000   1.0000   1.0000   1.0000   1.0000   1.0000   1.0000
     1.0000   1.0000   1.0000   1.0000   1.0000   1.0000   1.0000   1.0000
     1.0000   1.0000   1.0000   1.0000   1.0000   1.0000   1.0000   1.0000
     1.0000   1.0000   1.0000   1.0000   1.0000   1.0000   1.0000   1.0000
     1.0000   1.0000   1.0000   1.0000   1.0000   1.0000   1.0000   1.0000
     1.0000   1.0000   1.0000   1.0000   1.0000   1.0000   1.0000   1.0000
     1.0000   1.0000   1.0000   1.0000   1.0000   1.0000   1.0000   1.0000
     1.0000   1.0000   1.0000   1.0000   1.0000   1.0000   1.0000   1.0000
     1.0000   1.0000   1.0000   1.0000   1.0000   1.0000   1.0000   1.0000
     1.0000   1.0000   1.0000   1.0000   1.0000   1.0000   1.0000   1.0000
     1.0000   1.0000   1.0000   1.0000   1.0000   1.0000   1.0000   1.0000
     1.0000   1.0000   1.0000   1.0000   1.0000   1.0000   1.0000   1.0000
     1.0000   1.0000   1.0000   1.0000   1.0000   1.0000   1.0000   1.0000
     1.0000   1.0000   1.0000   1.0000   1.0000   1.0000   1.0000   1.0000
     1.0000   1.0000   1.0000   1.0000   1.0000   1.0000   1.0000   1.0000
     1.0000   1.0000   1.0000   1.0000   1.0000   1.0000   1.0000   1.0000
     1.0000   1.0000   1.0000   1.0000   1.0000   1.0000   1.0000   1.0000
     1.0000   1.0000   1.0000   1.0000   1.0000   1.0000   1.0000   1.0000
     1.0000   1.0000   1.0000   1.0000   1.0000   1.0000   1.0000   1.0000
     1.0000   1.0000   1.0000   1.0000   1.0000   1.0000   1.0000   1.0000
     1.0000   1.0000   1.0000   1.0000   1.0000   1.0000   1.0000   1.0000
     1.0000   1.0000   1.0000   1.0000   1.0000   1.0000   1.0000   1.0000
     1.0000   1.0000   1.0000   1.0000   1.0000   1.0000   1.0000   1.0000
     0.0000   0.0000   0.0000   0.0000   0.0000   0.0000   0.0000   0.0000
     0.0000   0.0000   0.0000   0.0000   0.0000   0.0000   0.0000   0.0000
     0.0000   0.0000   0.0000   0.0000   0.0000   0.0000   0.0000   0.0000
     0.0000   0.0000   0.0000   0.0000   0.0000   0.0000   0.0000   0.0000
     0.0000   0.0000   0.0000   0.0000   0.0000   0.0000   0.0000   0.0000
     0.0000   0.0000   0.0000   0.0000   0.0000   0.0000   0.0000   0.0000
     0.0000   0.0000   0.0000   0.0000   0.0000   0.0000   0.0000   0.0000
     0.0000

          k =-0.5000-0.5000-0.5000 (158408 PWs)   bands (ev):

    -6.7287  -6.7287  -6.7287  -6.7287  -6.7287  -6.7287  -6.7287  -6.7287
    -6.0719  -6.0719  -6.0719  -6.0719  -6.0719  -6.0719  -6.0719  -6.0719
    -6.0719  -6.0719  -6.0719  -6.0719  -6.0719  -6.0719  -6.0719  -6.0719
    -6.0719  -6.0719  -6.0719  -6.0719  -6.0719  -6.0719  -6.0719  -6.0719
    -0.9842  -0.9842  -0.9842  -0.9842  -0.9842  -0.9842  -0.9842  -0.9842
    -0.9587  -0.9587  -0.9587  -0.9587  -0.9586  -0.9586  -0.9586  -0.9586
    -0.9586  -0.9586  -0.9586  -0.9586  -0.9586  -0.9586  -0.9586  -0.9586
    -0.9586  -0.9586  -0.9586  -0.9586  -0.9586  -0.9586  -0.9586  -0.9586
    -0.9325  -0.9325  -0.9325  -0.9325  -0.9325  -0.9325  -0.9325  -0.9325
    -0.9325  -0.9325  -0.9325  -0.9324  -0.9324  -0.9324  -0.9324  -0.9324
    -0.7584  -0.7583  -0.7583  -0.7583  -0.7583  -0.7583  -0.7583  -0.7583
    -0.7583  -0.7583  -0.7583  -0.7583  -0.7583  -0.7583  -0.7582  -0.7582
    -0.7582  -0.7582  -0.7582  -0.7582  -0.7582  -0.7582  -0.7582  -0.7582
    -0.6382  -0.6382  -0.6382  -0.6382  -0.6382  -0.6382  -0.6382  -0.6382
    -0.6382  -0.6382  -0.6382  -0.6382  -0.6382  -0.6382  -0.6382  -0.6381
    -0.6381  -0.6381  -0.6381  -0.6381  -0.6381  -0.6381  -0.6381  -0.6381
    -0.4294  -0.4294  -0.4294  -0.4294  -0.4294  -0.4294  -0.4294  -0.4294
    -0.4294  -0.4294  -0.4293  -0.4293  -0.4293  -0.4293  -0.4293  -0.4293
    -0.3911  -0.3911  -0.3911  -0.3911  -0.3910  -0.3910  -0.3910  -0.3910
    -0.3910  -0.3910  -0.3910  -0.3910  -0.3910  -0.3910  -0.3910  -0.3910
    -0.3910  -0.3910  -0.3910  -0.3910  -0.3909  -0.3909  -0.3909  -0.3909
    -0.2876  -0.2875  -0.2875  -0.2875  -0.2875  -0.2875  -0.2875  -0.2875
    -0.2875  -0.2875  -0.2875  -0.2875  -0.2875  -0.2875  -0.2875  -0.2875
    -0.2875  -0.2875  -0.2875  -0.2875  -0.2875  -0.2875  -0.2875  -0.2874
     0.5775   0.5775   0.5775   0.5775   0.5775   0.5775   0.5775   0.5775
     0.5775   0.5776   0.5776   0.5776   0.5776   0.5776   0.5776   0.5776
     0.5776   0.5776   0.5776   0.5776   0.5776   0.5776   0.5776   0.5776
     2.1325   2.1325   2.1325   2.1325   2.1325   2.1325   2.1325   2.1325
     2.4745   2.4745   2.4745   2.4745   2.4745   2.4745   2.4745   2.4745
     2.4745   2.4745   2.4745   2.4745   2.4745   2.4745   2.4745   2.4745
     2.4745   2.4745   2.4745   2.4745   2.4745   2.4745   2.4745   2.4745
     3.1456   3.1456   3.1456   3.1456   3.1456   3.1456   3.1456   3.1456
     3.1456   3.1456   3.1456   3.1456   3.1456   3.1456   3.1456   3.1456
     3.1456   3.1456   3.1456   3.1456   3.1456   3.1456   3.1456   3.1456
     4.1820   4.1820   4.1820   4.1820   4.1820   4.1820   4.1820   4.1820
     4.1820   4.1820   4.1820   4.1820   4.1820   4.1820   4.1820   4.1820
     8.9134   8.9134   8.9134   8.9134   8.9134   8.9134   8.9134   8.9134
     9.7392   9.7392   9.7392   9.7393   9.7393   9.7393   9.7393   9.7393
     9.7393   9.7393   9.7393   9.7393   9.7393   9.7393   9.7393   9.7393
     9.7393   9.7393   9.7393   9.7393   9.7393   9.7393   9.7393   9.7393
    11.2485  11.2485  11.2485  11.2485  11.2485  11.2485  11.2485  11.2485
    11.2485  11.2485  11.2485  11.2486  11.2486  11.2486  11.2486  11.2486
    11.2486  11.2486  11.2486  11.2486  11.2486  11.2486  11.2486  11.2486
    12.2914

     occupation numbers 
     1.0000   1.0000   1.0000   1.0000   1.0000   1.0000   1.0000   1.0000
     1.0000   1.0000   1.0000   1.0000   1.0000   1.0000   1.0000   1.0000
     1.0000   1.0000   1.0000   1.0000   1.0000   1.0000   1.0000   1.0000
     1.0000   1.0000   1.0000   1.0000   1.0000   1.0000   1.0000   1.0000
     1.0000   1.0000   1.0000   1.0000   1.0000   1.0000   1.0000   1.0000
     1.0000   1.0000   1.0000   1.0000   1.0000   1.0000   1.0000   1.0000
     1.0000   1.0000   1.0000   1.0000   1.0000   1.0000   1.0000   1.0000
     1.0000   1.0000   1.0000   1.0000   1.0000   1.0000   1.0000   1.0000
     1.0000   1.0000   1.0000   1.0000   1.0000   1.0000   1.0000   1.0000
     1.0000   1.0000   1.0000   1.0000   1.0000   1.0000   1.0000   1.0000
     1.0000   1.0000   1.0000   1.0000   1.0000   1.0000   1.0000   1.0000
     1.0000   1.0000   1.0000   1.0000   1.0000   1.0000   1.0000   1.0000
     1.0000   1.0000   1.0000   1.0000   1.0000   1.0000   1.0000   1.0000
     1.0000   1.0000   1.0000   1.0000   1.0000   1.0000   1.0000   1.0000
     1.0000   1.0000   1.0000   1.0000   1.0000   1.0000   1.0000   1.0000
     1.0000   1.0000   1.0000   1.0000   1.0000   1.0000   1.0000   1.0000
     1.0000   1.0000   1.0000   1.0000   1.0000   1.0000   1.0000   1.0000
     1.0000   1.0000   1.0000   1.0000   1.0000   1.0000   1.0000   1.0000
     1.0000   1.0000   1.0000   1.0000   1.0000   1.0000   1.0000   1.0000
     1.0000   1.0000   1.0000   1.0000   1.0000   1.0000   1.0000   1.0000
     1.0000   1.0000   1.0000   1.0000   1.0000   1.0000   1.0000   1.0000
     1.0000   1.0000   1.0000   1.0000   1.0000   1.0000   1.0000   1.0000
     1.0000   1.0000   1.0000   1.0000   1.0000   1.0000   1.0000   1.0000
     1.0000   1.0000   1.0000   1.0000   1.0000   1.0000   1.0000   1.0000
     1.0000   1.0000   1.0000   1.0000   1.0000   1.0000   1.0000   1.0000
     1.0000   1.0000   1.0000   1.0000   1.0000   1.0000   1.0000   1.0000
     1.0000   1.0000   1.0000   1.0000   1.0000   1.0000   1.0000   1.0000
     1.0000   1.0000   1.0000   1.0000   1.0000   1.0000   1.0000   1.0000
     1.0000   1.0000   1.0000   1.0000   1.0000   1.0000   1.0000   1.0000
     1.0000   1.0000   1.0000   1.0000   1.0000   1.0000   1.0000   1.0000
     1.0000   1.0000   1.0000   1.0000   1.0000   1.0000   1.0000   1.0000
     1.0000   1.0000   1.0000   1.0000   1.0000   1.0000   1.0000   1.0000
     1.0000   1.0000   1.0000   1.0000   1.0000   1.0000   1.0000   1.0000
     1.0000   1.0000   1.0000   1.0000   1.0000   1.0000   1.0000   1.0000
     1.0000   1.0000   1.0000   1.0000   1.0000   1.0000   1.0000   1.0000
     1.0000   1.0000   1.0000   1.0000   1.0000   1.0000   1.0000   1.0000
     0.0000   0.0000   0.0000   0.0000   0.0000   0.0000   0.0000   0.0000
     0.0000   0.0000   0.0000   0.0000   0.0000   0.0000   0.0000   0.0000
     0.0000   0.0000   0.0000   0.0000   0.0000   0.0000   0.0000   0.0000
     0.0000   0.0000   0.0000   0.0000   0.0000   0.0000   0.0000   0.0000
     0.0000   0.0000   0.0000   0.0000   0.0000   0.0000   0.0000   0.0000
     0.0000   0.0000   0.0000   0.0000   0.0000   0.0000   0.0000   0.0000
     0.0000   0.0000   0.0000   0.0000   0.0000   0.0000   0.0000   0.0000
     0.0000

     highest occupied, lowest unoccupied level (ev):     4.5982    7.6730

!    total energy              =   -9918.09480937 Ry
     total all-electron energy =   -140494.035397 Ry
     estimated scf accuracy    <       0.00000007 Ry

     The total energy is the sum of the following terms:
     one-electron contribution =   -2751.51519954 Ry
     hartree contribution      =    1960.82264054 Ry
     xc contribution           =   -1676.46466749 Ry
     ewald contribution        =   -2927.19912172 Ry
     Hubbard energy            =       5.99178234 Ry
     one-center paw contrib.   =   -4529.73024350 Ry
      -> PAW hartree energy AE =     122.42803552 Ry
      -> PAW hartree energy PS =    -121.77517495 Ry
      -> PAW xc energy AE      =    -143.16044470 Ry
      -> PAW xc energy PS      =      47.09954570 Ry
      -> total E_H with PAW    =    1961.47550111 Ry
      -> total E_XC with PAW   =   -1772.52556648 Ry

     convergence has been achieved in   9 iterations

     Writing all to output data dir ./out/ZnS_hub.save/
 
     init_run     :      8.72s CPU      9.60s WALL (       1 calls)
     electrons    :     81.29s CPU     85.11s WALL (       1 calls)

     Called by init_run:
     wfcinit      :      3.29s CPU      3.56s WALL (       1 calls)
     wfcinit:atom :      0.00s CPU      0.00s WALL (       1 calls)
     wfcinit:wfcr :      2.60s CPU      2.64s WALL (       1 calls)
     potinit      :      1.00s CPU      1.21s WALL (       1 calls)
     hinit0       :      1.67s CPU      1.83s WALL (       1 calls)

     Called by electrons:
     c_bands      :     73.20s CPU     74.06s WALL (      10 calls)
     sum_band     :      6.57s CPU      6.67s WALL (      10 calls)
     v_of_rho     :      0.31s CPU      0.47s WALL (      10 calls)
     v_h          :      0.02s CPU      0.04s WALL (      10 calls)
     v_xc         :      0.29s CPU      0.42s WALL (      10 calls)
     newd         :      0.19s CPU      0.21s WALL (      10 calls)
     PAW_pot      :      0.89s CPU      0.91s WALL (      10 calls)
     mix_rho      :      0.05s CPU      0.07s WALL (      10 calls)

     Called by c_bands:
     init_us_2    :      0.36s CPU      0.38s WALL (      22 calls)
     init_us_2:cp :      0.36s CPU      0.38s WALL (      22 calls)
     cegterg      :     32.40s CPU     32.85s WALL (      10 calls)

     Called by sum_band:
     sum_band:wei :      0.00s CPU      0.00s WALL (      10 calls)
     sum_band:loo :      2.63s CPU      2.66s WALL (      10 calls)
     sum_band:buf :      0.00s CPU      0.00s WALL (      10 calls)
     sum_band:ini :      0.18s CPU      0.18s WALL (      10 calls)
     sum_band:cal :      0.85s CPU      0.86s WALL (      10 calls)
     sum_band:bec :      0.04s CPU      0.04s WALL (      10 calls)
     addusdens    :      0.16s CPU      0.17s WALL (      10 calls)
                                        0.00s GPU  (      10 calls)
     addusd:skk   :      0.00s CPU      0.00s WALL (      20 calls)
                                        0.00s GPU  (      20 calls)

     Called by *egterg:
     cdiaghg      :      3.50s CPU      3.53s WALL (      46 calls)
     cegterg:over :      2.20s CPU      2.22s WALL (      37 calls)
     cegterg:upda :      1.58s CPU      1.60s WALL (      37 calls)
     cegterg:last :      2.72s CPU      2.74s WALL (      21 calls)
     cdiaghg:chol :      0.22s CPU      0.22s WALL (      46 calls)
     cdiaghg:inve :      0.34s CPU      0.34s WALL (      46 calls)
     cdiaghg:para :      0.55s CPU      0.55s WALL (      92 calls)
     h_psi        :     21.26s CPU     21.54s WALL (      48 calls)
     s_psi        :      2.78s CPU      2.81s WALL (      49 calls)
     g_psi        :      0.07s CPU      0.07s WALL (      37 calls)

     Called by h_psi:
     h_psi:calbec :      2.58s CPU      2.60s WALL (      48 calls)
     vloc_psi     :     10.05s CPU     10.15s WALL (      48 calls)
     add_vuspsi   :      2.60s CPU      2.63s WALL (      48 calls)
     vhpsi        :      5.92s CPU      5.98s WALL (      48 calls)

     General routines
     calbec       :      4.41s CPU      4.45s WALL (     117 calls)
     fft          :      0.34s CPU      0.69s WALL (     111 calls)
     ffts         :      0.01s CPU      0.02s WALL (      10 calls)
     fftw         :     10.97s CPU     11.09s WALL (   23110 calls)
 
     Parallel routines

     Hubbard U routines
     new_ns       :      0.49s CPU      0.50s WALL (      10 calls)
     vhpsi        :      5.92s CPU      5.98s WALL (      48 calls)

     PAW routines
     PAW_pot      :      0.89s CPU      0.91s WALL (      10 calls)
     PAW_symme    :      0.07s CPU      0.07s WALL (      20 calls)
 
     PWSCF        :   1m45.83s CPU   2m12.65s WALL

 
   This run was terminated on:   3:57:15   1Jul2024            

=------------------------------------------------------------------------------=
   JOB DONE.
=------------------------------------------------------------------------------=
