
     Program PWSCF v.7.2 starts on  1Jul2024 at  3:57:35 

     This program is part of the open-source Quantum ESPRESSO suite
     for quantum simulation of materials; please cite
         "P. Giannozzi et al., J. Phys.:Condens. Matter 21 395502 (2009);
         "P. Giannozzi et al., J. Phys.:Condens. Matter 29 465901 (2017);
         "P. Giannozzi et al., J. Chem. Phys. 152 154105 (2020);
          URL http://www.quantum-espresso.org", 
     in publications or presentations arising from this work. More details at
     http://www.quantum-espresso.org/quote

     Parallel version (MPI), running on  1120 processors

     MPI processes distributed on    10 nodes
     228104 MiB available memory on the printing compute node when the environment starts
 
     Waiting for input...
     Reading input from standard input

     Current dimensions of program PWSCF are:
     Max number of different atomic species (ntypx) = 10
     Max number of k-points (npk) =  40000
     Max angular momentum in pseudopotentials (lmaxx) =  4

     Atomic positions and unit cell read from directory:
     ./out/ZnS_hub.save/
 
     file S.pbe-n-kjpaw_psl.1.0.0.UPF: wavefunction(s)  3S 3P renormalized
     file Zn.pbe-dnl-kjpaw_psl.1.0.0.UPF: wavefunction(s)  4S 3D renormalized
     Found identity + (  0.0000  0.2500  0.2500) symmetry
     This is a supercell, fractional translations are disabled
     [opt_tetra]  Optimized tetrahedron method is used.
 
     K-points division:     npool     =      10
     R & G space division:  proc/nbgrp/npool/nimage =     112
     Subspace diagonalization in iterative solution of the eigenvalue problem:
     one sub-group per band group will be used
     scalapack distributed-memory algorithm (size of sub-group:  3*  3 procs)

 
     Parallelization info
     --------------------
     sticks:   dense  smooth     PW     G-vecs:    dense   smooth      PW
     Min         126     126     33                11287    11287    1523
     Max         128     128     34                11292    11292    1528
     Sum       14137   14137   3721              1264415  1264415  170709
 
     Using Slab Decomposition
 


     bravais-lattice index     =            1
     lattice parameter (alat)  =      20.5686  a.u.
     unit-cell volume          =    8701.8437 (a.u.)^3
     number of atoms/cell      =           64
     number of atomic types    =            2
     number of electrons       =       576.00
     number of Kohn-Sham states=          345
     kinetic-energy cutoff     =     105.0000  Ry
     charge density cutoff     =     420.0000  Ry
     Exchange-correlation= SLA  PW   PBX  PBC
                           (   1   4   3   4   0   0   0)
     Hubbard projectors: ortho-atomic
     Hubbard parameters of DFT+U (Dudarev formulation) in eV:
     U(S-3p) =  5.0000
     U(Zn-3d) =  0.0000

     Internal variables: lda_plus_u = T, lda_plus_u_kind = 0

     celldm(1)=  20.568554  celldm(2)=   0.000000  celldm(3)=   0.000000
     celldm(4)=   0.000000  celldm(5)=   0.000000  celldm(6)=   0.000000

     crystal axes: (cart. coord. in units of alat)
               a(1) = (   1.000000   0.000000   0.000000 )  
               a(2) = (   0.000000   1.000000   0.000000 )  
               a(3) = (   0.000000   0.000000   1.000000 )  

     reciprocal axes: (cart. coord. in units 2 pi/alat)
               b(1) = (  1.000000  0.000000  0.000000 )  
               b(2) = (  0.000000  1.000000  0.000000 )  
               b(3) = (  0.000000  0.000000  1.000000 )  


     PseudoPot. # 1 for S  read from file:
     /arf/home/amuhaymin/pseudo/S.pbe-n-kjpaw_psl.1.0.0.UPF
     MD5 check sum: fb45dfebcf3e72a4e1bd4a866ec2e262
     Pseudo is Projector augmented-wave + core cor, Zval =  6.0
     Generated using &quot;atomic&quot; code by A. Dal Corso  v.6.3
     Shape of augmentation charge: PSQ
     Using radial grid of 1151 points,  6 beta functions with: 
                l(1) =   0
                l(2) =   0
                l(3) =   1
                l(4) =   1
                l(5) =   2
                l(6) =   2
     Q(r) pseudized with 0 coefficients 


     PseudoPot. # 2 for Zn read from file:
     /arf/home/amuhaymin/pseudo/Zn.pbe-dnl-kjpaw_psl.1.0.0.UPF
     MD5 check sum: c608214d9520ac179f507641260889e3
     Pseudo is Projector augmented-wave + core cor, Zval = 12.0
     Generated using &quot;atomic&quot; code by A. Dal Corso  v.6.2.2
     Shape of augmentation charge: PSQ
     Using radial grid of 1201 points,  6 beta functions with: 
                l(1) =   0
                l(2) =   0
                l(3) =   1
                l(4) =   1
                l(5) =   2
                l(6) =   2
     Q(r) pseudized with 0 coefficients 


     atomic species   valence    mass     pseudopotential
        S              6.00    32.06500     S ( 1.00)
        Zn            12.00    65.38000     Zn( 1.00)

     24 Sym. Ops. (no inversion) found


                                    s                        frac. trans.

      isym =  1     identity                                     

 cryst.   s( 1) = (     1          0          0      )
                  (     0          1          0      )
                  (     0          0          1      )

 cart.    s( 1) = (  1.0000000  0.0000000  0.0000000 )
                  (  0.0000000  1.0000000  0.0000000 )
                  (  0.0000000  0.0000000  1.0000000 )


      isym =  2     180 deg rotation - cart. axis [0,0,1]        

 cryst.   s( 2) = (    -1          0          0      )
                  (     0         -1          0      )
                  (     0          0          1      )

 cart.    s( 2) = ( -1.0000000  0.0000000  0.0000000 )
                  (  0.0000000 -1.0000000  0.0000000 )
                  (  0.0000000  0.0000000  1.0000000 )


      isym =  3     180 deg rotation - cart. axis [0,1,0]        

 cryst.   s( 3) = (    -1          0          0      )
                  (     0          1          0      )
                  (     0          0         -1      )

 cart.    s( 3) = ( -1.0000000  0.0000000  0.0000000 )
                  (  0.0000000  1.0000000  0.0000000 )
                  (  0.0000000  0.0000000 -1.0000000 )


      isym =  4     180 deg rotation - cart. axis [1,0,0]        

 cryst.   s( 4) = (     1          0          0      )
                  (     0         -1          0      )
                  (     0          0         -1      )

 cart.    s( 4) = (  1.0000000  0.0000000  0.0000000 )
                  (  0.0000000 -1.0000000  0.0000000 )
                  (  0.0000000  0.0000000 -1.0000000 )


      isym =  5     120 deg rotation - cart. axis [-1,-1,-1]     

 cryst.   s( 5) = (     0          0          1      )
                  (     1          0          0      )
                  (     0          1          0      )

 cart.    s( 5) = (  0.0000000  1.0000000  0.0000000 )
                  (  0.0000000  0.0000000  1.0000000 )
                  (  1.0000000  0.0000000  0.0000000 )


      isym =  6     120 deg rotation - cart. axis [-1,1,1]       

 cryst.   s( 6) = (     0          0         -1      )
                  (    -1          0          0      )
                  (     0          1          0      )

 cart.    s( 6) = (  0.0000000 -1.0000000  0.0000000 )
                  (  0.0000000  0.0000000  1.0000000 )
                  ( -1.0000000  0.0000000  0.0000000 )


      isym =  7     120 deg rotation - cart. axis [1,1,-1]       

 cryst.   s( 7) = (     0          0         -1      )
                  (     1          0          0      )
                  (     0         -1          0      )

 cart.    s( 7) = (  0.0000000  1.0000000  0.0000000 )
                  (  0.0000000  0.0000000 -1.0000000 )
                  ( -1.0000000  0.0000000  0.0000000 )


      isym =  8     120 deg rotation - cart. axis [1,-1,1]       

 cryst.   s( 8) = (     0          0          1      )
                  (    -1          0          0      )
                  (     0         -1          0      )

 cart.    s( 8) = (  0.0000000 -1.0000000  0.0000000 )
                  (  0.0000000  0.0000000 -1.0000000 )
                  (  1.0000000  0.0000000  0.0000000 )


      isym =  9     120 deg rotation - cart. axis [1,1,1]        

 cryst.   s( 9) = (     0          1          0      )
                  (     0          0          1      )
                  (     1          0          0      )

 cart.    s( 9) = (  0.0000000  0.0000000  1.0000000 )
                  (  1.0000000  0.0000000  0.0000000 )
                  (  0.0000000  1.0000000  0.0000000 )


      isym = 10     120 deg rotation - cart. axis [-1,1,-1]      

 cryst.   s(10) = (     0         -1          0      )
                  (     0          0         -1      )
                  (     1          0          0      )

 cart.    s(10) = (  0.0000000  0.0000000  1.0000000 )
                  ( -1.0000000  0.0000000  0.0000000 )
                  (  0.0000000 -1.0000000  0.0000000 )


      isym = 11     120 deg rotation - cart. axis [1,-1,-1]      

 cryst.   s(11) = (     0         -1          0      )
                  (     0          0          1      )
                  (    -1          0          0      )

 cart.    s(11) = (  0.0000000  0.0000000 -1.0000000 )
                  ( -1.0000000  0.0000000  0.0000000 )
                  (  0.0000000  1.0000000  0.0000000 )


      isym = 12     120 deg rotation - cart. axis [-1,-1,1]      

 cryst.   s(12) = (     0          1          0      )
                  (     0          0         -1      )
                  (    -1          0          0      )

 cart.    s(12) = (  0.0000000  0.0000000 -1.0000000 )
                  (  1.0000000  0.0000000  0.0000000 )
                  (  0.0000000 -1.0000000  0.0000000 )


      isym = 13     inv. 180 deg rotation - cart. axis [1,1,0]   

 cryst.   s(13) = (     0         -1          0      )
                  (    -1          0          0      )
                  (     0          0          1      )

 cart.    s(13) = (  0.0000000 -1.0000000  0.0000000 )
                  ( -1.0000000  0.0000000  0.0000000 )
                  (  0.0000000  0.0000000  1.0000000 )


      isym = 14     inv. 180 deg rotation - cart. axis [1,-1,0]  

 cryst.   s(14) = (     0          1          0      )
                  (     1          0          0      )
                  (     0          0          1      )

 cart.    s(14) = (  0.0000000  1.0000000  0.0000000 )
                  (  1.0000000  0.0000000  0.0000000 )
                  (  0.0000000  0.0000000  1.0000000 )


      isym = 15     inv.  90 deg rotation - cart. axis [0,0,-1]  

 cryst.   s(15) = (     0          1          0      )
                  (    -1          0          0      )
                  (     0          0         -1      )

 cart.    s(15) = (  0.0000000 -1.0000000  0.0000000 )
                  (  1.0000000  0.0000000  0.0000000 )
                  (  0.0000000  0.0000000 -1.0000000 )


      isym = 16     inv.  90 deg rotation - cart. axis [0,0,1]   

 cryst.   s(16) = (     0         -1          0      )
                  (     1          0          0      )
                  (     0          0         -1      )

 cart.    s(16) = (  0.0000000  1.0000000  0.0000000 )
                  ( -1.0000000  0.0000000  0.0000000 )
                  (  0.0000000  0.0000000 -1.0000000 )


      isym = 17     inv. 180 deg rotation - cart. axis [1,0,1]   

 cryst.   s(17) = (     0          0         -1      )
                  (     0          1          0      )
                  (    -1          0          0      )

 cart.    s(17) = (  0.0000000  0.0000000 -1.0000000 )
                  (  0.0000000  1.0000000  0.0000000 )
                  ( -1.0000000  0.0000000  0.0000000 )


      isym = 18     inv. 180 deg rotation - cart. axis [-1,0,1]  

 cryst.   s(18) = (     0          0          1      )
                  (     0          1          0      )
                  (     1          0          0      )

 cart.    s(18) = (  0.0000000  0.0000000  1.0000000 )
                  (  0.0000000  1.0000000  0.0000000 )
                  (  1.0000000  0.0000000  0.0000000 )


      isym = 19     inv.  90 deg rotation - cart. axis [0,1,0]   

 cryst.   s(19) = (     0          0          1      )
                  (     0         -1          0      )
                  (    -1          0          0      )

 cart.    s(19) = (  0.0000000  0.0000000 -1.0000000 )
                  (  0.0000000 -1.0000000  0.0000000 )
                  (  1.0000000  0.0000000  0.0000000 )


      isym = 20     inv.  90 deg rotation - cart. axis [0,-1,0]  

 cryst.   s(20) = (     0          0         -1      )
                  (     0         -1          0      )
                  (     1          0          0      )

 cart.    s(20) = (  0.0000000  0.0000000  1.0000000 )
                  (  0.0000000 -1.0000000  0.0000000 )
                  ( -1.0000000  0.0000000  0.0000000 )


      isym = 21     inv. 180 deg rotation - cart. axis [0,1,1]   

 cryst.   s(21) = (     1          0          0      )
                  (     0          0         -1      )
                  (     0         -1          0      )

 cart.    s(21) = (  1.0000000  0.0000000  0.0000000 )
                  (  0.0000000  0.0000000 -1.0000000 )
                  (  0.0000000 -1.0000000  0.0000000 )


      isym = 22     inv. 180 deg rotation - cart. axis [0,1,-1]  

 cryst.   s(22) = (     1          0          0      )
                  (     0          0          1      )
                  (     0          1          0      )

 cart.    s(22) = (  1.0000000  0.0000000  0.0000000 )
                  (  0.0000000  0.0000000  1.0000000 )
                  (  0.0000000  1.0000000  0.0000000 )


      isym = 23     inv.  90 deg rotation - cart. axis [-1,0,0]  

 cryst.   s(23) = (    -1          0          0      )
                  (     0          0          1      )
                  (     0         -1          0      )

 cart.    s(23) = ( -1.0000000  0.0000000  0.0000000 )
                  (  0.0000000  0.0000000 -1.0000000 )
                  (  0.0000000  1.0000000  0.0000000 )


      isym = 24     inv.  90 deg rotation - cart. axis [1,0,0]   

 cryst.   s(24) = (    -1          0          0      )
                  (     0          0         -1      )
                  (     0          1          0      )

 cart.    s(24) = ( -1.0000000  0.0000000  0.0000000 )
                  (  0.0000000  0.0000000  1.0000000 )
                  (  0.0000000 -1.0000000  0.0000000 )


     point group T_d (-43m) 
     there are  5 classes
     the character table:

       E     8C3   3C2   6S4   6s_d 
A_1    1.00  1.00  1.00  1.00  1.00
A_2    1.00  1.00  1.00 -1.00 -1.00
E      2.00 -1.00  2.00  0.00  0.00
T_1    3.00  0.00 -1.00  1.00 -1.00
T_2    3.00  0.00 -1.00 -1.00  1.00

     the symmetry operations in each class and the name of the first element:

     E        1
          identity                                               
     8C3      5    7    8    6   12    9   10   11
          120 deg rotation - cart. axis [-1,-1,-1]               
     3C2      2    3    4
          180 deg rotation - cart. axis [0,0,1]                  
     6S4     15   16   20   19   23   24
          inv.  90 deg rotation - cart. axis [0,0,-1]            
     6s_d    13   14   17   18   21   22
          inv. 180 deg rotation - cart. axis [1,1,0]             

   Cartesian axes

     site n.     atom                  positions (alat units)
         1           Zn  tau(   1) = (   0.0000000   0.0000000   0.0000000  )
         2           Zn  tau(   2) = (   0.0000000   0.2500000   0.2500000  )
         3           Zn  tau(   3) = (   0.2500000   0.0000000   0.2500000  )
         4           Zn  tau(   4) = (   0.2500000   0.2500000   0.0000000  )
         5           S   tau(   5) = (   0.1250000   0.3750000   0.3750000  )
         6           S   tau(   6) = (   0.1250000   0.1250000   0.1250000  )
         7           S   tau(   7) = (   0.3750000   0.3750000   0.1250000  )
         8           S   tau(   8) = (   0.3750000   0.1250000   0.3750000  )
         9           Zn  tau(   9) = (   0.0000000   0.0000000   0.5000000  )
        10           Zn  tau(  10) = (   0.0000000   0.2500000   0.7500000  )
        11           Zn  tau(  11) = (   0.2500000   0.0000000   0.7500000  )
        12           Zn  tau(  12) = (   0.2500000   0.2500000   0.5000000  )
        13           S   tau(  13) = (   0.1250000   0.3750000   0.8750000  )
        14           S   tau(  14) = (   0.1250000   0.1250000   0.6250000  )
        15           S   tau(  15) = (   0.3750000   0.3750000   0.6250000  )
        16           S   tau(  16) = (   0.3750000   0.1250000   0.8750000  )
        17           Zn  tau(  17) = (   0.0000000   0.5000000   0.0000000  )
        18           Zn  tau(  18) = (   0.0000000   0.7500000   0.2500000  )
        19           Zn  tau(  19) = (   0.2500000   0.5000000   0.2500000  )
        20           Zn  tau(  20) = (   0.2500000   0.7500000   0.0000000  )
        21           S   tau(  21) = (   0.1250000   0.8750000   0.3750000  )
        22           S   tau(  22) = (   0.1250000   0.6250000   0.1250000  )
        23           S   tau(  23) = (   0.3750000   0.8750000   0.1250000  )
        24           S   tau(  24) = (   0.3750000   0.6250000   0.3750000  )
        25           Zn  tau(  25) = (   0.0000000   0.5000000   0.5000000  )
        26           Zn  tau(  26) = (   0.0000000   0.7500000   0.7500000  )
        27           Zn  tau(  27) = (   0.2500000   0.5000000   0.7500000  )
        28           Zn  tau(  28) = (   0.2500000   0.7500000   0.5000000  )
        29           S   tau(  29) = (   0.1250000   0.8750000   0.8750000  )
        30           S   tau(  30) = (   0.1250000   0.6250000   0.6250000  )
        31           S   tau(  31) = (   0.3750000   0.8750000   0.6250000  )
        32           S   tau(  32) = (   0.3750000   0.6250000   0.8750000  )
        33           Zn  tau(  33) = (   0.5000000   0.0000000   0.0000000  )
        34           Zn  tau(  34) = (   0.5000000   0.2500000   0.2500000  )
        35           Zn  tau(  35) = (   0.7500000   0.0000000   0.2500000  )
        36           Zn  tau(  36) = (   0.7500000   0.2500000   0.0000000  )
        37           S   tau(  37) = (   0.6250000   0.3750000   0.3750000  )
        38           S   tau(  38) = (   0.6250000   0.1250000   0.1250000  )
        39           S   tau(  39) = (   0.8750000   0.3750000   0.1250000  )
        40           S   tau(  40) = (   0.8750000   0.1250000   0.3750000  )
        41           Zn  tau(  41) = (   0.5000000   0.0000000   0.5000000  )
        42           Zn  tau(  42) = (   0.5000000   0.2500000   0.7500000  )
        43           Zn  tau(  43) = (   0.7500000   0.0000000   0.7500000  )
        44           Zn  tau(  44) = (   0.7500000   0.2500000   0.5000000  )
        45           S   tau(  45) = (   0.6250000   0.3750000   0.8750000  )
        46           S   tau(  46) = (   0.6250000   0.1250000   0.6250000  )
        47           S   tau(  47) = (   0.8750000   0.3750000   0.6250000  )
        48           S   tau(  48) = (   0.8750000   0.1250000   0.8750000  )
        49           Zn  tau(  49) = (   0.5000000   0.5000000   0.0000000  )
        50           Zn  tau(  50) = (   0.5000000   0.7500000   0.2500000  )
        51           Zn  tau(  51) = (   0.7500000   0.5000000   0.2500000  )
        52           Zn  tau(  52) = (   0.7500000   0.7500000   0.0000000  )
        53           S   tau(  53) = (   0.6250000   0.8750000   0.3750000  )
        54           S   tau(  54) = (   0.6250000   0.6250000   0.1250000  )
        55           S   tau(  55) = (   0.8750000   0.8750000   0.1250000  )
        56           S   tau(  56) = (   0.8750000   0.6250000   0.3750000  )
        57           Zn  tau(  57) = (   0.5000000   0.5000000   0.5000000  )
        58           Zn  tau(  58) = (   0.5000000   0.7500000   0.7500000  )
        59           Zn  tau(  59) = (   0.7500000   0.5000000   0.7500000  )
        60           Zn  tau(  60) = (   0.7500000   0.7500000   0.5000000  )
        61           S   tau(  61) = (   0.6250000   0.8750000   0.8750000  )
        62           S   tau(  62) = (   0.6250000   0.6250000   0.6250000  )
        63           S   tau(  63) = (   0.8750000   0.8750000   0.6250000  )
        64           S   tau(  64) = (   0.8750000   0.6250000   0.8750000  )

   Crystallographic axes

     site n.     atom                  positions (cryst. coord.)
         1           Zn  tau(   1) = (  0.0000000  0.0000000  0.0000000  )
         2           Zn  tau(   2) = (  0.0000000  0.2500000  0.2500000  )
         3           Zn  tau(   3) = (  0.2500000  0.0000000  0.2500000  )
         4           Zn  tau(   4) = (  0.2500000  0.2500000  0.0000000  )
         5           S   tau(   5) = (  0.1250000  0.3750000  0.3750000  )
         6           S   tau(   6) = (  0.1250000  0.1250000  0.1250000  )
         7           S   tau(   7) = (  0.3750000  0.3750000  0.1250000  )
         8           S   tau(   8) = (  0.3750000  0.1250000  0.3750000  )
         9           Zn  tau(   9) = (  0.0000000  0.0000000  0.5000000  )
        10           Zn  tau(  10) = (  0.0000000  0.2500000  0.7500000  )
        11           Zn  tau(  11) = (  0.2500000  0.0000000  0.7500000  )
        12           Zn  tau(  12) = (  0.2500000  0.2500000  0.5000000  )
        13           S   tau(  13) = (  0.1250000  0.3750000  0.8750000  )
        14           S   tau(  14) = (  0.1250000  0.1250000  0.6250000  )
        15           S   tau(  15) = (  0.3750000  0.3750000  0.6250000  )
        16           S   tau(  16) = (  0.3750000  0.1250000  0.8750000  )
        17           Zn  tau(  17) = (  0.0000000  0.5000000  0.0000000  )
        18           Zn  tau(  18) = (  0.0000000  0.7500000  0.2500000  )
        19           Zn  tau(  19) = (  0.2500000  0.5000000  0.2500000  )
        20           Zn  tau(  20) = (  0.2500000  0.7500000  0.0000000  )
        21           S   tau(  21) = (  0.1250000  0.8750000  0.3750000  )
        22           S   tau(  22) = (  0.1250000  0.6250000  0.1250000  )
        23           S   tau(  23) = (  0.3750000  0.8750000  0.1250000  )
        24           S   tau(  24) = (  0.3750000  0.6250000  0.3750000  )
        25           Zn  tau(  25) = (  0.0000000  0.5000000  0.5000000  )
        26           Zn  tau(  26) = (  0.0000000  0.7500000  0.7500000  )
        27           Zn  tau(  27) = (  0.2500000  0.5000000  0.7500000  )
        28           Zn  tau(  28) = (  0.2500000  0.7500000  0.5000000  )
        29           S   tau(  29) = (  0.1250000  0.8750000  0.8750000  )
        30           S   tau(  30) = (  0.1250000  0.6250000  0.6250000  )
        31           S   tau(  31) = (  0.3750000  0.8750000  0.6250000  )
        32           S   tau(  32) = (  0.3750000  0.6250000  0.8750000  )
        33           Zn  tau(  33) = (  0.5000000  0.0000000  0.0000000  )
        34           Zn  tau(  34) = (  0.5000000  0.2500000  0.2500000  )
        35           Zn  tau(  35) = (  0.7500000  0.0000000  0.2500000  )
        36           Zn  tau(  36) = (  0.7500000  0.2500000  0.0000000  )
        37           S   tau(  37) = (  0.6250000  0.3750000  0.3750000  )
        38           S   tau(  38) = (  0.6250000  0.1250000  0.1250000  )
        39           S   tau(  39) = (  0.8750000  0.3750000  0.1250000  )
        40           S   tau(  40) = (  0.8750000  0.1250000  0.3750000  )
        41           Zn  tau(  41) = (  0.5000000  0.0000000  0.5000000  )
        42           Zn  tau(  42) = (  0.5000000  0.2500000  0.7500000  )
        43           Zn  tau(  43) = (  0.7500000  0.0000000  0.7500000  )
        44           Zn  tau(  44) = (  0.7500000  0.2500000  0.5000000  )
        45           S   tau(  45) = (  0.6250000  0.3750000  0.8750000  )
        46           S   tau(  46) = (  0.6250000  0.1250000  0.6250000  )
        47           S   tau(  47) = (  0.8750000  0.3750000  0.6250000  )
        48           S   tau(  48) = (  0.8750000  0.1250000  0.8750000  )
        49           Zn  tau(  49) = (  0.5000000  0.5000000  0.0000000  )
        50           Zn  tau(  50) = (  0.5000000  0.7500000  0.2500000  )
        51           Zn  tau(  51) = (  0.7500000  0.5000000  0.2500000  )
        52           Zn  tau(  52) = (  0.7500000  0.7500000  0.0000000  )
        53           S   tau(  53) = (  0.6250000  0.8750000  0.3750000  )
        54           S   tau(  54) = (  0.6250000  0.6250000  0.1250000  )
        55           S   tau(  55) = (  0.8750000  0.8750000  0.1250000  )
        56           S   tau(  56) = (  0.8750000  0.6250000  0.3750000  )
        57           Zn  tau(  57) = (  0.5000000  0.5000000  0.5000000  )
        58           Zn  tau(  58) = (  0.5000000  0.7500000  0.7500000  )
        59           Zn  tau(  59) = (  0.7500000  0.5000000  0.7500000  )
        60           Zn  tau(  60) = (  0.7500000  0.7500000  0.5000000  )
        61           S   tau(  61) = (  0.6250000  0.8750000  0.8750000  )
        62           S   tau(  62) = (  0.6250000  0.6250000  0.6250000  )
        63           S   tau(  63) = (  0.8750000  0.8750000  0.6250000  )
        64           S   tau(  64) = (  0.8750000  0.6250000  0.8750000  )

     number of k points=    10 (tetrahedron method)
                       cart. coord. in units 2pi/alat
        k(    1) = (   0.0000000   0.0000000   0.0000000), wk =   0.0312500
        k(    2) = (   0.0000000   0.0000000   0.2500000), wk =   0.1875000
        k(    3) = (   0.0000000   0.0000000  -0.5000000), wk =   0.0937500
        k(    4) = (   0.0000000   0.2500000   0.2500000), wk =   0.3750000
        k(    5) = (   0.0000000   0.2500000  -0.5000000), wk =   0.3750000
        k(    6) = (   0.0000000  -0.5000000  -0.5000000), wk =   0.0937500
        k(    7) = (   0.2500000   0.2500000   0.2500000), wk =   0.2500000
        k(    8) = (   0.2500000   0.2500000  -0.5000000), wk =   0.3750000
        k(    9) = (   0.2500000  -0.5000000  -0.5000000), wk =   0.1875000
        k(   10) = (  -0.5000000  -0.5000000  -0.5000000), wk =   0.0312500

                       cryst. coord.
        k(    1) = (   0.0000000   0.0000000   0.0000000), wk =   0.0312500
        k(    2) = (   0.0000000   0.0000000   0.2500000), wk =   0.1875000
        k(    3) = (   0.0000000   0.0000000  -0.5000000), wk =   0.0937500
        k(    4) = (   0.0000000   0.2500000   0.2500000), wk =   0.3750000
        k(    5) = (   0.0000000   0.2500000  -0.5000000), wk =   0.3750000
        k(    6) = (   0.0000000  -0.5000000  -0.5000000), wk =   0.0937500
        k(    7) = (   0.2500000   0.2500000   0.2500000), wk =   0.2500000
        k(    8) = (   0.2500000   0.2500000  -0.5000000), wk =   0.3750000
        k(    9) = (   0.2500000  -0.5000000  -0.5000000), wk =   0.1875000
        k(   10) = (  -0.5000000  -0.5000000  -0.5000000), wk =   0.0312500

     Dense  grid:  1264415 G-vectors     FFT dimensions: ( 135, 135, 135)

     Dynamical RAM for                 wfc:       7.43 MB

     Dynamical RAM for     wfc (w. buffer):       7.43 MB

     Dynamical RAM for             U proj.:       5.51 MB

     Dynamical RAM for  U proj. (w. buff.):       5.51 MB

     Dynamical RAM for           str. fact:       0.34 MB

     Dynamical RAM for           local pot:       0.00 MB

     Dynamical RAM for          nlocal pot:      24.80 MB

     Dynamical RAM for                qrad:       3.29 MB

     Dynamical RAM for          rho,v,vnew:       1.35 MB

     Dynamical RAM for           G-vectors:       0.73 MB

     Dynamical RAM for          h,s,v(r/c):       2.42 MB

     Dynamical RAM for          <psi|beta>:       6.06 MB

     Dynamical RAM for                 psi:      14.86 MB

     Dynamical RAM for                hpsi:      14.86 MB

     Dynamical RAM for                spsi:      14.86 MB

     Dynamical RAM for      wfcinit/wfcrot:      17.58 MB

     Dynamical RAM for           addusdens:       3.91 MB

     Estimated static dynamical RAM per process >      45.37 MB

     Estimated max dynamical RAM per process >      98.42 MB

     Estimated total dynamical RAM >     107.65 GB

     The potential is recalculated from file :
     ./out/ZnS_hub.save/charge-density


     HUBBARD ENERGY =    5.9918  (Ry)

     STARTING HUBBARD OCCUPATIONS:

     =================== HUBBARD OCCUPATIONS ===================
     ------------------------ ATOM    1 ------------------------
     Tr[ns(  1)] =   9.95810
     eigenvalues:
       0.995  0.995  0.995  0.997  0.997
     eigenvectors (columns):
      -0.000 -0.000  0.000 -0.092 -0.996
      -0.326  0.077  0.942  0.000  0.000
      -0.594  0.759 -0.268  0.000  0.000
       0.000  0.000 -0.000  0.996 -0.092
       0.736  0.647  0.201 -0.000 -0.000
     occupation matrix ns (before diag.):
       0.997 -0.000 -0.000  0.000  0.000
      -0.000  0.995 -0.000  0.000  0.000
      -0.000 -0.000  0.995  0.000  0.000
       0.000  0.000  0.000  0.997 -0.000
       0.000  0.000  0.000 -0.000  0.995
     ------------------------ ATOM    2 ------------------------
     Tr[ns(  2)] =   9.95810
     eigenvalues:
       0.995  0.995  0.995  0.997  0.997
     eigenvectors (columns):
      -0.000  0.000  0.000 -0.500  0.866
       0.568 -0.707 -0.421 -0.000  0.000
      -0.596  0.000 -0.803 -0.000  0.000
       0.000  0.000 -0.000  0.866  0.500
      -0.568 -0.707  0.421  0.000  0.000
     occupation matrix ns (before diag.):
       0.997  0.000  0.000  0.000  0.000
       0.000  0.995  0.000 -0.000  0.000
       0.000  0.000  0.995 -0.000 -0.000
       0.000 -0.000 -0.000  0.997  0.000
       0.000  0.000 -0.000  0.000  0.995
     ------------------------ ATOM    3 ------------------------
     Tr[ns(  3)] =   9.95810
     eigenvalues:
       0.995  0.995  0.995  0.997  0.997
     eigenvectors (columns):
      -0.000  0.000  0.000 -0.500  0.866
      -0.596  0.000 -0.803 -0.000 -0.000
       0.568 -0.707 -0.421 -0.000  0.000
      -0.000 -0.000  0.000 -0.866 -0.500
      -0.568 -0.707  0.421  0.000  0.000
     occupation matrix ns (before diag.):
       0.997  0.000  0.000 -0.000  0.000
       0.000  0.995  0.000  0.000 -0.000
       0.000  0.000  0.995  0.000  0.000
      -0.000  0.000  0.000  0.997 -0.000
       0.000 -0.000  0.000 -0.000  0.995
     ------------------------ ATOM    4 ------------------------
     Tr[ns(  4)] =   9.95810
     eigenvalues:
       0.995  0.995  0.995  0.997  0.997
     eigenvectors (columns):
      -0.000 -0.000 -0.000  1.000 -0.000
      -0.568  0.707 -0.421 -0.000 -0.000
      -0.568 -0.707 -0.421 -0.000  0.000
      -0.000 -0.000  0.000 -0.000 -1.000
      -0.596  0.000  0.803  0.000  0.000
     occupation matrix ns (before diag.):
       0.997 -0.000 -0.000  0.000  0.000
      -0.000  0.995 -0.000  0.000 -0.000
      -0.000 -0.000  0.995 -0.000 -0.000
       0.000  0.000 -0.000  0.997 -0.000
       0.000 -0.000 -0.000 -0.000  0.995
     ------------------------ ATOM    5 ------------------------
     Tr[ns(  5)] =   4.69877
     eigenvalues:
       0.783  0.783  0.783
     eigenvectors (columns):
      -0.707  0.352 -0.614
      -0.000  0.868  0.497
      -0.707 -0.352  0.614
     occupation matrix ns (before diag.):
       0.783 -0.000 -0.000
      -0.000  0.783  0.000
      -0.000  0.000  0.783
     ------------------------ ATOM    6 ------------------------
     Tr[ns(  6)] =   4.69877
     eigenvalues:
       0.783  0.783  0.783
     eigenvectors (columns):
      -0.577 -0.675  0.460
       0.577 -0.736 -0.354
       0.577  0.061  0.814
     occupation matrix ns (before diag.):
       0.783  0.000  0.000
       0.000  0.783 -0.000
       0.000 -0.000  0.783
     ------------------------ ATOM    7 ------------------------
     Tr[ns(  7)] =   4.69877
     eigenvalues:
       0.783  0.783  0.783
     eigenvectors (columns):
       0.000  0.868 -0.497
       0.707  0.352  0.614
      -0.707  0.352  0.614
     occupation matrix ns (before diag.):
       0.783 -0.000 -0.000
      -0.000  0.783  0.000
      -0.000  0.000  0.783
     ------------------------ ATOM    8 ------------------------
     Tr[ns(  8)] =   4.69877
     eigenvalues:
       0.783  0.783  0.783
     eigenvectors (columns):
       0.707 -0.352 -0.614
       0.707  0.352  0.614
       0.000 -0.868  0.497
     occupation matrix ns (before diag.):
       0.783 -0.000 -0.000
      -0.000  0.783  0.000
      -0.000  0.000  0.783
     ------------------------ ATOM    9 ------------------------
     Tr[ns(  9)] =   9.95810
     eigenvalues:
       0.995  0.995  0.995  0.997  0.997
     eigenvectors (columns):
       0.000 -0.000  0.000 -1.000  0.000
       0.412 -0.911 -0.000  0.000  0.000
       0.911  0.412 -0.000  0.000  0.000
      -0.000  0.000 -0.000  0.000  1.000
      -0.000  0.000 -1.000 -0.000 -0.000
     occupation matrix ns (before diag.):
       0.997 -0.000 -0.000  0.000  0.000
      -0.000  0.995 -0.000  0.000  0.000
      -0.000 -0.000  0.995  0.000  0.000
       0.000  0.000  0.000  0.997 -0.000
       0.000  0.000  0.000 -0.000  0.995
     ------------------------ ATOM   10 ------------------------
     Tr[ns( 10)] =   9.95810
     eigenvalues:
       0.995  0.995  0.995  0.997  0.997
     eigenvectors (columns):
      -0.000  0.000  0.000 -0.500  0.866
       0.568 -0.707 -0.421 -0.000  0.000
       0.596 -0.000  0.803  0.000 -0.000
       0.000  0.000 -0.000  0.866  0.500
       0.568  0.707 -0.421 -0.000 -0.000
     occupation matrix ns (before diag.):
       0.997  0.000 -0.000  0.000 -0.000
       0.000  0.995 -0.000 -0.000 -0.000
      -0.000 -0.000  0.995  0.000 -0.000
       0.000 -0.000  0.000  0.997 -0.000
      -0.000 -0.000 -0.000 -0.000  0.995
     ------------------------ ATOM   11 ------------------------
     Tr[ns( 11)] =   9.95810
     eigenvalues:
       0.995  0.995  0.995  0.997  0.997
     eigenvectors (columns):
      -0.000 -0.000 -0.000 -0.500  0.866
       0.596  0.000 -0.803  0.000 -0.000
       0.568  0.707  0.421 -0.000  0.000
      -0.000  0.000 -0.000 -0.866 -0.500
       0.568 -0.707  0.421 -0.000 -0.000
     occupation matrix ns (before diag.):
       0.997 -0.000  0.000 -0.000 -0.000
      -0.000  0.995 -0.000 -0.000 -0.000
       0.000 -0.000  0.995  0.000 -0.000
      -0.000 -0.000  0.000  0.997  0.000
      -0.000 -0.000 -0.000  0.000  0.995
     ------------------------ ATOM   12 ------------------------
     Tr[ns( 12)] =   9.95810
     eigenvalues:
       0.995  0.995  0.995  0.997  0.997
     eigenvectors (columns):
       0.000 -0.000 -0.000  0.000  1.000
      -0.707  0.033 -0.706  0.000 -0.000
       0.707  0.033 -0.706 -0.000 -0.000
      -0.000  0.000  0.000 -1.000  0.000
      -0.000  0.999  0.046  0.000  0.000
     occupation matrix ns (before diag.):
       0.997 -0.000 -0.000  0.000  0.000
      -0.000  0.995  0.000 -0.000 -0.000
      -0.000  0.000  0.995  0.000 -0.000
       0.000 -0.000  0.000  0.997 -0.000
       0.000 -0.000 -0.000 -0.000  0.995
     ------------------------ ATOM   13 ------------------------
     Tr[ns( 13)] =   4.69877
     eigenvalues:
       0.783  0.783  0.783
     eigenvectors (columns):
       0.593 -0.385  0.707
       0.593 -0.385 -0.707
       0.545  0.838  0.000
     occupation matrix ns (before diag.):
       0.783 -0.000 -0.000
      -0.000  0.783 -0.000
      -0.000 -0.000  0.783
     ------------------------ ATOM   14 ------------------------
     Tr[ns( 14)] =   4.69877
     eigenvalues:
       0.783  0.783  0.783
     eigenvectors (columns):
      -0.545  0.838  0.000
      -0.593 -0.385 -0.707
      -0.593 -0.385  0.707
     occupation matrix ns (before diag.):
       0.783 -0.000 -0.000
      -0.000  0.783 -0.000
      -0.000 -0.000  0.783
     ------------------------ ATOM   15 ------------------------
     Tr[ns( 15)] =   4.69877
     eigenvalues:
       0.783  0.783  0.783
     eigenvectors (columns):
       0.408  0.707  0.577
       0.408 -0.707  0.577
      -0.816  0.000  0.577
     occupation matrix ns (before diag.):
       0.783  0.000  0.000
       0.000  0.783  0.000
       0.000  0.000  0.783
     ------------------------ ATOM   16 ------------------------
     Tr[ns( 16)] =   4.69877
     eigenvalues:
       0.783  0.783  0.783
     eigenvectors (columns):
       0.593  0.385  0.707
       0.545 -0.838 -0.000
       0.593  0.385 -0.707
     occupation matrix ns (before diag.):
       0.783 -0.000 -0.000
      -0.000  0.783 -0.000
      -0.000 -0.000  0.783
     ------------------------ ATOM   17 ------------------------
     Tr[ns( 17)] =   9.95810
     eigenvalues:
       0.995  0.995  0.995  0.997  0.997
     eigenvectors (columns):
      -0.000 -0.000  0.000 -0.500  0.866
      -0.000  0.000  1.000 -0.000 -0.000
      -0.662  0.750 -0.000 -0.000 -0.000
       0.000  0.000 -0.000 -0.866 -0.500
       0.750  0.662  0.000  0.000  0.000
     occupation matrix ns (before diag.):
       0.997 -0.000 -0.000 -0.000  0.000
      -0.000  0.995 -0.000  0.000  0.000
      -0.000 -0.000  0.995  0.000  0.000
      -0.000  0.000  0.000  0.997 -0.000
       0.000  0.000  0.000 -0.000  0.995
     ------------------------ ATOM   18 ------------------------
     Tr[ns( 18)] =   9.95810
     eigenvalues:
       0.995  0.995  0.995  0.997  0.997
     eigenvectors (columns):
      -0.000 -0.000 -0.000 -0.500  0.866
      -0.568 -0.707 -0.421  0.000 -0.000
       0.596 -0.000 -0.803  0.000 -0.000
       0.000 -0.000  0.000  0.866  0.500
      -0.568  0.707 -0.421  0.000  0.000
     occupation matrix ns (before diag.):
       0.997 -0.000 -0.000  0.000  0.000
      -0.000  0.995  0.000  0.000 -0.000
      -0.000  0.000  0.995  0.000  0.000
       0.000  0.000  0.000  0.997  0.000
       0.000 -0.000  0.000  0.000  0.995
     ------------------------ ATOM   19 ------------------------
     Tr[ns( 19)] =   9.95810
     eigenvalues:
       0.995  0.995  0.995  0.997  0.997
     eigenvectors (columns):
      -0.000  0.000  0.000 -0.866 -0.500
       0.000 -0.999 -0.046  0.000 -0.000
      -0.707  0.033 -0.706  0.000 -0.000
       0.000  0.000  0.000  0.500 -0.866
      -0.707 -0.033  0.706  0.000  0.000
     occupation matrix ns (before diag.):
       0.997  0.000  0.000  0.000 -0.000
       0.000  0.995  0.000  0.000 -0.000
       0.000  0.000  0.995  0.000 -0.000
       0.000  0.000  0.000  0.997 -0.000
      -0.000 -0.000 -0.000 -0.000  0.995
     ------------------------ ATOM   20 ------------------------
     Tr[ns( 20)] =   9.95810
     eigenvalues:
       0.995  0.995  0.995  0.997  0.997
     eigenvectors (columns):
      -0.000 -0.000 -0.000  1.000  0.000
       0.568  0.707  0.421  0.000 -0.000
      -0.568  0.707 -0.421 -0.000 -0.000
       0.000  0.000 -0.000 -0.000  1.000
       0.596 -0.000 -0.803 -0.000 -0.000
     occupation matrix ns (before diag.):
       0.997  0.000 -0.000  0.000 -0.000
       0.000  0.995  0.000 -0.000 -0.000
      -0.000  0.000  0.995 -0.000  0.000
       0.000 -0.000 -0.000  0.997 -0.000
      -0.000 -0.000  0.000 -0.000  0.995
     ------------------------ ATOM   21 ------------------------
     Tr[ns( 21)] =   4.69877
     eigenvalues:
       0.783  0.783  0.783
     eigenvectors (columns):
      -0.545  0.838  0.000
       0.593  0.385 -0.707
      -0.593 -0.385 -0.707
     occupation matrix ns (before diag.):
       0.783  0.000 -0.000
       0.000  0.783  0.000
      -0.000  0.000  0.783
     ------------------------ ATOM   22 ------------------------
     Tr[ns( 22)] =   4.69877
     eigenvalues:
       0.783  0.783  0.783
     eigenvectors (columns):
      -0.593 -0.385 -0.707
       0.593  0.385 -0.707
      -0.545  0.838  0.000
     occupation matrix ns (before diag.):
       0.783  0.000 -0.000
       0.000  0.783  0.000
      -0.000  0.000  0.783
     ------------------------ ATOM   23 ------------------------
     Tr[ns( 23)] =   4.69877
     eigenvalues:
       0.783  0.783  0.783
     eigenvectors (columns):
       0.593  0.385 -0.707
      -0.545  0.838 -0.000
       0.593  0.385  0.707
     occupation matrix ns (before diag.):
       0.783  0.000 -0.000
       0.000  0.783  0.000
      -0.000  0.000  0.783
     ------------------------ ATOM   24 ------------------------
     Tr[ns( 24)] =   4.69877
     eigenvalues:
       0.783  0.783  0.783
     eigenvectors (columns):
       0.425 -0.697  0.577
       0.816  0.019 -0.577
       0.391  0.717  0.577
     occupation matrix ns (before diag.):
       0.783 -0.000  0.000
      -0.000  0.783 -0.000
       0.000 -0.000  0.783
     ------------------------ ATOM   25 ------------------------
     Tr[ns( 25)] =   9.95810
     eigenvalues:
       0.995  0.995  0.995  0.997  0.997
     eigenvectors (columns):
       0.000 -0.000 -0.000 -0.866  0.500
       0.000 -0.375 -0.927  0.000 -0.000
       1.000  0.000  0.000  0.000 -0.000
      -0.000  0.000  0.000 -0.500 -0.866
      -0.000  0.927 -0.375  0.000  0.000
     occupation matrix ns (before diag.):
       0.997 -0.000 -0.000 -0.000  0.000
      -0.000  0.995 -0.000  0.000  0.000
      -0.000 -0.000  0.995  0.000  0.000
      -0.000  0.000  0.000  0.997 -0.000
       0.000  0.000  0.000 -0.000  0.995
     ------------------------ ATOM   26 ------------------------
     Tr[ns( 26)] =   9.95810
     eigenvalues:
       0.995  0.995  0.995  0.997  0.997
     eigenvectors (columns):
      -0.000 -0.000 -0.000 -0.500  0.866
      -0.568 -0.707 -0.421  0.000 -0.000
      -0.596 -0.000  0.803 -0.000  0.000
       0.000 -0.000  0.000  0.866  0.500
       0.568 -0.707  0.421 -0.000 -0.000
     occupation matrix ns (before diag.):
       0.997 -0.000  0.000  0.000 -0.000
      -0.000  0.995 -0.000  0.000  0.000
       0.000 -0.000  0.995 -0.000  0.000
       0.000  0.000 -0.000  0.997 -0.000
      -0.000  0.000  0.000 -0.000  0.995
     ------------------------ ATOM   27 ------------------------
     Tr[ns( 27)] =   9.95810
     eigenvalues:
       0.995  0.995  0.995  0.997  0.997
     eigenvectors (columns):
      -0.000 -0.000 -0.000 -0.866 -0.500
      -0.000 -0.999 -0.046  0.000  0.000
      -0.707 -0.033  0.706  0.000 -0.000
       0.000 -0.000 -0.000  0.500 -0.866
       0.707 -0.033  0.706 -0.000 -0.000
     occupation matrix ns (before diag.):
       0.997 -0.000  0.000  0.000  0.000
      -0.000  0.995 -0.000 -0.000 -0.000
       0.000 -0.000  0.995  0.000  0.000
       0.000 -0.000  0.000  0.997  0.000
       0.000 -0.000  0.000  0.000  0.995
     ------------------------ ATOM   28 ------------------------
     Tr[ns( 28)] =   9.95810
     eigenvalues:
       0.995  0.995  0.995  0.997  0.997
     eigenvectors (columns):
      -0.000  0.000  0.000 -0.000  1.000
      -0.707  0.033 -0.706  0.000  0.000
      -0.707 -0.033  0.706  0.000 -0.000
       0.000  0.000  0.000  1.000  0.000
       0.000  0.999  0.046 -0.000 -0.000
     occupation matrix ns (before diag.):
       0.997  0.000 -0.000  0.000 -0.000
       0.000  0.995 -0.000  0.000 -0.000
      -0.000 -0.000  0.995  0.000  0.000
       0.000  0.000  0.000  0.997 -0.000
      -0.000 -0.000  0.000 -0.000  0.995
     ------------------------ ATOM   29 ------------------------
     Tr[ns( 29)] =   4.69877
     eigenvalues:
       0.783  0.783  0.783
     eigenvectors (columns):
       0.577  0.215 -0.788
       0.577  0.575  0.580
      -0.577  0.790 -0.208
     occupation matrix ns (before diag.):
       0.783 -0.000  0.000
      -0.000  0.783  0.000
       0.000  0.000  0.783
     ------------------------ ATOM   30 ------------------------
     Tr[ns( 30)] =   4.69877
     eigenvalues:
       0.783  0.783  0.783
     eigenvectors (columns):
       0.707  0.352 -0.614
       0.000 -0.868 -0.497
       0.707 -0.352  0.614
     occupation matrix ns (before diag.):
       0.783  0.000 -0.000
       0.000  0.783 -0.000
      -0.000 -0.000  0.783
     ------------------------ ATOM   31 ------------------------
     Tr[ns( 31)] =   4.69877
     eigenvalues:
       0.783  0.783  0.783
     eigenvectors (columns):
       0.707  0.352 -0.614
      -0.707  0.352 -0.614
      -0.000  0.868  0.497
     occupation matrix ns (before diag.):
       0.783  0.000 -0.000
       0.000  0.783 -0.000
      -0.000 -0.000  0.783
     ------------------------ ATOM   32 ------------------------
     Tr[ns( 32)] =   4.69877
     eigenvalues:
       0.783  0.783  0.783
     eigenvectors (columns):
       0.000  0.868 -0.497
       0.707 -0.352 -0.614
       0.707  0.352  0.614
     occupation matrix ns (before diag.):
       0.783  0.000 -0.000
       0.000  0.783 -0.000
      -0.000 -0.000  0.783
     ------------------------ ATOM   33 ------------------------
     Tr[ns( 33)] =   9.95810
     eigenvalues:
       0.995  0.995  0.995  0.997  0.997
     eigenvectors (columns):
      -0.000 -0.000 -0.000  0.500 -0.866
      -0.359 -0.933  0.000 -0.000  0.000
      -0.000 -0.000 -1.000 -0.000  0.000
       0.000  0.000  0.000 -0.866 -0.500
       0.933 -0.359 -0.000  0.000  0.000
     occupation matrix ns (before diag.):
       0.997 -0.000 -0.000  0.000  0.000
      -0.000  0.995 -0.000  0.000  0.000
      -0.000 -0.000  0.995  0.000  0.000
       0.000  0.000  0.000  0.997 -0.000
       0.000  0.000  0.000 -0.000  0.995
     ------------------------ ATOM   34 ------------------------
     Tr[ns( 34)] =   9.95810
     eigenvalues:
       0.995  0.995  0.995  0.997  0.997
     eigenvectors (columns):
      -0.000 -0.000 -0.000  0.866  0.500
      -0.707 -0.033  0.706 -0.000  0.000
       0.000  0.999  0.046 -0.000  0.000
      -0.000  0.000  0.000  0.500 -0.866
      -0.707  0.033 -0.706 -0.000 -0.000
     occupation matrix ns (before diag.):
       0.997  0.000  0.000 -0.000 -0.000
       0.000  0.995  0.000 -0.000 -0.000
       0.000  0.000  0.995 -0.000 -0.000
      -0.000 -0.000 -0.000  0.997  0.000
      -0.000 -0.000 -0.000  0.000  0.995
     ------------------------ ATOM   35 ------------------------
     Tr[ns( 35)] =   9.95810
     eigenvalues:
       0.995  0.995  0.995  0.997  0.997
     eigenvectors (columns):
      -0.000 -0.000 -0.000 -0.500  0.866
       0.596 -0.000 -0.803  0.000 -0.000
      -0.568 -0.707 -0.421  0.000 -0.000
      -0.000  0.000 -0.000 -0.866 -0.500
      -0.568  0.707 -0.421  0.000  0.000
     occupation matrix ns (before diag.):
       0.997 -0.000 -0.000 -0.000  0.000
      -0.000  0.995  0.000 -0.000  0.000
      -0.000  0.000  0.995 -0.000 -0.000
      -0.000 -0.000 -0.000  0.997 -0.000
       0.000  0.000 -0.000 -0.000  0.995
     ------------------------ ATOM   36 ------------------------
     Tr[ns( 36)] =   9.95810
     eigenvalues:
       0.995  0.995  0.995  0.997  0.997
     eigenvectors (columns):
       0.000  0.000  0.000  1.000  0.000
       0.568 -0.707  0.421 -0.000  0.000
      -0.568 -0.707 -0.421  0.000  0.000
      -0.000  0.000 -0.000 -0.000  1.000
      -0.596  0.000  0.803 -0.000 -0.000
     occupation matrix ns (before diag.):
       0.997 -0.000  0.000  0.000 -0.000
      -0.000  0.995  0.000  0.000  0.000
       0.000  0.000  0.995  0.000 -0.000
       0.000  0.000  0.000  0.997 -0.000
      -0.000  0.000 -0.000 -0.000  0.995
     ------------------------ ATOM   37 ------------------------
     Tr[ns( 37)] =   4.69877
     eigenvalues:
       0.783  0.783  0.783
     eigenvectors (columns):
       0.323  0.750 -0.577
       0.488 -0.655 -0.577
       0.811  0.095  0.577
     occupation matrix ns (before diag.):
       0.783  0.000 -0.000
       0.000  0.783 -0.000
      -0.000 -0.000  0.783
     ------------------------ ATOM   38 ------------------------
     Tr[ns( 38)] =   4.69877
     eigenvalues:
       0.783  0.783  0.783
     eigenvectors (columns):
       0.593  0.385 -0.707
       0.545 -0.838  0.000
      -0.593 -0.385 -0.707
     occupation matrix ns (before diag.):
       0.783 -0.000  0.000
      -0.000  0.783  0.000
       0.000  0.000  0.783
     ------------------------ ATOM   39 ------------------------
     Tr[ns( 39)] =   4.69877
     eigenvalues:
       0.783  0.783  0.783
     eigenvectors (columns):
       0.593  0.385 -0.707
       0.593  0.385  0.707
      -0.545  0.838 -0.000
     occupation matrix ns (before diag.):
       0.783 -0.000  0.000
      -0.000  0.783  0.000
       0.000  0.000  0.783
     ------------------------ ATOM   40 ------------------------
     Tr[ns( 40)] =   4.69877
     eigenvalues:
       0.783  0.783  0.783
     eigenvectors (columns):
      -0.545  0.838 -0.000
      -0.593 -0.385  0.707
       0.593  0.385  0.707
     occupation matrix ns (before diag.):
       0.783 -0.000  0.000
      -0.000  0.783  0.000
       0.000  0.000  0.783
     ------------------------ ATOM   41 ------------------------
     Tr[ns( 41)] =   9.95810
     eigenvalues:
       0.995  0.995  0.995  0.997  0.997
     eigenvectors (columns):
      -0.000 -0.000 -0.000  0.866 -0.500
      -1.000  0.000 -0.000 -0.000 -0.000
      -0.000 -0.651  0.759 -0.000 -0.000
       0.000  0.000  0.000 -0.500 -0.866
       0.000  0.759  0.651  0.000  0.000
     occupation matrix ns (before diag.):
       0.997 -0.000 -0.000  0.000  0.000
      -0.000  0.995 -0.000  0.000  0.000
      -0.000 -0.000  0.995  0.000  0.000
       0.000  0.000  0.000  0.997 -0.000
       0.000  0.000  0.000 -0.000  0.995
     ------------------------ ATOM   42 ------------------------
     Tr[ns( 42)] =   9.95810
     eigenvalues:
       0.995  0.995  0.995  0.997  0.997
     eigenvectors (columns):
      -0.000  0.000  0.000  0.866  0.500
      -0.707  0.033 -0.706 -0.000  0.000
      -0.000  0.999  0.046 -0.000 -0.000
      -0.000 -0.000 -0.000  0.500 -0.866
       0.707  0.033 -0.706  0.000  0.000
     occupation matrix ns (before diag.):
       0.997  0.000 -0.000 -0.000  0.000
       0.000  0.995 -0.000 -0.000  0.000
      -0.000 -0.000  0.995  0.000 -0.000
      -0.000 -0.000  0.000  0.997 -0.000
       0.000  0.000 -0.000 -0.000  0.995
     ------------------------ ATOM   43 ------------------------
     Tr[ns( 43)] =   9.95810
     eigenvalues:
       0.995  0.995  0.995  0.997  0.997
     eigenvectors (columns):
      -0.000  0.000  0.000 -0.500  0.866
      -0.596  0.000 -0.803 -0.000 -0.000
      -0.568  0.707  0.421  0.000 -0.000
      -0.000 -0.000  0.000 -0.866 -0.500
       0.568  0.707 -0.421 -0.000 -0.000
     occupation matrix ns (before diag.):
       0.997  0.000 -0.000 -0.000 -0.000
       0.000  0.995 -0.000  0.000  0.000
      -0.000 -0.000  0.995 -0.000  0.000
      -0.000  0.000 -0.000  0.997  0.000
      -0.000  0.000  0.000  0.000  0.995
     ------------------------ ATOM   44 ------------------------
     Tr[ns( 44)] =   9.95810
     eigenvalues:
       0.995  0.995  0.995  0.997  0.997
     eigenvectors (columns):
      -0.000  0.000 -0.000 -0.000  1.000
      -0.707 -0.033 -0.706 -0.000 -0.000
      -0.707  0.033  0.706 -0.000  0.000
      -0.000  0.000  0.000  1.000  0.000
       0.000  0.999 -0.046 -0.000 -0.000
     occupation matrix ns (before diag.):
       0.997 -0.000  0.000  0.000 -0.000
      -0.000  0.995 -0.000 -0.000  0.000
       0.000 -0.000  0.995 -0.000 -0.000
       0.000 -0.000 -0.000  0.997 -0.000
      -0.000  0.000 -0.000 -0.000  0.995
     ------------------------ ATOM   45 ------------------------
     Tr[ns( 45)] =   4.69877
     eigenvalues:
       0.783  0.783  0.783
     eigenvectors (columns):
       0.000  0.868  0.497
       0.707  0.352 -0.614
       0.707 -0.352  0.614
     occupation matrix ns (before diag.):
       0.783 -0.000  0.000
      -0.000  0.783 -0.000
       0.000 -0.000  0.783
     ------------------------ ATOM   46 ------------------------
     Tr[ns( 46)] =   4.69877
     eigenvalues:
       0.783  0.783  0.783
     eigenvectors (columns):
       0.707 -0.352  0.614
       0.707  0.352 -0.614
       0.000  0.868  0.497
     occupation matrix ns (before diag.):
       0.783 -0.000  0.000
      -0.000  0.783 -0.000
       0.000 -0.000  0.783
     ------------------------ ATOM   47 ------------------------
     Tr[ns( 47)] =   4.69877
     eigenvalues:
       0.783  0.783  0.783
     eigenvectors (columns):
      -0.707  0.352  0.614
       0.000  0.868 -0.497
       0.707  0.352  0.614
     occupation matrix ns (before diag.):
       0.783 -0.000  0.000
      -0.000  0.783 -0.000
       0.000 -0.000  0.783
     ------------------------ ATOM   48 ------------------------
     Tr[ns( 48)] =   4.69877
     eigenvalues:
       0.783  0.783  0.783
     eigenvectors (columns):
       0.577 -0.301 -0.759
      -0.577 -0.808 -0.119
       0.577 -0.507  0.640
     occupation matrix ns (before diag.):
       0.783  0.000 -0.000
       0.000  0.783  0.000
      -0.000  0.000  0.783
     ------------------------ ATOM   49 ------------------------
     Tr[ns( 49)] =   9.95810
     eigenvalues:
       0.995  0.995  0.995  0.997  0.997
     eigenvectors (columns):
      -0.000 -0.000 -0.000  0.000  1.000
      -0.000 -0.409 -0.912 -0.000 -0.000
      -0.000 -0.912  0.409 -0.000 -0.000
       0.000  0.000  0.000 -1.000  0.000
       1.000 -0.000 -0.000  0.000  0.000
     occupation matrix ns (before diag.):
       0.997 -0.000 -0.000  0.000  0.000
      -0.000  0.995 -0.000  0.000  0.000
      -0.000 -0.000  0.995  0.000  0.000
       0.000  0.000  0.000  0.997 -0.000
       0.000  0.000  0.000 -0.000  0.995
     ------------------------ ATOM   50 ------------------------
     Tr[ns( 50)] =   9.95810
     eigenvalues:
       0.995  0.995  0.995  0.997  0.997
     eigenvectors (columns):
      -0.000 -0.000 -0.000  0.866  0.500
       0.707  0.033 -0.706  0.000 -0.000
       0.000 -0.999 -0.046 -0.000 -0.000
      -0.000  0.000  0.000  0.500 -0.866
      -0.707  0.033 -0.706 -0.000 -0.000
     occupation matrix ns (before diag.):
       0.997 -0.000 -0.000 -0.000 -0.000
      -0.000  0.995  0.000  0.000  0.000
      -0.000  0.000  0.995  0.000  0.000
      -0.000  0.000  0.000  0.997  0.000
      -0.000  0.000  0.000  0.000  0.995
     ------------------------ ATOM   51 ------------------------
     Tr[ns( 51)] =   9.95810
     eigenvalues:
       0.995  0.995  0.995  0.997  0.997
     eigenvectors (columns):
      -0.000  0.000  0.000 -0.866 -0.500
       0.000  0.999  0.046  0.000  0.000
       0.707 -0.033  0.706 -0.000  0.000
       0.000  0.000  0.000  0.500 -0.866
      -0.707 -0.033  0.706  0.000  0.000
     occupation matrix ns (before diag.):
       0.997 -0.000 -0.000  0.000 -0.000
      -0.000  0.995  0.000 -0.000  0.000
      -0.000  0.000  0.995 -0.000  0.000
       0.000 -0.000 -0.000  0.997 -0.000
      -0.000  0.000  0.000 -0.000  0.995
     ------------------------ ATOM   52 ------------------------
     Tr[ns( 52)] =   9.95810
     eigenvalues:
       0.995  0.995  0.995  0.997  0.997
     eigenvectors (columns):
       0.000 -0.000  0.000  1.000  0.000
      -0.568 -0.707 -0.421  0.000  0.000
      -0.568  0.707 -0.421  0.000 -0.000
       0.000 -0.000 -0.000  0.000 -1.000
       0.596  0.000 -0.803  0.000  0.000
     occupation matrix ns (before diag.):
       0.997  0.000  0.000  0.000  0.000
       0.000  0.995 -0.000 -0.000  0.000
       0.000 -0.000  0.995  0.000  0.000
       0.000 -0.000  0.000  0.997 -0.000
       0.000  0.000  0.000 -0.000  0.995
     ------------------------ ATOM   53 ------------------------
     Tr[ns( 53)] =   4.69877
     eigenvalues:
       0.783  0.783  0.783
     eigenvectors (columns):
       0.707  0.352  0.614
      -0.707  0.352  0.614
      -0.000 -0.868  0.497
     occupation matrix ns (before diag.):
       0.783  0.000  0.000
       0.000  0.783  0.000
       0.000  0.000  0.783
     ------------------------ ATOM   54 ------------------------
     Tr[ns( 54)] =   4.69877
     eigenvalues:
       0.783  0.783  0.783
     eigenvectors (columns):
       0.000  0.868  0.497
       0.707 -0.352  0.614
      -0.707 -0.352  0.614
     occupation matrix ns (before diag.):
       0.783  0.000  0.000
       0.000  0.783  0.000
       0.000  0.000  0.783
     ------------------------ ATOM   55 ------------------------
     Tr[ns( 55)] =   4.69877
     eigenvalues:
       0.783  0.783  0.783
     eigenvectors (columns):
       0.577 -0.408  0.707
       0.577 -0.408 -0.707
       0.577  0.816  0.000
     occupation matrix ns (before diag.):
       0.783 -0.000 -0.000
      -0.000  0.783 -0.000
      -0.000 -0.000  0.783
     ------------------------ ATOM   56 ------------------------
     Tr[ns( 56)] =   4.69877
     eigenvalues:
       0.783  0.783  0.783
     eigenvectors (columns):
       0.707  0.352  0.614
       0.000 -0.868  0.497
      -0.707  0.352  0.614
     occupation matrix ns (before diag.):
       0.783  0.000  0.000
       0.000  0.783  0.000
       0.000  0.000  0.783
     ------------------------ ATOM   57 ------------------------
     Tr[ns( 57)] =   9.95810
     eigenvalues:
       0.995  0.995  0.995  0.997  0.997
     eigenvectors (columns):
       0.000  0.000 -0.000 -0.091 -0.996
       0.345 -0.088 -0.935  0.000  0.000
       0.618 -0.728  0.296  0.000  0.000
      -0.000 -0.000  0.000  0.996 -0.091
      -0.707 -0.679 -0.197 -0.000 -0.000
     occupation matrix ns (before diag.):
       0.997 -0.000 -0.000  0.000  0.000
      -0.000  0.995 -0.000  0.000  0.000
      -0.000 -0.000  0.995  0.000  0.000
       0.000  0.000  0.000  0.997 -0.000
       0.000  0.000  0.000 -0.000  0.995
     ------------------------ ATOM   58 ------------------------
     Tr[ns( 58)] =   9.95810
     eigenvalues:
       0.995  0.995  0.995  0.997  0.997
     eigenvectors (columns):
      -0.000  0.000  0.000  0.866  0.500
       0.707 -0.033  0.706  0.000 -0.000
      -0.000 -0.999 -0.046 -0.000  0.000
      -0.000 -0.000 -0.000  0.500 -0.866
       0.707  0.033 -0.706  0.000  0.000
     occupation matrix ns (before diag.):
       0.997 -0.000  0.000 -0.000  0.000
      -0.000  0.995 -0.000  0.000 -0.000
       0.000 -0.000  0.995 -0.000  0.000
      -0.000  0.000 -0.000  0.997 -0.000
       0.000 -0.000  0.000 -0.000  0.995
     ------------------------ ATOM   59 ------------------------
     Tr[ns( 59)] =   9.95810
     eigenvalues:
       0.995  0.995  0.995  0.997  0.997
     eigenvectors (columns):
      -0.000 -0.000 -0.000 -0.866 -0.500
      -0.000  0.999  0.046  0.000 -0.000
       0.707  0.033 -0.706 -0.000  0.000
       0.000 -0.000 -0.000  0.500 -0.866
       0.707 -0.033  0.706 -0.000 -0.000
     occupation matrix ns (before diag.):
       0.997  0.000 -0.000  0.000  0.000
       0.000  0.995 -0.000  0.000  0.000
      -0.000 -0.000  0.995 -0.000 -0.000
       0.000  0.000 -0.000  0.997  0.000
       0.000  0.000 -0.000  0.000  0.995
     ------------------------ ATOM   60 ------------------------
     Tr[ns( 60)] =   9.95810
     eigenvalues:
       0.995  0.995  0.995  0.997  0.997
     eigenvectors (columns):
      -0.000 -0.000  0.000 -0.000  1.000
      -0.707 -0.033 -0.706 -0.000  0.000
       0.707 -0.033 -0.706  0.000  0.000
       0.000  0.000  0.000 -1.000 -0.000
      -0.000  0.999 -0.046  0.000  0.000
     occupation matrix ns (before diag.):
       0.997  0.000  0.000  0.000  0.000
       0.000  0.995  0.000  0.000  0.000
       0.000  0.000  0.995 -0.000  0.000
       0.000  0.000 -0.000  0.997 -0.000
       0.000  0.000  0.000 -0.000  0.995
     ------------------------ ATOM   61 ------------------------
     Tr[ns( 61)] =   4.69877
     eigenvalues:
       0.783  0.783  0.783
     eigenvectors (columns):
       0.593  0.385  0.707
      -0.545  0.838 -0.000
      -0.593 -0.385  0.707
     occupation matrix ns (before diag.):
       0.783  0.000  0.000
       0.000  0.783 -0.000
       0.000 -0.000  0.783
     ------------------------ ATOM   62 ------------------------
     Tr[ns( 62)] =   4.69877
     eigenvalues:
       0.783  0.783  0.783
     eigenvectors (columns):
       0.778 -0.248 -0.577
       0.604  0.550  0.577
       0.174 -0.798  0.577
     occupation matrix ns (before diag.):
       0.783 -0.000 -0.000
      -0.000  0.783  0.000
      -0.000  0.000  0.783
     ------------------------ ATOM   63 ------------------------
     Tr[ns( 63)] =   4.69877
     eigenvalues:
       0.783  0.783  0.783
     eigenvectors (columns):
      -0.545  0.838 -0.000
       0.593  0.385  0.707
       0.593  0.385 -0.707
     occupation matrix ns (before diag.):
       0.783  0.000  0.000
       0.000  0.783 -0.000
       0.000 -0.000  0.783
     ------------------------ ATOM   64 ------------------------
     Tr[ns( 64)] =   4.69877
     eigenvalues:
       0.783  0.783  0.783
     eigenvectors (columns):
      -0.593  0.385 -0.707
       0.593 -0.385 -0.707
       0.545  0.838  0.000
     occupation matrix ns (before diag.):
       0.783  0.000  0.000
       0.000  0.783 -0.000
       0.000 -0.000  0.783

     Number of occupied Hubbard levels =  469.0198

     Atomic wfc used for Hubbard projectors are orthogonalized

     Starting wfcs from file
     Checking if some PAW data can be deallocated... 
       PAW data deallocated on  560 nodes for type:  1
       PAW data deallocated on  560 nodes for type:  2

     Band Structure Calculation
     Davidson diagonalization with overlap

     Computing kpt #:     1  of     1 on this pool
     c_bands:  1 eigenvalues not converged
     total cpu time spent up to now is       34.2 secs

     ethr =  1.74E-10,  avg # of iterations = 55.2

     total cpu time spent up to now is       34.2 secs

     End of band structure calculation

          k = 0.0000 0.0000 0.0000 (158355 PWs)   bands (ev):

    -7.1462  -6.5876  -6.5876  -6.5876  -6.5876  -6.5876  -6.5876  -6.2446
    -6.2446  -6.2446  -6.2446  -6.2446  -6.2446  -6.2446  -6.2446  -6.2446
    -6.2446  -6.2446  -6.2446  -6.2224  -6.2224  -6.2224  -6.2224  -5.8989
    -5.8989  -5.8989  -5.8935  -5.8935  -5.8935  -5.8935  -5.8935  -5.8935
    -1.1618  -1.1618  -1.1618  -1.0937  -1.0937  -1.0937  -1.0937  -1.0937
    -1.0937  -1.0054  -1.0054  -1.0054  -0.8914  -0.8914  -0.8914  -0.8914
    -0.8914  -0.8914  -0.8796  -0.8796  -0.8796  -0.8796  -0.8796  -0.8796
    -0.8796  -0.8796  -0.8796  -0.8796  -0.8796  -0.8796  -0.8782  -0.8782
    -0.8782  -0.8782  -0.8782  -0.8782  -0.8782  -0.8782  -0.8483  -0.8483
    -0.8483  -0.8483  -0.8483  -0.8483  -0.8483  -0.8483  -0.8483  -0.8483
    -0.8483  -0.8483  -0.8377  -0.8377  -0.8377  -0.8377  -0.8377  -0.8377
    -0.8377  -0.8377  -0.8377  -0.8377  -0.8377  -0.8377  -0.7539  -0.7539
    -0.7539  -0.7539  -0.7539  -0.7539  -0.7539  -0.7539  -0.7539  -0.7539
    -0.7539  -0.7539  -0.6719  -0.6719  -0.6719  -0.6719  -0.6719  -0.6719
    -0.6257  -0.6257  -0.6257  -0.6257  -0.6257  -0.6257  -0.5662  -0.5662
    -0.5662  -0.5662  -0.5662  -0.5662  -0.4647  -0.4647  -0.4647  -0.4647
    -0.4647  -0.4647  -0.4645  -0.4645  -0.4645  -0.4645  -0.4644  -0.4644
    -0.4459  -0.4458  -0.4458  -0.4458  -0.4458  -0.4458  -0.4458  -0.4458
    -0.4458  -0.4458  -0.4458  -0.4458  -0.4315  -0.4315  -0.4032  -0.4032
    -0.4032  -0.4032  -0.4032  -0.4032  -0.4032  -0.4032  -0.3971  -0.3971
    -0.3971  -0.3971  -0.3971  -0.3971  -0.3821  -0.3821  -0.3821  -0.3821
    -0.3821  -0.3821  -0.3821  -0.3821  -0.3821  -0.3821  -0.3821  -0.3821
    -0.3627  -0.3627  -0.3627  -0.3087  -0.3087  -0.3087  -0.3087  -0.2155
    -0.2155  -0.2155  -0.2154  -0.1960  -0.1960  -0.1960  -0.0267  -0.0267
    -0.0267  -0.0267  -0.0267  -0.0267   0.3828   0.3828   0.3828   0.3828
     0.3828   0.3828   0.5131   0.5131   0.5131   1.1007   1.1007   1.1007
     1.1007   1.1007   1.1007   1.1007   1.1007   1.1007   1.1007   1.1007
     1.1007   2.1521   2.1521   2.1521   2.1521   2.1521   2.1522   2.1551
     2.1551   2.1551   2.1551   2.1551   2.1551   2.3671   2.3671   2.3671
     2.3671   2.3671   2.3671   2.3671   2.3671   2.3671   2.3671   2.3671
     2.3671   2.3965   2.3965   2.3965   2.3965   2.3965   2.3965   2.5470
     2.5470   2.5470   2.5470   2.5470   2.5470   3.4893   3.4893   3.4893
     3.4893   3.4893   3.4893   3.4893   3.4893   3.4893   3.4893   3.4893
     3.4893   3.7823   3.7823   3.7823   3.7823   3.7823   3.7823   3.7823
     3.7823   3.7823   3.7823   3.7823   3.7823   3.8178   3.8178   3.8178
     3.8178   3.8178   3.8178   3.8178   3.8178   4.5981   4.5981   4.5981
     7.6730   8.8057   8.8057   8.8057   8.8057   9.0358   9.0358   9.0358
     9.3108   9.3108   9.3108   9.7420   9.7421   9.7421   9.7421   9.7421
     9.7421  10.1268  10.1268  10.1268  10.1268  10.1268  10.1268  10.1614
    10.1614  10.1614  10.1614  10.1614  10.1614  10.1614  10.1614  10.1614
    10.1614  10.1614  10.1614  11.0236  11.0236  11.0236  11.0236  11.0236
    11.0236  11.1273  11.1273  11.1273  11.1273  11.1273  11.1273  11.9340
    11.9340  11.9340  11.9809  11.9809  11.9809  11.9809  11.9809  11.9809
    11.9809

     occupation numbers 
     1.0000   1.0000   1.0000   1.0000   1.0000   1.0000   1.0000   1.0000
     1.0000   1.0000   1.0000   1.0000   1.0000   1.0000   1.0000   1.0000
     1.0000   1.0000   1.0000   1.0000   1.0000   1.0000   1.0000   1.0000
     1.0000   1.0000   1.0000   1.0000   1.0000   1.0000   1.0000   1.0000
     1.0000   1.0000   1.0000   1.0000   1.0000   1.0000   1.0000   1.0000
     1.0000   1.0000   1.0000   1.0000   1.0000   1.0000   1.0000   1.0000
     1.0000   1.0000   1.0000   1.0000   1.0000   1.0000   1.0000   1.0000
     1.0000   1.0000   1.0000   1.0000   1.0000   1.0000   1.0000   1.0000
     1.0000   1.0000   1.0000   1.0000   1.0000   1.0000   1.0000   1.0000
     1.0000   1.0000   1.0000   1.0000   1.0000   1.0000   1.0000   1.0000
     1.0000   1.0000   1.0000   1.0000   1.0000   1.0000   1.0000   1.0000
     1.0000   1.0000   1.0000   1.0000   1.0000   1.0000   1.0000   1.0000
     1.0000   1.0000   1.0000   1.0000   1.0000   1.0000   1.0000   1.0000
     1.0000   1.0000   1.0000   1.0000   1.0000   1.0000   1.0000   1.0000
     1.0000   1.0000   1.0000   1.0000   1.0000   1.0000   1.0000   1.0000
     1.0000   1.0000   1.0000   1.0000   1.0000   1.0000   1.0000   1.0000
     1.0000   1.0000   1.0000   1.0000   1.0000   1.0000   1.0000   1.0000
     1.0000   1.0000   1.0000   1.0000   1.0000   1.0000   1.0000   1.0000
     1.0000   1.0000   1.0000   1.0000   1.0000   1.0000   1.0000   1.0000
     1.0000   1.0000   1.0000   1.0000   1.0000   1.0000   1.0000   1.0000
     1.0000   1.0000   1.0000   1.0000   1.0000   1.0000   1.0000   1.0000
     1.0000   1.0000   1.0000   1.0000   1.0000   1.0000   1.0000   1.0000
     1.0000   1.0000   1.0000   1.0000   1.0000   1.0000   1.0000   1.0000
     1.0000   1.0000   1.0000   1.0000   1.0000   1.0000   1.0000   1.0000
     1.0000   1.0000   1.0000   1.0000   1.0000   1.0000   1.0000   1.0000
     1.0000   1.0000   1.0000   1.0000   1.0000   1.0000   1.0000   1.0000
     1.0000   1.0000   1.0000   1.0000   1.0000   1.0000   1.0000   1.0000
     1.0000   1.0000   1.0000   1.0000   1.0000   1.0000   1.0000   1.0000
     1.0000   1.0000   1.0000   1.0000   1.0000   1.0000   1.0000   1.0000
     1.0000   1.0000   1.0000   1.0000   1.0000   1.0000   1.0000   1.0000
     1.0000   1.0000   1.0000   1.0000   1.0000   1.0000   1.0000   1.0000
     1.0000   1.0000   1.0000   1.0000   1.0000   1.0000   1.0000   1.0000
     1.0000   1.0000   1.0000   1.0000   1.0000   1.0000   1.0000   1.0000
     1.0000   1.0000   1.0000   1.0000   1.0000   1.0000   1.0000   1.0000
     1.0000   1.0000   1.0000   1.0000   1.0000   1.0000   1.0000   1.0000
     1.0000   1.0000   1.0000   1.0000   1.0000   1.0000   1.0000   1.0000
     0.0000   0.0000   0.0000   0.0000   0.0000   0.0000   0.0000   0.0000
     0.0000   0.0000   0.0000   0.0000   0.0000   0.0000   0.0000   0.0000
     0.0000   0.0000   0.0000   0.0000   0.0000   0.0000   0.0000   0.0000
     0.0000   0.0000   0.0000   0.0000   0.0000   0.0000   0.0000   0.0000
     0.0000   0.0000   0.0000   0.0000   0.0000   0.0000   0.0000   0.0000
     0.0000   0.0000   0.0000   0.0000   0.0000   0.0000   0.0000   0.0000
     0.0000   0.0000   0.0000   0.0000   0.0000   0.0000   0.0000   0.0000
     0.0000

          k = 0.0000 0.0000 0.2500 (158119 PWs)   bands (ev):

    -7.1082  -6.8153  -6.5618  -6.5617  -6.5617  -6.5617  -6.3768  -6.3768
    -6.3768  -6.3768  -6.3418  -6.2412  -6.2412  -6.2412  -6.2412  -6.2255
    -6.2255  -6.2255  -6.2255  -6.1112  -6.1112  -6.1112  -6.1111  -5.9572
    -5.9205  -5.9205  -5.9205  -5.9205  -5.8982  -5.8982  -5.8943  -5.8943
    -1.1541  -1.1270  -1.1270  -1.1176  -1.0747  -1.0747  -1.0747  -1.0747
    -1.0649  -1.0138  -0.9950  -0.9950  -0.9367  -0.9367  -0.9197  -0.9197
    -0.9197  -0.9197  -0.9143  -0.9143  -0.8876  -0.8876  -0.8876  -0.8876
    -0.8800  -0.8800  -0.8800  -0.8800  -0.8788  -0.8788  -0.8788  -0.8788
    -0.8784  -0.8784  -0.8784  -0.8784  -0.8753  -0.8753  -0.8753  -0.8753
    -0.8727  -0.8727  -0.8727  -0.8727  -0.8532  -0.8532  -0.8532  -0.8532
    -0.8462  -0.8462  -0.8462  -0.8462  -0.8442  -0.8442  -0.8442  -0.8442
    -0.8262  -0.8262  -0.8262  -0.8262  -0.8117  -0.8117  -0.8117  -0.8117
    -0.7732  -0.7732  -0.7277  -0.7277  -0.7277  -0.7277  -0.7155  -0.7155
    -0.7155  -0.7155  -0.6663  -0.6663  -0.6461  -0.6461  -0.6340  -0.6340
    -0.6235  -0.6235  -0.6035  -0.6035  -0.6035  -0.6035  -0.5913  -0.5913
    -0.5279  -0.5278  -0.5278  -0.5278  -0.5096  -0.5096  -0.5096  -0.5096
    -0.4672  -0.4672  -0.4672  -0.4672  -0.4597  -0.4597  -0.4597  -0.4597
    -0.4595  -0.4476  -0.4476  -0.4476  -0.4476  -0.4464  -0.4391  -0.4390
    -0.4390  -0.4390  -0.4356  -0.4322  -0.4322  -0.4322  -0.4322  -0.4309
    -0.4309  -0.4288  -0.4102  -0.4090  -0.4090  -0.4090  -0.4090  -0.3976
    -0.3976  -0.3976  -0.3976  -0.3890  -0.3890  -0.3890  -0.3890  -0.3839
    -0.3815  -0.3815  -0.3815  -0.3815  -0.3748  -0.3747  -0.3747  -0.3747
    -0.3697  -0.3697  -0.3697  -0.3697  -0.3693  -0.3692  -0.3654  -0.2751
    -0.1714  -0.1714  -0.0912  -0.0912  -0.0912  -0.0911  -0.0523  -0.0523
     0.0428   0.0428   0.0428   0.0428   0.4067   0.4067   0.4216   0.4216
     0.4216   0.4216   0.4981   0.4981   0.7131   0.7896   0.7896   0.7896
     0.7896   0.8563   0.8563   0.8563   0.8563   1.4689   1.4689   1.4689
     1.4689   1.7486   1.9451   1.9451   1.9451   1.9451   2.0926   2.0926
     2.0926   2.0926   2.2049   2.2049   2.2112   2.2112   2.2248   2.2248
     2.2248   2.2248   2.4838   2.4838   2.4878   2.4878   2.5444   2.5445
     2.5445   2.5445   2.6170   2.6170   2.6554   2.6554   2.6554   2.6554
     2.7169   2.7169   2.7169   2.7169   3.0765   3.1196   3.1196   3.3745
     3.3745   3.3745   3.3745   3.4759   3.4759   3.4759   3.4759   3.6074
     3.6074   3.6074   3.6074   3.6361   3.6361   3.6361   3.6361   3.7875
     3.7875   3.7875   3.7875   3.8126   3.8126   3.8126   3.8126   3.8818
     3.8818   3.8848   3.8848   3.8848   3.8848   4.3354   4.5019   4.5019
     7.9738   8.9926   8.9926   8.9926   8.9926   9.1077   9.2383   9.2383
     9.3229   9.3852   9.5151   9.5151   9.6420   9.7985   9.8119   9.8119
     9.8119   9.8119   9.9442   9.9442   9.9442   9.9442  10.0982  10.0982
    10.0982  10.0982  10.2737  10.2737  10.2737  10.2737  10.3392  10.3392
    10.3392  10.3392  10.5509  10.5509  10.6605  10.7471  10.7471  10.8035
    10.8035  10.8035  10.8035  11.3061  11.3061  11.3061  11.3061  11.7266
    11.7362  11.7362  11.7362  11.7362  11.7881  11.7881  11.7881  11.7881
    11.8960

     occupation numbers 
     1.0000   1.0000   1.0000   1.0000   1.0000   1.0000   1.0000   1.0000
     1.0000   1.0000   1.0000   1.0000   1.0000   1.0000   1.0000   1.0000
     1.0000   1.0000   1.0000   1.0000   1.0000   1.0000   1.0000   1.0000
     1.0000   1.0000   1.0000   1.0000   1.0000   1.0000   1.0000   1.0000
     1.0000   1.0000   1.0000   1.0000   1.0000   1.0000   1.0000   1.0000
     1.0000   1.0000   1.0000   1.0000   1.0000   1.0000   1.0000   1.0000
     1.0000   1.0000   1.0000   1.0000   1.0000   1.0000   1.0000   1.0000
     1.0000   1.0000   1.0000   1.0000   1.0000   1.0000   1.0000   1.0000
     1.0000   1.0000   1.0000   1.0000   1.0000   1.0000   1.0000   1.0000
     1.0000   1.0000   1.0000   1.0000   1.0000   1.0000   1.0000   1.0000
     1.0000   1.0000   1.0000   1.0000   1.0000   1.0000   1.0000   1.0000
     1.0000   1.0000   1.0000   1.0000   1.0000   1.0000   1.0000   1.0000
     1.0000   1.0000   1.0000   1.0000   1.0000   1.0000   1.0000   1.0000
     1.0000   1.0000   1.0000   1.0000   1.0000   1.0000   1.0000   1.0000
     1.0000   1.0000   1.0000   1.0000   1.0000   1.0000   1.0000   1.0000
     1.0000   1.0000   1.0000   1.0000   1.0000   1.0000   1.0000   1.0000
     1.0000   1.0000   1.0000   1.0000   1.0000   1.0000   1.0000   1.0000
     1.0000   1.0000   1.0000   1.0000   1.0000   1.0000   1.0000   1.0000
     1.0000   1.0000   1.0000   1.0000   1.0000   1.0000   1.0000   1.0000
     1.0000   1.0000   1.0000   1.0000   1.0000   1.0000   1.0000   1.0000
     1.0000   1.0000   1.0000   1.0000   1.0000   1.0000   1.0000   1.0000
     1.0000   1.0000   1.0000   1.0000   1.0000   1.0000   1.0000   1.0000
     1.0000   1.0000   1.0000   1.0000   1.0000   1.0000   1.0000   1.0000
     1.0000   1.0000   1.0000   1.0000   1.0000   1.0000   1.0000   1.0000
     1.0000   1.0000   1.0000   1.0000   1.0000   1.0000   1.0000   1.0000
     1.0000   1.0000   1.0000   1.0000   1.0000   1.0000   1.0000   1.0000
     1.0000   1.0000   1.0000   1.0000   1.0000   1.0000   1.0000   1.0000
     1.0000   1.0000   1.0000   1.0000   1.0000   1.0000   1.0000   1.0000
     1.0000   1.0000   1.0000   1.0000   1.0000   1.0000   1.0000   1.0000
     1.0000   1.0000   1.0000   1.0000   1.0000   1.0000   1.0000   1.0000
     1.0000   1.0000   1.0000   1.0000   1.0000   1.0000   1.0000   1.0000
     1.0000   1.0000   1.0000   1.0000   1.0000   1.0000   1.0000   1.0000
     1.0000   1.0000   1.0000   1.0000   1.0000   1.0000   1.0000   1.0000
     1.0000   1.0000   1.0000   1.0000   1.0000   1.0000   1.0000   1.0000
     1.0000   1.0000   1.0000   1.0000   1.0000   1.0000   1.0000   1.0000
     1.0000   1.0000   1.0000   1.0000   1.0000   1.0000   1.0000   1.0000
     0.0000   0.0000   0.0000   0.0000   0.0000   0.0000   0.0000   0.0000
     0.0000   0.0000   0.0000   0.0000   0.0000   0.0000   0.0000   0.0000
     0.0000   0.0000   0.0000   0.0000   0.0000   0.0000   0.0000   0.0000
     0.0000   0.0000   0.0000   0.0000   0.0000   0.0000   0.0000   0.0000
     0.0000   0.0000   0.0000   0.0000   0.0000   0.0000   0.0000   0.0000
     0.0000   0.0000   0.0000   0.0000   0.0000   0.0000   0.0000   0.0000
     0.0000   0.0000   0.0000   0.0000   0.0000   0.0000   0.0000   0.0000
     0.0000

          k = 0.0000 0.0000-0.5000 (157924 PWs)   bands (ev):

    -6.9951  -6.9951  -6.4879  -6.4879  -6.4879  -6.4879  -6.4879  -6.4879
    -6.4879  -6.4879  -6.2332  -6.2332  -6.2332  -6.2332  -6.2332  -6.2332
    -6.2332  -6.2332  -6.1170  -6.1170  -5.9971  -5.9971  -5.9971  -5.9971
    -5.9971  -5.9971  -5.9971  -5.9971  -5.8963  -5.8963  -5.8962  -5.8962
    -1.1372  -1.1372  -1.0372  -1.0372  -1.0372  -1.0371  -1.0359  -1.0359
    -1.0166  -1.0166  -1.0165  -1.0165  -1.0165  -1.0165  -1.0165  -1.0165
    -0.9643  -0.9643  -0.9642  -0.9642  -0.8807  -0.8807  -0.8807  -0.8807
    -0.8807  -0.8807  -0.8806  -0.8806  -0.8799  -0.8798  -0.8798  -0.8798
    -0.8798  -0.8798  -0.8798  -0.8797  -0.8647  -0.8647  -0.8647  -0.8647
    -0.8646  -0.8646  -0.8646  -0.8646  -0.8590  -0.8590  -0.8590  -0.8590
    -0.8589  -0.8589  -0.8589  -0.8589  -0.8397  -0.8397  -0.8397  -0.8397
    -0.8396  -0.8396  -0.8396  -0.8395  -0.7735  -0.7734  -0.7734  -0.7734
    -0.7734  -0.7734  -0.7734  -0.7733  -0.7006  -0.7006  -0.7005  -0.7005
    -0.6514  -0.6514  -0.6514  -0.6514  -0.6477  -0.6477  -0.6477  -0.6477
    -0.6477  -0.6477  -0.6477  -0.6477  -0.6144  -0.6143  -0.6143  -0.6143
    -0.5207  -0.5207  -0.5207  -0.5207  -0.5206  -0.5206  -0.5206  -0.5206
    -0.4509  -0.4509  -0.4508  -0.4508  -0.4507  -0.4507  -0.4507  -0.4507
    -0.4467  -0.4466  -0.4466  -0.4466  -0.4466  -0.4466  -0.4465  -0.4465
    -0.4465  -0.4464  -0.4237  -0.4236  -0.4235  -0.4235  -0.4235  -0.4235
    -0.4234  -0.4233  -0.4214  -0.4214  -0.3963  -0.3963  -0.3963  -0.3963
    -0.3962  -0.3961  -0.3961  -0.3961  -0.3909  -0.3909  -0.3909  -0.3909
    -0.3851  -0.3851  -0.3798  -0.3797  -0.3797  -0.3797  -0.3797  -0.3797
    -0.3797  -0.3796  -0.3728  -0.3728  -0.2509  -0.2509  -0.2509  -0.2509
    -0.2509  -0.2509  -0.2509  -0.2509  -0.1124  -0.1124  -0.1123  -0.1123
     0.4302   0.4302   0.4303   0.4303   0.4303   0.4303   0.4303   0.4303
     0.4568   0.4568   0.4569   0.4569   0.5570   0.5570   0.5570   0.5570
     0.5570   0.5570   0.5570   0.5570   1.1681   1.1681   1.8641   1.8641
     1.8641   1.8641   1.8641   1.8641   1.8641   1.8641   1.9373   1.9373
     1.9373   1.9373   1.9373   1.9373   1.9373   1.9373   2.3392   2.3392
     2.3392   2.3392   2.3480   2.3480   2.3480   2.3480   2.8167   2.8167
     2.8167   2.8167   3.0259   3.0259   3.0259   3.0259   3.0259   3.0259
     3.0259   3.0259   3.0823   3.0823   3.0823   3.0823   3.0823   3.0823
     3.0823   3.0823   3.1834   3.1834   3.1834   3.1834   3.1834   3.1834
     3.1834   3.1834   3.7518   3.7518   3.7985   3.7985   3.7985   3.7985
     3.7985   3.7985   3.7985   3.7985   3.7999   3.7999   3.7999   3.7999
     3.8000   3.8000   3.8000   3.8000   4.2417   4.2417   4.2417   4.2417
     8.6374   8.6375   9.3171   9.3171   9.4519   9.4519   9.4519   9.4519
     9.4520   9.4520   9.4520   9.4520   9.5818   9.5819   9.7957   9.7957
     9.7957   9.7957   9.9697   9.9697   9.9697   9.9697   9.9698   9.9698
     9.9698   9.9698  10.0604  10.0604  10.0604  10.0604  10.5073  10.5073
    10.5073  10.5073  10.5073  10.5073  10.5073  10.5073  10.9240  10.9241
    10.9241  10.9241  10.9241  10.9241  10.9241  10.9241  11.2347  11.2347
    11.5395  11.5395  11.5395  11.5395  11.5395  11.5395  11.5395  11.5395
    11.9940

     occupation numbers 
     1.0000   1.0000   1.0000   1.0000   1.0000   1.0000   1.0000   1.0000
     1.0000   1.0000   1.0000   1.0000   1.0000   1.0000   1.0000   1.0000
     1.0000   1.0000   1.0000   1.0000   1.0000   1.0000   1.0000   1.0000
     1.0000   1.0000   1.0000   1.0000   1.0000   1.0000   1.0000   1.0000
     1.0000   1.0000   1.0000   1.0000   1.0000   1.0000   1.0000   1.0000
     1.0000   1.0000   1.0000   1.0000   1.0000   1.0000   1.0000   1.0000
     1.0000   1.0000   1.0000   1.0000   1.0000   1.0000   1.0000   1.0000
     1.0000   1.0000   1.0000   1.0000   1.0000   1.0000   1.0000   1.0000
     1.0000   1.0000   1.0000   1.0000   1.0000   1.0000   1.0000   1.0000
     1.0000   1.0000   1.0000   1.0000   1.0000   1.0000   1.0000   1.0000
     1.0000   1.0000   1.0000   1.0000   1.0000   1.0000   1.0000   1.0000
     1.0000   1.0000   1.0000   1.0000   1.0000   1.0000   1.0000   1.0000
     1.0000   1.0000   1.0000   1.0000   1.0000   1.0000   1.0000   1.0000
     1.0000   1.0000   1.0000   1.0000   1.0000   1.0000   1.0000   1.0000
     1.0000   1.0000   1.0000   1.0000   1.0000   1.0000   1.0000   1.0000
     1.0000   1.0000   1.0000   1.0000   1.0000   1.0000   1.0000   1.0000
     1.0000   1.0000   1.0000   1.0000   1.0000   1.0000   1.0000   1.0000
     1.0000   1.0000   1.0000   1.0000   1.0000   1.0000   1.0000   1.0000
     1.0000   1.0000   1.0000   1.0000   1.0000   1.0000   1.0000   1.0000
     1.0000   1.0000   1.0000   1.0000   1.0000   1.0000   1.0000   1.0000
     1.0000   1.0000   1.0000   1.0000   1.0000   1.0000   1.0000   1.0000
     1.0000   1.0000   1.0000   1.0000   1.0000   1.0000   1.0000   1.0000
     1.0000   1.0000   1.0000   1.0000   1.0000   1.0000   1.0000   1.0000
     1.0000   1.0000   1.0000   1.0000   1.0000   1.0000   1.0000   1.0000
     1.0000   1.0000   1.0000   1.0000   1.0000   1.0000   1.0000   1.0000
     1.0000   1.0000   1.0000   1.0000   1.0000   1.0000   1.0000   1.0000
     1.0000   1.0000   1.0000   1.0000   1.0000   1.0000   1.0000   1.0000
[...]
     4.1459   4.1459   4.1459   4.1459   4.2318   4.2318   4.3411   4.3411
     8.7816   8.7816   9.0840   9.0840   9.3424   9.3424   9.3424   9.3424
     9.5216   9.5216   9.6321   9.6321   9.6321   9.6321   9.7166   9.7166
     9.7166   9.7166   9.7901   9.7901   9.9072   9.9072   9.9072   9.9072
     9.9722   9.9722   9.9722   9.9722  10.0899  10.0899  10.2946  10.2946
    10.2946  10.2946  10.5772  10.5772  10.5772  10.5772  10.9120  10.9120
    10.9120  10.9120  11.2103  11.2103  11.2103  11.2103  11.5396  11.5396
    11.5673  11.5673  11.5673  11.5673  11.6241  11.6241  11.6241  11.6241
    11.6262

     occupation numbers 
     1.0000   1.0000   1.0000   1.0000   1.0000   1.0000   1.0000   1.0000
     1.0000   1.0000   1.0000   1.0000   1.0000   1.0000   1.0000   1.0000
     1.0000   1.0000   1.0000   1.0000   1.0000   1.0000   1.0000   1.0000
     1.0000   1.0000   1.0000   1.0000   1.0000   1.0000   1.0000   1.0000
     1.0000   1.0000   1.0000   1.0000   1.0000   1.0000   1.0000   1.0000
     1.0000   1.0000   1.0000   1.0000   1.0000   1.0000   1.0000   1.0000
     1.0000   1.0000   1.0000   1.0000   1.0000   1.0000   1.0000   1.0000
     1.0000   1.0000   1.0000   1.0000   1.0000   1.0000   1.0000   1.0000
     1.0000   1.0000   1.0000   1.0000   1.0000   1.0000   1.0000   1.0000
     1.0000   1.0000   1.0000   1.0000   1.0000   1.0000   1.0000   1.0000
     1.0000   1.0000   1.0000   1.0000   1.0000   1.0000   1.0000   1.0000
     1.0000   1.0000   1.0000   1.0000   1.0000   1.0000   1.0000   1.0000
     1.0000   1.0000   1.0000   1.0000   1.0000   1.0000   1.0000   1.0000
     1.0000   1.0000   1.0000   1.0000   1.0000   1.0000   1.0000   1.0000
     1.0000   1.0000   1.0000   1.0000   1.0000   1.0000   1.0000   1.0000
     1.0000   1.0000   1.0000   1.0000   1.0000   1.0000   1.0000   1.0000
     1.0000   1.0000   1.0000   1.0000   1.0000   1.0000   1.0000   1.0000
     1.0000   1.0000   1.0000   1.0000   1.0000   1.0000   1.0000   1.0000
     1.0000   1.0000   1.0000   1.0000   1.0000   1.0000   1.0000   1.0000
     1.0000   1.0000   1.0000   1.0000   1.0000   1.0000   1.0000   1.0000
     1.0000   1.0000   1.0000   1.0000   1.0000   1.0000   1.0000   1.0000
     1.0000   1.0000   1.0000   1.0000   1.0000   1.0000   1.0000   1.0000
     1.0000   1.0000   1.0000   1.0000   1.0000   1.0000   1.0000   1.0000
     1.0000   1.0000   1.0000   1.0000   1.0000   1.0000   1.0000   1.0000
     1.0000   1.0000   1.0000   1.0000   1.0000   1.0000   1.0000   1.0000
     1.0000   1.0000   1.0000   1.0000   1.0000   1.0000   1.0000   1.0000
     1.0000   1.0000   1.0000   1.0000   1.0000   1.0000   1.0000   1.0000
     1.0000   1.0000   1.0000   1.0000   1.0000   1.0000   1.0000   1.0000
     1.0000   1.0000   1.0000   1.0000   1.0000   1.0000   1.0000   1.0000
     1.0000   1.0000   1.0000   1.0000   1.0000   1.0000   1.0000   1.0000
     1.0000   1.0000   1.0000   1.0000   1.0000   1.0000   1.0000   1.0000
     1.0000   1.0000   1.0000   1.0000   1.0000   1.0000   1.0000   1.0000
     1.0000   1.0000   1.0000   1.0000   1.0000   1.0000   1.0000   1.0000
     1.0000   1.0000   1.0000   1.0000   1.0000   1.0000   1.0000   1.0000
     1.0000   1.0000   1.0000   1.0000   1.0000   1.0000   1.0000   1.0000
     1.0000   1.0000   1.0000   1.0000   1.0000   1.0000   1.0000   1.0000
     0.0000   0.0000   0.0000   0.0000   0.0000   0.0000   0.0000   0.0000
     0.0000   0.0000   0.0000   0.0000   0.0000   0.0000   0.0000   0.0000
     0.0000   0.0000   0.0000   0.0000   0.0000   0.0000   0.0000   0.0000
     0.0000   0.0000   0.0000   0.0000   0.0000   0.0000   0.0000   0.0000
     0.0000   0.0000   0.0000   0.0000   0.0000   0.0000   0.0000   0.0000
     0.0000   0.0000   0.0000   0.0000   0.0000   0.0000   0.0000   0.0000
     0.0000   0.0000   0.0000   0.0000   0.0000   0.0000   0.0000   0.0000
     0.0000

          k = 0.2500-0.5000-0.5000 (158052 PWs)   bands (ev):

    -6.8218  -6.8218  -6.8218  -6.8218  -6.5857  -6.5857  -6.5857  -6.5857
    -6.2306  -6.2306  -6.2306  -6.2306  -6.0774  -6.0774  -6.0774  -6.0774
    -6.0774  -6.0774  -6.0774  -6.0774  -6.0662  -6.0662  -6.0662  -6.0662
    -6.0662  -6.0662  -6.0662  -6.0662  -5.9628  -5.9628  -5.9628  -5.9628
    -1.0071  -1.0071  -1.0071  -1.0071  -1.0060  -1.0060  -1.0060  -1.0060
    -1.0060  -1.0060  -1.0060  -1.0059  -0.9679  -0.9679  -0.9679  -0.9679
    -0.9623  -0.9622  -0.9622  -0.9622  -0.9541  -0.9540  -0.9540  -0.9540
    -0.9498  -0.9498  -0.9498  -0.9498  -0.9382  -0.9382  -0.9382  -0.9382
    -0.9063  -0.9063  -0.9063  -0.9063  -0.9063  -0.9063  -0.9063  -0.9063
    -0.9042  -0.9042  -0.9042  -0.9042  -0.9035  -0.9035  -0.9035  -0.9035
    -0.8122  -0.8122  -0.8122  -0.8122  -0.7889  -0.7889  -0.7889  -0.7889
    -0.7888  -0.7888  -0.7888  -0.7888  -0.7453  -0.7452  -0.7452  -0.7452
    -0.7452  -0.7452  -0.7451  -0.7451  -0.7325  -0.7325  -0.7325  -0.7325
    -0.7158  -0.7158  -0.7158  -0.7158  -0.6701  -0.6701  -0.6701  -0.6701
    -0.6701  -0.6701  -0.6700  -0.6700  -0.5743  -0.5743  -0.5743  -0.5743
    -0.5657  -0.5657  -0.5657  -0.5657  -0.5656  -0.5656  -0.5656  -0.5656
    -0.4418  -0.4418  -0.4418  -0.4417  -0.4363  -0.4363  -0.4363  -0.4362
    -0.4233  -0.4233  -0.4233  -0.4232  -0.4151  -0.4150  -0.4150  -0.4150
    -0.4068  -0.4067  -0.4067  -0.4067  -0.4067  -0.4067  -0.4066  -0.4065
    -0.3970  -0.3970  -0.3970  -0.3969  -0.3925  -0.3925  -0.3925  -0.3924
    -0.3893  -0.3892  -0.3892  -0.3892  -0.3884  -0.3883  -0.3883  -0.3883
    -0.3883  -0.3883  -0.3882  -0.3882  -0.3238  -0.3238  -0.3237  -0.3237
    -0.3237  -0.3237  -0.3237  -0.3237  -0.2370  -0.2370  -0.2370  -0.2370
    -0.2370  -0.2370  -0.2369  -0.2369  -0.1534  -0.1533  -0.1533  -0.1533
     0.2958   0.2958   0.2958   0.2958   0.2958   0.2958   0.2958   0.2958
     0.4157   0.4157   0.4157   0.4157   0.8447   0.8447   0.8447   0.8447
     0.8497   0.8497   0.8497   0.8497   0.8497   0.8497   0.8497   0.8497
     1.6360   1.6360   1.6360   1.6360   2.0115   2.0115   2.0115   2.0116
     2.4612   2.4612   2.4612   2.4612   2.4612   2.4612   2.4612   2.4612
     2.5103   2.5103   2.5104   2.5104   2.5104   2.5104   2.5104   2.5104
     2.6355   2.6355   2.6355   2.6355   2.9754   2.9754   2.9754   2.9754
     2.9754   2.9754   2.9754   2.9755   2.9961   2.9961   2.9961   2.9961
     3.0507   3.0507   3.0507   3.0507   3.2529   3.2530   3.2530   3.2530
     3.2530   3.2530   3.2530   3.2530   3.3727   3.3727   3.3727   3.3727
     3.9318   3.9318   3.9318   3.9318   4.0297   4.0297   4.0297   4.0297
     4.0347   4.0347   4.0347   4.0347   4.3548   4.3548   4.3548   4.3548
     8.9707   8.9708   8.9708   8.9708   9.0970   9.0970   9.0970   9.0970
     9.6320   9.6320   9.6320   9.6320   9.7253   9.7253   9.7253   9.7253
     9.7949   9.7949   9.7949   9.7949   9.7949   9.7949   9.7949   9.7949
     9.9538   9.9538   9.9538   9.9538   9.9538   9.9538   9.9538   9.9539
    10.7032  10.7032  10.7032  10.7032  10.7032  10.7032  10.7032  10.7032
    11.1992  11.1992  11.1992  11.1992  11.3921  11.3921  11.3921  11.3921
    11.4768  11.4768  11.4768  11.4768  11.4768  11.4768  11.4768  11.4768
    11.8225

     occupation numbers 
     1.0000   1.0000   1.0000   1.0000   1.0000   1.0000   1.0000   1.0000
     1.0000   1.0000   1.0000   1.0000   1.0000   1.0000   1.0000   1.0000
     1.0000   1.0000   1.0000   1.0000   1.0000   1.0000   1.0000   1.0000
     1.0000   1.0000   1.0000   1.0000   1.0000   1.0000   1.0000   1.0000
     1.0000   1.0000   1.0000   1.0000   1.0000   1.0000   1.0000   1.0000
     1.0000   1.0000   1.0000   1.0000   1.0000   1.0000   1.0000   1.0000
     1.0000   1.0000   1.0000   1.0000   1.0000   1.0000   1.0000   1.0000
     1.0000   1.0000   1.0000   1.0000   1.0000   1.0000   1.0000   1.0000
     1.0000   1.0000   1.0000   1.0000   1.0000   1.0000   1.0000   1.0000
     1.0000   1.0000   1.0000   1.0000   1.0000   1.0000   1.0000   1.0000
     1.0000   1.0000   1.0000   1.0000   1.0000   1.0000   1.0000   1.0000
     1.0000   1.0000   1.0000   1.0000   1.0000   1.0000   1.0000   1.0000
     1.0000   1.0000   1.0000   1.0000   1.0000   1.0000   1.0000   1.0000
     1.0000   1.0000   1.0000   1.0000   1.0000   1.0000   1.0000   1.0000
     1.0000   1.0000   1.0000   1.0000   1.0000   1.0000   1.0000   1.0000
     1.0000   1.0000   1.0000   1.0000   1.0000   1.0000   1.0000   1.0000
     1.0000   1.0000   1.0000   1.0000   1.0000   1.0000   1.0000   1.0000
     1.0000   1.0000   1.0000   1.0000   1.0000   1.0000   1.0000   1.0000
     1.0000   1.0000   1.0000   1.0000   1.0000   1.0000   1.0000   1.0000
     1.0000   1.0000   1.0000   1.0000   1.0000   1.0000   1.0000   1.0000
     1.0000   1.0000   1.0000   1.0000   1.0000   1.0000   1.0000   1.0000
     1.0000   1.0000   1.0000   1.0000   1.0000   1.0000   1.0000   1.0000
     1.0000   1.0000   1.0000   1.0000   1.0000   1.0000   1.0000   1.0000
     1.0000   1.0000   1.0000   1.0000   1.0000   1.0000   1.0000   1.0000
     1.0000   1.0000   1.0000   1.0000   1.0000   1.0000   1.0000   1.0000
     1.0000   1.0000   1.0000   1.0000   1.0000   1.0000   1.0000   1.0000
     1.0000   1.0000   1.0000   1.0000   1.0000   1.0000   1.0000   1.0000
     1.0000   1.0000   1.0000   1.0000   1.0000   1.0000   1.0000   1.0000
     1.0000   1.0000   1.0000   1.0000   1.0000   1.0000   1.0000   1.0000
     1.0000   1.0000   1.0000   1.0000   1.0000   1.0000   1.0000   1.0000
     1.0000   1.0000   1.0000   1.0000   1.0000   1.0000   1.0000   1.0000
     1.0000   1.0000   1.0000   1.0000   1.0000   1.0000   1.0000   1.0000
     1.0000   1.0000   1.0000   1.0000   1.0000   1.0000   1.0000   1.0000
     1.0000   1.0000   1.0000   1.0000   1.0000   1.0000   1.0000   1.0000
     1.0000   1.0000   1.0000   1.0000   1.0000   1.0000   1.0000   1.0000
     1.0000   1.0000   1.0000   1.0000   1.0000   1.0000   1.0000   1.0000
     0.0000   0.0000   0.0000   0.0000   0.0000   0.0000   0.0000   0.0000
     0.0000   0.0000   0.0000   0.0000   0.0000   0.0000   0.0000   0.0000
     0.0000   0.0000   0.0000   0.0000   0.0000   0.0000   0.0000   0.0000
     0.0000   0.0000   0.0000   0.0000   0.0000   0.0000   0.0000   0.0000
     0.0000   0.0000   0.0000   0.0000   0.0000   0.0000   0.0000   0.0000
     0.0000   0.0000   0.0000   0.0000   0.0000   0.0000   0.0000   0.0000
     0.0000   0.0000   0.0000   0.0000   0.0000   0.0000   0.0000   0.0000
     0.0000

          k =-0.5000-0.5000-0.5000 (158408 PWs)   bands (ev):

    -6.7286  -6.7286  -6.7286  -6.7286  -6.7286  -6.7286  -6.7286  -6.7286
    -6.0718  -6.0718  -6.0718  -6.0718  -6.0718  -6.0718  -6.0718  -6.0718
    -6.0718  -6.0718  -6.0718  -6.0718  -6.0718  -6.0718  -6.0718  -6.0718
    -6.0717  -6.0717  -6.0717  -6.0717  -6.0717  -6.0717  -6.0717  -6.0717
    -0.9849  -0.9848  -0.9848  -0.9848  -0.9848  -0.9848  -0.9848  -0.9847
    -0.9593  -0.9593  -0.9593  -0.9593  -0.9592  -0.9592  -0.9592  -0.9592
    -0.9592  -0.9592  -0.9592  -0.9592  -0.9592  -0.9592  -0.9592  -0.9592
    -0.9592  -0.9592  -0.9592  -0.9592  -0.9592  -0.9592  -0.9592  -0.9591
    -0.9332  -0.9332  -0.9332  -0.9332  -0.9332  -0.9332  -0.9332  -0.9332
    -0.9332  -0.9332  -0.9332  -0.9331  -0.9331  -0.9331  -0.9331  -0.9331
    -0.7592  -0.7591  -0.7591  -0.7591  -0.7591  -0.7591  -0.7591  -0.7591
    -0.7591  -0.7591  -0.7590  -0.7590  -0.7590  -0.7590  -0.7589  -0.7589
    -0.7589  -0.7589  -0.7589  -0.7589  -0.7589  -0.7589  -0.7589  -0.7588
    -0.6390  -0.6390  -0.6390  -0.6389  -0.6389  -0.6389  -0.6389  -0.6389
    -0.6389  -0.6389  -0.6389  -0.6389  -0.6389  -0.6389  -0.6389  -0.6388
    -0.6388  -0.6388  -0.6388  -0.6388  -0.6388  -0.6388  -0.6388  -0.6388
    -0.4303  -0.4303  -0.4303  -0.4303  -0.4303  -0.4303  -0.4302  -0.4302
    -0.4302  -0.4302  -0.4301  -0.4301  -0.4301  -0.4301  -0.4301  -0.4301
    -0.3920  -0.3920  -0.3920  -0.3920  -0.3919  -0.3919  -0.3919  -0.3919
    -0.3919  -0.3919  -0.3919  -0.3919  -0.3918  -0.3918  -0.3918  -0.3918
    -0.3918  -0.3918  -0.3918  -0.3918  -0.3917  -0.3917  -0.3917  -0.3916
    -0.2884  -0.2883  -0.2883  -0.2883  -0.2883  -0.2883  -0.2883  -0.2883
    -0.2883  -0.2883  -0.2883  -0.2883  -0.2882  -0.2882  -0.2882  -0.2882
    -0.2882  -0.2882  -0.2882  -0.2882  -0.2882  -0.2882  -0.2882  -0.2881
     0.5772   0.5772   0.5772   0.5773   0.5773   0.5773   0.5773   0.5773
     0.5773   0.5773   0.5773   0.5773   0.5773   0.5773   0.5773   0.5773
     0.5773   0.5773   0.5773   0.5773   0.5773   0.5773   0.5773   0.5773
     2.1323   2.1323   2.1323   2.1323   2.1323   2.1323   2.1323   2.1324
     2.4744   2.4744   2.4744   2.4744   2.4744   2.4744   2.4744   2.4744
     2.4744   2.4744   2.4744   2.4744   2.4744   2.4744   2.4744   2.4744
     2.4744   2.4744   2.4744   2.4744   2.4744   2.4744   2.4744   2.4744
     3.1455   3.1456   3.1456   3.1456   3.1456   3.1456   3.1456   3.1456
     3.1456   3.1456   3.1456   3.1456   3.1456   3.1456   3.1456   3.1456
     3.1456   3.1456   3.1456   3.1456   3.1456   3.1456   3.1456   3.1456
     4.1820   4.1820   4.1820   4.1820   4.1820   4.1820   4.1820   4.1820
     4.1820   4.1820   4.1820   4.1820   4.1820   4.1820   4.1820   4.1820
     8.9134   8.9134   8.9134   8.9134   8.9134   8.9134   8.9134   8.9134
     9.7392   9.7392   9.7392   9.7392   9.7392   9.7392   9.7392   9.7392
     9.7392   9.7392   9.7392   9.7392   9.7392   9.7392   9.7392   9.7392
     9.7392   9.7392   9.7392   9.7392   9.7392   9.7392   9.7392   9.7392
    11.2485  11.2485  11.2485  11.2485  11.2485  11.2485  11.2485  11.2485
    11.2485  11.2485  11.2485  11.2485  11.2485  11.2485  11.2485  11.2486
    11.2486  11.2486  11.2486  11.2486  11.2486  11.2486  11.2486  11.2486
    12.2913

     occupation numbers 
     1.0000   1.0000   1.0000   1.0000   1.0000   1.0000   1.0000   1.0000
     1.0000   1.0000   1.0000   1.0000   1.0000   1.0000   1.0000   1.0000
     1.0000   1.0000   1.0000   1.0000   1.0000   1.0000   1.0000   1.0000
     1.0000   1.0000   1.0000   1.0000   1.0000   1.0000   1.0000   1.0000
     1.0000   1.0000   1.0000   1.0000   1.0000   1.0000   1.0000   1.0000
     1.0000   1.0000   1.0000   1.0000   1.0000   1.0000   1.0000   1.0000
     1.0000   1.0000   1.0000   1.0000   1.0000   1.0000   1.0000   1.0000
     1.0000   1.0000   1.0000   1.0000   1.0000   1.0000   1.0000   1.0000
     1.0000   1.0000   1.0000   1.0000   1.0000   1.0000   1.0000   1.0000
     1.0000   1.0000   1.0000   1.0000   1.0000   1.0000   1.0000   1.0000
     1.0000   1.0000   1.0000   1.0000   1.0000   1.0000   1.0000   1.0000
     1.0000   1.0000   1.0000   1.0000   1.0000   1.0000   1.0000   1.0000
     1.0000   1.0000   1.0000   1.0000   1.0000   1.0000   1.0000   1.0000
     1.0000   1.0000   1.0000   1.0000   1.0000   1.0000   1.0000   1.0000
     1.0000   1.0000   1.0000   1.0000   1.0000   1.0000   1.0000   1.0000
     1.0000   1.0000   1.0000   1.0000   1.0000   1.0000   1.0000   1.0000
     1.0000   1.0000   1.0000   1.0000   1.0000   1.0000   1.0000   1.0000
     1.0000   1.0000   1.0000   1.0000   1.0000   1.0000   1.0000   1.0000
     1.0000   1.0000   1.0000   1.0000   1.0000   1.0000   1.0000   1.0000
     1.0000   1.0000   1.0000   1.0000   1.0000   1.0000   1.0000   1.0000
     1.0000   1.0000   1.0000   1.0000   1.0000   1.0000   1.0000   1.0000
     1.0000   1.0000   1.0000   1.0000   1.0000   1.0000   1.0000   1.0000
     1.0000   1.0000   1.0000   1.0000   1.0000   1.0000   1.0000   1.0000
     1.0000   1.0000   1.0000   1.0000   1.0000   1.0000   1.0000   1.0000
     1.0000   1.0000   1.0000   1.0000   1.0000   1.0000   1.0000   1.0000
     1.0000   1.0000   1.0000   1.0000   1.0000   1.0000   1.0000   1.0000
     1.0000   1.0000   1.0000   1.0000   1.0000   1.0000   1.0000   1.0000
     1.0000   1.0000   1.0000   1.0000   1.0000   1.0000   1.0000   1.0000
     1.0000   1.0000   1.0000   1.0000   1.0000   1.0000   1.0000   1.0000
     1.0000   1.0000   1.0000   1.0000   1.0000   1.0000   1.0000   1.0000
     1.0000   1.0000   1.0000   1.0000   1.0000   1.0000   1.0000   1.0000
     1.0000   1.0000   1.0000   1.0000   1.0000   1.0000   1.0000   1.0000
     1.0000   1.0000   1.0000   1.0000   1.0000   1.0000   1.0000   1.0000
     1.0000   1.0000   1.0000   1.0000   1.0000   1.0000   1.0000   1.0000
     1.0000   1.0000   1.0000   1.0000   1.0000   1.0000   1.0000   1.0000
     1.0000   1.0000   1.0000   1.0000   1.0000   1.0000   1.0000   1.0000
     0.0000   0.0000   0.0000   0.0000   0.0000   0.0000   0.0000   0.0000
     0.0000   0.0000   0.0000   0.0000   0.0000   0.0000   0.0000   0.0000
     0.0000   0.0000   0.0000   0.0000   0.0000   0.0000   0.0000   0.0000
     0.0000   0.0000   0.0000   0.0000   0.0000   0.0000   0.0000   0.0000
     0.0000   0.0000   0.0000   0.0000   0.0000   0.0000   0.0000   0.0000
     0.0000   0.0000   0.0000   0.0000   0.0000   0.0000   0.0000   0.0000
     0.0000   0.0000   0.0000   0.0000   0.0000   0.0000   0.0000   0.0000
     0.0000

     the Fermi energy is     7.4319 ev
     (compare with:     4.5982 eV, computed in scf)

     Writing all to output data dir ./out/ZnS_hub.save/
 
     init_run     :      5.50s CPU      6.48s WALL (       1 calls)
     electrons    :     26.30s CPU     26.57s WALL (       1 calls)

     Called by init_run:
     wfcinit      :      3.67s CPU      3.97s WALL (       1 calls)
     potinit      :      0.33s CPU      0.63s WALL (       1 calls)
     hinit0       :      0.19s CPU      0.33s WALL (       1 calls)

     Called by electrons:
     c_bands      :     26.26s CPU     26.52s WALL (       1 calls)
     v_of_rho     :      0.12s CPU      0.24s WALL (       1 calls)
     v_h          :      0.01s CPU      0.02s WALL (       1 calls)
     v_xc         :      0.12s CPU      0.22s WALL (       1 calls)
     newd         :      0.04s CPU      0.07s WALL (       1 calls)
     PAW_pot      :      0.12s CPU      0.13s WALL (       1 calls)

     Called by c_bands:
     init_us_2    :      0.03s CPU      0.05s WALL (       2 calls)
     init_us_2:cp :      0.03s CPU      0.05s WALL (       2 calls)
     cegterg      :     26.16s CPU     26.41s WALL (       6 calls)

     Called by sum_band:

     Called by *egterg:
     cdiaghg      :      4.86s CPU      4.90s WALL (     120 calls)
     cegterg:over :      1.64s CPU      1.65s WALL (     120 calls)
     cegterg:upda :      1.44s CPU      1.46s WALL (     120 calls)
     cegterg:last :      1.86s CPU      1.87s WALL (      14 calls)
     cdiaghg:chol :      0.29s CPU      0.29s WALL (     120 calls)
     cdiaghg:inve :      0.36s CPU      0.36s WALL (     120 calls)
     cdiaghg:para :      0.62s CPU      0.63s WALL (     240 calls)
     h_psi        :     12.80s CPU     12.92s WALL (     126 calls)
     s_psi        :      3.01s CPU      3.04s WALL (     127 calls)
     g_psi        :      0.03s CPU      0.03s WALL (     120 calls)

     Called by h_psi:
     h_psi:calbec :      2.08s CPU      2.10s WALL (     126 calls)
     vloc_psi     :      4.66s CPU      4.71s WALL (     126 calls)
     add_vuspsi   :      2.79s CPU      2.81s WALL (     126 calls)
     vhpsi        :      3.19s CPU      3.22s WALL (     126 calls)

     General routines
     calbec       :      2.74s CPU      2.77s WALL (     253 calls)
     fft          :      0.21s CPU      0.49s WALL (      12 calls)
     fftw         :      4.38s CPU      4.42s WALL (   10430 calls)
 
     Parallel routines

     Hubbard U routines
     vhpsi        :      3.19s CPU      3.22s WALL (     126 calls)

     PAW routines
     PAW_pot      :      0.12s CPU      0.13s WALL (       1 calls)
 
     PWSCF        :     33.57s CPU     48.36s WALL

 
   This run was terminated on:   3:58:23   1Jul2024            

=------------------------------------------------------------------------------=
   JOB DONE.
=------------------------------------------------------------------------------=
