
     Program PWSCF v.7.2 starts on  1Jul2024 at  3:39:49 

     This program is part of the open-source Quantum ESPRESSO suite
     for quantum simulation of materials; please cite
         "P. Giannozzi et al., J. Phys.:Condens. Matter 21 395502 (2009);
         "P. Giannozzi et al., J. Phys.:Condens. Matter 29 465901 (2017);
         "P. Giannozzi et al., J. Chem. Phys. 152 154105 (2020);
          URL http://www.quantum-espresso.org", 
     in publications or presentations arising from this work. More details at
     http://www.quantum-espresso.org/quote

     Parallel version (MPI), running on  1120 processors

     MPI processes distributed on    10 nodes
     229138 MiB available memory on the printing compute node when the environment starts
 
     Waiting for input...
     Reading input from standard input

     Current dimensions of program PWSCF are:
     Max number of different atomic species (ntypx) = 10
     Max number of k-points (npk) =  40000
     Max angular momentum in pseudopotentials (lmaxx) =  4
     file S.pbe-n-kjpaw_psl.1.0.0.UPF: wavefunction(s)  3S 3P renormalized
     file Zn.pbe-dnl-kjpaw_psl.1.0.0.UPF: wavefunction(s)  4S 3D renormalized
     Found identity + (  0.0000  0.2500  0.2500) symmetry
     This is a supercell, fractional translations are disabled
 
     K-points division:     npool     =      10
     R & G space division:  proc/nbgrp/npool/nimage =     112
     Subspace diagonalization in iterative solution of the eigenvalue problem:
     one sub-group per band group will be used
     scalapack distributed-memory algorithm (size of sub-group:  3*  3 procs)

 
     Parallelization info
     --------------------
     sticks:   dense  smooth     PW     G-vecs:    dense   smooth      PW
     Min         126     126     33                11287    11287    1523
     Max         128     128     34                11292    11292    1528
     Sum       14137   14137   3721              1264415  1264415  170709
 
     Using Slab Decomposition
 


     bravais-lattice index     =            1
     lattice parameter (alat)  =      20.5686  a.u.
     unit-cell volume          =    8701.8437 (a.u.)^3
     number of atoms/cell      =           64
     number of atomic types    =            2
     number of electrons       =       576.00
     number of Kohn-Sham states=          345
     kinetic-energy cutoff     =     105.0000  Ry
     charge density cutoff     =     420.0000  Ry
     scf convergence threshold =      1.0E-06
     mixing beta               =       0.7000
     number of iterations used =            8  plain     mixing
     Exchange-correlation= SLA  PW   PBX  PBC
                           (   1   4   3   4   0   0   0)
     Hubbard projectors: ortho-atomic
     Hubbard parameters of DFT+U (Dudarev formulation) in eV:
     U(S-3p) =  2.0000
     U(Zn-3d) =  0.0000

     Internal variables: lda_plus_u = T, lda_plus_u_kind = 0

     celldm(1)=  20.568554  celldm(2)=   0.000000  celldm(3)=   0.000000
     celldm(4)=   0.000000  celldm(5)=   0.000000  celldm(6)=   0.000000

     crystal axes: (cart. coord. in units of alat)
               a(1) = (   1.000000   0.000000   0.000000 )  
               a(2) = (   0.000000   1.000000   0.000000 )  
               a(3) = (   0.000000   0.000000   1.000000 )  

     reciprocal axes: (cart. coord. in units 2 pi/alat)
               b(1) = (  1.000000  0.000000  0.000000 )  
               b(2) = (  0.000000  1.000000  0.000000 )  
               b(3) = (  0.000000  0.000000  1.000000 )  


     PseudoPot. # 1 for S  read from file:
     /arf/home/amuhaymin/pseudo/S.pbe-n-kjpaw_psl.1.0.0.UPF
     MD5 check sum: fb45dfebcf3e72a4e1bd4a866ec2e262
     Pseudo is Projector augmented-wave + core cor, Zval =  6.0
     Generated using &quot;atomic&quot; code by A. Dal Corso  v.6.3
     Shape of augmentation charge: PSQ
     Using radial grid of 1151 points,  6 beta functions with: 
                l(1) =   0
                l(2) =   0
                l(3) =   1
                l(4) =   1
                l(5) =   2
                l(6) =   2
     Q(r) pseudized with 0 coefficients 


     PseudoPot. # 2 for Zn read from file:
     /arf/home/amuhaymin/pseudo/Zn.pbe-dnl-kjpaw_psl.1.0.0.UPF
     MD5 check sum: c608214d9520ac179f507641260889e3
     Pseudo is Projector augmented-wave + core cor, Zval = 12.0
     Generated using &quot;atomic&quot; code by A. Dal Corso  v.6.2.2
     Shape of augmentation charge: PSQ
     Using radial grid of 1201 points,  6 beta functions with: 
                l(1) =   0
                l(2) =   0
                l(3) =   1
                l(4) =   1
                l(5) =   2
                l(6) =   2
     Q(r) pseudized with 0 coefficients 


     atomic species   valence    mass     pseudopotential
        S              6.00    32.06500     S ( 1.00)
        Zn            12.00    65.38000     Zn( 1.00)

     24 Sym. Ops. (no inversion) found


                                    s                        frac. trans.

      isym =  1     identity                                     

 cryst.   s( 1) = (     1          0          0      )
                  (     0          1          0      )
                  (     0          0          1      )

 cart.    s( 1) = (  1.0000000  0.0000000  0.0000000 )
                  (  0.0000000  1.0000000  0.0000000 )
                  (  0.0000000  0.0000000  1.0000000 )


      isym =  2     180 deg rotation - cart. axis [0,0,1]        

 cryst.   s( 2) = (    -1          0          0      )
                  (     0         -1          0      )
                  (     0          0          1      )

 cart.    s( 2) = ( -1.0000000  0.0000000  0.0000000 )
                  (  0.0000000 -1.0000000  0.0000000 )
                  (  0.0000000  0.0000000  1.0000000 )


      isym =  3     180 deg rotation - cart. axis [0,1,0]        

 cryst.   s( 3) = (    -1          0          0      )
                  (     0          1          0      )
                  (     0          0         -1      )

 cart.    s( 3) = ( -1.0000000  0.0000000  0.0000000 )
                  (  0.0000000  1.0000000  0.0000000 )
                  (  0.0000000  0.0000000 -1.0000000 )


      isym =  4     180 deg rotation - cart. axis [1,0,0]        

 cryst.   s( 4) = (     1          0          0      )
                  (     0         -1          0      )
                  (     0          0         -1      )

 cart.    s( 4) = (  1.0000000  0.0000000  0.0000000 )
                  (  0.0000000 -1.0000000  0.0000000 )
                  (  0.0000000  0.0000000 -1.0000000 )


      isym =  5     120 deg rotation - cart. axis [-1,-1,-1]     

 cryst.   s( 5) = (     0          0          1      )
                  (     1          0          0      )
                  (     0          1          0      )

 cart.    s( 5) = (  0.0000000  1.0000000  0.0000000 )
                  (  0.0000000  0.0000000  1.0000000 )
                  (  1.0000000  0.0000000  0.0000000 )


      isym =  6     120 deg rotation - cart. axis [-1,1,1]       

 cryst.   s( 6) = (     0          0         -1      )
                  (    -1          0          0      )
                  (     0          1          0      )

 cart.    s( 6) = (  0.0000000 -1.0000000  0.0000000 )
                  (  0.0000000  0.0000000  1.0000000 )
                  ( -1.0000000  0.0000000  0.0000000 )


      isym =  7     120 deg rotation - cart. axis [1,1,-1]       

 cryst.   s( 7) = (     0          0         -1      )
                  (     1          0          0      )
                  (     0         -1          0      )

 cart.    s( 7) = (  0.0000000  1.0000000  0.0000000 )
                  (  0.0000000  0.0000000 -1.0000000 )
                  ( -1.0000000  0.0000000  0.0000000 )


      isym =  8     120 deg rotation - cart. axis [1,-1,1]       

 cryst.   s( 8) = (     0          0          1      )
                  (    -1          0          0      )
                  (     0         -1          0      )

 cart.    s( 8) = (  0.0000000 -1.0000000  0.0000000 )
                  (  0.0000000  0.0000000 -1.0000000 )
                  (  1.0000000  0.0000000  0.0000000 )


      isym =  9     120 deg rotation - cart. axis [1,1,1]        

 cryst.   s( 9) = (     0          1          0      )
                  (     0          0          1      )
                  (     1          0          0      )

 cart.    s( 9) = (  0.0000000  0.0000000  1.0000000 )
                  (  1.0000000  0.0000000  0.0000000 )
                  (  0.0000000  1.0000000  0.0000000 )


      isym = 10     120 deg rotation - cart. axis [-1,1,-1]      

 cryst.   s(10) = (     0         -1          0      )
                  (     0          0         -1      )
                  (     1          0          0      )

 cart.    s(10) = (  0.0000000  0.0000000  1.0000000 )
                  ( -1.0000000  0.0000000  0.0000000 )
                  (  0.0000000 -1.0000000  0.0000000 )


      isym = 11     120 deg rotation - cart. axis [1,-1,-1]      

 cryst.   s(11) = (     0         -1          0      )
                  (     0          0          1      )
                  (    -1          0          0      )

 cart.    s(11) = (  0.0000000  0.0000000 -1.0000000 )
                  ( -1.0000000  0.0000000  0.0000000 )
                  (  0.0000000  1.0000000  0.0000000 )


      isym = 12     120 deg rotation - cart. axis [-1,-1,1]      

 cryst.   s(12) = (     0          1          0      )
                  (     0          0         -1      )
                  (    -1          0          0      )

 cart.    s(12) = (  0.0000000  0.0000000 -1.0000000 )
                  (  1.0000000  0.0000000  0.0000000 )
                  (  0.0000000 -1.0000000  0.0000000 )


      isym = 13     inv. 180 deg rotation - cart. axis [1,1,0]   

 cryst.   s(13) = (     0         -1          0      )
                  (    -1          0          0      )
                  (     0          0          1      )

 cart.    s(13) = (  0.0000000 -1.0000000  0.0000000 )
                  ( -1.0000000  0.0000000  0.0000000 )
                  (  0.0000000  0.0000000  1.0000000 )


      isym = 14     inv. 180 deg rotation - cart. axis [1,-1,0]  

 cryst.   s(14) = (     0          1          0      )
                  (     1          0          0      )
                  (     0          0          1      )

 cart.    s(14) = (  0.0000000  1.0000000  0.0000000 )
                  (  1.0000000  0.0000000  0.0000000 )
                  (  0.0000000  0.0000000  1.0000000 )


      isym = 15     inv.  90 deg rotation - cart. axis [0,0,-1]  

 cryst.   s(15) = (     0          1          0      )
                  (    -1          0          0      )
                  (     0          0         -1      )

 cart.    s(15) = (  0.0000000 -1.0000000  0.0000000 )
                  (  1.0000000  0.0000000  0.0000000 )
                  (  0.0000000  0.0000000 -1.0000000 )


      isym = 16     inv.  90 deg rotation - cart. axis [0,0,1]   

 cryst.   s(16) = (     0         -1          0      )
                  (     1          0          0      )
                  (     0          0         -1      )

 cart.    s(16) = (  0.0000000  1.0000000  0.0000000 )
                  ( -1.0000000  0.0000000  0.0000000 )
                  (  0.0000000  0.0000000 -1.0000000 )


      isym = 17     inv. 180 deg rotation - cart. axis [1,0,1]   

 cryst.   s(17) = (     0          0         -1      )
                  (     0          1          0      )
                  (    -1          0          0      )

 cart.    s(17) = (  0.0000000  0.0000000 -1.0000000 )
                  (  0.0000000  1.0000000  0.0000000 )
                  ( -1.0000000  0.0000000  0.0000000 )


      isym = 18     inv. 180 deg rotation - cart. axis [-1,0,1]  

 cryst.   s(18) = (     0          0          1      )
                  (     0          1          0      )
                  (     1          0          0      )

 cart.    s(18) = (  0.0000000  0.0000000  1.0000000 )
                  (  0.0000000  1.0000000  0.0000000 )
                  (  1.0000000  0.0000000  0.0000000 )


      isym = 19     inv.  90 deg rotation - cart. axis [0,1,0]   

 cryst.   s(19) = (     0          0          1      )
                  (     0         -1          0      )
                  (    -1          0          0      )

 cart.    s(19) = (  0.0000000  0.0000000 -1.0000000 )
                  (  0.0000000 -1.0000000  0.0000000 )
                  (  1.0000000  0.0000000  0.0000000 )


      isym = 20     inv.  90 deg rotation - cart. axis [0,-1,0]  

 cryst.   s(20) = (     0          0         -1      )
                  (     0         -1          0      )
                  (     1          0          0      )

 cart.    s(20) = (  0.0000000  0.0000000  1.0000000 )
                  (  0.0000000 -1.0000000  0.0000000 )
                  ( -1.0000000  0.0000000  0.0000000 )


      isym = 21     inv. 180 deg rotation - cart. axis [0,1,1]   

 cryst.   s(21) = (     1          0          0      )
                  (     0          0         -1      )
                  (     0         -1          0      )

 cart.    s(21) = (  1.0000000  0.0000000  0.0000000 )
                  (  0.0000000  0.0000000 -1.0000000 )
                  (  0.0000000 -1.0000000  0.0000000 )


      isym = 22     inv. 180 deg rotation - cart. axis [0,1,-1]  

 cryst.   s(22) = (     1          0          0      )
                  (     0          0          1      )
                  (     0          1          0      )

 cart.    s(22) = (  1.0000000  0.0000000  0.0000000 )
                  (  0.0000000  0.0000000  1.0000000 )
                  (  0.0000000  1.0000000  0.0000000 )


      isym = 23     inv.  90 deg rotation - cart. axis [-1,0,0]  

 cryst.   s(23) = (    -1          0          0      )
                  (     0          0          1      )
                  (     0         -1          0      )

 cart.    s(23) = ( -1.0000000  0.0000000  0.0000000 )
                  (  0.0000000  0.0000000 -1.0000000 )
                  (  0.0000000  1.0000000  0.0000000 )


      isym = 24     inv.  90 deg rotation - cart. axis [1,0,0]   

 cryst.   s(24) = (    -1          0          0      )
                  (     0          0         -1      )
                  (     0          1          0      )

 cart.    s(24) = ( -1.0000000  0.0000000  0.0000000 )
                  (  0.0000000  0.0000000  1.0000000 )
                  (  0.0000000 -1.0000000  0.0000000 )


     point group T_d (-43m) 
     there are  5 classes
     the character table:

       E     8C3   3C2   6S4   6s_d 
A_1    1.00  1.00  1.00  1.00  1.00
A_2    1.00  1.00  1.00 -1.00 -1.00
E      2.00 -1.00  2.00  0.00  0.00
T_1    3.00  0.00 -1.00  1.00 -1.00
T_2    3.00  0.00 -1.00 -1.00  1.00

     the symmetry operations in each class and the name of the first element:

     E        1
          identity                                               
     8C3      5    7    8    6   12    9   10   11
          120 deg rotation - cart. axis [-1,-1,-1]               
     3C2      2    3    4
          180 deg rotation - cart. axis [0,0,1]                  
     6S4     15   16   20   19   23   24
          inv.  90 deg rotation - cart. axis [0,0,-1]            
     6s_d    13   14   17   18   21   22
          inv. 180 deg rotation - cart. axis [1,1,0]             

   Cartesian axes

     site n.     atom                  positions (alat units)
         1           Zn  tau(   1) = (   0.0000000   0.0000000   0.0000000  )
         2           Zn  tau(   2) = (   0.0000000   0.2500000   0.2500000  )
         3           Zn  tau(   3) = (   0.2500000   0.0000000   0.2500000  )
         4           Zn  tau(   4) = (   0.2500000   0.2500000   0.0000000  )
         5           S   tau(   5) = (   0.1250000   0.3750000   0.3750000  )
         6           S   tau(   6) = (   0.1250000   0.1250000   0.1250000  )
         7           S   tau(   7) = (   0.3750000   0.3750000   0.1250000  )
         8           S   tau(   8) = (   0.3750000   0.1250000   0.3750000  )
         9           Zn  tau(   9) = (   0.0000000   0.0000000   0.5000000  )
        10           Zn  tau(  10) = (   0.0000000   0.2500000   0.7500000  )
        11           Zn  tau(  11) = (   0.2500000   0.0000000   0.7500000  )
        12           Zn  tau(  12) = (   0.2500000   0.2500000   0.5000000  )
        13           S   tau(  13) = (   0.1250000   0.3750000   0.8750000  )
        14           S   tau(  14) = (   0.1250000   0.1250000   0.6250000  )
        15           S   tau(  15) = (   0.3750000   0.3750000   0.6250000  )
        16           S   tau(  16) = (   0.3750000   0.1250000   0.8750000  )
        17           Zn  tau(  17) = (   0.0000000   0.5000000   0.0000000  )
        18           Zn  tau(  18) = (   0.0000000   0.7500000   0.2500000  )
        19           Zn  tau(  19) = (   0.2500000   0.5000000   0.2500000  )
        20           Zn  tau(  20) = (   0.2500000   0.7500000   0.0000000  )
        21           S   tau(  21) = (   0.1250000   0.8750000   0.3750000  )
        22           S   tau(  22) = (   0.1250000   0.6250000   0.1250000  )
        23           S   tau(  23) = (   0.3750000   0.8750000   0.1250000  )
        24           S   tau(  24) = (   0.3750000   0.6250000   0.3750000  )
        25           Zn  tau(  25) = (   0.0000000   0.5000000   0.5000000  )
        26           Zn  tau(  26) = (   0.0000000   0.7500000   0.7500000  )
        27           Zn  tau(  27) = (   0.2500000   0.5000000   0.7500000  )
        28           Zn  tau(  28) = (   0.2500000   0.7500000   0.5000000  )
        29           S   tau(  29) = (   0.1250000   0.8750000   0.8750000  )
        30           S   tau(  30) = (   0.1250000   0.6250000   0.6250000  )
        31           S   tau(  31) = (   0.3750000   0.8750000   0.6250000  )
        32           S   tau(  32) = (   0.3750000   0.6250000   0.8750000  )
        33           Zn  tau(  33) = (   0.5000000   0.0000000   0.0000000  )
        34           Zn  tau(  34) = (   0.5000000   0.2500000   0.2500000  )
        35           Zn  tau(  35) = (   0.7500000   0.0000000   0.2500000  )
        36           Zn  tau(  36) = (   0.7500000   0.2500000   0.0000000  )
        37           S   tau(  37) = (   0.6250000   0.3750000   0.3750000  )
        38           S   tau(  38) = (   0.6250000   0.1250000   0.1250000  )
        39           S   tau(  39) = (   0.8750000   0.3750000   0.1250000  )
        40           S   tau(  40) = (   0.8750000   0.1250000   0.3750000  )
        41           Zn  tau(  41) = (   0.5000000   0.0000000   0.5000000  )
        42           Zn  tau(  42) = (   0.5000000   0.2500000   0.7500000  )
        43           Zn  tau(  43) = (   0.7500000   0.0000000   0.7500000  )
        44           Zn  tau(  44) = (   0.7500000   0.2500000   0.5000000  )
        45           S   tau(  45) = (   0.6250000   0.3750000   0.8750000  )
        46           S   tau(  46) = (   0.6250000   0.1250000   0.6250000  )
        47           S   tau(  47) = (   0.8750000   0.3750000   0.6250000  )
        48           S   tau(  48) = (   0.8750000   0.1250000   0.8750000  )
        49           Zn  tau(  49) = (   0.5000000   0.5000000   0.0000000  )
        50           Zn  tau(  50) = (   0.5000000   0.7500000   0.2500000  )
        51           Zn  tau(  51) = (   0.7500000   0.5000000   0.2500000  )
        52           Zn  tau(  52) = (   0.7500000   0.7500000   0.0000000  )
        53           S   tau(  53) = (   0.6250000   0.8750000   0.3750000  )
        54           S   tau(  54) = (   0.6250000   0.6250000   0.1250000  )
        55           S   tau(  55) = (   0.8750000   0.8750000   0.1250000  )
        56           S   tau(  56) = (   0.8750000   0.6250000   0.3750000  )
        57           Zn  tau(  57) = (   0.5000000   0.5000000   0.5000000  )
        58           Zn  tau(  58) = (   0.5000000   0.7500000   0.7500000  )
        59           Zn  tau(  59) = (   0.7500000   0.5000000   0.7500000  )
        60           Zn  tau(  60) = (   0.7500000   0.7500000   0.5000000  )
        61           S   tau(  61) = (   0.6250000   0.8750000   0.8750000  )
        62           S   tau(  62) = (   0.6250000   0.6250000   0.6250000  )
        63           S   tau(  63) = (   0.8750000   0.8750000   0.6250000  )
        64           S   tau(  64) = (   0.8750000   0.6250000   0.8750000  )

   Crystallographic axes

     site n.     atom                  positions (cryst. coord.)
         1           Zn  tau(   1) = (  0.0000000  0.0000000  0.0000000  )
         2           Zn  tau(   2) = (  0.0000000  0.2500000  0.2500000  )
         3           Zn  tau(   3) = (  0.2500000  0.0000000  0.2500000  )
         4           Zn  tau(   4) = (  0.2500000  0.2500000  0.0000000  )
         5           S   tau(   5) = (  0.1250000  0.3750000  0.3750000  )
         6           S   tau(   6) = (  0.1250000  0.1250000  0.1250000  )
         7           S   tau(   7) = (  0.3750000  0.3750000  0.1250000  )
         8           S   tau(   8) = (  0.3750000  0.1250000  0.3750000  )
         9           Zn  tau(   9) = (  0.0000000  0.0000000  0.5000000  )
        10           Zn  tau(  10) = (  0.0000000  0.2500000  0.7500000  )
        11           Zn  tau(  11) = (  0.2500000  0.0000000  0.7500000  )
        12           Zn  tau(  12) = (  0.2500000  0.2500000  0.5000000  )
        13           S   tau(  13) = (  0.1250000  0.3750000  0.8750000  )
        14           S   tau(  14) = (  0.1250000  0.1250000  0.6250000  )
        15           S   tau(  15) = (  0.3750000  0.3750000  0.6250000  )
        16           S   tau(  16) = (  0.3750000  0.1250000  0.8750000  )
        17           Zn  tau(  17) = (  0.0000000  0.5000000  0.0000000  )
        18           Zn  tau(  18) = (  0.0000000  0.7500000  0.2500000  )
        19           Zn  tau(  19) = (  0.2500000  0.5000000  0.2500000  )
        20           Zn  tau(  20) = (  0.2500000  0.7500000  0.0000000  )
        21           S   tau(  21) = (  0.1250000  0.8750000  0.3750000  )
        22           S   tau(  22) = (  0.1250000  0.6250000  0.1250000  )
        23           S   tau(  23) = (  0.3750000  0.8750000  0.1250000  )
        24           S   tau(  24) = (  0.3750000  0.6250000  0.3750000  )
        25           Zn  tau(  25) = (  0.0000000  0.5000000  0.5000000  )
        26           Zn  tau(  26) = (  0.0000000  0.7500000  0.7500000  )
        27           Zn  tau(  27) = (  0.2500000  0.5000000  0.7500000  )
        28           Zn  tau(  28) = (  0.2500000  0.7500000  0.5000000  )
        29           S   tau(  29) = (  0.1250000  0.8750000  0.8750000  )
        30           S   tau(  30) = (  0.1250000  0.6250000  0.6250000  )
        31           S   tau(  31) = (  0.3750000  0.8750000  0.6250000  )
        32           S   tau(  32) = (  0.3750000  0.6250000  0.8750000  )
        33           Zn  tau(  33) = (  0.5000000  0.0000000  0.0000000  )
        34           Zn  tau(  34) = (  0.5000000  0.2500000  0.2500000  )
        35           Zn  tau(  35) = (  0.7500000  0.0000000  0.2500000  )
        36           Zn  tau(  36) = (  0.7500000  0.2500000  0.0000000  )
        37           S   tau(  37) = (  0.6250000  0.3750000  0.3750000  )
        38           S   tau(  38) = (  0.6250000  0.1250000  0.1250000  )
        39           S   tau(  39) = (  0.8750000  0.3750000  0.1250000  )
        40           S   tau(  40) = (  0.8750000  0.1250000  0.3750000  )
        41           Zn  tau(  41) = (  0.5000000  0.0000000  0.5000000  )
        42           Zn  tau(  42) = (  0.5000000  0.2500000  0.7500000  )
        43           Zn  tau(  43) = (  0.7500000  0.0000000  0.7500000  )
        44           Zn  tau(  44) = (  0.7500000  0.2500000  0.5000000  )
        45           S   tau(  45) = (  0.6250000  0.3750000  0.8750000  )
        46           S   tau(  46) = (  0.6250000  0.1250000  0.6250000  )
        47           S   tau(  47) = (  0.8750000  0.3750000  0.6250000  )
        48           S   tau(  48) = (  0.8750000  0.1250000  0.8750000  )
        49           Zn  tau(  49) = (  0.5000000  0.5000000  0.0000000  )
        50           Zn  tau(  50) = (  0.5000000  0.7500000  0.2500000  )
        51           Zn  tau(  51) = (  0.7500000  0.5000000  0.2500000  )
        52           Zn  tau(  52) = (  0.7500000  0.7500000  0.0000000  )
        53           S   tau(  53) = (  0.6250000  0.8750000  0.3750000  )
        54           S   tau(  54) = (  0.6250000  0.6250000  0.1250000  )
        55           S   tau(  55) = (  0.8750000  0.8750000  0.1250000  )
        56           S   tau(  56) = (  0.8750000  0.6250000  0.3750000  )
        57           Zn  tau(  57) = (  0.5000000  0.5000000  0.5000000  )
        58           Zn  tau(  58) = (  0.5000000  0.7500000  0.7500000  )
        59           Zn  tau(  59) = (  0.7500000  0.5000000  0.7500000  )
        60           Zn  tau(  60) = (  0.7500000  0.7500000  0.5000000  )
        61           S   tau(  61) = (  0.6250000  0.8750000  0.8750000  )
        62           S   tau(  62) = (  0.6250000  0.6250000  0.6250000  )
        63           S   tau(  63) = (  0.8750000  0.8750000  0.6250000  )
        64           S   tau(  64) = (  0.8750000  0.6250000  0.8750000  )

     number of k points=    10
                       cart. coord. in units 2pi/alat
        k(    1) = (   0.0000000   0.0000000   0.0000000), wk =   0.0312500
        k(    2) = (   0.0000000   0.0000000   0.2500000), wk =   0.1875000
        k(    3) = (   0.0000000   0.0000000  -0.5000000), wk =   0.0937500
        k(    4) = (   0.0000000   0.2500000   0.2500000), wk =   0.3750000
        k(    5) = (   0.0000000   0.2500000  -0.5000000), wk =   0.3750000
        k(    6) = (   0.0000000  -0.5000000  -0.5000000), wk =   0.0937500
        k(    7) = (   0.2500000   0.2500000   0.2500000), wk =   0.2500000
        k(    8) = (   0.2500000   0.2500000  -0.5000000), wk =   0.3750000
        k(    9) = (   0.2500000  -0.5000000  -0.5000000), wk =   0.1875000
        k(   10) = (  -0.5000000  -0.5000000  -0.5000000), wk =   0.0312500

                       cryst. coord.
        k(    1) = (   0.0000000   0.0000000   0.0000000), wk =   0.0312500
        k(    2) = (   0.0000000   0.0000000   0.2500000), wk =   0.1875000
        k(    3) = (   0.0000000   0.0000000  -0.5000000), wk =   0.0937500
        k(    4) = (   0.0000000   0.2500000   0.2500000), wk =   0.3750000
        k(    5) = (   0.0000000   0.2500000  -0.5000000), wk =   0.3750000
        k(    6) = (   0.0000000  -0.5000000  -0.5000000), wk =   0.0937500
        k(    7) = (   0.2500000   0.2500000   0.2500000), wk =   0.2500000
        k(    8) = (   0.2500000   0.2500000  -0.5000000), wk =   0.3750000
        k(    9) = (   0.2500000  -0.5000000  -0.5000000), wk =   0.1875000
        k(   10) = (  -0.5000000  -0.5000000  -0.5000000), wk =   0.0312500

     Dense  grid:  1264415 G-vectors     FFT dimensions: ( 135, 135, 135)

     Dynamical RAM for                 wfc:       7.43 MB

     Dynamical RAM for     wfc (w. buffer):       7.43 MB

     Dynamical RAM for             U proj.:       5.51 MB

     Dynamical RAM for  U proj. (w. buff.):       5.51 MB

     Dynamical RAM for           str. fact:       0.34 MB

     Dynamical RAM for           local pot:       0.00 MB

     Dynamical RAM for          nlocal pot:      24.80 MB

     Dynamical RAM for                qrad:       3.29 MB

     Dynamical RAM for          rho,v,vnew:       1.35 MB

     Dynamical RAM for               rhoin:       0.45 MB

     Dynamical RAM for            rho*nmix:       2.76 MB

     Dynamical RAM for           G-vectors:       0.73 MB

     Dynamical RAM for          h,s,v(r/c):       2.42 MB

     Dynamical RAM for          <psi|beta>:       6.06 MB

     Dynamical RAM for                 psi:      14.86 MB

     Dynamical RAM for                hpsi:      14.86 MB

     Dynamical RAM for                spsi:      14.86 MB

     Dynamical RAM for      wfcinit/wfcrot:      21.88 MB

     Dynamical RAM for           addusdens:       3.91 MB

     Estimated static dynamical RAM per process >      45.82 MB

     Estimated max dynamical RAM per process >     101.63 MB

     Estimated total dynamical RAM >     108.44 GB

     Initial potential from superposition of free atoms

     starting charge     575.8798, renormalised to     576.0000

     HUBBARD ENERGY =    3.1359  (Ry)

     STARTING HUBBARD OCCUPATIONS:

     =================== HUBBARD OCCUPATIONS ===================
     ------------------------ ATOM    1 ------------------------
     Tr[ns(  1)] =   9.70000
     eigenvalues:
       0.970  0.970  0.970  0.970  0.970
     eigenvectors (columns):
       1.000  0.000  0.000  0.000  0.000
       0.000  1.000  0.000  0.000  0.000
       0.000  0.000  1.000  0.000  0.000
       0.000  0.000  0.000  1.000  0.000
       0.000  0.000  0.000  0.000  1.000
     occupation matrix ns (before diag.):
       0.970  0.000  0.000  0.000  0.000
       0.000  0.970  0.000  0.000  0.000
       0.000  0.000  0.970  0.000  0.000
       0.000  0.000  0.000  0.970  0.000
       0.000  0.000  0.000  0.000  0.970
     ------------------------ ATOM    2 ------------------------
     Tr[ns(  2)] =   9.70000
     eigenvalues:
       0.970  0.970  0.970  0.970  0.970
     eigenvectors (columns):
       1.000  0.000  0.000  0.000  0.000
       0.000  1.000  0.000  0.000  0.000
       0.000  0.000  1.000  0.000  0.000
       0.000  0.000  0.000  1.000  0.000
       0.000  0.000  0.000  0.000  1.000
     occupation matrix ns (before diag.):
       0.970  0.000  0.000  0.000  0.000
       0.000  0.970  0.000  0.000  0.000
       0.000  0.000  0.970  0.000  0.000
       0.000  0.000  0.000  0.970  0.000
       0.000  0.000  0.000  0.000  0.970
     ------------------------ ATOM    3 ------------------------
     Tr[ns(  3)] =   9.70000
     eigenvalues:
       0.970  0.970  0.970  0.970  0.970
     eigenvectors (columns):
       1.000  0.000  0.000  0.000  0.000
       0.000  1.000  0.000  0.000  0.000
       0.000  0.000  1.000  0.000  0.000
       0.000  0.000  0.000  1.000  0.000
       0.000  0.000  0.000  0.000  1.000
     occupation matrix ns (before diag.):
       0.970  0.000  0.000  0.000  0.000
       0.000  0.970  0.000  0.000  0.000
       0.000  0.000  0.970  0.000  0.000
       0.000  0.000  0.000  0.970  0.000
       0.000  0.000  0.000  0.000  0.970
     ------------------------ ATOM    4 ------------------------
     Tr[ns(  4)] =   9.70000
     eigenvalues:
       0.970  0.970  0.970  0.970  0.970
     eigenvectors (columns):
       1.000  0.000  0.000  0.000  0.000
       0.000  1.000  0.000  0.000  0.000
       0.000  0.000  1.000  0.000  0.000
       0.000  0.000  0.000  1.000  0.000
       0.000  0.000  0.000  0.000  1.000
     occupation matrix ns (before diag.):
       0.970  0.000  0.000  0.000  0.000
       0.000  0.970  0.000  0.000  0.000
       0.000  0.000  0.970  0.000  0.000
       0.000  0.000  0.000  0.970  0.000
       0.000  0.000  0.000  0.000  0.970
     ------------------------ ATOM    5 ------------------------
     Tr[ns(  5)] =   4.00000
     eigenvalues:
       0.667  0.667  0.667
     eigenvectors (columns):
       1.000  0.000  0.000
       0.000  1.000  0.000
       0.000  0.000  1.000
     occupation matrix ns (before diag.):
       0.667  0.000  0.000
       0.000  0.667  0.000
       0.000  0.000  0.667
     ------------------------ ATOM    6 ------------------------
     Tr[ns(  6)] =   4.00000
     eigenvalues:
       0.667  0.667  0.667
     eigenvectors (columns):
       1.000  0.000  0.000
       0.000  1.000  0.000
       0.000  0.000  1.000
     occupation matrix ns (before diag.):
       0.667  0.000  0.000
       0.000  0.667  0.000
       0.000  0.000  0.667
     ------------------------ ATOM    7 ------------------------
     Tr[ns(  7)] =   4.00000
     eigenvalues:
       0.667  0.667  0.667
     eigenvectors (columns):
       1.000  0.000  0.000
       0.000  1.000  0.000
       0.000  0.000  1.000
     occupation matrix ns (before diag.):
       0.667  0.000  0.000
       0.000  0.667  0.000
       0.000  0.000  0.667
     ------------------------ ATOM    8 ------------------------
     Tr[ns(  8)] =   4.00000
     eigenvalues:
       0.667  0.667  0.667
     eigenvectors (columns):
       1.000  0.000  0.000
       0.000  1.000  0.000
       0.000  0.000  1.000
     occupation matrix ns (before diag.):
       0.667  0.000  0.000
       0.000  0.667  0.000
       0.000  0.000  0.667
     ------------------------ ATOM    9 ------------------------
     Tr[ns(  9)] =   9.70000
     eigenvalues:
       0.970  0.970  0.970  0.970  0.970
     eigenvectors (columns):
       1.000  0.000  0.000  0.000  0.000
       0.000  1.000  0.000  0.000  0.000
       0.000  0.000  1.000  0.000  0.000
       0.000  0.000  0.000  1.000  0.000
       0.000  0.000  0.000  0.000  1.000
     occupation matrix ns (before diag.):
       0.970  0.000  0.000  0.000  0.000
       0.000  0.970  0.000  0.000  0.000
       0.000  0.000  0.970  0.000  0.000
       0.000  0.000  0.000  0.970  0.000
       0.000  0.000  0.000  0.000  0.970
     ------------------------ ATOM   10 ------------------------
     Tr[ns( 10)] =   9.70000
     eigenvalues:
       0.970  0.970  0.970  0.970  0.970
     eigenvectors (columns):
       1.000  0.000  0.000  0.000  0.000
       0.000  1.000  0.000  0.000  0.000
       0.000  0.000  1.000  0.000  0.000
       0.000  0.000  0.000  1.000  0.000
       0.000  0.000  0.000  0.000  1.000
     occupation matrix ns (before diag.):
       0.970  0.000  0.000  0.000  0.000
       0.000  0.970  0.000  0.000  0.000
       0.000  0.000  0.970  0.000  0.000
       0.000  0.000  0.000  0.970  0.000
       0.000  0.000  0.000  0.000  0.970
     ------------------------ ATOM   11 ------------------------
     Tr[ns( 11)] =   9.70000
     eigenvalues:
       0.970  0.970  0.970  0.970  0.970
     eigenvectors (columns):
       1.000  0.000  0.000  0.000  0.000
       0.000  1.000  0.000  0.000  0.000
       0.000  0.000  1.000  0.000  0.000
       0.000  0.000  0.000  1.000  0.000
       0.000  0.000  0.000  0.000  1.000
     occupation matrix ns (before diag.):
       0.970  0.000  0.000  0.000  0.000
       0.000  0.970  0.000  0.000  0.000
       0.000  0.000  0.970  0.000  0.000
       0.000  0.000  0.000  0.970  0.000
       0.000  0.000  0.000  0.000  0.970
     ------------------------ ATOM   12 ------------------------
     Tr[ns( 12)] =   9.70000
     eigenvalues:
       0.970  0.970  0.970  0.970  0.970
     eigenvectors (columns):
       1.000  0.000  0.000  0.000  0.000
       0.000  1.000  0.000  0.000  0.000
       0.000  0.000  1.000  0.000  0.000
       0.000  0.000  0.000  1.000  0.000
       0.000  0.000  0.000  0.000  1.000
     occupation matrix ns (before diag.):
       0.970  0.000  0.000  0.000  0.000
       0.000  0.970  0.000  0.000  0.000
       0.000  0.000  0.970  0.000  0.000
       0.000  0.000  0.000  0.970  0.000
       0.000  0.000  0.000  0.000  0.970
     ------------------------ ATOM   13 ------------------------
     Tr[ns( 13)] =   4.00000
     eigenvalues:
       0.667  0.667  0.667
     eigenvectors (columns):
       1.000  0.000  0.000
       0.000  1.000  0.000
       0.000  0.000  1.000
     occupation matrix ns (before diag.):
       0.667  0.000  0.000
       0.000  0.667  0.000
       0.000  0.000  0.667
     ------------------------ ATOM   14 ------------------------
     Tr[ns( 14)] =   4.00000
     eigenvalues:
       0.667  0.667  0.667
     eigenvectors (columns):
       1.000  0.000  0.000
       0.000  1.000  0.000
       0.000  0.000  1.000
     occupation matrix ns (before diag.):
       0.667  0.000  0.000
       0.000  0.667  0.000
       0.000  0.000  0.667
     ------------------------ ATOM   15 ------------------------
     Tr[ns( 15)] =   4.00000
     eigenvalues:
       0.667  0.667  0.667
     eigenvectors (columns):
       1.000  0.000  0.000
       0.000  1.000  0.000
       0.000  0.000  1.000
     occupation matrix ns (before diag.):
       0.667  0.000  0.000
       0.000  0.667  0.000
       0.000  0.000  0.667
     ------------------------ ATOM   16 ------------------------
     Tr[ns( 16)] =   4.00000
     eigenvalues:
       0.667  0.667  0.667
     eigenvectors (columns):
       1.000  0.000  0.000
       0.000  1.000  0.000
       0.000  0.000  1.000
     occupation matrix ns (before diag.):
       0.667  0.000  0.000
       0.000  0.667  0.000
       0.000  0.000  0.667
     ------------------------ ATOM   17 ------------------------
     Tr[ns( 17)] =   9.70000
     eigenvalues:
       0.970  0.970  0.970  0.970  0.970
     eigenvectors (columns):
       1.000  0.000  0.000  0.000  0.000
       0.000  1.000  0.000  0.000  0.000
       0.000  0.000  1.000  0.000  0.000
       0.000  0.000  0.000  1.000  0.000
       0.000  0.000  0.000  0.000  1.000
     occupation matrix ns (before diag.):
       0.970  0.000  0.000  0.000  0.000
       0.000  0.970  0.000  0.000  0.000
       0.000  0.000  0.970  0.000  0.000
       0.000  0.000  0.000  0.970  0.000
       0.000  0.000  0.000  0.000  0.970
     ------------------------ ATOM   18 ------------------------
     Tr[ns( 18)] =   9.70000
     eigenvalues:
       0.970  0.970  0.970  0.970  0.970
     eigenvectors (columns):
       1.000  0.000  0.000  0.000  0.000
       0.000  1.000  0.000  0.000  0.000
       0.000  0.000  1.000  0.000  0.000
       0.000  0.000  0.000  1.000  0.000
       0.000  0.000  0.000  0.000  1.000
     occupation matrix ns (before diag.):
       0.970  0.000  0.000  0.000  0.000
       0.000  0.970  0.000  0.000  0.000
       0.000  0.000  0.970  0.000  0.000
       0.000  0.000  0.000  0.970  0.000
       0.000  0.000  0.000  0.000  0.970
     ------------------------ ATOM   19 ------------------------
     Tr[ns( 19)] =   9.70000
     eigenvalues:
       0.970  0.970  0.970  0.970  0.970
     eigenvectors (columns):
       1.000  0.000  0.000  0.000  0.000
       0.000  1.000  0.000  0.000  0.000
       0.000  0.000  1.000  0.000  0.000
       0.000  0.000  0.000  1.000  0.000
       0.000  0.000  0.000  0.000  1.000
     occupation matrix ns (before diag.):
       0.970  0.000  0.000  0.000  0.000
       0.000  0.970  0.000  0.000  0.000
       0.000  0.000  0.970  0.000  0.000
       0.000  0.000  0.000  0.970  0.000
       0.000  0.000  0.000  0.000  0.970
     ------------------------ ATOM   20 ------------------------
     Tr[ns( 20)] =   9.70000
     eigenvalues:
       0.970  0.970  0.970  0.970  0.970
     eigenvectors (columns):
       1.000  0.000  0.000  0.000  0.000
       0.000  1.000  0.000  0.000  0.000
       0.000  0.000  1.000  0.000  0.000
       0.000  0.000  0.000  1.000  0.000
       0.000  0.000  0.000  0.000  1.000
     occupation matrix ns (before diag.):
       0.970  0.000  0.000  0.000  0.000
       0.000  0.970  0.000  0.000  0.000
       0.000  0.000  0.970  0.000  0.000
       0.000  0.000  0.000  0.970  0.000
       0.000  0.000  0.000  0.000  0.970
     ------------------------ ATOM   21 ------------------------
     Tr[ns( 21)] =   4.00000
     eigenvalues:
       0.667  0.667  0.667
     eigenvectors (columns):
       1.000  0.000  0.000
       0.000  1.000  0.000
       0.000  0.000  1.000
     occupation matrix ns (before diag.):
       0.667  0.000  0.000
       0.000  0.667  0.000
       0.000  0.000  0.667
     ------------------------ ATOM   22 ------------------------
     Tr[ns( 22)] =   4.00000
     eigenvalues:
       0.667  0.667  0.667
     eigenvectors (columns):
       1.000  0.000  0.000
       0.000  1.000  0.000
       0.000  0.000  1.000
     occupation matrix ns (before diag.):
       0.667  0.000  0.000
       0.000  0.667  0.000
       0.000  0.000  0.667
     ------------------------ ATOM   23 ------------------------
     Tr[ns( 23)] =   4.00000
     eigenvalues:
       0.667  0.667  0.667
     eigenvectors (columns):
       1.000  0.000  0.000
       0.000  1.000  0.000
       0.000  0.000  1.000
     occupation matrix ns (before diag.):
       0.667  0.000  0.000
       0.000  0.667  0.000
       0.000  0.000  0.667
     ------------------------ ATOM   24 ------------------------
     Tr[ns( 24)] =   4.00000
     eigenvalues:
       0.667  0.667  0.667
     eigenvectors (columns):
       1.000  0.000  0.000
       0.000  1.000  0.000
       0.000  0.000  1.000
     occupation matrix ns (before diag.):
       0.667  0.000  0.000
       0.000  0.667  0.000
       0.000  0.000  0.667
     ------------------------ ATOM   25 ------------------------
     Tr[ns( 25)] =   9.70000
     eigenvalues:
       0.970  0.970  0.970  0.970  0.970
     eigenvectors (columns):
       1.000  0.000  0.000  0.000  0.000
       0.000  1.000  0.000  0.000  0.000
       0.000  0.000  1.000  0.000  0.000
       0.000  0.000  0.000  1.000  0.000
       0.000  0.000  0.000  0.000  1.000
     occupation matrix ns (before diag.):
       0.970  0.000  0.000  0.000  0.000
       0.000  0.970  0.000  0.000  0.000
       0.000  0.000  0.970  0.000  0.000
       0.000  0.000  0.000  0.970  0.000
       0.000  0.000  0.000  0.000  0.970
     ------------------------ ATOM   26 ------------------------
     Tr[ns( 26)] =   9.70000
     eigenvalues:
       0.970  0.970  0.970  0.970  0.970
     eigenvectors (columns):
       1.000  0.000  0.000  0.000  0.000
       0.000  1.000  0.000  0.000  0.000
       0.000  0.000  1.000  0.000  0.000
       0.000  0.000  0.000  1.000  0.000
       0.000  0.000  0.000  0.000  1.000
     occupation matrix ns (before diag.):
       0.970  0.000  0.000  0.000  0.000
       0.000  0.970  0.000  0.000  0.000
       0.000  0.000  0.970  0.000  0.000
       0.000  0.000  0.000  0.970  0.000
       0.000  0.000  0.000  0.000  0.970
     ------------------------ ATOM   27 ------------------------
     Tr[ns( 27)] =   9.70000
     eigenvalues:
       0.970  0.970  0.970  0.970  0.970
     eigenvectors (columns):
       1.000  0.000  0.000  0.000  0.000
       0.000  1.000  0.000  0.000  0.000
       0.000  0.000  1.000  0.000  0.000
       0.000  0.000  0.000  1.000  0.000
       0.000  0.000  0.000  0.000  1.000
     occupation matrix ns (before diag.):
       0.970  0.000  0.000  0.000  0.000
       0.000  0.970  0.000  0.000  0.000
       0.000  0.000  0.970  0.000  0.000
       0.000  0.000  0.000  0.970  0.000
       0.000  0.000  0.000  0.000  0.970
     ------------------------ ATOM   28 ------------------------
     Tr[ns( 28)] =   9.70000
     eigenvalues:
       0.970  0.970  0.970  0.970  0.970
     eigenvectors (columns):
       1.000  0.000  0.000  0.000  0.000
       0.000  1.000  0.000  0.000  0.000
       0.000  0.000  1.000  0.000  0.000
       0.000  0.000  0.000  1.000  0.000
       0.000  0.000  0.000  0.000  1.000
     occupation matrix ns (before diag.):
       0.970  0.000  0.000  0.000  0.000
       0.000  0.970  0.000  0.000  0.000
       0.000  0.000  0.970  0.000  0.000
       0.000  0.000  0.000  0.970  0.000
       0.000  0.000  0.000  0.000  0.970
     ------------------------ ATOM   29 ------------------------
     Tr[ns( 29)] =   4.00000
     eigenvalues:
       0.667  0.667  0.667
     eigenvectors (columns):
       1.000  0.000  0.000
       0.000  1.000  0.000
       0.000  0.000  1.000
     occupation matrix ns (before diag.):
       0.667  0.000  0.000
       0.000  0.667  0.000
       0.000  0.000  0.667
     ------------------------ ATOM   30 ------------------------
     Tr[ns( 30)] =   4.00000
     eigenvalues:
       0.667  0.667  0.667
     eigenvectors (columns):
       1.000  0.000  0.000
       0.000  1.000  0.000
       0.000  0.000  1.000
     occupation matrix ns (before diag.):
       0.667  0.000  0.000
       0.000  0.667  0.000
       0.000  0.000  0.667
     ------------------------ ATOM   31 ------------------------
     Tr[ns( 31)] =   4.00000
     eigenvalues:
       0.667  0.667  0.667
     eigenvectors (columns):
       1.000  0.000  0.000
       0.000  1.000  0.000
       0.000  0.000  1.000
     occupation matrix ns (before diag.):
       0.667  0.000  0.000
       0.000  0.667  0.000
       0.000  0.000  0.667
     ------------------------ ATOM   32 ------------------------
     Tr[ns( 32)] =   4.00000
     eigenvalues:
       0.667  0.667  0.667
     eigenvectors (columns):
       1.000  0.000  0.000
       0.000  1.000  0.000
       0.000  0.000  1.000
     occupation matrix ns (before diag.):
       0.667  0.000  0.000
       0.000  0.667  0.000
       0.000  0.000  0.667
     ------------------------ ATOM   33 ------------------------
     Tr[ns( 33)] =   9.70000
     eigenvalues:
       0.970  0.970  0.970  0.970  0.970
     eigenvectors (columns):
       1.000  0.000  0.000  0.000  0.000
       0.000  1.000  0.000  0.000  0.000
       0.000  0.000  1.000  0.000  0.000
       0.000  0.000  0.000  1.000  0.000
       0.000  0.000  0.000  0.000  1.000
     occupation matrix ns (before diag.):
       0.970  0.000  0.000  0.000  0.000
       0.000  0.970  0.000  0.000  0.000
       0.000  0.000  0.970  0.000  0.000
       0.000  0.000  0.000  0.970  0.000
       0.000  0.000  0.000  0.000  0.970
     ------------------------ ATOM   34 ------------------------
     Tr[ns( 34)] =   9.70000
     eigenvalues:
       0.970  0.970  0.970  0.970  0.970
     eigenvectors (columns):
       1.000  0.000  0.000  0.000  0.000
       0.000  1.000  0.000  0.000  0.000
       0.000  0.000  1.000  0.000  0.000
       0.000  0.000  0.000  1.000  0.000
       0.000  0.000  0.000  0.000  1.000
     occupation matrix ns (before diag.):
       0.970  0.000  0.000  0.000  0.000
       0.000  0.970  0.000  0.000  0.000
       0.000  0.000  0.970  0.000  0.000
       0.000  0.000  0.000  0.970  0.000
       0.000  0.000  0.000  0.000  0.970
     ------------------------ ATOM   35 ------------------------
     Tr[ns( 35)] =   9.70000
     eigenvalues:
       0.970  0.970  0.970  0.970  0.970
     eigenvectors (columns):
       1.000  0.000  0.000  0.000  0.000
       0.000  1.000  0.000  0.000  0.000
       0.000  0.000  1.000  0.000  0.000
       0.000  0.000  0.000  1.000  0.000
       0.000  0.000  0.000  0.000  1.000
     occupation matrix ns (before diag.):
       0.970  0.000  0.000  0.000  0.000
       0.000  0.970  0.000  0.000  0.000
       0.000  0.000  0.970  0.000  0.000
       0.000  0.000  0.000  0.970  0.000
       0.000  0.000  0.000  0.000  0.970
     ------------------------ ATOM   36 ------------------------
     Tr[ns( 36)] =   9.70000
     eigenvalues:
       0.970  0.970  0.970  0.970  0.970
     eigenvectors (columns):
       1.000  0.000  0.000  0.000  0.000
       0.000  1.000  0.000  0.000  0.000
       0.000  0.000  1.000  0.000  0.000
       0.000  0.000  0.000  1.000  0.000
       0.000  0.000  0.000  0.000  1.000
     occupation matrix ns (before diag.):
       0.970  0.000  0.000  0.000  0.000
       0.000  0.970  0.000  0.000  0.000
       0.000  0.000  0.970  0.000  0.000
       0.000  0.000  0.000  0.970  0.000
       0.000  0.000  0.000  0.000  0.970
     ------------------------ ATOM   37 ------------------------
     Tr[ns( 37)] =   4.00000
     eigenvalues:
       0.667  0.667  0.667
     eigenvectors (columns):
       1.000  0.000  0.000
       0.000  1.000  0.000
       0.000  0.000  1.000
     occupation matrix ns (before diag.):
       0.667  0.000  0.000
       0.000  0.667  0.000
       0.000  0.000  0.667
     ------------------------ ATOM   38 ------------------------
     Tr[ns( 38)] =   4.00000
     eigenvalues:
       0.667  0.667  0.667
     eigenvectors (columns):
       1.000  0.000  0.000
       0.000  1.000  0.000
       0.000  0.000  1.000
     occupation matrix ns (before diag.):
       0.667  0.000  0.000
       0.000  0.667  0.000
       0.000  0.000  0.667
     ------------------------ ATOM   39 ------------------------
     Tr[ns( 39)] =   4.00000
     eigenvalues:
       0.667  0.667  0.667
     eigenvectors (columns):
       1.000  0.000  0.000
       0.000  1.000  0.000
       0.000  0.000  1.000
     occupation matrix ns (before diag.):
       0.667  0.000  0.000
       0.000  0.667  0.000
       0.000  0.000  0.667
     ------------------------ ATOM   40 ------------------------
     Tr[ns( 40)] =   4.00000
     eigenvalues:
       0.667  0.667  0.667
     eigenvectors (columns):
       1.000  0.000  0.000
       0.000  1.000  0.000
       0.000  0.000  1.000
     occupation matrix ns (before diag.):
       0.667  0.000  0.000
       0.000  0.667  0.000
       0.000  0.000  0.667
     ------------------------ ATOM   41 ------------------------
     Tr[ns( 41)] =   9.70000
     eigenvalues:
       0.970  0.970  0.970  0.970  0.970
     eigenvectors (columns):
       1.000  0.000  0.000  0.000  0.000
       0.000  1.000  0.000  0.000  0.000
       0.000  0.000  1.000  0.000  0.000
       0.000  0.000  0.000  1.000  0.000
       0.000  0.000  0.000  0.000  1.000
     occupation matrix ns (before diag.):
       0.970  0.000  0.000  0.000  0.000
       0.000  0.970  0.000  0.000  0.000
       0.000  0.000  0.970  0.000  0.000
       0.000  0.000  0.000  0.970  0.000
       0.000  0.000  0.000  0.000  0.970
     ------------------------ ATOM   42 ------------------------
     Tr[ns( 42)] =   9.70000
     eigenvalues:
       0.970  0.970  0.970  0.970  0.970
     eigenvectors (columns):
       1.000  0.000  0.000  0.000  0.000
       0.000  1.000  0.000  0.000  0.000
       0.000  0.000  1.000  0.000  0.000
       0.000  0.000  0.000  1.000  0.000
       0.000  0.000  0.000  0.000  1.000
     occupation matrix ns (before diag.):
       0.970  0.000  0.000  0.000  0.000
       0.000  0.970  0.000  0.000  0.000
       0.000  0.000  0.970  0.000  0.000
       0.000  0.000  0.000  0.970  0.000
       0.000  0.000  0.000  0.000  0.970
     ------------------------ ATOM   43 ------------------------
     Tr[ns( 43)] =   9.70000
     eigenvalues:
       0.970  0.970  0.970  0.970  0.970
     eigenvectors (columns):
       1.000  0.000  0.000  0.000  0.000
       0.000  1.000  0.000  0.000  0.000
       0.000  0.000  1.000  0.000  0.000
       0.000  0.000  0.000  1.000  0.000
       0.000  0.000  0.000  0.000  1.000
     occupation matrix ns (before diag.):
       0.970  0.000  0.000  0.000  0.000
       0.000  0.970  0.000  0.000  0.000
       0.000  0.000  0.970  0.000  0.000
       0.000  0.000  0.000  0.970  0.000
       0.000  0.000  0.000  0.000  0.970
     ------------------------ ATOM   44 ------------------------
     Tr[ns( 44)] =   9.70000
     eigenvalues:
       0.970  0.970  0.970  0.970  0.970
     eigenvectors (columns):
       1.000  0.000  0.000  0.000  0.000
       0.000  1.000  0.000  0.000  0.000
       0.000  0.000  1.000  0.000  0.000
       0.000  0.000  0.000  1.000  0.000
       0.000  0.000  0.000  0.000  1.000
     occupation matrix ns (before diag.):
       0.970  0.000  0.000  0.000  0.000
       0.000  0.970  0.000  0.000  0.000
       0.000  0.000  0.970  0.000  0.000
       0.000  0.000  0.000  0.970  0.000
       0.000  0.000  0.000  0.000  0.970
     ------------------------ ATOM   45 ------------------------
     Tr[ns( 45)] =   4.00000
     eigenvalues:
       0.667  0.667  0.667
     eigenvectors (columns):
       1.000  0.000  0.000
       0.000  1.000  0.000
       0.000  0.000  1.000
     occupation matrix ns (before diag.):
       0.667  0.000  0.000
       0.000  0.667  0.000
       0.000  0.000  0.667
     ------------------------ ATOM   46 ------------------------
     Tr[ns( 46)] =   4.00000
     eigenvalues:
       0.667  0.667  0.667
     eigenvectors (columns):
       1.000  0.000  0.000
       0.000  1.000  0.000
       0.000  0.000  1.000
     occupation matrix ns (before diag.):
       0.667  0.000  0.000
       0.000  0.667  0.000
       0.000  0.000  0.667
     ------------------------ ATOM   47 ------------------------
     Tr[ns( 47)] =   4.00000
     eigenvalues:
       0.667  0.667  0.667
     eigenvectors (columns):
       1.000  0.000  0.000
       0.000  1.000  0.000
       0.000  0.000  1.000
     occupation matrix ns (before diag.):
       0.667  0.000  0.000
       0.000  0.667  0.000
       0.000  0.000  0.667
     ------------------------ ATOM   48 ------------------------
     Tr[ns( 48)] =   4.00000
     eigenvalues:
       0.667  0.667  0.667
     eigenvectors (columns):
       1.000  0.000  0.000
       0.000  1.000  0.000
       0.000  0.000  1.000
     occupation matrix ns (before diag.):
       0.667  0.000  0.000
       0.000  0.667  0.000
       0.000  0.000  0.667
     ------------------------ ATOM   49 ------------------------
     Tr[ns( 49)] =   9.70000
     eigenvalues:
       0.970  0.970  0.970  0.970  0.970
     eigenvectors (columns):
       1.000  0.000  0.000  0.000  0.000
       0.000  1.000  0.000  0.000  0.000
       0.000  0.000  1.000  0.000  0.000
       0.000  0.000  0.000  1.000  0.000
       0.000  0.000  0.000  0.000  1.000
     occupation matrix ns (before diag.):
       0.970  0.000  0.000  0.000  0.000
       0.000  0.970  0.000  0.000  0.000
       0.000  0.000  0.970  0.000  0.000
       0.000  0.000  0.000  0.970  0.000
       0.000  0.000  0.000  0.000  0.970
     ------------------------ ATOM   50 ------------------------
     Tr[ns( 50)] =   9.70000
     eigenvalues:
       0.970  0.970  0.970  0.970  0.970
     eigenvectors (columns):
       1.000  0.000  0.000  0.000  0.000
       0.000  1.000  0.000  0.000  0.000
       0.000  0.000  1.000  0.000  0.000
       0.000  0.000  0.000  1.000  0.000
       0.000  0.000  0.000  0.000  1.000
     occupation matrix ns (before diag.):
       0.970  0.000  0.000  0.000  0.000
       0.000  0.970  0.000  0.000  0.000
       0.000  0.000  0.970  0.000  0.000
       0.000  0.000  0.000  0.970  0.000
       0.000  0.000  0.000  0.000  0.970
     ------------------------ ATOM   51 ------------------------
     Tr[ns( 51)] =   9.70000
     eigenvalues:
       0.970  0.970  0.970  0.970  0.970
     eigenvectors (columns):
       1.000  0.000  0.000  0.000  0.000
       0.000  1.000  0.000  0.000  0.000
       0.000  0.000  1.000  0.000  0.000
       0.000  0.000  0.000  1.000  0.000
       0.000  0.000  0.000  0.000  1.000
     occupation matrix ns (before diag.):
       0.970  0.000  0.000  0.000  0.000
       0.000  0.970  0.000  0.000  0.000
       0.000  0.000  0.970  0.000  0.000
       0.000  0.000  0.000  0.970  0.000
       0.000  0.000  0.000  0.000  0.970
     ------------------------ ATOM   52 ------------------------
     Tr[ns( 52)] =   9.70000
     eigenvalues:
       0.970  0.970  0.970  0.970  0.970
     eigenvectors (columns):
       1.000  0.000  0.000  0.000  0.000
       0.000  1.000  0.000  0.000  0.000
       0.000  0.000  1.000  0.000  0.000
       0.000  0.000  0.000  1.000  0.000
       0.000  0.000  0.000  0.000  1.000
     occupation matrix ns (before diag.):
       0.970  0.000  0.000  0.000  0.000
       0.000  0.970  0.000  0.000  0.000
       0.000  0.000  0.970  0.000  0.000
       0.000  0.000  0.000  0.970  0.000
       0.000  0.000  0.000  0.000  0.970
     ------------------------ ATOM   53 ------------------------
     Tr[ns( 53)] =   4.00000
     eigenvalues:
       0.667  0.667  0.667
     eigenvectors (columns):
       1.000  0.000  0.000
       0.000  1.000  0.000
       0.000  0.000  1.000
     occupation matrix ns (before diag.):
       0.667  0.000  0.000
       0.000  0.667  0.000
       0.000  0.000  0.667
     ------------------------ ATOM   54 ------------------------
     Tr[ns( 54)] =   4.00000
     eigenvalues:
       0.667  0.667  0.667
     eigenvectors (columns):
       1.000  0.000  0.000
       0.000  1.000  0.000
       0.000  0.000  1.000
     occupation matrix ns (before diag.):
       0.667  0.000  0.000
       0.000  0.667  0.000
       0.000  0.000  0.667
     ------------------------ ATOM   55 ------------------------
     Tr[ns( 55)] =   4.00000
     eigenvalues:
       0.667  0.667  0.667
     eigenvectors (columns):
       1.000  0.000  0.000
       0.000  1.000  0.000
       0.000  0.000  1.000
     occupation matrix ns (before diag.):
       0.667  0.000  0.000
       0.000  0.667  0.000
       0.000  0.000  0.667
     ------------------------ ATOM   56 ------------------------
     Tr[ns( 56)] =   4.00000
     eigenvalues:
       0.667  0.667  0.667
     eigenvectors (columns):
       1.000  0.000  0.000
       0.000  1.000  0.000
       0.000  0.000  1.000
     occupation matrix ns (before diag.):
       0.667  0.000  0.000
       0.000  0.667  0.000
       0.000  0.000  0.667
     ------------------------ ATOM   57 ------------------------
     Tr[ns( 57)] =   9.70000
     eigenvalues:
       0.970  0.970  0.970  0.970  0.970
     eigenvectors (columns):
       1.000  0.000  0.000  0.000  0.000
       0.000  1.000  0.000  0.000  0.000
       0.000  0.000  1.000  0.000  0.000
       0.000  0.000  0.000  1.000  0.000
       0.000  0.000  0.000  0.000  1.000
     occupation matrix ns (before diag.):
       0.970  0.000  0.000  0.000  0.000
       0.000  0.970  0.000  0.000  0.000
       0.000  0.000  0.970  0.000  0.000
       0.000  0.000  0.000  0.970  0.000
       0.000  0.000  0.000  0.000  0.970
     ------------------------ ATOM   58 ------------------------
     Tr[ns( 58)] =   9.70000
     eigenvalues:
       0.970  0.970  0.970  0.970  0.970
     eigenvectors (columns):
       1.000  0.000  0.000  0.000  0.000
       0.000  1.000  0.000  0.000  0.000
       0.000  0.000  1.000  0.000  0.000
       0.000  0.000  0.000  1.000  0.000
       0.000  0.000  0.000  0.000  1.000
     occupation matrix ns (before diag.):
       0.970  0.000  0.000  0.000  0.000
       0.000  0.970  0.000  0.000  0.000
       0.000  0.000  0.970  0.000  0.000
       0.000  0.000  0.000  0.970  0.000
       0.000  0.000  0.000  0.000  0.970
     ------------------------ ATOM   59 ------------------------
     Tr[ns( 59)] =   9.70000
     eigenvalues:
       0.970  0.970  0.970  0.970  0.970
     eigenvectors (columns):
       1.000  0.000  0.000  0.000  0.000
       0.000  1.000  0.000  0.000  0.000
       0.000  0.000  1.000  0.000  0.000
       0.000  0.000  0.000  1.000  0.000
       0.000  0.000  0.000  0.000  1.000
     occupation matrix ns (before diag.):
       0.970  0.000  0.000  0.000  0.000
       0.000  0.970  0.000  0.000  0.000
       0.000  0.000  0.970  0.000  0.000
       0.000  0.000  0.000  0.970  0.000
       0.000  0.000  0.000  0.000  0.970
     ------------------------ ATOM   60 ------------------------
     Tr[ns( 60)] =   9.70000
     eigenvalues:
       0.970  0.970  0.970  0.970  0.970
     eigenvectors (columns):
       1.000  0.000  0.000  0.000  0.000
       0.000  1.000  0.000  0.000  0.000
       0.000  0.000  1.000  0.000  0.000
       0.000  0.000  0.000  1.000  0.000
       0.000  0.000  0.000  0.000  1.000
     occupation matrix ns (before diag.):
       0.970  0.000  0.000  0.000  0.000
       0.000  0.970  0.000  0.000  0.000
       0.000  0.000  0.970  0.000  0.000
       0.000  0.000  0.000  0.970  0.000
       0.000  0.000  0.000  0.000  0.970
     ------------------------ ATOM   61 ------------------------
     Tr[ns( 61)] =   4.00000
     eigenvalues:
       0.667  0.667  0.667
     eigenvectors (columns):
       1.000  0.000  0.000
       0.000  1.000  0.000
       0.000  0.000  1.000
     occupation matrix ns (before diag.):
       0.667  0.000  0.000
       0.000  0.667  0.000
       0.000  0.000  0.667
     ------------------------ ATOM   62 ------------------------
     Tr[ns( 62)] =   4.00000
     eigenvalues:
       0.667  0.667  0.667
     eigenvectors (columns):
       1.000  0.000  0.000
       0.000  1.000  0.000
       0.000  0.000  1.000
     occupation matrix ns (before diag.):
       0.667  0.000  0.000
       0.000  0.667  0.000
       0.000  0.000  0.667
     ------------------------ ATOM   63 ------------------------
     Tr[ns( 63)] =   4.00000
     eigenvalues:
       0.667  0.667  0.667
     eigenvectors (columns):
       1.000  0.000  0.000
       0.000  1.000  0.000
       0.000  0.000  1.000
     occupation matrix ns (before diag.):
       0.667  0.000  0.000
       0.000  0.667  0.000
       0.000  0.000  0.667
     ------------------------ ATOM   64 ------------------------
     Tr[ns( 64)] =   4.00000
     eigenvalues:
       0.667  0.667  0.667
     eigenvectors (columns):
       1.000  0.000  0.000
       0.000  1.000  0.000
       0.000  0.000  1.000
     occupation matrix ns (before diag.):
       0.667  0.000  0.000
       0.000  0.667  0.000
       0.000  0.000  0.667

     Number of occupied Hubbard levels =  438.4000

     Atomic wfc used for Hubbard projectors are orthogonalized

     Starting wfcs are  416 randomized atomic wfcs
     Checking if some PAW data can be deallocated... 
       PAW data deallocated on  560 nodes for type:  1
       PAW data deallocated on  560 nodes for type:  2

     total cpu time spent up to now is       25.4 secs

     Self-consistent Calculation

     iteration #  1     ecut=   105.00 Ry     beta= 0.70
     Davidson diagonalization with overlap

---- Real-time Memory Report at c_bands before calling an iterative solver
           446 MiB given to the printing process from OS
             0 MiB allocation reported by mallinfo(arena+hblkhd)
        214368 MiB available memory on the node where the printing process lives
------------------
     ethr =  1.00E-02,  avg # of iterations =  4.4

     =================== HUBBARD OCCUPATIONS ===================
     ------------------------ ATOM    1 ------------------------
     Tr[ns(  1)] =   9.96961
     eigenvalues:
       0.996  0.996  0.996  0.998  0.998
     eigenvectors (columns):
      -0.000 -0.000  0.000 -0.116 -0.993
      -0.326  0.092  0.941  0.000  0.000
      -0.597  0.752 -0.280  0.000  0.000
       0.000  0.000 -0.000  0.993 -0.116
       0.733  0.653  0.190 -0.000 -0.000
     occupation matrix ns (before diag.):
       0.998 -0.000 -0.000  0.000  0.000
      -0.000  0.996 -0.000  0.000  0.000
      -0.000 -0.000  0.996  0.000  0.000
       0.000  0.000  0.000  0.998 -0.000
       0.000  0.000  0.000 -0.000  0.996
     ------------------------ ATOM    2 ------------------------
     Tr[ns(  2)] =   9.96976
     eigenvalues:
       0.996  0.996  0.996  0.998  0.998
     eigenvectors (columns):
      -0.000 -0.001  0.000 -0.866 -0.500
      -0.085 -0.707 -0.702  0.001 -0.000
       0.993  0.000 -0.120  0.000 -0.000
       0.000 -0.000 -0.000 -0.500  0.866
       0.085 -0.707  0.702  0.001  0.000
     occupation matrix ns (before diag.):
       0.998 -0.000  0.000 -0.000 -0.000
      -0.000  0.996  0.000 -0.000 -0.000
       0.000  0.000  0.996 -0.000 -0.000
      -0.000 -0.000 -0.000  0.998 -0.000
      -0.000 -0.000 -0.000 -0.000  0.996
     ------------------------ ATOM    3 ------------------------
     Tr[ns(  3)] =   9.96976
     eigenvalues:
       0.996  0.996  0.996  0.998  0.998
     eigenvectors (columns):
      -0.000  0.001 -0.000 -0.866 -0.500
       0.993 -0.000  0.120  0.000 -0.000
      -0.085  0.707  0.702  0.001 -0.000
      -0.000 -0.000 -0.000  0.500 -0.866
       0.085  0.707 -0.702  0.001  0.000
     occupation matrix ns (before diag.):
       0.998  0.000 -0.000  0.000 -0.000
       0.000  0.996  0.000  0.000 -0.000
      -0.000  0.000  0.996  0.000 -0.000
       0.000  0.000  0.000  0.998  0.000
      -0.000 -0.000 -0.000  0.000  0.996
     ------------------------ ATOM    4 ------------------------
     Tr[ns(  4)] =   9.96976
     eigenvalues:
       0.996  0.996  0.996  0.998  0.998
     eigenvectors (columns):
      -0.000 -0.000 -0.000 -0.000 -1.000
       0.085 -0.707 -0.702 -0.001  0.000
       0.085  0.707 -0.702  0.001  0.000
       0.000 -0.001  0.000  1.000 -0.000
       0.993 -0.000  0.120 -0.000 -0.000
     occupation matrix ns (before diag.):
       0.998 -0.000 -0.000  0.000  0.000
      -0.000  0.996  0.000 -0.000 -0.000
      -0.000  0.000  0.996  0.000 -0.000
       0.000 -0.000  0.000  0.998 -0.000
       0.000 -0.000 -0.000 -0.000  0.996
     ------------------------ ATOM    5 ------------------------
     Tr[ns(  5)] =   4.73977
     eigenvalues:
       0.790  0.790  0.790
     eigenvectors (columns):
       0.707  0.158 -0.689
       0.000 -0.975 -0.224
       0.707 -0.158  0.689
     occupation matrix ns (before diag.):
       0.790  0.000 -0.000
       0.000  0.790 -0.000
      -0.000 -0.000  0.790
     ------------------------ ATOM    6 ------------------------
     Tr[ns(  6)] =   4.74057
     eigenvalues:
       0.790  0.790  0.790
     eigenvectors (columns):
      -0.577 -0.769  0.273
       0.577 -0.621 -0.530
       0.577 -0.148  0.803
     occupation matrix ns (before diag.):
       0.790  0.000  0.000
       0.000  0.790 -0.000
       0.000 -0.000  0.790
     ------------------------ ATOM    7 ------------------------
     Tr[ns(  7)] =   4.73977
     eigenvalues:
       0.790  0.790  0.790
     eigenvectors (columns):
       0.000  0.975  0.224
       0.707 -0.158  0.689
      -0.707 -0.158  0.689
     occupation matrix ns (before diag.):
       0.790  0.000  0.000
       0.000  0.790  0.000
       0.000  0.000  0.790
     ------------------------ ATOM    8 ------------------------
     Tr[ns(  8)] =   4.73977
     eigenvalues:
       0.790  0.790  0.790
     eigenvectors (columns):
       0.707 -0.158  0.689
       0.707  0.158 -0.689
       0.000  0.975  0.224
     occupation matrix ns (before diag.):
       0.790 -0.000  0.000
      -0.000  0.790 -0.000
       0.000 -0.000  0.790
     ------------------------ ATOM    9 ------------------------
     Tr[ns(  9)] =   9.96970
     eigenvalues:
       0.996  0.996  0.996  0.998  0.998
     eigenvectors (columns):
      -0.000  0.000 -0.000 -1.000 -0.000
      -0.000  0.403 -0.915  0.000  0.000
      -0.000  0.915  0.403  0.000  0.000
       0.000 -0.000  0.000 -0.000  1.000
       1.000  0.000 -0.000 -0.000 -0.000
     occupation matrix ns (before diag.):
       0.998 -0.000 -0.000  0.000  0.000
      -0.000  0.996 -0.000  0.000  0.000
      -0.000 -0.000  0.996  0.000  0.000
       0.000  0.000  0.000  0.998 -0.000
       0.000  0.000  0.000 -0.000  0.996
     ------------------------ ATOM   10 ------------------------
     Tr[ns( 10)] =   9.96976
     eigenvalues:
       0.996  0.996  0.996  0.998  0.998
     eigenvectors (columns):
      -0.000 -0.001  0.000 -0.866 -0.500
      -0.085 -0.707 -0.702  0.001 -0.000
      -0.993  0.000  0.120  0.000  0.000
       0.000 -0.000 -0.000 -0.500  0.866
      -0.085  0.707 -0.702 -0.001 -0.000
     occupation matrix ns (before diag.):
       0.998 -0.000 -0.000 -0.000  0.000
      -0.000  0.996 -0.000 -0.000  0.000
      -0.000 -0.000  0.996  0.000 -0.000
      -0.000 -0.000  0.000  0.998  0.000
       0.000  0.000 -0.000  0.000  0.996
     ------------------------ ATOM   11 ------------------------
     Tr[ns( 11)] =   9.96976
     eigenvalues:
       0.996  0.996  0.996  0.998  0.998
     eigenvectors (columns):
      -0.000 -0.001  0.000 -0.866 -0.500
      -0.993  0.000  0.120  0.000  0.000
      -0.085 -0.707 -0.702  0.001 -0.000
      -0.000  0.000  0.000  0.500 -0.866
      -0.085  0.707 -0.702 -0.001 -0.000
     occupation matrix ns (before diag.):
       0.998 -0.000 -0.000  0.000  0.000
      -0.000  0.996 -0.000 -0.000 -0.000
      -0.000 -0.000  0.996  0.000  0.000
       0.000 -0.000  0.000  0.998 -0.000
       0.000 -0.000  0.000 -0.000  0.996
     ------------------------ ATOM   12 ------------------------
     Tr[ns( 12)] =   9.96972
     eigenvalues:
       0.996  0.996  0.996  0.998  0.998
     eigenvectors (columns):
      -0.001 -0.003  0.000  0.000  1.000
      -0.498  0.502 -0.707  0.001  0.001
      -0.498  0.502  0.707 -0.001  0.001
       0.000  0.000  0.002  1.000 -0.000
       0.710  0.704 -0.000 -0.000  0.003
     occupation matrix ns (before diag.):
       0.998  0.000  0.000  0.000  0.000
       0.000  0.996 -0.000  0.000  0.000
       0.000 -0.000  0.996 -0.000  0.000
       0.000  0.000 -0.000  0.998 -0.000
       0.000  0.000  0.000 -0.000  0.996
     ------------------------ ATOM   13 ------------------------
     Tr[ns( 13)] =   4.74029
     eigenvalues:
       0.790  0.790  0.790
     eigenvectors (columns):
       0.241  0.665 -0.707
       0.241  0.665  0.707
       0.940 -0.340  0.000
     occupation matrix ns (before diag.):
       0.790 -0.000 -0.000
      -0.000  0.790 -0.000
      -0.000 -0.000  0.790
     ------------------------ ATOM   14 ------------------------
     Tr[ns( 14)] =   4.74029
     eigenvalues:
       0.790  0.790  0.790
     eigenvectors (columns):
       0.940 -0.340  0.000
       0.241  0.665 -0.707
       0.241  0.665  0.707
     occupation matrix ns (before diag.):
       0.790 -0.000 -0.000
      -0.000  0.790 -0.000
      -0.000 -0.000  0.790
     ------------------------ ATOM   15 ------------------------
     Tr[ns( 15)] =   4.73926
     eigenvalues:
       0.790  0.790  0.790
     eigenvectors (columns):
       0.478  0.662  0.577
       0.334 -0.745  0.577
      -0.812  0.083  0.577
     occupation matrix ns (before diag.):
       0.790  0.000  0.000
       0.000  0.790  0.000
       0.000  0.000  0.790
     ------------------------ ATOM   16 ------------------------
     Tr[ns( 16)] =   4.74029
     eigenvalues:
       0.790  0.790  0.790
     eigenvectors (columns):
      -0.241 -0.665  0.707
      -0.940  0.340 -0.000
      -0.241 -0.665 -0.707
     occupation matrix ns (before diag.):
       0.790 -0.000 -0.000
      -0.000  0.790 -0.000
      -0.000 -0.000  0.790
     ------------------------ ATOM   17 ------------------------
     Tr[ns( 17)] =   9.96970
     eigenvalues:
       0.996  0.996  0.996  0.998  0.998
     eigenvectors (columns):
       0.000 -0.000 -0.000 -0.500  0.866
       1.000  0.000 -0.000 -0.000 -0.000
       0.000 -0.638  0.770 -0.000 -0.000
      -0.000  0.000  0.000 -0.866 -0.500
      -0.000  0.770  0.638  0.000  0.000
     occupation matrix ns (before diag.):
       0.998 -0.000 -0.000 -0.000  0.000
      -0.000  0.996 -0.000  0.000  0.000
      -0.000 -0.000  0.996  0.000  0.000
      -0.000  0.000  0.000  0.998 -0.000
       0.000  0.000  0.000 -0.000  0.996
     ------------------------ ATOM   18 ------------------------
     Tr[ns( 18)] =   9.96976
     eigenvalues:
       0.996  0.996  0.996  0.998  0.998
     eigenvectors (columns):
      -0.000  0.001 -0.000 -0.866 -0.500
       0.085 -0.707 -0.702 -0.001  0.000
      -0.993  0.000 -0.120  0.000  0.000
       0.000  0.000  0.000 -0.500  0.866
       0.085  0.707 -0.702  0.001  0.000
     occupation matrix ns (before diag.):
       0.998  0.000 -0.000 -0.000 -0.000
       0.000  0.996  0.000  0.000  0.000
      -0.000  0.000  0.996  0.000  0.000
      -0.000  0.000  0.000  0.998 -0.000
      -0.000  0.000  0.000 -0.000  0.996
     ------------------------ ATOM   19 ------------------------
     Tr[ns( 19)] =   9.96972
     eigenvalues:
       0.996  0.996  0.996  0.998  0.998
     eigenvectors (columns):
      -0.000 -0.001 -0.002  0.866  0.500
       0.710  0.704 -0.000 -0.000  0.003
       0.498 -0.502  0.707  0.001 -0.001
      -0.001 -0.003  0.001 -0.500  0.866
      -0.498  0.502  0.707  0.001  0.001
     occupation matrix ns (before diag.):
       0.998  0.000  0.000  0.000  0.000
       0.000  0.996 -0.000  0.000  0.000
       0.000 -0.000  0.996 -0.000  0.000
       0.000  0.000 -0.000  0.998  0.000
       0.000  0.000  0.000  0.000  0.996
     ------------------------ ATOM   20 ------------------------
     Tr[ns( 20)] =   9.96976
     eigenvalues:
       0.996  0.996  0.996  0.998  0.998
     eigenvectors (columns):
       0.000  0.000  0.000 -0.000 -1.000
       0.085  0.707 -0.702  0.001 -0.000
      -0.085  0.707  0.702  0.001  0.000
       0.000 -0.001  0.000  1.000 -0.000
       0.993  0.000  0.120 -0.000  0.000
     occupation matrix ns (before diag.):
       0.998  0.000 -0.000  0.000 -0.000
       0.000  0.996 -0.000  0.000 -0.000
      -0.000 -0.000  0.996  0.000  0.000
       0.000  0.000  0.000  0.998 -0.000
      -0.000 -0.000  0.000 -0.000  0.996
     ------------------------ ATOM   21 ------------------------
     Tr[ns( 21)] =   4.74029
     eigenvalues:
       0.790  0.790  0.790
     eigenvectors (columns):
       0.940 -0.340  0.000
      -0.241 -0.665 -0.707
       0.241  0.665 -0.707
     occupation matrix ns (before diag.):
       0.790  0.000 -0.000
       0.000  0.790  0.000
      -0.000  0.000  0.790
     ------------------------ ATOM   22 ------------------------
     Tr[ns( 22)] =   4.74029
     eigenvalues:
       0.790  0.790  0.790
     eigenvectors (columns):
       0.241 -0.665 -0.707
      -0.241  0.665 -0.707
       0.940  0.340  0.000
     occupation matrix ns (before diag.):
       0.790  0.000 -0.000
       0.000  0.790  0.000
      -0.000  0.000  0.790
     ------------------------ ATOM   23 ------------------------
     Tr[ns( 23)] =   4.74029
     eigenvalues:
       0.790  0.790  0.790
     eigenvectors (columns):
      -0.241 -0.665 -0.707
       0.940 -0.340 -0.000
      -0.241 -0.665  0.707
     occupation matrix ns (before diag.):
       0.790  0.000 -0.000
       0.000  0.790  0.000
      -0.000  0.000  0.790
     ------------------------ ATOM   24 ------------------------
     Tr[ns( 24)] =   4.73926
     eigenvalues:
       0.790  0.790  0.790
     eigenvectors (columns):
       0.379  0.723  0.577
       0.816  0.034 -0.577
       0.437 -0.690  0.577
     occupation matrix ns (before diag.):
       0.790 -0.000  0.000
      -0.000  0.790 -0.000
       0.000 -0.000  0.790
     ------------------------ ATOM   25 ------------------------
     Tr[ns( 25)] =   9.96979
     eigenvalues:
       0.996  0.996  0.996  0.998  0.998
     eigenvectors (columns):
      -0.000 -0.000 -0.000  0.500 -0.866
      -0.387 -0.922  0.000 -0.000  0.000
      -0.000 -0.000 -1.000 -0.000  0.000
       0.000  0.000  0.000 -0.866 -0.500
       0.922 -0.387 -0.000  0.000  0.000
     occupation matrix ns (before diag.):
       0.998 -0.000 -0.000  0.000  0.000
      -0.000  0.996 -0.000  0.000  0.000
      -0.000 -0.000  0.996  0.000  0.000
       0.000  0.000  0.000  0.998 -0.000
       0.000  0.000  0.000 -0.000  0.996
     ------------------------ ATOM   26 ------------------------
     Tr[ns( 26)] =   9.96976
     eigenvalues:
       0.996  0.996  0.996  0.998  0.998
     eigenvectors (columns):
      -0.000  0.001 -0.000 -0.866 -0.500
       0.085 -0.707 -0.702 -0.001  0.000
       0.993 -0.000  0.120  0.000 -0.000
       0.000  0.000  0.000 -0.500  0.866
      -0.085 -0.707  0.702 -0.001 -0.000
     occupation matrix ns (before diag.):
       0.998  0.000  0.000 -0.000  0.000
       0.000  0.996 -0.000  0.000 -0.000
       0.000 -0.000  0.996 -0.000  0.000
      -0.000  0.000 -0.000  0.998  0.000
       0.000 -0.000  0.000  0.000  0.996
     ------------------------ ATOM   27 ------------------------
     Tr[ns( 27)] =   9.96972
     eigenvalues:
       0.996  0.996  0.996  0.998  0.998
     eigenvectors (columns):
      -0.000 -0.001 -0.002  0.866  0.500
      -0.710 -0.704 -0.000 -0.000 -0.003
       0.498 -0.502  0.707  0.001 -0.001
      -0.001 -0.003  0.001 -0.500  0.866
       0.498 -0.502 -0.707 -0.001 -0.001
     occupation matrix ns (before diag.):
       0.998 -0.000  0.000  0.000 -0.000
      -0.000  0.996  0.000 -0.000  0.000
       0.000  0.000  0.996 -0.000 -0.000
       0.000 -0.000 -0.000  0.998 -0.000
      -0.000  0.000 -0.000 -0.000  0.996
     ------------------------ ATOM   28 ------------------------
     Tr[ns( 28)] =   9.96972
     eigenvalues:
       0.996  0.996  0.996  0.998  0.998
     eigenvectors (columns):
      -0.001 -0.003  0.000 -0.000  1.000
       0.498 -0.502  0.707 -0.001 -0.001
      -0.498  0.502  0.707 -0.001  0.001
      -0.000  0.000  0.002  1.000  0.000
      -0.710 -0.704  0.000 -0.000 -0.003
     occupation matrix ns (before diag.):
       0.998 -0.000  0.000  0.000 -0.000
      -0.000  0.996  0.000 -0.000  0.000
       0.000  0.000  0.996 -0.000 -0.000
       0.000 -0.000 -0.000  0.998 -0.000
      -0.000  0.000 -0.000 -0.000  0.996
     ------------------------ ATOM   29 ------------------------
     Tr[ns( 29)] =   4.74057
     eigenvalues:
       0.790  0.790  0.790
     eigenvectors (columns):
       0.577  0.262 -0.773
       0.577  0.539  0.614
      -0.577  0.801 -0.160
     occupation matrix ns (before diag.):
       0.790 -0.000  0.000
      -0.000  0.790  0.000
       0.000  0.000  0.790
     ------------------------ ATOM   30 ------------------------
     Tr[ns( 30)] =   4.73977
     eigenvalues:
       0.790  0.790  0.790
     eigenvectors (columns):
      -0.707  0.158 -0.689
      -0.000  0.975  0.224
      -0.707 -0.158  0.689
     occupation matrix ns (before diag.):
       0.790 -0.000 -0.000
      -0.000  0.790  0.000
      -0.000  0.000  0.790
     ------------------------ ATOM   31 ------------------------
     Tr[ns( 31)] =   4.73977
     eigenvalues:
       0.790  0.790  0.790
     eigenvectors (columns):
       0.707  0.158  0.689
      -0.707  0.158  0.689
      -0.000 -0.975  0.224
     occupation matrix ns (before diag.):
       0.790  0.000  0.000
       0.000  0.790  0.000
       0.000  0.000  0.790
     ------------------------ ATOM   32 ------------------------
     Tr[ns( 32)] =   4.73977
     eigenvalues:
       0.790  0.790  0.790
     eigenvectors (columns):
       0.000  0.975  0.224
       0.707  0.158 -0.689
       0.707 -0.158  0.689
     occupation matrix ns (before diag.):
       0.790 -0.000  0.000
      -0.000  0.790 -0.000
       0.000 -0.000  0.790
     ------------------------ ATOM   33 ------------------------
     Tr[ns( 33)] =   9.96970
     eigenvalues:
       0.996  0.996  0.996  0.998  0.998
     eigenvectors (columns):
      -0.000 -0.000 -0.000  0.500 -0.866
      -0.000 -0.365 -0.931 -0.000  0.000
      -1.000  0.000  0.000 -0.000  0.000
       0.000  0.000  0.000 -0.866 -0.500
       0.000  0.931 -0.365  0.000  0.000
     occupation matrix ns (before diag.):
       0.998 -0.000 -0.000  0.000  0.000
      -0.000  0.996 -0.000  0.000  0.000
      -0.000 -0.000  0.996  0.000  0.000
       0.000  0.000  0.000  0.998 -0.000
       0.000  0.000  0.000 -0.000  0.996
     ------------------------ ATOM   34 ------------------------
     Tr[ns( 34)] =   9.96972
     eigenvalues:
       0.996  0.996  0.996  0.998  0.998
     eigenvectors (columns):
      -0.000 -0.001 -0.002  0.866  0.500
       0.498 -0.502  0.707  0.001 -0.001
       0.710  0.704 -0.000 -0.000  0.003
       0.001  0.003 -0.001  0.500 -0.866
      -0.498  0.502  0.707  0.001  0.001
     occupation matrix ns (before diag.):
       0.998  0.000  0.000 -0.000  0.000
       0.000  0.996 -0.000  0.000  0.000
       0.000 -0.000  0.996 -0.000  0.000
      -0.000  0.000 -0.000  0.998 -0.000
       0.000  0.000  0.000 -0.000  0.996
     ------------------------ ATOM   35 ------------------------
     Tr[ns( 35)] =   9.96976
     eigenvalues:
       0.996  0.996  0.996  0.998  0.998
     eigenvectors (columns):
      -0.000 -0.001  0.000 -0.866 -0.500
      -0.993 -0.000  0.120  0.000  0.000
       0.085  0.707  0.702 -0.001  0.000
      -0.000  0.000  0.000  0.500 -0.866
       0.085 -0.707  0.702  0.001  0.000
     occupation matrix ns (before diag.):
       0.998 -0.000  0.000  0.000 -0.000
      -0.000  0.996  0.000 -0.000  0.000
       0.000  0.000  0.996 -0.000  0.000
       0.000 -0.000 -0.000  0.998  0.000
      -0.000  0.000  0.000  0.000  0.996
     ------------------------ ATOM   36 ------------------------
     Tr[ns( 36)] =   9.96976
     eigenvalues:
[...]
     1.0000   1.0000   1.0000   1.0000   1.0000   1.0000   1.0000   1.0000
     1.0000   1.0000   1.0000   1.0000   1.0000   1.0000   1.0000   1.0000
     1.0000   1.0000   1.0000   1.0000   1.0000   1.0000   1.0000   1.0000
     1.0000   1.0000   1.0000   1.0000   1.0000   1.0000   1.0000   1.0000
     1.0000   1.0000   1.0000   1.0000   1.0000   1.0000   1.0000   1.0000
     1.0000   1.0000   1.0000   1.0000   1.0000   1.0000   1.0000   1.0000
     1.0000   1.0000   1.0000   1.0000   1.0000   1.0000   1.0000   1.0000
     1.0000   1.0000   1.0000   1.0000   1.0000   1.0000   1.0000   1.0000
     1.0000   1.0000   1.0000   1.0000   1.0000   1.0000   1.0000   1.0000
     1.0000   1.0000   1.0000   1.0000   1.0000   1.0000   1.0000   1.0000
     1.0000   1.0000   1.0000   1.0000   1.0000   1.0000   1.0000   1.0000
     1.0000   1.0000   1.0000   1.0000   1.0000   1.0000   1.0000   1.0000
     1.0000   1.0000   1.0000   1.0000   1.0000   1.0000   1.0000   1.0000
     1.0000   1.0000   1.0000   1.0000   1.0000   1.0000   1.0000   1.0000
     1.0000   1.0000   1.0000   1.0000   1.0000   1.0000   1.0000   1.0000
     1.0000   1.0000   1.0000   1.0000   1.0000   1.0000   1.0000   1.0000
     1.0000   1.0000   1.0000   1.0000   1.0000   1.0000   1.0000   1.0000
     1.0000   1.0000   1.0000   1.0000   1.0000   1.0000   1.0000   1.0000
     0.0000   0.0000   0.0000   0.0000   0.0000   0.0000   0.0000   0.0000
     0.0000   0.0000   0.0000   0.0000   0.0000   0.0000   0.0000   0.0000
     0.0000   0.0000   0.0000   0.0000   0.0000   0.0000   0.0000   0.0000
     0.0000   0.0000   0.0000   0.0000   0.0000   0.0000   0.0000   0.0000
     0.0000   0.0000   0.0000   0.0000   0.0000   0.0000   0.0000   0.0000
     0.0000   0.0000   0.0000   0.0000   0.0000   0.0000   0.0000   0.0000
     0.0000   0.0000   0.0000   0.0000   0.0000   0.0000   0.0000   0.0000
     0.0000

          k = 0.2500-0.5000-0.5000 (158052 PWs)   bands (ev):

    -7.0192  -7.0191  -7.0191  -7.0191  -6.7896  -6.7896  -6.7896  -6.7895
    -6.4457  -6.4457  -6.4457  -6.4457  -6.2985  -6.2985  -6.2985  -6.2985
    -6.2985  -6.2985  -6.2984  -6.2984  -6.2871  -6.2871  -6.2870  -6.2870
    -6.2870  -6.2870  -6.2870  -6.2870  -6.1882  -6.1882  -6.1882  -6.1882
    -0.7841  -0.7841  -0.7841  -0.7841  -0.7552  -0.7551  -0.7551  -0.7551
    -0.7551  -0.7551  -0.7551  -0.7551  -0.7453  -0.7453  -0.7453  -0.7453
    -0.7373  -0.7372  -0.7372  -0.7372  -0.7333  -0.7332  -0.7332  -0.7332
    -0.7255  -0.7255  -0.7255  -0.7255  -0.7253  -0.7252  -0.7252  -0.7252
    -0.7030  -0.7030  -0.7030  -0.7030  -0.6915  -0.6915  -0.6914  -0.6914
    -0.6891  -0.6890  -0.6890  -0.6890  -0.6890  -0.6890  -0.6890  -0.6890
    -0.6178  -0.6178  -0.6178  -0.6177  -0.5950  -0.5950  -0.5950  -0.5950
    -0.5949  -0.5949  -0.5949  -0.5949  -0.5565  -0.5564  -0.5564  -0.5564
    -0.5563  -0.5563  -0.5563  -0.5563  -0.5286  -0.5286  -0.5286  -0.5286
    -0.5240  -0.5240  -0.5240  -0.5240  -0.4834  -0.4834  -0.4834  -0.4834
    -0.4833  -0.4833  -0.4833  -0.4833  -0.4061  -0.4061  -0.4061  -0.4060
    -0.3854  -0.3854  -0.3853  -0.3853  -0.3853  -0.3853  -0.3853  -0.3853
    -0.2948  -0.2947  -0.2947  -0.2947  -0.2893  -0.2892  -0.2892  -0.2892
    -0.2761  -0.2760  -0.2760  -0.2760  -0.2676  -0.2675  -0.2675  -0.2675
    -0.2577  -0.2576  -0.2576  -0.2576  -0.2576  -0.2575  -0.2575  -0.2575
    -0.2484  -0.2483  -0.2483  -0.2483  -0.2445  -0.2444  -0.2444  -0.2444
    -0.2398  -0.2398  -0.2397  -0.2397  -0.2397  -0.2397  -0.2397  -0.2397
    -0.2376  -0.2376  -0.2376  -0.2375  -0.1720  -0.1720  -0.1720  -0.1720
    -0.1719  -0.1719  -0.1719  -0.1719  -0.0696  -0.0696  -0.0696  -0.0695
    -0.0695  -0.0695  -0.0695  -0.0695  -0.0028  -0.0027  -0.0027  -0.0027
     0.6648   0.6648   0.6648   0.6648   0.6648   0.6648   0.6648   0.6648
     0.8036   0.8036   0.8036   0.8036   1.1968   1.1968   1.1968   1.1968
     1.2062   1.2063   1.2063   1.2063   1.2063   1.2063   1.2063   1.2063
     2.0118   2.0118   2.0118   2.0118   2.4644   2.4644   2.4644   2.4644
     2.9439   2.9439   2.9439   2.9439   2.9439   2.9439   2.9439   2.9439
     2.9756   2.9756   2.9756   2.9756   2.9756   2.9756   2.9756   2.9756
     3.0513   3.0513   3.0513   3.0513   3.5043   3.5043   3.5043   3.5043
     3.5043   3.5043   3.5043   3.5043   3.5328   3.5328   3.5328   3.5328
     3.5439   3.5440   3.5440   3.5440   3.7903   3.7903   3.7903   3.7903
     3.7903   3.7903   3.7903   3.7903   3.9152   3.9152   3.9152   3.9152
     4.4921   4.4921   4.4921   4.4921   4.5876   4.5877   4.5877   4.5877
     4.5928   4.5929   4.5929   4.5929   4.9366   4.9366   4.9366   4.9366
     9.0098   9.0098   9.0098   9.0098   9.1274   9.1274   9.1274   9.1274
     9.6968   9.6968   9.6968   9.6968   9.8083   9.8083   9.8083   9.8083
     9.8687   9.8687   9.8687   9.8688   9.8688   9.8688   9.8688   9.8688
    10.0435  10.0435  10.0435  10.0435  10.0435  10.0435  10.0435  10.0435
    10.8309  10.8309  10.8309  10.8309  10.8309  10.8309  10.8309  10.8309
    11.3536  11.3536  11.3536  11.3536  11.4750  11.4751  11.4751  11.4751
    11.5787  11.5787  11.5787  11.5787  11.5787  11.5788  11.5788  11.5789
    11.8585

     occupation numbers 
     1.0000   1.0000   1.0000   1.0000   1.0000   1.0000   1.0000   1.0000
     1.0000   1.0000   1.0000   1.0000   1.0000   1.0000   1.0000   1.0000
     1.0000   1.0000   1.0000   1.0000   1.0000   1.0000   1.0000   1.0000
     1.0000   1.0000   1.0000   1.0000   1.0000   1.0000   1.0000   1.0000
     1.0000   1.0000   1.0000   1.0000   1.0000   1.0000   1.0000   1.0000
     1.0000   1.0000   1.0000   1.0000   1.0000   1.0000   1.0000   1.0000
     1.0000   1.0000   1.0000   1.0000   1.0000   1.0000   1.0000   1.0000
     1.0000   1.0000   1.0000   1.0000   1.0000   1.0000   1.0000   1.0000
     1.0000   1.0000   1.0000   1.0000   1.0000   1.0000   1.0000   1.0000
     1.0000   1.0000   1.0000   1.0000   1.0000   1.0000   1.0000   1.0000
     1.0000   1.0000   1.0000   1.0000   1.0000   1.0000   1.0000   1.0000
     1.0000   1.0000   1.0000   1.0000   1.0000   1.0000   1.0000   1.0000
     1.0000   1.0000   1.0000   1.0000   1.0000   1.0000   1.0000   1.0000
     1.0000   1.0000   1.0000   1.0000   1.0000   1.0000   1.0000   1.0000
     1.0000   1.0000   1.0000   1.0000   1.0000   1.0000   1.0000   1.0000
     1.0000   1.0000   1.0000   1.0000   1.0000   1.0000   1.0000   1.0000
     1.0000   1.0000   1.0000   1.0000   1.0000   1.0000   1.0000   1.0000
     1.0000   1.0000   1.0000   1.0000   1.0000   1.0000   1.0000   1.0000
     1.0000   1.0000   1.0000   1.0000   1.0000   1.0000   1.0000   1.0000
     1.0000   1.0000   1.0000   1.0000   1.0000   1.0000   1.0000   1.0000
     1.0000   1.0000   1.0000   1.0000   1.0000   1.0000   1.0000   1.0000
     1.0000   1.0000   1.0000   1.0000   1.0000   1.0000   1.0000   1.0000
     1.0000   1.0000   1.0000   1.0000   1.0000   1.0000   1.0000   1.0000
     1.0000   1.0000   1.0000   1.0000   1.0000   1.0000   1.0000   1.0000
     1.0000   1.0000   1.0000   1.0000   1.0000   1.0000   1.0000   1.0000
     1.0000   1.0000   1.0000   1.0000   1.0000   1.0000   1.0000   1.0000
     1.0000   1.0000   1.0000   1.0000   1.0000   1.0000   1.0000   1.0000
     1.0000   1.0000   1.0000   1.0000   1.0000   1.0000   1.0000   1.0000
     1.0000   1.0000   1.0000   1.0000   1.0000   1.0000   1.0000   1.0000
     1.0000   1.0000   1.0000   1.0000   1.0000   1.0000   1.0000   1.0000
     1.0000   1.0000   1.0000   1.0000   1.0000   1.0000   1.0000   1.0000
     1.0000   1.0000   1.0000   1.0000   1.0000   1.0000   1.0000   1.0000
     1.0000   1.0000   1.0000   1.0000   1.0000   1.0000   1.0000   1.0000
     1.0000   1.0000   1.0000   1.0000   1.0000   1.0000   1.0000   1.0000
     1.0000   1.0000   1.0000   1.0000   1.0000   1.0000   1.0000   1.0000
     1.0000   1.0000   1.0000   1.0000   1.0000   1.0000   1.0000   1.0000
     0.0000   0.0000   0.0000   0.0000   0.0000   0.0000   0.0000   0.0000
     0.0000   0.0000   0.0000   0.0000   0.0000   0.0000   0.0000   0.0000
     0.0000   0.0000   0.0000   0.0000   0.0000   0.0000   0.0000   0.0000
     0.0000   0.0000   0.0000   0.0000   0.0000   0.0000   0.0000   0.0000
     0.0000   0.0000   0.0000   0.0000   0.0000   0.0000   0.0000   0.0000
     0.0000   0.0000   0.0000   0.0000   0.0000   0.0000   0.0000   0.0000
     0.0000   0.0000   0.0000   0.0000   0.0000   0.0000   0.0000   0.0000
     0.0000

          k =-0.5000-0.5000-0.5000 (158408 PWs)   bands (ev):

    -6.9285  -6.9285  -6.9285  -6.9285  -6.9284  -6.9284  -6.9284  -6.9284
    -6.2928  -6.2928  -6.2928  -6.2928  -6.2928  -6.2928  -6.2928  -6.2928
    -6.2928  -6.2928  -6.2928  -6.2928  -6.2927  -6.2927  -6.2927  -6.2927
    -6.2927  -6.2927  -6.2927  -6.2927  -6.2927  -6.2927  -6.2927  -6.2927
    -0.7562  -0.7562  -0.7562  -0.7561  -0.7561  -0.7561  -0.7561  -0.7561
    -0.7300  -0.7300  -0.7300  -0.7299  -0.7299  -0.7298  -0.7298  -0.7298
    -0.7298  -0.7298  -0.7298  -0.7298  -0.7298  -0.7298  -0.7298  -0.7298
    -0.7235  -0.7235  -0.7235  -0.7235  -0.7235  -0.7234  -0.7234  -0.7234
    -0.7234  -0.7234  -0.7234  -0.7234  -0.7234  -0.7234  -0.7234  -0.7234
    -0.7234  -0.7234  -0.7234  -0.7233  -0.7233  -0.7233  -0.7233  -0.7233
    -0.5687  -0.5687  -0.5687  -0.5686  -0.5686  -0.5686  -0.5686  -0.5686
    -0.5686  -0.5686  -0.5686  -0.5686  -0.5685  -0.5685  -0.5685  -0.5685
    -0.5685  -0.5685  -0.5685  -0.5685  -0.5685  -0.5685  -0.5685  -0.5685
    -0.4518  -0.4518  -0.4518  -0.4518  -0.4518  -0.4517  -0.4517  -0.4517
    -0.4517  -0.4517  -0.4517  -0.4517  -0.4517  -0.4517  -0.4517  -0.4517
    -0.4517  -0.4517  -0.4517  -0.4517  -0.4516  -0.4516  -0.4516  -0.4516
    -0.2831  -0.2831  -0.2830  -0.2830  -0.2830  -0.2830  -0.2830  -0.2830
    -0.2830  -0.2830  -0.2830  -0.2829  -0.2829  -0.2829  -0.2829  -0.2829
    -0.2438  -0.2438  -0.2436  -0.2435  -0.2435  -0.2435  -0.2435  -0.2435
    -0.2435  -0.2435  -0.2435  -0.2435  -0.2435  -0.2435  -0.2435  -0.2435
    -0.2435  -0.2435  -0.2435  -0.2434  -0.2434  -0.2434  -0.2434  -0.2434
    -0.1298  -0.1298  -0.1298  -0.1298  -0.1298  -0.1297  -0.1297  -0.1297
    -0.1297  -0.1297  -0.1297  -0.1297  -0.1297  -0.1297  -0.1297  -0.1297
    -0.1297  -0.1297  -0.1297  -0.1297  -0.1297  -0.1297  -0.1297  -0.1297
     0.9383   0.9384   0.9384   0.9384   0.9384   0.9384   0.9384   0.9384
     0.9384   0.9384   0.9384   0.9384   0.9385   0.9385   0.9385   0.9385
     0.9385   0.9385   0.9385   0.9385   0.9385   0.9385   0.9385   0.9385
     2.5295   2.5295   2.5295   2.5295   2.5295   2.5295   2.5295   2.5295
     2.9435   2.9435   2.9435   2.9435   2.9435   2.9435   2.9435   2.9435
     2.9435   2.9435   2.9435   2.9435   2.9435   2.9435   2.9435   2.9435
     2.9435   2.9435   2.9435   2.9435   2.9435   2.9435   2.9435   2.9435
     3.6839   3.6839   3.6839   3.6840   3.6840   3.6840   3.6840   3.6840
     3.6840   3.6840   3.6840   3.6840   3.6840   3.6840   3.6840   3.6840
     3.6840   3.6840   3.6840   3.6840   3.6840   3.6840   3.6840   3.6840
     4.7541   4.7541   4.7541   4.7542   4.7542   4.7542   4.7542   4.7542
     4.7542   4.7542   4.7542   4.7542   4.7542   4.7542   4.7542   4.7542
     8.9301   8.9302   8.9302   8.9302   8.9302   8.9302   8.9302   8.9302
     9.8127   9.8128   9.8128   9.8128   9.8128   9.8128   9.8128   9.8128
     9.8128   9.8128   9.8128   9.8128   9.8128   9.8128   9.8128   9.8128
     9.8128   9.8128   9.8128   9.8128   9.8128   9.8128   9.8128   9.8128
    11.3790  11.3790  11.3790  11.3790  11.3790  11.3790  11.3790  11.3790
    11.3790  11.3790  11.3790  11.3790  11.3790  11.3790  11.3790  11.3790
    11.3790  11.3790  11.3790  11.3790  11.3790  11.3790  11.3790  11.3790
    12.3636

     occupation numbers 
     1.0000   1.0000   1.0000   1.0000   1.0000   1.0000   1.0000   1.0000
     1.0000   1.0000   1.0000   1.0000   1.0000   1.0000   1.0000   1.0000
     1.0000   1.0000   1.0000   1.0000   1.0000   1.0000   1.0000   1.0000
     1.0000   1.0000   1.0000   1.0000   1.0000   1.0000   1.0000   1.0000
     1.0000   1.0000   1.0000   1.0000   1.0000   1.0000   1.0000   1.0000
     1.0000   1.0000   1.0000   1.0000   1.0000   1.0000   1.0000   1.0000
     1.0000   1.0000   1.0000   1.0000   1.0000   1.0000   1.0000   1.0000
     1.0000   1.0000   1.0000   1.0000   1.0000   1.0000   1.0000   1.0000
     1.0000   1.0000   1.0000   1.0000   1.0000   1.0000   1.0000   1.0000
     1.0000   1.0000   1.0000   1.0000   1.0000   1.0000   1.0000   1.0000
     1.0000   1.0000   1.0000   1.0000   1.0000   1.0000   1.0000   1.0000
     1.0000   1.0000   1.0000   1.0000   1.0000   1.0000   1.0000   1.0000
     1.0000   1.0000   1.0000   1.0000   1.0000   1.0000   1.0000   1.0000
     1.0000   1.0000   1.0000   1.0000   1.0000   1.0000   1.0000   1.0000
     1.0000   1.0000   1.0000   1.0000   1.0000   1.0000   1.0000   1.0000
     1.0000   1.0000   1.0000   1.0000   1.0000   1.0000   1.0000   1.0000
     1.0000   1.0000   1.0000   1.0000   1.0000   1.0000   1.0000   1.0000
     1.0000   1.0000   1.0000   1.0000   1.0000   1.0000   1.0000   1.0000
     1.0000   1.0000   1.0000   1.0000   1.0000   1.0000   1.0000   1.0000
     1.0000   1.0000   1.0000   1.0000   1.0000   1.0000   1.0000   1.0000
     1.0000   1.0000   1.0000   1.0000   1.0000   1.0000   1.0000   1.0000
     1.0000   1.0000   1.0000   1.0000   1.0000   1.0000   1.0000   1.0000
     1.0000   1.0000   1.0000   1.0000   1.0000   1.0000   1.0000   1.0000
     1.0000   1.0000   1.0000   1.0000   1.0000   1.0000   1.0000   1.0000
     1.0000   1.0000   1.0000   1.0000   1.0000   1.0000   1.0000   1.0000
     1.0000   1.0000   1.0000   1.0000   1.0000   1.0000   1.0000   1.0000
     1.0000   1.0000   1.0000   1.0000   1.0000   1.0000   1.0000   1.0000
     1.0000   1.0000   1.0000   1.0000   1.0000   1.0000   1.0000   1.0000
     1.0000   1.0000   1.0000   1.0000   1.0000   1.0000   1.0000   1.0000
     1.0000   1.0000   1.0000   1.0000   1.0000   1.0000   1.0000   1.0000
     1.0000   1.0000   1.0000   1.0000   1.0000   1.0000   1.0000   1.0000
     1.0000   1.0000   1.0000   1.0000   1.0000   1.0000   1.0000   1.0000
     1.0000   1.0000   1.0000   1.0000   1.0000   1.0000   1.0000   1.0000
     1.0000   1.0000   1.0000   1.0000   1.0000   1.0000   1.0000   1.0000
     1.0000   1.0000   1.0000   1.0000   1.0000   1.0000   1.0000   1.0000
     1.0000   1.0000   1.0000   1.0000   1.0000   1.0000   1.0000   1.0000
     0.0000   0.0000   0.0000   0.0000   0.0000   0.0000   0.0000   0.0000
     0.0000   0.0000   0.0000   0.0000   0.0000   0.0000   0.0000   0.0000
     0.0000   0.0000   0.0000   0.0000   0.0000   0.0000   0.0000   0.0000
     0.0000   0.0000   0.0000   0.0000   0.0000   0.0000   0.0000   0.0000
     0.0000   0.0000   0.0000   0.0000   0.0000   0.0000   0.0000   0.0000
     0.0000   0.0000   0.0000   0.0000   0.0000   0.0000   0.0000   0.0000
     0.0000   0.0000   0.0000   0.0000   0.0000   0.0000   0.0000   0.0000
     0.0000

     highest occupied, lowest unoccupied level (ev):     5.1925    7.5975

!    total energy              =   -9921.79762210 Ry
     total all-electron energy =   -140497.738210 Ry
     estimated scf accuracy    <       0.00000008 Ry

     The total energy is the sum of the following terms:
     one-electron contribution =   -2753.15822168 Ry
     hartree contribution      =    1961.13487125 Ry
     xc contribution           =   -1675.39333279 Ry
     ewald contribution        =   -2927.19912172 Ry
     Hubbard energy            =       2.53781852 Ry
     one-center paw contrib.   =   -4529.71963568 Ry
      -> PAW hartree energy AE =     122.94450131 Ry
      -> PAW hartree energy PS =    -122.29841279 Ry
      -> PAW xc energy AE      =    -143.19029845 Ry
      -> PAW xc energy PS      =      47.12907294 Ry
      -> total E_H with PAW    =    1961.78095978 Ry
      -> total E_XC with PAW   =   -1771.45455830 Ry

     convergence has been achieved in   9 iterations

     Writing all to output data dir ./out/ZnS_hub.save/
 
     init_run     :      9.37s CPU     10.20s WALL (       1 calls)
     electrons    :     80.13s CPU     83.81s WALL (       1 calls)

     Called by init_run:
     wfcinit      :      3.83s CPU      4.10s WALL (       1 calls)
     wfcinit:atom :      0.00s CPU      0.00s WALL (       1 calls)
     wfcinit:wfcr :      3.13s CPU      3.18s WALL (       1 calls)
     potinit      :      0.74s CPU      0.92s WALL (       1 calls)
     hinit0       :      1.67s CPU      1.79s WALL (       1 calls)

     Called by electrons:
     c_bands      :     71.88s CPU     72.91s WALL (      10 calls)
     sum_band     :      6.56s CPU      6.65s WALL (      10 calls)
     v_of_rho     :      0.28s CPU      0.40s WALL (      10 calls)
     v_h          :      0.02s CPU      0.04s WALL (      10 calls)
     v_xc         :      0.25s CPU      0.36s WALL (      10 calls)
     newd         :      0.19s CPU      0.20s WALL (      10 calls)
     PAW_pot      :      0.79s CPU      0.81s WALL (      10 calls)
     mix_rho      :      0.05s CPU      0.07s WALL (      10 calls)

     Called by c_bands:
     init_us_2    :      0.35s CPU      0.37s WALL (      22 calls)
     init_us_2:cp :      0.35s CPU      0.37s WALL (      22 calls)
     cegterg      :     31.81s CPU     32.23s WALL (      10 calls)

     Called by sum_band:
     sum_band:wei :      0.01s CPU      0.01s WALL (      10 calls)
     sum_band:loo :      2.65s CPU      2.68s WALL (      10 calls)
     sum_band:buf :      0.00s CPU      0.00s WALL (      10 calls)
     sum_band:ini :      0.17s CPU      0.18s WALL (      10 calls)
     sum_band:cal :      0.88s CPU      0.88s WALL (      10 calls)
     sum_band:bec :      0.04s CPU      0.04s WALL (      10 calls)
     addusdens    :      0.16s CPU      0.17s WALL (      10 calls)
                                        0.00s GPU  (      10 calls)
     addusd:skk   :      0.00s CPU      0.00s WALL (      20 calls)
                                        0.00s GPU  (      20 calls)

     Called by *egterg:
     cdiaghg      :      3.38s CPU      3.41s WALL (      45 calls)
     cegterg:over :      2.14s CPU      2.16s WALL (      36 calls)
     cegterg:upda :      1.56s CPU      1.57s WALL (      36 calls)
     cegterg:last :      2.72s CPU      2.73s WALL (      21 calls)
     cdiaghg:chol :      0.21s CPU      0.21s WALL (      45 calls)
     cdiaghg:inve :      0.32s CPU      0.33s WALL (      45 calls)
     cdiaghg:para :      0.52s CPU      0.52s WALL (      90 calls)
     h_psi        :     21.41s CPU     21.67s WALL (      47 calls)
     s_psi        :      2.76s CPU      2.78s WALL (      48 calls)
     g_psi        :      0.07s CPU      0.07s WALL (      36 calls)

     Called by h_psi:
     h_psi:calbec :      2.54s CPU      2.56s WALL (      47 calls)
     vloc_psi     :     10.36s CPU     10.46s WALL (      47 calls)
     add_vuspsi   :      2.56s CPU      2.59s WALL (      47 calls)
     vhpsi        :      5.84s CPU      5.88s WALL (      47 calls)

     General routines
     calbec       :      4.42s CPU      4.46s WALL (     115 calls)
     fft          :      0.34s CPU      0.61s WALL (     111 calls)
     ffts         :      0.01s CPU      0.02s WALL (      10 calls)
     fftw         :     11.28s CPU     11.38s WALL (   22786 calls)
 
     Parallel routines

     Hubbard U routines
     new_ns       :      0.48s CPU      0.48s WALL (      10 calls)
     vhpsi        :      5.84s CPU      5.88s WALL (      47 calls)

     PAW routines
     PAW_pot      :      0.79s CPU      0.81s WALL (      10 calls)
     PAW_symme    :      0.06s CPU      0.07s WALL (      20 calls)
 
     PWSCF        :   1m44.56s CPU   2m 9.54s WALL

 
   This run was terminated on:   3:41:59   1Jul2024            

=------------------------------------------------------------------------------=
   JOB DONE.
=------------------------------------------------------------------------------=
