
     Program PWSCF v.7.2 starts on 27Jun2024 at 15:40:49 

     This program is part of the open-source Quantum ESPRESSO suite
     for quantum simulation of materials; please cite
         "P. Giannozzi et al., J. Phys.:Condens. Matter 21 395502 (2009);
         "P. Giannozzi et al., J. Phys.:Condens. Matter 29 465901 (2017);
         "P. Giannozzi et al., J. Chem. Phys. 152 154105 (2020);
          URL http://www.quantum-espresso.org", 
     in publications or presentations arising from this work. More details at
     http://www.quantum-espresso.org/quote

     Parallel version (MPI), running on   560 processors

     MPI processes distributed on     5 nodes
     236302 MiB available memory on the printing compute node when the environment starts
 
     Reading input from Co_in_ZnS.relax.q0.in

     Current dimensions of program PWSCF are:
     Max number of different atomic species (ntypx) = 10
     Max number of k-points (npk) =  40000
     Max angular momentum in pseudopotentials (lmaxx) =  4
     file S.pbe-n-kjpaw_psl.1.0.0.UPF: wavefunction(s)  3S 3P renormalized
     file Zn.pbe-dnl-kjpaw_psl.1.0.0.UPF: wavefunction(s)  4S 3D renormalized
     file Co.pbe-spn-kjpaw_psl.0.3.1.UPF: wavefunction(s)  3P 3D renormalized
 
     K-points division:     npool     =       5
     R & G space division:  proc/nbgrp/npool/nimage =     112
     Subspace diagonalization in iterative solution of the eigenvalue problem:
     one sub-group per band group will be used
     scalapack distributed-memory algorithm (size of sub-group:  3*  3 procs)

 
     Parallelization info
     --------------------
     sticks:   dense  smooth     PW     G-vecs:    dense   smooth      PW
     Min         180     180     46                19282    19282    2562
     Max         181     181     47                19291    19291    2573
     Sum       20217   20217   5249              2160009  2160009  287777
 
     Using Slab Decomposition
 


     bravais-lattice index     =            1
     lattice parameter (alat)  =      20.5686  a.u.
     unit-cell volume          =    8701.8437 (a.u.)^3
     number of atoms/cell      =           64
     number of atomic types    =            3
     number of electrons       =       581.00
     number of Kohn-Sham states=          349
     kinetic-energy cutoff     =     150.0000  Ry
     charge density cutoff     =     600.0000  Ry
     scf convergence threshold =      1.0E-08
     mixing beta               =       0.7000
     number of iterations used =            8  plain     mixing
     energy convergence thresh.=      1.0E-05
     force convergence thresh. =      1.0E-04
     Exchange-correlation= SLA  PW   PBX  PBC
                           (   1   4   3   4   0   0   0)
     nstep                     =           50


     celldm(1)=  20.568554  celldm(2)=   0.000000  celldm(3)=   0.000000
     celldm(4)=   0.000000  celldm(5)=   0.000000  celldm(6)=   0.000000

     crystal axes: (cart. coord. in units of alat)
               a(1) = (   1.000000   0.000000   0.000000 )  
               a(2) = (   0.000000   1.000000   0.000000 )  
               a(3) = (   0.000000   0.000000   1.000000 )  

     reciprocal axes: (cart. coord. in units 2 pi/alat)
               b(1) = (  1.000000  0.000000  0.000000 )  
               b(2) = (  0.000000  1.000000  0.000000 )  
               b(3) = (  0.000000  0.000000  1.000000 )  


     PseudoPot. # 1 for S  read from file:
     /arf/home/amuhaymin/pseudo/S.pbe-n-kjpaw_psl.1.0.0.UPF
     MD5 check sum: fb45dfebcf3e72a4e1bd4a866ec2e262
     Pseudo is Projector augmented-wave + core cor, Zval =  6.0
     Generated using &quot;atomic&quot; code by A. Dal Corso  v.6.3
     Shape of augmentation charge: PSQ
     Using radial grid of 1151 points,  6 beta functions with: 
                l(1) =   0
                l(2) =   0
                l(3) =   1
                l(4) =   1
                l(5) =   2
                l(6) =   2
     Q(r) pseudized with 0 coefficients 


     PseudoPot. # 2 for Zn read from file:
     /arf/home/amuhaymin/pseudo/Zn.pbe-dnl-kjpaw_psl.1.0.0.UPF
     MD5 check sum: c608214d9520ac179f507641260889e3
     Pseudo is Projector augmented-wave + core cor, Zval = 12.0
     Generated using &quot;atomic&quot; code by A. Dal Corso  v.6.2.2
     Shape of augmentation charge: PSQ
     Using radial grid of 1201 points,  6 beta functions with: 
                l(1) =   0
                l(2) =   0
                l(3) =   1
                l(4) =   1
                l(5) =   2
                l(6) =   2
     Q(r) pseudized with 0 coefficients 


     PseudoPot. # 3 for Co read from file:
     /arf/home/amuhaymin/pseudo/Co.pbe-spn-kjpaw_psl.0.3.1.UPF
     MD5 check sum: b0a1ad65bf214e88c1f3d33b20c7d919
     Pseudo is Projector augmented-wave + core cor, Zval = 17.0
     Generated using &quot;atomic&quot; code by A. Dal Corso  v.6.2.2
     Shape of augmentation charge: PSQ
     Using radial grid of 1193 points,  6 beta functions with: 
                l(1) =   0
                l(2) =   0
                l(3) =   1
                l(4) =   1
                l(5) =   2
                l(6) =   2
     Q(r) pseudized with 0 coefficients 


     atomic species   valence    mass     pseudopotential
        S              6.00    32.06500     S ( 1.00)
        Zn            12.00    65.38000     Zn( 1.00)
        Co            17.00    63.54600     Co( 1.00)

     Starting magnetic structure 
     atomic species   magnetization
        S            0.000
        Zn           0.000
        Co           0.176

     24 Sym. Ops. (no inversion) found


                                    s                        frac. trans.

      isym =  1     identity                                     

 cryst.   s( 1) = (     1          0          0      )
                  (     0          1          0      )
                  (     0          0          1      )

 cart.    s( 1) = (  1.0000000  0.0000000  0.0000000 )
                  (  0.0000000  1.0000000  0.0000000 )
                  (  0.0000000  0.0000000  1.0000000 )


      isym =  2     180 deg rotation - cart. axis [0,0,1]        

 cryst.   s( 2) = (    -1          0          0      )
                  (     0         -1          0      )
                  (     0          0          1      )

 cart.    s( 2) = ( -1.0000000  0.0000000  0.0000000 )
                  (  0.0000000 -1.0000000  0.0000000 )
                  (  0.0000000  0.0000000  1.0000000 )


      isym =  3     180 deg rotation - cart. axis [0,1,0]        

 cryst.   s( 3) = (    -1          0          0      )
                  (     0          1          0      )
                  (     0          0         -1      )

 cart.    s( 3) = ( -1.0000000  0.0000000  0.0000000 )
                  (  0.0000000  1.0000000  0.0000000 )
                  (  0.0000000  0.0000000 -1.0000000 )


      isym =  4     180 deg rotation - cart. axis [1,0,0]        

 cryst.   s( 4) = (     1          0          0      )
                  (     0         -1          0      )
                  (     0          0         -1      )

 cart.    s( 4) = (  1.0000000  0.0000000  0.0000000 )
                  (  0.0000000 -1.0000000  0.0000000 )
                  (  0.0000000  0.0000000 -1.0000000 )


      isym =  5     120 deg rotation - cart. axis [-1,-1,-1]     

 cryst.   s( 5) = (     0          0          1      )
                  (     1          0          0      )
                  (     0          1          0      )

 cart.    s( 5) = (  0.0000000  1.0000000  0.0000000 )
                  (  0.0000000  0.0000000  1.0000000 )
                  (  1.0000000  0.0000000  0.0000000 )


      isym =  6     120 deg rotation - cart. axis [-1,1,1]       

 cryst.   s( 6) = (     0          0         -1      )
                  (    -1          0          0      )
                  (     0          1          0      )

 cart.    s( 6) = (  0.0000000 -1.0000000  0.0000000 )
                  (  0.0000000  0.0000000  1.0000000 )
                  ( -1.0000000  0.0000000  0.0000000 )


      isym =  7     120 deg rotation - cart. axis [1,1,-1]       

 cryst.   s( 7) = (     0          0         -1      )
                  (     1          0          0      )
                  (     0         -1          0      )

 cart.    s( 7) = (  0.0000000  1.0000000  0.0000000 )
                  (  0.0000000  0.0000000 -1.0000000 )
                  ( -1.0000000  0.0000000  0.0000000 )


      isym =  8     120 deg rotation - cart. axis [1,-1,1]       

 cryst.   s( 8) = (     0          0          1      )
                  (    -1          0          0      )
                  (     0         -1          0      )

 cart.    s( 8) = (  0.0000000 -1.0000000  0.0000000 )
                  (  0.0000000  0.0000000 -1.0000000 )
                  (  1.0000000  0.0000000  0.0000000 )


      isym =  9     120 deg rotation - cart. axis [1,1,1]        

 cryst.   s( 9) = (     0          1          0      )
                  (     0          0          1      )
                  (     1          0          0      )

 cart.    s( 9) = (  0.0000000  0.0000000  1.0000000 )
                  (  1.0000000  0.0000000  0.0000000 )
                  (  0.0000000  1.0000000  0.0000000 )


      isym = 10     120 deg rotation - cart. axis [-1,1,-1]      

 cryst.   s(10) = (     0         -1          0      )
                  (     0          0         -1      )
                  (     1          0          0      )

 cart.    s(10) = (  0.0000000  0.0000000  1.0000000 )
                  ( -1.0000000  0.0000000  0.0000000 )
                  (  0.0000000 -1.0000000  0.0000000 )


      isym = 11     120 deg rotation - cart. axis [1,-1,-1]      

 cryst.   s(11) = (     0         -1          0      )
                  (     0          0          1      )
                  (    -1          0          0      )

 cart.    s(11) = (  0.0000000  0.0000000 -1.0000000 )
                  ( -1.0000000  0.0000000  0.0000000 )
                  (  0.0000000  1.0000000  0.0000000 )


      isym = 12     120 deg rotation - cart. axis [-1,-1,1]      

 cryst.   s(12) = (     0          1          0      )
                  (     0          0         -1      )
                  (    -1          0          0      )

 cart.    s(12) = (  0.0000000  0.0000000 -1.0000000 )
                  (  1.0000000  0.0000000  0.0000000 )
                  (  0.0000000 -1.0000000  0.0000000 )


      isym = 13     inv. 180 deg rotation - cart. axis [1,1,0]   

 cryst.   s(13) = (     0         -1          0      )
                  (    -1          0          0      )
                  (     0          0          1      )

 cart.    s(13) = (  0.0000000 -1.0000000  0.0000000 )
                  ( -1.0000000  0.0000000  0.0000000 )
                  (  0.0000000  0.0000000  1.0000000 )


      isym = 14     inv. 180 deg rotation - cart. axis [1,-1,0]  

 cryst.   s(14) = (     0          1          0      )
                  (     1          0          0      )
                  (     0          0          1      )

 cart.    s(14) = (  0.0000000  1.0000000  0.0000000 )
                  (  1.0000000  0.0000000  0.0000000 )
                  (  0.0000000  0.0000000  1.0000000 )


      isym = 15     inv.  90 deg rotation - cart. axis [0,0,-1]  

 cryst.   s(15) = (     0          1          0      )
                  (    -1          0          0      )
                  (     0          0         -1      )

 cart.    s(15) = (  0.0000000 -1.0000000  0.0000000 )
                  (  1.0000000  0.0000000  0.0000000 )
                  (  0.0000000  0.0000000 -1.0000000 )


      isym = 16     inv.  90 deg rotation - cart. axis [0,0,1]   

 cryst.   s(16) = (     0         -1          0      )
                  (     1          0          0      )
                  (     0          0         -1      )

 cart.    s(16) = (  0.0000000  1.0000000  0.0000000 )
                  ( -1.0000000  0.0000000  0.0000000 )
                  (  0.0000000  0.0000000 -1.0000000 )


      isym = 17     inv. 180 deg rotation - cart. axis [1,0,1]   

 cryst.   s(17) = (     0          0         -1      )
                  (     0          1          0      )
                  (    -1          0          0      )

 cart.    s(17) = (  0.0000000  0.0000000 -1.0000000 )
                  (  0.0000000  1.0000000  0.0000000 )
                  ( -1.0000000  0.0000000  0.0000000 )


      isym = 18     inv. 180 deg rotation - cart. axis [-1,0,1]  

 cryst.   s(18) = (     0          0          1      )
                  (     0          1          0      )
                  (     1          0          0      )

 cart.    s(18) = (  0.0000000  0.0000000  1.0000000 )
                  (  0.0000000  1.0000000  0.0000000 )
                  (  1.0000000  0.0000000  0.0000000 )


      isym = 19     inv.  90 deg rotation - cart. axis [0,1,0]   

 cryst.   s(19) = (     0          0          1      )
                  (     0         -1          0      )
                  (    -1          0          0      )

 cart.    s(19) = (  0.0000000  0.0000000 -1.0000000 )
                  (  0.0000000 -1.0000000  0.0000000 )
                  (  1.0000000  0.0000000  0.0000000 )


      isym = 20     inv.  90 deg rotation - cart. axis [0,-1,0]  

 cryst.   s(20) = (     0          0         -1      )
                  (     0         -1          0      )
                  (     1          0          0      )

 cart.    s(20) = (  0.0000000  0.0000000  1.0000000 )
                  (  0.0000000 -1.0000000  0.0000000 )
                  ( -1.0000000  0.0000000  0.0000000 )


      isym = 21     inv. 180 deg rotation - cart. axis [0,1,1]   

 cryst.   s(21) = (     1          0          0      )
                  (     0          0         -1      )
                  (     0         -1          0      )

 cart.    s(21) = (  1.0000000  0.0000000  0.0000000 )
                  (  0.0000000  0.0000000 -1.0000000 )
                  (  0.0000000 -1.0000000  0.0000000 )


      isym = 22     inv. 180 deg rotation - cart. axis [0,1,-1]  

 cryst.   s(22) = (     1          0          0      )
                  (     0          0          1      )
                  (     0          1          0      )

 cart.    s(22) = (  1.0000000  0.0000000  0.0000000 )
                  (  0.0000000  0.0000000  1.0000000 )
                  (  0.0000000  1.0000000  0.0000000 )


      isym = 23     inv.  90 deg rotation - cart. axis [-1,0,0]  

 cryst.   s(23) = (    -1          0          0      )
                  (     0          0          1      )
                  (     0         -1          0      )

 cart.    s(23) = ( -1.0000000  0.0000000  0.0000000 )
                  (  0.0000000  0.0000000 -1.0000000 )
                  (  0.0000000  1.0000000  0.0000000 )


      isym = 24     inv.  90 deg rotation - cart. axis [1,0,0]   

 cryst.   s(24) = (    -1          0          0      )
                  (     0          0         -1      )
                  (     0          1          0      )

 cart.    s(24) = ( -1.0000000  0.0000000  0.0000000 )
                  (  0.0000000  0.0000000  1.0000000 )
                  (  0.0000000 -1.0000000  0.0000000 )


     point group T_d (-43m) 
     there are  5 classes
     the character table:

       E     8C3   3C2   6S4   6s_d 
A_1    1.00  1.00  1.00  1.00  1.00
A_2    1.00  1.00  1.00 -1.00 -1.00
E      2.00 -1.00  2.00  0.00  0.00
T_1    3.00  0.00 -1.00  1.00 -1.00
T_2    3.00  0.00 -1.00 -1.00  1.00

     the symmetry operations in each class and the name of the first element:

     E        1
          identity                                               
     8C3      5    7    8    6   12    9   10   11
          120 deg rotation - cart. axis [-1,-1,-1]               
     3C2      2    3    4
          180 deg rotation - cart. axis [0,0,1]                  
     6S4     15   16   20   19   23   24
          inv.  90 deg rotation - cart. axis [0,0,-1]            
     6s_d    13   14   17   18   21   22
          inv. 180 deg rotation - cart. axis [1,1,0]             

   Cartesian axes

     site n.     atom                  positions (alat units)
         1           Zn  tau(   1) = (   0.0000000   0.0000000   0.0000000  )
         2           Zn  tau(   2) = (   0.0000000   0.2500000   0.2500000  )
         3           Zn  tau(   3) = (   0.2500000   0.0000000   0.2500000  )
         4           Zn  tau(   4) = (   0.2500000   0.2500000   0.0000000  )
         5           S   tau(   5) = (   0.1250000   0.3750000   0.3750000  )
         6           S   tau(   6) = (   0.1250000   0.1250000   0.1250000  )
         7           S   tau(   7) = (   0.3750000   0.3750000   0.1250000  )
         8           S   tau(   8) = (   0.3750000   0.1250000   0.3750000  )
         9           Zn  tau(   9) = (   0.0000000   0.0000000   0.5000000  )
        10           Zn  tau(  10) = (   0.0000000   0.2500000   0.7500000  )
        11           Zn  tau(  11) = (   0.2500000   0.0000000   0.7500000  )
        12           Zn  tau(  12) = (   0.2500000   0.2500000   0.5000000  )
        13           S   tau(  13) = (   0.1250000   0.3750000   0.8750000  )
        14           S   tau(  14) = (   0.1250000   0.1250000   0.6250000  )
        15           S   tau(  15) = (   0.3750000   0.3750000   0.6250000  )
        16           S   tau(  16) = (   0.3750000   0.1250000   0.8750000  )
        17           Zn  tau(  17) = (   0.0000000   0.5000000   0.0000000  )
        18           Zn  tau(  18) = (   0.0000000   0.7500000   0.2500000  )
        19           Zn  tau(  19) = (   0.2500000   0.5000000   0.2500000  )
        20           Zn  tau(  20) = (   0.2500000   0.7500000   0.0000000  )
        21           S   tau(  21) = (   0.1250000   0.8750000   0.3750000  )
        22           S   tau(  22) = (   0.1250000   0.6250000   0.1250000  )
        23           S   tau(  23) = (   0.3750000   0.8750000   0.1250000  )
        24           S   tau(  24) = (   0.3750000   0.6250000   0.3750000  )
        25           Zn  tau(  25) = (   0.0000000   0.5000000   0.5000000  )
        26           Zn  tau(  26) = (   0.0000000   0.7500000   0.7500000  )
        27           Zn  tau(  27) = (   0.2500000   0.5000000   0.7500000  )
        28           Zn  tau(  28) = (   0.2500000   0.7500000   0.5000000  )
        29           S   tau(  29) = (   0.1250000   0.8750000   0.8750000  )
        30           S   tau(  30) = (   0.1250000   0.6250000   0.6250000  )
        31           S   tau(  31) = (   0.3750000   0.8750000   0.6250000  )
        32           S   tau(  32) = (   0.3750000   0.6250000   0.8750000  )
        33           Zn  tau(  33) = (   0.5000000   0.0000000   0.0000000  )
        34           Zn  tau(  34) = (   0.5000000   0.2500000   0.2500000  )
        35           Zn  tau(  35) = (   0.7500000   0.0000000   0.2500000  )
        36           Zn  tau(  36) = (   0.7500000   0.2500000   0.0000000  )
        37           S   tau(  37) = (   0.6250000   0.3750000   0.3750000  )
        38           S   tau(  38) = (   0.6250000   0.1250000   0.1250000  )
        39           S   tau(  39) = (   0.8750000   0.3750000   0.1250000  )
        40           S   tau(  40) = (   0.8750000   0.1250000   0.3750000  )
        41           Zn  tau(  41) = (   0.5000000   0.0000000   0.5000000  )
        42           Zn  tau(  42) = (   0.5000000   0.2500000   0.7500000  )
        43           Zn  tau(  43) = (   0.7500000   0.0000000   0.7500000  )
        44           Zn  tau(  44) = (   0.7500000   0.2500000   0.5000000  )
        45           S   tau(  45) = (   0.6250000   0.3750000   0.8750000  )
        46           S   tau(  46) = (   0.6250000   0.1250000   0.6250000  )
        47           S   tau(  47) = (   0.8750000   0.3750000   0.6250000  )
        48           S   tau(  48) = (   0.8750000   0.1250000   0.8750000  )
        49           Zn  tau(  49) = (   0.5000000   0.5000000   0.0000000  )
        50           Zn  tau(  50) = (   0.5000000   0.7500000   0.2500000  )
        51           Zn  tau(  51) = (   0.7500000   0.5000000   0.2500000  )
        52           Zn  tau(  52) = (   0.7500000   0.7500000   0.0000000  )
        53           S   tau(  53) = (   0.6250000   0.8750000   0.3750000  )
        54           S   tau(  54) = (   0.6250000   0.6250000   0.1250000  )
        55           S   tau(  55) = (   0.8750000   0.8750000   0.1250000  )
        56           S   tau(  56) = (   0.8750000   0.6250000   0.3750000  )
        57           Co  tau(  57) = (   0.5000000   0.5000000   0.5000000  )
        58           Zn  tau(  58) = (   0.5000000   0.7500000   0.7500000  )
        59           Zn  tau(  59) = (   0.7500000   0.5000000   0.7500000  )
        60           Zn  tau(  60) = (   0.7500000   0.7500000   0.5000000  )
        61           S   tau(  61) = (   0.6250000   0.8750000   0.8750000  )
        62           S   tau(  62) = (   0.6250000   0.6250000   0.6250000  )
        63           S   tau(  63) = (   0.8750000   0.8750000   0.6250000  )
        64           S   tau(  64) = (   0.8750000   0.6250000   0.8750000  )

   Crystallographic axes

     site n.     atom                  positions (cryst. coord.)
         1           Zn  tau(   1) = (  0.0000000  0.0000000  0.0000000  )
         2           Zn  tau(   2) = (  0.0000000  0.2500000  0.2500000  )
         3           Zn  tau(   3) = (  0.2500000  0.0000000  0.2500000  )
         4           Zn  tau(   4) = (  0.2500000  0.2500000  0.0000000  )
         5           S   tau(   5) = (  0.1250000  0.3750000  0.3750000  )
         6           S   tau(   6) = (  0.1250000  0.1250000  0.1250000  )
         7           S   tau(   7) = (  0.3750000  0.3750000  0.1250000  )
         8           S   tau(   8) = (  0.3750000  0.1250000  0.3750000  )
         9           Zn  tau(   9) = (  0.0000000  0.0000000  0.5000000  )
        10           Zn  tau(  10) = (  0.0000000  0.2500000  0.7500000  )
        11           Zn  tau(  11) = (  0.2500000  0.0000000  0.7500000  )
        12           Zn  tau(  12) = (  0.2500000  0.2500000  0.5000000  )
        13           S   tau(  13) = (  0.1250000  0.3750000  0.8750000  )
        14           S   tau(  14) = (  0.1250000  0.1250000  0.6250000  )
        15           S   tau(  15) = (  0.3750000  0.3750000  0.6250000  )
        16           S   tau(  16) = (  0.3750000  0.1250000  0.8750000  )
        17           Zn  tau(  17) = (  0.0000000  0.5000000  0.0000000  )
        18           Zn  tau(  18) = (  0.0000000  0.7500000  0.2500000  )
        19           Zn  tau(  19) = (  0.2500000  0.5000000  0.2500000  )
        20           Zn  tau(  20) = (  0.2500000  0.7500000  0.0000000  )
        21           S   tau(  21) = (  0.1250000  0.8750000  0.3750000  )
        22           S   tau(  22) = (  0.1250000  0.6250000  0.1250000  )
        23           S   tau(  23) = (  0.3750000  0.8750000  0.1250000  )
        24           S   tau(  24) = (  0.3750000  0.6250000  0.3750000  )
        25           Zn  tau(  25) = (  0.0000000  0.5000000  0.5000000  )
        26           Zn  tau(  26) = (  0.0000000  0.7500000  0.7500000  )
        27           Zn  tau(  27) = (  0.2500000  0.5000000  0.7500000  )
        28           Zn  tau(  28) = (  0.2500000  0.7500000  0.5000000  )
        29           S   tau(  29) = (  0.1250000  0.8750000  0.8750000  )
        30           S   tau(  30) = (  0.1250000  0.6250000  0.6250000  )
        31           S   tau(  31) = (  0.3750000  0.8750000  0.6250000  )
        32           S   tau(  32) = (  0.3750000  0.6250000  0.8750000  )
        33           Zn  tau(  33) = (  0.5000000  0.0000000  0.0000000  )
        34           Zn  tau(  34) = (  0.5000000  0.2500000  0.2500000  )
        35           Zn  tau(  35) = (  0.7500000  0.0000000  0.2500000  )
        36           Zn  tau(  36) = (  0.7500000  0.2500000  0.0000000  )
        37           S   tau(  37) = (  0.6250000  0.3750000  0.3750000  )
        38           S   tau(  38) = (  0.6250000  0.1250000  0.1250000  )
        39           S   tau(  39) = (  0.8750000  0.3750000  0.1250000  )
        40           S   tau(  40) = (  0.8750000  0.1250000  0.3750000  )
        41           Zn  tau(  41) = (  0.5000000  0.0000000  0.5000000  )
        42           Zn  tau(  42) = (  0.5000000  0.2500000  0.7500000  )
        43           Zn  tau(  43) = (  0.7500000  0.0000000  0.7500000  )
        44           Zn  tau(  44) = (  0.7500000  0.2500000  0.5000000  )
        45           S   tau(  45) = (  0.6250000  0.3750000  0.8750000  )
        46           S   tau(  46) = (  0.6250000  0.1250000  0.6250000  )
        47           S   tau(  47) = (  0.8750000  0.3750000  0.6250000  )
        48           S   tau(  48) = (  0.8750000  0.1250000  0.8750000  )
        49           Zn  tau(  49) = (  0.5000000  0.5000000  0.0000000  )
        50           Zn  tau(  50) = (  0.5000000  0.7500000  0.2500000  )
        51           Zn  tau(  51) = (  0.7500000  0.5000000  0.2500000  )
        52           Zn  tau(  52) = (  0.7500000  0.7500000  0.0000000  )
        53           S   tau(  53) = (  0.6250000  0.8750000  0.3750000  )
        54           S   tau(  54) = (  0.6250000  0.6250000  0.1250000  )
        55           S   tau(  55) = (  0.8750000  0.8750000  0.1250000  )
        56           S   tau(  56) = (  0.8750000  0.6250000  0.3750000  )
        57           Co  tau(  57) = (  0.5000000  0.5000000  0.5000000  )
        58           Zn  tau(  58) = (  0.5000000  0.7500000  0.7500000  )
        59           Zn  tau(  59) = (  0.7500000  0.5000000  0.7500000  )
        60           Zn  tau(  60) = (  0.7500000  0.7500000  0.5000000  )
        61           S   tau(  61) = (  0.6250000  0.8750000  0.8750000  )
        62           S   tau(  62) = (  0.6250000  0.6250000  0.6250000  )
        63           S   tau(  63) = (  0.8750000  0.8750000  0.6250000  )
        64           S   tau(  64) = (  0.8750000  0.6250000  0.8750000  )

     number of k points=    10  Gaussian smearing, width (Ry)=  0.0010
                       cart. coord. in units 2pi/alat
        k(    1) = (   0.0000000   0.0000000   0.0000000), wk =   0.0156250
        k(    2) = (   0.0000000   0.0000000   0.2500000), wk =   0.0937500
        k(    3) = (   0.0000000   0.0000000  -0.5000000), wk =   0.0468750
        k(    4) = (   0.0000000   0.2500000   0.2500000), wk =   0.1875000
        k(    5) = (   0.0000000   0.2500000  -0.5000000), wk =   0.1875000
        k(    6) = (   0.0000000  -0.5000000  -0.5000000), wk =   0.0468750
        k(    7) = (   0.2500000   0.2500000   0.2500000), wk =   0.1250000
        k(    8) = (   0.2500000   0.2500000  -0.5000000), wk =   0.1875000
        k(    9) = (   0.2500000  -0.5000000  -0.5000000), wk =   0.0937500
        k(   10) = (  -0.5000000  -0.5000000  -0.5000000), wk =   0.0156250

                       cryst. coord.
        k(    1) = (   0.0000000   0.0000000   0.0000000), wk =   0.0156250
        k(    2) = (   0.0000000   0.0000000   0.2500000), wk =   0.0937500
        k(    3) = (   0.0000000   0.0000000  -0.5000000), wk =   0.0468750
        k(    4) = (   0.0000000   0.2500000   0.2500000), wk =   0.1875000
        k(    5) = (   0.0000000   0.2500000  -0.5000000), wk =   0.1875000
        k(    6) = (   0.0000000  -0.5000000  -0.5000000), wk =   0.0468750
        k(    7) = (   0.2500000   0.2500000   0.2500000), wk =   0.1250000
        k(    8) = (   0.2500000   0.2500000  -0.5000000), wk =   0.1875000
        k(    9) = (   0.2500000  -0.5000000  -0.5000000), wk =   0.0937500
        k(   10) = (  -0.5000000  -0.5000000  -0.5000000), wk =   0.0156250

     Dense  grid:  2160009 G-vectors     FFT dimensions: ( 162, 162, 162)

     Dynamical RAM for                 wfc:      12.83 MB

     Dynamical RAM for     wfc (w. buffer):      64.17 MB

     Dynamical RAM for           str. fact:       0.88 MB

     Dynamical RAM for           local pot:       0.00 MB

     Dynamical RAM for          nlocal pot:      42.36 MB

     Dynamical RAM for                qrad:       5.90 MB

     Dynamical RAM for          rho,v,vnew:       4.17 MB

     Dynamical RAM for               rhoin:       1.39 MB

     Dynamical RAM for            rho*nmix:       9.42 MB

     Dynamical RAM for           G-vectors:       1.25 MB

     Dynamical RAM for          h,s,v(r/c):       2.46 MB

     Dynamical RAM for          <psi|beta>:       6.13 MB

     Dynamical RAM for                 psi:      25.67 MB

     Dynamical RAM for                hpsi:      25.67 MB

     Dynamical RAM for                spsi:      25.67 MB

     Dynamical RAM for      wfcinit/wfcrot:      34.65 MB

     Dynamical RAM for           addusdens:      13.36 MB

     Dynamical RAM for          addusforce:      17.02 MB

     Dynamical RAM for         addusstress:      12.15 MB

     Estimated static dynamical RAM per process >     123.70 MB

     Estimated max dynamical RAM per process >     218.72 MB

     Estimated total dynamical RAM >     115.49 GB

     Check: negative core charge=   -0.000001
     Generating pointlists ...
     new r_m :   0.0893 (alat units)  1.8370 (a.u.) for type    1
     new r_m :   0.0893 (alat units)  1.8370 (a.u.) for type    2
     new r_m :   0.0893 (alat units)  1.8370 (a.u.) for type    3

     Initial potential from superposition of free atoms

     starting charge     580.8832, renormalised to     581.0000
     Starting wfcs are  417 randomized atomic wfcs
     Checking if some PAW data can be deallocated... 
       PAW data deallocated on  280 nodes for type:  1
       PAW data deallocated on  288 nodes for type:  2
       PAW data deallocated on  552 nodes for type:  3

     total cpu time spent up to now is       10.2 secs

     Self-consistent Calculation

     iteration #  1     ecut=   150.00 Ry     beta= 0.70
     Davidson diagonalization with overlap

---- Real-time Memory Report at c_bands before calling an iterative solver
          1314 MiB given to the printing process from OS
             0 MiB allocation reported by mallinfo(arena+hblkhd)
        209004 MiB available memory on the node where the printing process lives
------------------
     ethr =  1.00E-02,  avg # of iterations =  4.8

     Threshold (ethr) on eigenvalues was too large:
     Diagonalizing with lowered threshold

     Davidson diagonalization with overlap

---- Real-time Memory Report at c_bands before calling an iterative solver
          1435 MiB given to the printing process from OS
             0 MiB allocation reported by mallinfo(arena+hblkhd)
        205967 MiB available memory on the node where the printing process lives
------------------
     ethr =  3.63E-04,  avg # of iterations =  5.1

     total cpu time spent up to now is       48.7 secs

     total energy              =  -10056.62276876 Ry
     estimated scf accuracy    <       1.99168536 Ry

     total magnetization       =     3.00 Bohr mag/cell
     absolute magnetization    =     3.01 Bohr mag/cell

     iteration #  2     ecut=   150.00 Ry     beta= 0.70
     Davidson diagonalization with overlap

---- Real-time Memory Report at c_bands before calling an iterative solver
          1454 MiB given to the printing process from OS
             0 MiB allocation reported by mallinfo(arena+hblkhd)
        206006 MiB available memory on the node where the printing process lives
------------------
     ethr =  3.43E-04,  avg # of iterations =  7.5

     total cpu time spent up to now is       73.6 secs

     total energy              =  -10054.78158948 Ry
     estimated scf accuracy    <      11.72443977 Ry

     total magnetization       =     4.58 Bohr mag/cell
     absolute magnetization    =     4.73 Bohr mag/cell

     iteration #  3     ecut=   150.00 Ry     beta= 0.70
     Davidson diagonalization with overlap

---- Real-time Memory Report at c_bands before calling an iterative solver
          1475 MiB given to the printing process from OS
             0 MiB allocation reported by mallinfo(arena+hblkhd)
        205708 MiB available memory on the node where the printing process lives
------------------
     ethr =  3.43E-04,  avg # of iterations =  5.8

     total cpu time spent up to now is       96.1 secs

     total energy              =  -10056.83674366 Ry
     estimated scf accuracy    <      11.59748476 Ry

     total magnetization       =     0.10 Bohr mag/cell
     absolute magnetization    =     0.31 Bohr mag/cell

     iteration #  4     ecut=   150.00 Ry     beta= 0.70
     Davidson diagonalization with overlap

---- Real-time Memory Report at c_bands before calling an iterative solver
          1487 MiB given to the printing process from OS
             0 MiB allocation reported by mallinfo(arena+hblkhd)
        205447 MiB available memory on the node where the printing process lives
------------------
     ethr =  3.43E-04,  avg # of iterations =  4.0

     total cpu time spent up to now is      112.4 secs

     total energy              =  -10057.17781817 Ry
     estimated scf accuracy    <       0.91035974 Ry

     total magnetization       =     3.00 Bohr mag/cell
     absolute magnetization    =     3.00 Bohr mag/cell

     iteration #  5     ecut=   150.00 Ry     beta= 0.70
     Davidson diagonalization with overlap

---- Real-time Memory Report at c_bands before calling an iterative solver
          1497 MiB given to the printing process from OS
             0 MiB allocation reported by mallinfo(arena+hblkhd)
        205330 MiB available memory on the node where the printing process lives
------------------
     ethr =  1.57E-04,  avg # of iterations =  3.5

     total cpu time spent up to now is      128.0 secs

     total energy              =  -10057.25475480 Ry
     estimated scf accuracy    <       0.10276944 Ry

     total magnetization       =     3.00 Bohr mag/cell
     absolute magnetization    =     3.02 Bohr mag/cell

     iteration #  6     ecut=   150.00 Ry     beta= 0.70
     Davidson diagonalization with overlap

---- Real-time Memory Report at c_bands before calling an iterative solver
          1505 MiB given to the printing process from OS
             0 MiB allocation reported by mallinfo(arena+hblkhd)
        205095 MiB available memory on the node where the printing process lives
------------------
     c_bands:  2 eigenvalues not converged
     c_bands:  2 eigenvalues not converged
     ethr =  1.77E-05,  avg # of iterations = 17.3

     total cpu time spent up to now is      153.8 secs

     total energy              =  -10057.26984306 Ry
     estimated scf accuracy    <       0.01371220 Ry

     total magnetization       =     3.00 Bohr mag/cell
     absolute magnetization    =     3.03 Bohr mag/cell

     iteration #  7     ecut=   150.00 Ry     beta= 0.70
     Davidson diagonalization with overlap

---- Real-time Memory Report at c_bands before calling an iterative solver
          1522 MiB given to the printing process from OS
             0 MiB allocation reported by mallinfo(arena+hblkhd)
        204901 MiB available memory on the node where the printing process lives
------------------
     c_bands:  1 eigenvalues not converged
     ethr =  2.36E-06,  avg # of iterations = 16.5

     total cpu time spent up to now is      184.2 secs

     total energy              =  -10057.27218563 Ry
     estimated scf accuracy    <       0.00693849 Ry

     total magnetization       =     3.00 Bohr mag/cell
     absolute magnetization    =     3.03 Bohr mag/cell

     iteration #  8     ecut=   150.00 Ry     beta= 0.70
     Davidson diagonalization with overlap

---- Real-time Memory Report at c_bands before calling an iterative solver
          1541 MiB given to the printing process from OS
             0 MiB allocation reported by mallinfo(arena+hblkhd)
        204712 MiB available memory on the node where the printing process lives
------------------
     ethr =  1.19E-06,  avg # of iterations =  4.2

     total cpu time spent up to now is      202.3 secs

     total energy              =  -10057.27349858 Ry
     estimated scf accuracy    <       0.00180705 Ry

     total magnetization       =     3.00 Bohr mag/cell
     absolute magnetization    =     3.03 Bohr mag/cell

     iteration #  9     ecut=   150.00 Ry     beta= 0.70
     Davidson diagonalization with overlap

---- Real-time Memory Report at c_bands before calling an iterative solver
          1548 MiB given to the printing process from OS
             0 MiB allocation reported by mallinfo(arena+hblkhd)
        204479 MiB available memory on the node where the printing process lives
------------------
     ethr =  3.11E-07,  avg # of iterations =  2.6

     total cpu time spent up to now is      218.2 secs

     total energy              =  -10057.27356427 Ry
     estimated scf accuracy    <       0.00069997 Ry

     total magnetization       =     3.00 Bohr mag/cell
     absolute magnetization    =     3.03 Bohr mag/cell

     iteration # 10     ecut=   150.00 Ry     beta= 0.70
     Davidson diagonalization with overlap

---- Real-time Memory Report at c_bands before calling an iterative solver
          1555 MiB given to the printing process from OS
             0 MiB allocation reported by mallinfo(arena+hblkhd)
        204340 MiB available memory on the node where the printing process lives
------------------
     ethr =  1.20E-07,  avg # of iterations =  4.2

     total cpu time spent up to now is      235.0 secs

     total energy              =  -10057.27358678 Ry
     estimated scf accuracy    <       0.00017448 Ry

     total magnetization       =     3.00 Bohr mag/cell
     absolute magnetization    =     3.03 Bohr mag/cell

     iteration # 11     ecut=   150.00 Ry     beta= 0.70
     Davidson diagonalization with overlap

---- Real-time Memory Report at c_bands before calling an iterative solver
          1561 MiB given to the printing process from OS
             0 MiB allocation reported by mallinfo(arena+hblkhd)
        204130 MiB available memory on the node where the printing process lives
------------------
     ethr =  3.00E-08,  avg # of iterations =  5.0

     total cpu time spent up to now is      252.9 secs

     total energy              =  -10057.27361595 Ry
     estimated scf accuracy    <       0.00001960 Ry

     total magnetization       =     3.00 Bohr mag/cell
     absolute magnetization    =     3.03 Bohr mag/cell

     iteration # 12     ecut=   150.00 Ry     beta= 0.70
     Davidson diagonalization with overlap

---- Real-time Memory Report at c_bands before calling an iterative solver
          1567 MiB given to the printing process from OS
             0 MiB allocation reported by mallinfo(arena+hblkhd)
        204120 MiB available memory on the node where the printing process lives
------------------
     ethr =  3.37E-09,  avg # of iterations =  5.6

     total cpu time spent up to now is      274.1 secs

     total energy              =  -10057.27362185 Ry
     estimated scf accuracy    <       0.00000159 Ry

     total magnetization       =     3.00 Bohr mag/cell
     absolute magnetization    =     3.03 Bohr mag/cell

     iteration # 13     ecut=   150.00 Ry     beta= 0.70
     Davidson diagonalization with overlap

---- Real-time Memory Report at c_bands before calling an iterative solver
          1573 MiB given to the printing process from OS
             0 MiB allocation reported by mallinfo(arena+hblkhd)
        204133 MiB available memory on the node where the printing process lives
------------------
     ethr =  2.74E-10,  avg # of iterations =  4.5

     total cpu time spent up to now is      294.2 secs

     total energy              =  -10057.27362221 Ry
     estimated scf accuracy    <       0.00000088 Ry

     total magnetization       =     3.00 Bohr mag/cell
     absolute magnetization    =     3.03 Bohr mag/cell

     iteration # 14     ecut=   150.00 Ry     beta= 0.70
     Davidson diagonalization with overlap

---- Real-time Memory Report at c_bands before calling an iterative solver
          1580 MiB given to the printing process from OS
             0 MiB allocation reported by mallinfo(arena+hblkhd)
        204083 MiB available memory on the node where the printing process lives
------------------
     ethr =  1.52E-10,  avg # of iterations =  3.1

     total cpu time spent up to now is      311.4 secs

     total energy              =  -10057.27362226 Ry
     estimated scf accuracy    <       0.00000015 Ry

     total magnetization       =     3.00 Bohr mag/cell
     absolute magnetization    =     3.03 Bohr mag/cell

     iteration # 15     ecut=   150.00 Ry     beta= 0.70
     Davidson diagonalization with overlap

---- Real-time Memory Report at c_bands before calling an iterative solver
          1584 MiB given to the printing process from OS
             0 MiB allocation reported by mallinfo(arena+hblkhd)
        204065 MiB available memory on the node where the printing process lives
------------------
     ethr =  2.50E-11,  avg # of iterations =  5.2

     total cpu time spent up to now is      330.8 secs

     total energy              =  -10057.27362231 Ry
     estimated scf accuracy    <       0.00000015 Ry

     total magnetization       =     3.00 Bohr mag/cell
     absolute magnetization    =     3.03 Bohr mag/cell

     iteration # 16     ecut=   150.00 Ry     beta= 0.70
     Davidson diagonalization with overlap

---- Real-time Memory Report at c_bands before calling an iterative solver
          1590 MiB given to the printing process from OS
             0 MiB allocation reported by mallinfo(arena+hblkhd)
        204090 MiB available memory on the node where the printing process lives
------------------
     ethr =  2.50E-11,  avg # of iterations =  3.3
 
     Magnetic moment per site  (integrated on atomic sphere of radius R)
     atom   1 (R=0.089)  charge= 10.1599  magn=  0.0001
     atom   2 (R=0.089)  charge= 10.1596  magn=  0.0001
     atom   3 (R=0.089)  charge= 10.1596  magn=  0.0001
     atom   4 (R=0.089)  charge= 10.1596  magn=  0.0001
     atom   5 (R=0.089)  charge=  3.9934  magn=  0.0002
     atom   6 (R=0.089)  charge=  3.9934  magn=  0.0007
     atom   7 (R=0.089)  charge=  3.9934  magn=  0.0002
     atom   8 (R=0.089)  charge=  3.9934  magn=  0.0002
     atom   9 (R=0.089)  charge= 10.1599  magn=  0.0013
     atom  10 (R=0.089)  charge= 10.1596  magn=  0.0001
     atom  11 (R=0.089)  charge= 10.1596  magn=  0.0001
     atom  12 (R=0.089)  charge= 10.1597  magn=  0.0032
     atom  13 (R=0.089)  charge=  3.9931  magn=  0.0046
     atom  14 (R=0.089)  charge=  3.9931  magn=  0.0046
     atom  15 (R=0.089)  charge=  3.9870  magn=  0.0629
     atom  16 (R=0.089)  charge=  3.9931  magn=  0.0046
     atom  17 (R=0.089)  charge= 10.1599  magn=  0.0013
     atom  18 (R=0.089)  charge= 10.1596  magn=  0.0001
     atom  19 (R=0.089)  charge= 10.1597  magn=  0.0032
     atom  20 (R=0.089)  charge= 10.1596  magn=  0.0001
     atom  21 (R=0.089)  charge=  3.9931  magn=  0.0046
     atom  22 (R=0.089)  charge=  3.9931  magn=  0.0046
     atom  23 (R=0.089)  charge=  3.9931  magn=  0.0046
     atom  24 (R=0.089)  charge=  3.9870  magn=  0.0629
     atom  25 (R=0.089)  charge= 10.1599  magn=  0.0001
     atom  26 (R=0.089)  charge= 10.1596  magn=  0.0001
     atom  27 (R=0.089)  charge= 10.1597  magn=  0.0032
     atom  28 (R=0.089)  charge= 10.1597  magn=  0.0032
     atom  29 (R=0.089)  charge=  3.9934  magn=  0.0007
     atom  30 (R=0.089)  charge=  3.9934  magn=  0.0002
     atom  31 (R=0.089)  charge=  3.9934  magn=  0.0002
     atom  32 (R=0.089)  charge=  3.9934  magn=  0.0002
     atom  33 (R=0.089)  charge= 10.1599  magn=  0.0013
     atom  34 (R=0.089)  charge= 10.1597  magn=  0.0032
     atom  35 (R=0.089)  charge= 10.1596  magn=  0.0001
     atom  36 (R=0.089)  charge= 10.1596  magn=  0.0001
     atom  37 (R=0.089)  charge=  3.9870  magn=  0.0629
     atom  38 (R=0.089)  charge=  3.9931  magn=  0.0046
     atom  39 (R=0.089)  charge=  3.9931  magn=  0.0046
     atom  40 (R=0.089)  charge=  3.9931  magn=  0.0046
     atom  41 (R=0.089)  charge= 10.1599  magn=  0.0001
     atom  42 (R=0.089)  charge= 10.1597  magn=  0.0032
     atom  43 (R=0.089)  charge= 10.1596  magn=  0.0001
     atom  44 (R=0.089)  charge= 10.1597  magn=  0.0032
     atom  45 (R=0.089)  charge=  3.9934  magn=  0.0002
     atom  46 (R=0.089)  charge=  3.9934  magn=  0.0002
     atom  47 (R=0.089)  charge=  3.9934  magn=  0.0002
     atom  48 (R=0.089)  charge=  3.9934  magn=  0.0007
     atom  49 (R=0.089)  charge= 10.1599  magn=  0.0001
     atom  50 (R=0.089)  charge= 10.1597  magn=  0.0032
     atom  51 (R=0.089)  charge= 10.1597  magn=  0.0032
     atom  52 (R=0.089)  charge= 10.1596  magn=  0.0001
     atom  53 (R=0.089)  charge=  3.9934  magn=  0.0002
     atom  54 (R=0.089)  charge=  3.9934  magn=  0.0002
     atom  55 (R=0.089)  charge=  3.9934  magn=  0.0007
     atom  56 (R=0.089)  charge=  3.9934  magn=  0.0002
     atom  57 (R=0.089)  charge= 15.0993  magn=  2.2720
     atom  58 (R=0.089)  charge= 10.1597  magn=  0.0032
     atom  59 (R=0.089)  charge= 10.1597  magn=  0.0032
     atom  60 (R=0.089)  charge= 10.1597  magn=  0.0032
     atom  61 (R=0.089)  charge=  3.9931  magn=  0.0046
     atom  62 (R=0.089)  charge=  3.9870  magn=  0.0629
     atom  63 (R=0.089)  charge=  3.9931  magn=  0.0046
     atom  64 (R=0.089)  charge=  3.9931  magn=  0.0046

     total cpu time spent up to now is      346.6 secs

     End of self-consistent calculation

 ------ SPIN UP ------------


          k = 0.0000 0.0000 0.0000 (269825 PWs)   bands (ev):

   -90.2014 -53.4696 -53.4696 -53.4696  -7.4345  -6.8976  -6.8976  -6.8976
    -6.8970  -6.8970  -6.8792  -6.5749  -6.5749  -6.5749  -6.5735  -6.5735
    -6.5735  -6.5733  -6.5733  -6.5729  -6.5729  -6.5729  -6.5629  -6.5482
    -6.5482  -6.5482  -6.5312  -6.2510  -6.2510  -6.2510  -6.2439  -6.2439
    -6.2439  -6.2421  -6.2421  -6.2421  -0.6918  -0.6918  -0.6887  -0.6860
    -0.6860  -0.6860  -0.6579  -0.6559  -0.6559  -0.6438  -0.6438  -0.6438
    -0.5402  -0.5402  -0.5402  -0.5387  -0.5387  -0.5386  -0.5386  -0.5386
    -0.5309  -0.5309  -0.5309  -0.5308  -0.5308  -0.5308  -0.5291  -0.5273
    -0.5273  -0.5246  -0.5246  -0.5246  -0.5195  -0.5178  -0.5178  -0.5178
    -0.5109  -0.5109  -0.5109  -0.5098  -0.5098  -0.5098  -0.5092  -0.5092
    -0.5092  -0.5043  -0.5043  -0.5026  -0.5026  -0.5026  -0.4996  -0.4996
    -0.4996  -0.4988  -0.4988  -0.4988  -0.4988  -0.4790  -0.4790  -0.4233
    -0.4233  -0.4233  -0.3792  -0.3792  -0.3792  -0.3755  -0.3755  -0.3755
    -0.3730  -0.3730  -0.3730  -0.3727  -0.3727  -0.3727  -0.3635  -0.3635
    -0.3447  -0.3350  -0.3350  -0.3350  -0.3205  -0.3205  -0.3205  -0.2352
    -0.2352  -0.2352  -0.2249  -0.2249  -0.2249  -0.2212  -0.2212  -0.2188
    -0.2065  -0.2064  -0.2064  -0.2064  -0.2062  -0.2062  -0.2049  -0.1996
    -0.1996  -0.1878  -0.1878  -0.1878  -0.1837  -0.1837  -0.1837  -0.1835
    -0.1833  -0.1833  -0.1833  -0.1727  -0.1727  -0.1572  -0.1572  -0.1497
    -0.1497  -0.1497  -0.1403  -0.1403  -0.1403  -0.1365  -0.1365  -0.1337
    -0.1337  -0.1337  -0.1334  -0.1269  -0.1269  -0.1269  -0.1207  -0.1207
    -0.1107  -0.1107  -0.1107  -0.1105  -0.1105  -0.1105  -0.1029  -0.0996
    -0.0996  -0.0973  -0.0103  -0.0103  -0.0103   0.0259   0.0348   0.0348
     0.0348   0.1702   0.1702   0.1702   0.2106   0.2106   0.2106   0.4080
     0.4080   0.4080   0.4502   1.0405   1.0405   1.0739   1.0739   1.0739
     1.0854   1.0854   1.0885   1.2519   1.5073   1.5073   1.5073   1.6867
     1.6867   1.6867   1.6868   1.6868   1.6941   1.6941   1.6941   1.9065
     2.4523   2.4523   2.4523   2.7460   2.7460   2.9118   2.9118   2.9118
     2.9240   2.9240   2.9240   2.9375   2.9601   2.9601   2.9601   3.0062
     3.0062   3.0881   3.0920   3.0920   3.0920   3.0954   3.0954   3.1372
     3.1372   3.1372   3.1521   3.1521   3.1521   3.2275   3.3362   3.3362
     3.3362   3.4173   3.4173   3.4173   3.5835   3.5835   3.5835   4.1413
     4.1413   4.3726   4.3726   4.3726   4.3747   4.3747   4.3747   4.3850
     4.3850   4.3850   4.4809   4.4809   4.4809   4.6904   4.6904   4.6904
     4.6942   4.6942   4.6942   4.6953   4.7129   4.7129   4.7129   4.7154
     4.7154   4.7281   4.7281   4.7281   4.9964   4.9964   5.0833   5.0833
     5.0833   5.6648   5.6648   5.6648   7.5998   8.8302   8.8302   8.8302
     8.9098   9.0382   9.0382   9.0382   9.6537   9.6537   9.6732   9.9981
     9.9981   9.9981  10.0103  10.0103  10.0292  10.1339  10.1339  10.1522
    10.1522  10.1522  10.1726  10.3282  10.3282  10.3282  10.3287  10.3287
    10.3287  10.3393  10.3393  10.3602  10.3602  10.3602  10.7677  11.2610
    11.2610  11.2610  11.2968  11.2968  11.2968  11.4867  11.4867  11.4867
    11.4975  11.4975  11.8369  11.9674  11.9674  11.9674  12.2013  12.2013
    12.2013  12.2041  12.2043  12.2046  12.2264

     occupation numbers 
     1.0000   1.0000   1.0000   1.0000   1.0000   1.0000   1.0000   1.0000
     1.0000   1.0000   1.0000   1.0000   1.0000   1.0000   1.0000   1.0000
     1.0000   1.0000   1.0000   1.0000   1.0000   1.0000   1.0000   1.0000
     1.0000   1.0000   1.0000   1.0000   1.0000   1.0000   1.0000   1.0000
     1.0000   1.0000   1.0000   1.0000   1.0000   1.0000   1.0000   1.0000
     1.0000   1.0000   1.0000   1.0000   1.0000   1.0000   1.0000   1.0000
     1.0000   1.0000   1.0000   1.0000   1.0000   1.0000   1.0000   1.0000
     1.0000   1.0000   1.0000   1.0000   1.0000   1.0000   1.0000   1.0000
     1.0000   1.0000   1.0000   1.0000   1.0000   1.0000   1.0000   1.0000
     1.0000   1.0000   1.0000   1.0000   1.0000   1.0000   1.0000   1.0000
     1.0000   1.0000   1.0000   1.0000   1.0000   1.0000   1.0000   1.0000
     1.0000   1.0000   1.0000   1.0000   1.0000   1.0000   1.0000   1.0000
     1.0000   1.0000   1.0000   1.0000   1.0000   1.0000   1.0000   1.0000
     1.0000   1.0000   1.0000   1.0000   1.0000   1.0000   1.0000   1.0000
     1.0000   1.0000   1.0000   1.0000   1.0000   1.0000   1.0000   1.0000
     1.0000   1.0000   1.0000   1.0000   1.0000   1.0000   1.0000   1.0000
     1.0000   1.0000   1.0000   1.0000   1.0000   1.0000   1.0000   1.0000
     1.0000   1.0000   1.0000   1.0000   1.0000   1.0000   1.0000   1.0000
     1.0000   1.0000   1.0000   1.0000   1.0000   1.0000   1.0000   1.0000
     1.0000   1.0000   1.0000   1.0000   1.0000   1.0000   1.0000   1.0000
     1.0000   1.0000   1.0000   1.0000   1.0000   1.0000   1.0000   1.0000
     1.0000   1.0000   1.0000   1.0000   1.0000   1.0000   1.0000   1.0000
     1.0000   1.0000   1.0000   1.0000   1.0000   1.0000   1.0000   1.0000
     1.0000   1.0000   1.0000   1.0000   1.0000   1.0000   1.0000   1.0000
     1.0000   1.0000   1.0000   1.0000   1.0000   1.0000   1.0000   1.0000
     1.0000   1.0000   1.0000   1.0000   1.0000   1.0000   1.0000   1.0000
     1.0000   1.0000   1.0000   1.0000   1.0000   1.0000   1.0000   1.0000
     1.0000   1.0000   1.0000   1.0000   1.0000   1.0000   1.0000   1.0000
     1.0000   1.0000   1.0000   1.0000   1.0000   1.0000   1.0000   1.0000
     1.0000   1.0000   1.0000   1.0000   1.0000   1.0000   1.0000   1.0000
     1.0000   1.0000   1.0000   1.0000   1.0000   1.0000   1.0000   1.0000
     1.0000   1.0000   1.0000   1.0000   1.0000   1.0000   1.0000   1.0000
     1.0000   1.0000   1.0000   1.0000   1.0000   1.0000   1.0000   1.0000
     1.0000   1.0000   1.0000   1.0000   1.0000   1.0000   1.0000   1.0000
     1.0000   1.0000   1.0000   1.0000   1.0000   1.0000   1.0000   1.0000
     1.0000   1.0000   1.0000   1.0000   1.0000   1.0000   1.0000   1.0000
     1.0000   1.0000   1.0000   1.0000   0.0000   0.0000   0.0000   0.0000
     0.0000   0.0000   0.0000   0.0000   0.0000   0.0000   0.0000   0.0000
     0.0000   0.0000   0.0000   0.0000   0.0000   0.0000   0.0000   0.0000
     0.0000   0.0000   0.0000   0.0000   0.0000   0.0000   0.0000   0.0000
     0.0000   0.0000   0.0000   0.0000   0.0000   0.0000   0.0000   0.0000
     0.0000   0.0000   0.0000   0.0000   0.0000   0.0000   0.0000   0.0000
     0.0000   0.0000   0.0000   0.0000   0.0000   0.0000   0.0000   0.0000
     0.0000   0.0000   0.0000   0.0000   0.0000

          k = 0.0000 0.0000 0.2500 (269876 PWs)   bands (ev):

   -90.2014 -53.4696 -53.4696 -53.4696  -7.3963  -7.1112  -6.8734  -6.8734
    -6.8728  -6.8614  -6.6987  -6.6987  -6.6982  -6.6904  -6.6618  -6.5706
    -6.5700  -6.5700  -6.5664  -6.5524  -6.5521  -6.5521  -6.5420  -6.4478
    -6.4478  -6.4477  -6.4417  -6.3037  -6.2692  -6.2692  -6.2689  -6.2676
    -6.2495  -6.2495  -6.2434  -6.2434  -0.6878  -0.6798  -0.6742  -0.6721
    -0.6697  -0.6697  -0.6595  -0.6482  -0.6377  -0.6364  -0.6349  -0.6349
    -0.5660  -0.5660  -0.5483  -0.5466  -0.5459  -0.5459  -0.5404  -0.5388
    -0.5388  -0.5384  -0.5378  -0.5352  -0.5348  -0.5344  -0.5344  -0.5336
    -0.5324  -0.5324  -0.5307  -0.5297  -0.5276  -0.5275  -0.5275  -0.5239
    -0.5212  -0.5210  -0.5203  -0.5203  -0.5163  -0.5163  -0.5138  -0.5123
    -0.5102  -0.5102  -0.5095  -0.5070  -0.5068  -0.5068  -0.5061  -0.4916
    -0.4853  -0.4830  -0.4770  -0.4770  -0.4715  -0.4677  -0.4677  -0.4580
    -0.4572  -0.4518  -0.4518  -0.4165  -0.4158  -0.4158  -0.3996  -0.3873
    -0.3873  -0.3597  -0.3597  -0.3498  -0.3409  -0.3409  -0.3382  -0.3336
    -0.3336  -0.3305  -0.3163  -0.2803  -0.2803  -0.2765  -0.2689  -0.2652
    -0.2603  -0.2355  -0.2355  -0.2150  -0.2118  -0.2077  -0.2077  -0.2072
    -0.2017  -0.2013  -0.2013  -0.2001  -0.1997  -0.1956  -0.1954  -0.1881
    -0.1881  -0.1845  -0.1844  -0.1798  -0.1798  -0.1765  -0.1764  -0.1724
    -0.1706  -0.1705  -0.1705  -0.1682  -0.1681  -0.1681  -0.1663  -0.1643
    -0.1622  -0.1559  -0.1502  -0.1502  -0.1471  -0.1460  -0.1439  -0.1360
    -0.1352  -0.1352  -0.1333  -0.1300  -0.1300  -0.1299  -0.1275  -0.1208
    -0.1147  -0.1098  -0.1098  -0.1055  -0.1048  -0.1016  -0.0874  -0.0874
    -0.0849  -0.0696  -0.0632  -0.0625  -0.0625  -0.0479  -0.0354   0.0452
     0.0452   0.1377   0.1404   0.1404   0.1724   0.1800   0.1800   0.5966
     0.5966   0.6074   0.6340   1.0486   1.0545   1.0800   1.0865   1.0885
     1.0885   1.0915   1.1688   1.2583   1.3318   1.3318   1.3825   1.4028
     1.4095   1.4095   1.4404   1.5561   1.9606   1.9606   1.9973   2.0604
     2.3097   2.4297   2.4297   2.6089   2.6242   2.6516   2.7089   2.7089
     2.7683   2.8350   2.8460   2.8460   2.8505   2.9543   2.9604   2.9795
     2.9795   3.0755   3.1010   3.1010   3.2433   3.3245   3.3456   3.3456
     3.3497   3.3722   3.3888   3.3888   3.4133   3.4488   3.4488   3.4837
     3.4984   3.4984   3.5199   3.5906   3.6722   3.6722   3.8271   4.0278
     4.0278   4.0996   4.1172   4.2616   4.2700   4.2988   4.2988   4.3744
     4.3992   4.3992   4.4384   4.5033   4.5033   4.5108   4.5168   4.5399
     4.5399   4.6071   4.6966   4.7094   4.7094   4.7112   4.7226   4.7644
     4.7644   4.7793   4.7952   4.7952   4.8846   5.0168   5.0328   5.0821
     5.0821   5.3596   5.5678   5.5678   7.9966   9.0481   9.0484   9.0484
     9.1104   9.1247   9.2662   9.2662   9.5349   9.6741   9.7313   9.8540
     9.8639  10.0695  10.0699  10.0699  10.0849  10.0908  10.0994  10.0994
    10.1198  10.1907  10.3020  10.3066  10.3066  10.3352  10.3497  10.3780
    10.3780  10.3986  10.4632  10.4712  10.4712  10.6552  10.7305  10.7305
    10.7545  11.0744  11.0854  11.0864  11.0864  11.0916  11.3153  11.6070
    11.6077  11.6077  11.7340  11.7952  11.8473  11.8791  11.8792  11.8867
    12.0449  12.0454  12.0458  12.0532  12.0545

     occupation numbers 
     1.0000   1.0000   1.0000   1.0000   1.0000   1.0000   1.0000   1.0000
     1.0000   1.0000   1.0000   1.0000   1.0000   1.0000   1.0000   1.0000
     1.0000   1.0000   1.0000   1.0000   1.0000   1.0000   1.0000   1.0000
     1.0000   1.0000   1.0000   1.0000   1.0000   1.0000   1.0000   1.0000
     1.0000   1.0000   1.0000   1.0000   1.0000   1.0000   1.0000   1.0000
     1.0000   1.0000   1.0000   1.0000   1.0000   1.0000   1.0000   1.0000
     1.0000   1.0000   1.0000   1.0000   1.0000   1.0000   1.0000   1.0000
     1.0000   1.0000   1.0000   1.0000   1.0000   1.0000   1.0000   1.0000
     1.0000   1.0000   1.0000   1.0000   1.0000   1.0000   1.0000   1.0000
     1.0000   1.0000   1.0000   1.0000   1.0000   1.0000   1.0000   1.0000
     1.0000   1.0000   1.0000   1.0000   1.0000   1.0000   1.0000   1.0000
     1.0000   1.0000   1.0000   1.0000   1.0000   1.0000   1.0000   1.0000
     1.0000   1.0000   1.0000   1.0000   1.0000   1.0000   1.0000   1.0000
     1.0000   1.0000   1.0000   1.0000   1.0000   1.0000   1.0000   1.0000
     1.0000   1.0000   1.0000   1.0000   1.0000   1.0000   1.0000   1.0000
     1.0000   1.0000   1.0000   1.0000   1.0000   1.0000   1.0000   1.0000
     1.0000   1.0000   1.0000   1.0000   1.0000   1.0000   1.0000   1.0000
     1.0000   1.0000   1.0000   1.0000   1.0000   1.0000   1.0000   1.0000
     1.0000   1.0000   1.0000   1.0000   1.0000   1.0000   1.0000   1.0000
     1.0000   1.0000   1.0000   1.0000   1.0000   1.0000   1.0000   1.0000
     1.0000   1.0000   1.0000   1.0000   1.0000   1.0000   1.0000   1.0000
     1.0000   1.0000   1.0000   1.0000   1.0000   1.0000   1.0000   1.0000
     1.0000   1.0000   1.0000   1.0000   1.0000   1.0000   1.0000   1.0000
     1.0000   1.0000   1.0000   1.0000   1.0000   1.0000   1.0000   1.0000
     1.0000   1.0000   1.0000   1.0000   1.0000   1.0000   1.0000   1.0000
     1.0000   1.0000   1.0000   1.0000   1.0000   1.0000   1.0000   1.0000
     1.0000   1.0000   1.0000   1.0000   1.0000   1.0000   1.0000   1.0000
     1.0000   1.0000   1.0000   1.0000   1.0000   1.0000   1.0000   1.0000
     1.0000   1.0000   1.0000   1.0000   1.0000   1.0000   1.0000   1.0000
     1.0000   1.0000   1.0000   1.0000   1.0000   1.0000   1.0000   1.0000
     1.0000   1.0000   1.0000   1.0000   1.0000   1.0000   1.0000   1.0000
     1.0000   1.0000   1.0000   1.0000   1.0000   1.0000   1.0000   1.0000
     1.0000   1.0000   1.0000   1.0000   1.0000   1.0000   1.0000   1.0000
     1.0000   1.0000   1.0000   1.0000   1.0000   1.0000   1.0000   1.0000
     1.0000   1.0000   1.0000   1.0000   1.0000   1.0000   1.0000   1.0000
     1.0000   1.0000   1.0000   1.0000   1.0000   1.0000   1.0000   1.0000
     1.0000   1.0000   1.0000   1.0000   0.0000   0.0000   0.0000   0.0000
     0.0000   0.0000   0.0000   0.0000   0.0000   0.0000   0.0000   0.0000
     0.0000   0.0000   0.0000   0.0000   0.0000   0.0000   0.0000   0.0000
     0.0000   0.0000   0.0000   0.0000   0.0000   0.0000   0.0000   0.0000
     0.0000   0.0000   0.0000   0.0000   0.0000   0.0000   0.0000   0.0000
     0.0000   0.0000   0.0000   0.0000   0.0000   0.0000   0.0000   0.0000
     0.0000   0.0000   0.0000   0.0000   0.0000   0.0000   0.0000   0.0000
     0.0000   0.0000   0.0000   0.0000   0.0000

          k = 0.0000 0.0000-0.5000 (270152 PWs)   bands (ev):

   -90.2014 -53.4696 -53.4696 -53.4696  -7.2904  -7.2793  -6.8078  -6.8077
    -6.8077  -6.8016  -6.7997  -6.7997  -6.7985  -6.7839  -6.5634  -6.5633
    -6.5633  -6.5633  -6.5600  -6.5588  -6.5588  -6.5452  -6.4520  -6.4517
    -6.3452  -6.3438  -6.3438  -6.3416  -6.3375  -6.3375  -6.3360  -6.3337
    -6.2489  -6.2489  -6.2441  -6.2441  -0.6819  -0.6730  -0.6636  -0.6549
    -0.6260  -0.6260  -0.6259  -0.6257  -0.6197  -0.6191  -0.6191  -0.6149
    -0.6142  -0.6142  -0.5970  -0.5931  -0.5931  -0.5931  -0.5807  -0.5730
    -0.5381  -0.5378  -0.5374  -0.5374  -0.5358  -0.5358  -0.5312  -0.5290
    -0.5242  -0.5242  -0.5239  -0.5229  -0.5224  -0.5222  -0.5222  -0.5220
    -0.5220  -0.5212  -0.5212  -0.5207  -0.5207  -0.5204  -0.5201  -0.5199
    -0.5194  -0.5173  -0.5173  -0.5151  -0.5006  -0.4985  -0.4985  -0.4958
    -0.4958  -0.4936  -0.4934  -0.4846  -0.4790  -0.4613  -0.4550  -0.4550
    -0.4410  -0.4410  -0.4396  -0.4358  -0.4313  -0.4116  -0.4116  -0.3830
    -0.3830  -0.3663  -0.3663  -0.3543  -0.3543  -0.3458  -0.3012  -0.3007
    -0.2993  -0.2954  -0.2954  -0.2674  -0.2637  -0.2637  -0.2633  -0.2625
    -0.2450  -0.2450  -0.2385  -0.2317  -0.2302  -0.2302  -0.2296  -0.2274
    -0.2150  -0.1987  -0.1967  -0.1967  -0.1918  -0.1912  -0.1908  -0.1908
    -0.1876  -0.1867  -0.1846  -0.1783  -0.1783  -0.1739  -0.1737  -0.1733
    -0.1733  -0.1708  -0.1657  -0.1657  -0.1634  -0.1632  -0.1621  -0.1610
    -0.1610  -0.1593  -0.1591  -0.1579  -0.1572  -0.1382  -0.1374  -0.1374
    -0.1342  -0.1340  -0.1335  -0.1326  -0.1326  -0.1281  -0.1273  -0.1253
    -0.1246  -0.1177  -0.1106  -0.1090  -0.1045  -0.1045  -0.1035  -0.1025
    -0.1018  -0.1018  -0.0991   0.0078   0.0078   0.0214   0.0578   0.0588
     0.0588   0.0595   0.0707   0.1033   0.1033   0.1247   0.1247   0.9361
     0.9361   0.9603   0.9910   1.0052   1.0052   1.0072   1.0276   1.0531
     1.0859   1.0866   1.0932   1.1229   1.1667   1.1667   1.1765   1.1766
     1.1837   1.1837   1.4225   1.6815   1.7743   2.1076   2.1076   2.2503
     2.4303   2.4777   2.4825   2.4825   2.5852   2.5859   2.6377   2.6377
     2.6399   2.6729   2.6774   2.6774   2.6827   2.8215   2.9520   2.9520
     3.0895   3.1579   3.1579   3.1669   3.1692   3.2204   3.2204   3.2908
     3.5163   3.6892   3.6892   3.7188   3.7188   3.8233   3.8722   3.8763
     3.8763   3.8781   3.8936   3.8936   3.9023   3.9211   3.9251   3.9251
     3.9282   3.9457   3.9599   3.9852   3.9852   4.0058   4.0137   4.0137
     4.0326   4.1726   4.1971   4.2032   4.2032   4.4537   4.5632   4.5829
     4.6966   4.6966   4.6993   4.6997   4.7011   4.7011   4.7087   4.7102
     4.7105   4.7105   4.7105   4.8839   4.9288   4.9288   5.0212   5.1414
     5.1767   5.1767   5.3957   5.3957   8.7594   8.7863   9.3102   9.3437
     9.5599   9.5600   9.5600   9.5688   9.5705   9.5705   9.5915   9.6852
     9.8670   9.8670   9.8727   9.9071   9.9071   9.9518  10.2108  10.2118
    10.2118  10.2150  10.2213  10.2213  10.2259  10.3042  10.3769  10.3812
    10.4119  10.5326  10.7302  10.7320  10.7320  10.7401  10.7580  10.7580
    10.7630  10.9125  10.9674  10.9699  10.9699  10.9784  10.9784  11.0373
    11.0373  11.1778  11.2856  11.3458  11.8097  11.8098  11.8100  11.8109
    11.8216  11.8216  11.8488  11.9941  12.1029

     occupation numbers 
     1.0000   1.0000   1.0000   1.0000   1.0000   1.0000   1.0000   1.0000
     1.0000   1.0000   1.0000   1.0000   1.0000   1.0000   1.0000   1.0000
     1.0000   1.0000   1.0000   1.0000   1.0000   1.0000   1.0000   1.0000
     1.0000   1.0000   1.0000   1.0000   1.0000   1.0000   1.0000   1.0000
     1.0000   1.0000   1.0000   1.0000   1.0000   1.0000   1.0000   1.0000
     1.0000   1.0000   1.0000   1.0000   1.0000   1.0000   1.0000   1.0000
     1.0000   1.0000   1.0000   1.0000   1.0000   1.0000   1.0000   1.0000
     1.0000   1.0000   1.0000   1.0000   1.0000   1.0000   1.0000   1.0000
     1.0000   1.0000   1.0000   1.0000   1.0000   1.0000   1.0000   1.0000
     1.0000   1.0000   1.0000   1.0000   1.0000   1.0000   1.0000   1.0000
     1.0000   1.0000   1.0000   1.0000   1.0000   1.0000   1.0000   1.0000
     1.0000   1.0000   1.0000   1.0000   1.0000   1.0000   1.0000   1.0000
     1.0000   1.0000   1.0000   1.0000   1.0000   1.0000   1.0000   1.0000
     1.0000   1.0000   1.0000   1.0000   1.0000   1.0000   1.0000   1.0000
     1.0000   1.0000   1.0000   1.0000   1.0000   1.0000   1.0000   1.0000
     1.0000   1.0000   1.0000   1.0000   1.0000   1.0000   1.0000   1.0000
     1.0000   1.0000   1.0000   1.0000   1.0000   1.0000   1.0000   1.0000
     1.0000   1.0000   1.0000   1.0000   1.0000   1.0000   1.0000   1.0000
     1.0000   1.0000   1.0000   1.0000   1.0000   1.0000   1.0000   1.0000
     1.0000   1.0000   1.0000   1.0000   1.0000   1.0000   1.0000   1.0000
     1.0000   1.0000   1.0000   1.0000   1.0000   1.0000   1.0000   1.0000
     1.0000   1.0000   1.0000   1.0000   1.0000   1.0000   1.0000   1.0000
     1.0000   1.0000   1.0000   1.0000   1.0000   1.0000   1.0000   1.0000
     1.0000   1.0000   1.0000   1.0000   1.0000   1.0000   1.0000   1.0000
     1.0000   1.0000   1.0000   1.0000   1.0000   1.0000   1.0000   1.0000
     1.0000   1.0000   1.0000   1.0000   1.0000   1.0000   1.0000   1.0000
     1.0000   1.0000   1.0000   1.0000   1.0000   1.0000   1.0000   1.0000
     1.0000   1.0000   1.0000   1.0000   1.0000   1.0000   1.0000   1.0000
     1.0000   1.0000   1.0000   1.0000   1.0000   1.0000   1.0000   1.0000
     1.0000   1.0000   1.0000   1.0000   1.0000   1.0000   1.0000   1.0000
     1.0000   1.0000   1.0000   1.0000   1.0000   1.0000   1.0000   1.0000
     1.0000   1.0000   1.0000   1.0000   1.0000   1.0000   1.0000   1.0000
     1.0000   1.0000   1.0000   1.0000   1.0000   1.0000   1.0000   1.0000
     1.0000   1.0000   1.0000   1.0000   1.0000   1.0000   1.0000   1.0000
     1.0000   1.0000   1.0000   1.0000   1.0000   1.0000   1.0000   1.0000
     1.0000   1.0000   1.0000   1.0000   1.0000   1.0000   1.0000   1.0000
     1.0000   1.0000   1.0000   1.0000   0.0000   0.0000   0.0000   0.0000
     0.0000   0.0000   0.0000   0.0000   0.0000   0.0000   0.0000   0.0000
     0.0000   0.0000   0.0000   0.0000   0.0000   0.0000   0.0000   0.0000
     0.0000   0.0000   0.0000   0.0000   0.0000   0.0000   0.0000   0.0000
     0.0000   0.0000   0.0000   0.0000   0.0000   0.0000   0.0000   0.0000
     0.0000   0.0000   0.0000   0.0000   0.0000   0.0000   0.0000   0.0000
     0.0000   0.0000   0.0000   0.0000   0.0000   0.0000   0.0000   0.0000
     0.0000   0.0000   0.0000   0.0000   0.0000

          k = 0.0000 0.2500 0.2500 (269929 PWs)   bands (ev):

   -90.2014 -53.4696 -53.4696 -53.4696  -7.3589  -7.0844  -7.0773  -6.8601
    -6.8497  -6.8442  -6.6868  -6.6866  -6.6857  -6.6780  -6.6475  -6.6433
    -6.6041  -6.5995  -6.5294  -6.5272  -6.5067  -6.5034  -6.4544  -6.4539
    -6.4538  -6.4480  -6.3673  -6.3012  -6.3010  -6.2909  -6.2901  -6.2804
    -6.2797  -6.2596  -6.2593  -6.2489  -0.6693  -0.6683  -0.6669  -0.6637
    -0.6565  -0.6541  -0.6454  -0.6400  -0.6396  -0.6319  -0.6268  -0.6207
    -0.5696  -0.5669  -0.5658  -0.5622  -0.5615  -0.5552  -0.5508  -0.5497
    -0.5489  -0.5473  -0.5459  -0.5441  -0.5403  -0.5400  -0.5384  -0.5383
    -0.5375  -0.5369  -0.5356  -0.5331  -0.5319  -0.5317  -0.5311  -0.5280
    -0.5271  -0.5265  -0.5263  -0.5250  -0.5229  -0.5218  -0.5193  -0.5175
    -0.5146  -0.5139  -0.5081  -0.5048  -0.5028  -0.5008  -0.4894  -0.4883
    -0.4844  -0.4794  -0.4725  -0.4661  -0.4633  -0.4558  -0.4536  -0.4470
    -0.4454  -0.4398  -0.4369  -0.4366  -0.4224  -0.4222  -0.4119  -0.4028
    -0.4001  -0.3857  -0.3750  -0.3696  -0.3650  -0.3532  -0.3458  -0.3445
    -0.3336  -0.3230  -0.2915  -0.2824  -0.2795  -0.2675  -0.2618  -0.2586
    -0.2534  -0.2526  -0.2469  -0.2459  -0.2297  -0.2175  -0.2124  -0.2027
    -0.2018  -0.1977  -0.1948  -0.1946  -0.1924  -0.1906  -0.1896  -0.1852
    -0.1821  -0.1811  -0.1802  -0.1793  -0.1766  -0.1755  -0.1719  -0.1681
    -0.1663  -0.1653  -0.1641  -0.1630  -0.1623  -0.1618  -0.1612  -0.1577
    -0.1558  -0.1548  -0.1525  -0.1480  -0.1466  -0.1444  -0.1427  -0.1424
    -0.1416  -0.1375  -0.1370  -0.1359  -0.1317  -0.1299  -0.1292  -0.1279
    -0.1231  -0.1212  -0.1156  -0.1115  -0.1073  -0.1061  -0.1053  -0.0757
    -0.0697  -0.0543  -0.0511  -0.0215  -0.0180   0.0087   0.0302   0.0318
     0.0729   0.1066   0.1083   0.1356   0.1390   0.1657   0.1744   0.5214
     0.5405   0.9091   0.9117   1.0267   1.0438   1.0572   1.0734   1.0822
     1.1217   1.1347   1.1446   1.1460   1.1637   1.1643   1.2282   1.2450
     1.4006   1.5660   1.6649   1.7189   1.7651   1.8208   1.8815   2.1048
     2.1860   2.3279   2.4394   2.5445   2.5638   2.6270   2.6483   2.6723
     2.7140   2.7404   2.7941   2.8796   2.9109   2.9237   3.0497   3.0788
     3.1109   3.1601   3.1785   3.1997   3.2487   3.2995   3.3165   3.3938
     3.4142   3.4236   3.4516   3.4575   3.5046   3.5085   3.5241   3.5453
     3.5785   3.6389   3.7574   3.7662   3.8324   3.8740   3.8827   3.9277
     3.9965   4.0577   4.0604   4.1051   4.1598   4.2363   4.2429   4.2834
     4.3518   4.3640   4.3772   4.3878   4.3889   4.4251   4.4497   4.4949
     4.5476   4.5677   4.6223   4.6359   4.6647   4.6665   4.7161   4.7235
     4.7569   4.7732   4.8300   4.8821   4.8970   4.9680   5.0154   5.0489
     5.2129   5.2425   5.4701   5.6243   8.2532   9.0720   9.1037   9.3374
     9.3395   9.3434   9.3924   9.4179   9.5637   9.5908   9.9034   9.9050
     9.9193   9.9222   9.9422   9.9456   9.9712   9.9917   9.9922  10.0013
    10.0657  10.1474  10.1792  10.2003  10.2354  10.3244  10.3257  10.3382
    10.3708  10.3984  10.5047  10.7043  10.7081  10.7222  10.8026  10.8110
    10.8243  10.8875  10.9166  11.0081  11.0341  11.0875  11.2758  11.4443
    11.4519  11.4872  11.5248  11.5293  11.6571  11.8031  11.8241  11.8358
    11.8494  11.8632  11.9517  11.9523  11.9558

     occupation numbers 
     1.0000   1.0000   1.0000   1.0000   1.0000   1.0000   1.0000   1.0000
     1.0000   1.0000   1.0000   1.0000   1.0000   1.0000   1.0000   1.0000
     1.0000   1.0000   1.0000   1.0000   1.0000   1.0000   1.0000   1.0000
     1.0000   1.0000   1.0000   1.0000   1.0000   1.0000   1.0000   1.0000
     1.0000   1.0000   1.0000   1.0000   1.0000   1.0000   1.0000   1.0000
     1.0000   1.0000   1.0000   1.0000   1.0000   1.0000   1.0000   1.0000
     1.0000   1.0000   1.0000   1.0000   1.0000   1.0000   1.0000   1.0000
     1.0000   1.0000   1.0000   1.0000   1.0000   1.0000   1.0000   1.0000
     1.0000   1.0000   1.0000   1.0000   1.0000   1.0000   1.0000   1.0000
     1.0000   1.0000   1.0000   1.0000   1.0000   1.0000   1.0000   1.0000
     1.0000   1.0000   1.0000   1.0000   1.0000   1.0000   1.0000   1.0000
     1.0000   1.0000   1.0000   1.0000   1.0000   1.0000   1.0000   1.0000
     1.0000   1.0000   1.0000   1.0000   1.0000   1.0000   1.0000   1.0000
     1.0000   1.0000   1.0000   1.0000   1.0000   1.0000   1.0000   1.0000
     1.0000   1.0000   1.0000   1.0000   1.0000   1.0000   1.0000   1.0000
     1.0000   1.0000   1.0000   1.0000   1.0000   1.0000   1.0000   1.0000
     1.0000   1.0000   1.0000   1.0000   1.0000   1.0000   1.0000   1.0000
     1.0000   1.0000   1.0000   1.0000   1.0000   1.0000   1.0000   1.0000
     1.0000   1.0000   1.0000   1.0000   1.0000   1.0000   1.0000   1.0000
     1.0000   1.0000   1.0000   1.0000   1.0000   1.0000   1.0000   1.0000
     1.0000   1.0000   1.0000   1.0000   1.0000   1.0000   1.0000   1.0000
     1.0000   1.0000   1.0000   1.0000   1.0000   1.0000   1.0000   1.0000
     1.0000   1.0000   1.0000   1.0000   1.0000   1.0000   1.0000   1.0000
     1.0000   1.0000   1.0000   1.0000   1.0000   1.0000   1.0000   1.0000
     1.0000   1.0000   1.0000   1.0000   1.0000   1.0000   1.0000   1.0000
     1.0000   1.0000   1.0000   1.0000   1.0000   1.0000   1.0000   1.0000
     1.0000   1.0000   1.0000   1.0000   1.0000   1.0000   1.0000   1.0000
     1.0000   1.0000   1.0000   1.0000   1.0000   1.0000   1.0000   1.0000
     1.0000   1.0000   1.0000   1.0000   1.0000   1.0000   1.0000   1.0000
     1.0000   1.0000   1.0000   1.0000   1.0000   1.0000   1.0000   1.0000
     1.0000   1.0000   1.0000   1.0000   1.0000   1.0000   1.0000   1.0000
     1.0000   1.0000   1.0000   1.0000   1.0000   1.0000   1.0000   1.0000
     1.0000   1.0000   1.0000   1.0000   1.0000   1.0000   1.0000   1.0000
     1.0000   1.0000   1.0000   1.0000   1.0000   1.0000   1.0000   1.0000
     1.0000   1.0000   1.0000   1.0000   1.0000   1.0000   1.0000   1.0000
     1.0000   1.0000   1.0000   1.0000   1.0000   1.0000   1.0000   1.0000
     1.0000   1.0000   1.0000   1.0000   0.0000   0.0000   0.0000   0.0000
     0.0000   0.0000   0.0000   0.0000   0.0000   0.0000   0.0000   0.0000
     0.0000   0.0000   0.0000   0.0000   0.0000   0.0000   0.0000   0.0000
     0.0000   0.0000   0.0000   0.0000   0.0000   0.0000   0.0000   0.0000
     0.0000   0.0000   0.0000   0.0000   0.0000   0.0000   0.0000   0.0000
     0.0000   0.0000   0.0000   0.0000   0.0000   0.0000   0.0000   0.0000
     0.0000   0.0000   0.0000   0.0000   0.0000   0.0000   0.0000   0.0000
     0.0000   0.0000   0.0000   0.0000   0.0000

          k = 0.0000 0.2500-0.5000 (269962 PWs)   bands (ev):

   -90.2014 -53.4696 -53.4696 -53.4696  -7.2555  -7.2447  -6.9981  -6.9885
    -6.7862  -6.7858  -6.7834  -6.7729  -6.6535  -6.6534  -6.6510  -6.6422
    -6.6014  -6.5942  -6.4751  -6.4749  -6.4724  -6.4675  -6.4428  -6.4424
    -6.3817  -6.3805  -6.3576  -6.3553  -6.3544  -6.3542  -6.3027  -6.3006
    -6.2936  -6.2896  -6.2544  -6.2512  -0.6614  -0.6610  -0.6473  -0.6454
    -0.6327  -0.6249  -0.6147  -0.6132  -0.6127  -0.6121  -0.6106  -0.6094
    -0.6077  -0.6049  -0.5964  -0.5924  -0.5898  -0.5853  -0.5780  -0.5705
    -0.5669  -0.5605  -0.5577  -0.5551  -0.5508  -0.5488  -0.5485  -0.5435
    -0.5372  -0.5345  -0.5342  -0.5327  -0.5321  -0.5316  -0.5304  -0.5279
    -0.5271  -0.5250  -0.5234  -0.5223  -0.5218  -0.5217  -0.5215  -0.5167
    -0.5132  -0.5069  -0.5034  -0.4982  -0.4957  -0.4939  -0.4930  -0.4890
    -0.4849  -0.4816  -0.4731  -0.4721  -0.4572  -0.4553  -0.4491  -0.4465
    -0.4416  -0.4312  -0.4260  -0.4241  -0.4171  -0.4090  -0.4015  -0.3933
    -0.3877  -0.3868  -0.3797  -0.3776  -0.3760  -0.3758  -0.3688  -0.3638
    -0.3622  -0.3337  -0.3112  -0.3090  -0.3071  -0.3000  -0.2930  -0.2679
    -0.2408  -0.2296  -0.2269  -0.2257  -0.2224  -0.2215  -0.2171  -0.2167
    -0.2060  -0.1939  -0.1933  -0.1900  -0.1875  -0.1853  -0.1852  -0.1822
    -0.1799  -0.1794  -0.1716  -0.1693  -0.1668  -0.1662  -0.1658  -0.1640
    -0.1623  -0.1620  -0.1614  -0.1603  -0.1590  -0.1570  -0.1569  -0.1545
    -0.1528  -0.1500  -0.1493  -0.1484  -0.1473  -0.1450  -0.1443  -0.1378
    -0.1358  -0.1345  -0.1340  -0.1321  -0.1316  -0.1273  -0.1271  -0.1257
    -0.1237  -0.1230  -0.1217  -0.1213  -0.1183  -0.1114  -0.1106  -0.0591
    -0.0322  -0.0175  -0.0120  -0.0046   0.0024   0.0275   0.0367   0.0548
     0.0641   0.0695   0.0809   0.1056   0.1298   0.1306   0.1379   0.7746
     0.7773   0.7822   0.7919   1.0001   1.0218   1.0220   1.0239   1.0566
     1.0599   1.0723   1.1148   1.2253   1.2463   1.2977   1.3033   1.3444
     1.3610   1.3616   1.4404   1.6410   1.7199   1.9389   1.9587   2.0254
     2.1680   2.2266   2.2495   2.4630   2.5056   2.5870   2.5990   2.7205
     2.7560   2.8093   2.8173   2.8860   2.9054   2.9158   2.9478   3.0040
     3.1193   3.1253   3.2073   3.2086   3.3279   3.4004   3.4525   3.5211
     3.5594   3.5711   3.5718   3.5816   3.6488   3.6822   3.6836   3.7184
     3.7272   3.7508   3.7873   3.8089   3.8808   3.9058   3.9228   3.9524
     3.9867   4.0095   4.0284   4.1387   4.1594   4.1596   4.1705   4.1858
     4.1897   4.2444   4.2801   4.2883   4.2987   4.3321   4.3623   4.3876
     4.4433   4.4708   4.4828   4.5552   4.5612   4.6555   4.6658   4.6878
     4.7353   4.7908   4.8573   4.8703   4.8795   4.9553   5.0644   5.2163
     5.2266   5.2962   5.4302   5.4879   8.8586   8.8843   9.4505   9.4526
     9.4571   9.4976   9.5480   9.5833   9.6925   9.6952   9.7168   9.7238
     9.9005   9.9020   9.9113   9.9217   9.9237   9.9242   9.9326   9.9497
     9.9874  10.0124  10.0444  10.1048  10.1248  10.2188  10.4158  10.4444
    10.4912  10.5479  10.5639  10.5745  10.6703  10.6762  10.7011  10.7845
    10.8124  10.8826  10.9490  11.0527  11.1127  11.1735  11.3344  11.3376
    11.3693  11.3879  11.4094  11.4185  11.4368  11.5280  11.5901  11.6070
    11.6189  11.6647  11.7879  11.8075  11.8166

     occupation numbers 
     1.0000   1.0000   1.0000   1.0000   1.0000   1.0000   1.0000   1.0000
     1.0000   1.0000   1.0000   1.0000   1.0000   1.0000   1.0000   1.0000
     1.0000   1.0000   1.0000   1.0000   1.0000   1.0000   1.0000   1.0000
     1.0000   1.0000   1.0000   1.0000   1.0000   1.0000   1.0000   1.0000
     1.0000   1.0000   1.0000   1.0000   1.0000   1.0000   1.0000   1.0000
     1.0000   1.0000   1.0000   1.0000   1.0000   1.0000   1.0000   1.0000
     1.0000   1.0000   1.0000   1.0000   1.0000   1.0000   1.0000   1.0000
     1.0000   1.0000   1.0000   1.0000   1.0000   1.0000   1.0000   1.0000
     1.0000   1.0000   1.0000   1.0000   1.0000   1.0000   1.0000   1.0000
     1.0000   1.0000   1.0000   1.0000   1.0000   1.0000   1.0000   1.0000
     1.0000   1.0000   1.0000   1.0000   1.0000   1.0000   1.0000   1.0000
     1.0000   1.0000   1.0000   1.0000   1.0000   1.0000   1.0000   1.0000
     1.0000   1.0000   1.0000   1.0000   1.0000   1.0000   1.0000   1.0000
     1.0000   1.0000   1.0000   1.0000   1.0000   1.0000   1.0000   1.0000
     1.0000   1.0000   1.0000   1.0000   1.0000   1.0000   1.0000   1.0000
     1.0000   1.0000   1.0000   1.0000   1.0000   1.0000   1.0000   1.0000
     1.0000   1.0000   1.0000   1.0000   1.0000   1.0000   1.0000   1.0000
     1.0000   1.0000   1.0000   1.0000   1.0000   1.0000   1.0000   1.0000
     1.0000   1.0000   1.0000   1.0000   1.0000   1.0000   1.0000   1.0000
     1.0000   1.0000   1.0000   1.0000   1.0000   1.0000   1.0000   1.0000
     1.0000   1.0000   1.0000   1.0000   1.0000   1.0000   1.0000   1.0000
     1.0000   1.0000   1.0000   1.0000   1.0000   1.0000   1.0000   1.0000
     1.0000   1.0000   1.0000   1.0000   1.0000   1.0000   1.0000   1.0000
     1.0000   1.0000   1.0000   1.0000   1.0000   1.0000   1.0000   1.0000
     1.0000   1.0000   1.0000   1.0000   1.0000   1.0000   1.0000   1.0000
     1.0000   1.0000   1.0000   1.0000   1.0000   1.0000   1.0000   1.0000
     1.0000   1.0000   1.0000   1.0000   1.0000   1.0000   1.0000   1.0000
     1.0000   1.0000   1.0000   1.0000   1.0000   1.0000   1.0000   1.0000
     1.0000   1.0000   1.0000   1.0000   1.0000   1.0000   1.0000   1.0000
     1.0000   1.0000   1.0000   1.0000   1.0000   1.0000   1.0000   1.0000
     1.0000   1.0000   1.0000   1.0000   1.0000   1.0000   1.0000   1.0000
     1.0000   1.0000   1.0000   1.0000   1.0000   1.0000   1.0000   1.0000
     1.0000   1.0000   1.0000   1.0000   1.0000   1.0000   1.0000   1.0000
     1.0000   1.0000   1.0000   1.0000   1.0000   1.0000   1.0000   1.0000
     1.0000   1.0000   1.0000   1.0000   1.0000   1.0000   1.0000   1.0000
     1.0000   1.0000   1.0000   1.0000   1.0000   1.0000   1.0000   1.0000
     1.0000   1.0000   1.0000   1.0000   0.0000   0.0000   0.0000   0.0000
     0.0000   0.0000   0.0000   0.0000   0.0000   0.0000   0.0000   0.0000
     0.0000   0.0000   0.0000   0.0000   0.0000   0.0000   0.0000   0.0000
     0.0000   0.0000   0.0000   0.0000   0.0000   0.0000   0.0000   0.0000
     0.0000   0.0000   0.0000   0.0000   0.0000   0.0000   0.0000   0.0000
     0.0000   0.0000   0.0000   0.0000   0.0000   0.0000   0.0000   0.0000
     0.0000   0.0000   0.0000   0.0000   0.0000   0.0000   0.0000   0.0000
     0.0000   0.0000   0.0000   0.0000   0.0000

          k = 0.0000-0.5000-0.5000 (269920 PWs)   bands (ev):

   -90.2014 -53.4696 -53.4696 -53.4696  -7.1559  -7.1530  -7.1530  -7.1350
    -6.7340  -6.7338  -6.7314  -6.7314  -6.7305  -6.7305  -6.7285  -6.7086
    -6.4214  -6.4214  -6.4208  -6.4206  -6.4191  -6.4158  -6.4158  -6.4147
    -6.4048  -6.4048  -6.4014  -6.3999  -6.3998  -6.3992  -6.3992  -6.3903
    -6.2744  -6.2719  -6.2719  -6.2688  -0.6416  -0.6392  -0.6351  -0.6351
    -0.6061  -0.6059  -0.6041  -0.6041  -0.6029  -0.6026  -0.6009  -0.6009
    -0.5907  -0.5901  -0.5901  -0.5871  -0.5871  -0.5834  -0.5832  -0.5817
    -0.5799  -0.5799  -0.5779  -0.5774  -0.5774  -0.5770  -0.5705  -0.5686
    -0.5624  -0.5624  -0.5405  -0.5300  -0.5281  -0.5274  -0.5274  -0.5264
    -0.5263  -0.5263  -0.5253  -0.5247  -0.5242  -0.5242  -0.5240  -0.5235
    -0.5094  -0.4974  -0.4974  -0.4868  -0.4734  -0.4734  -0.4725  -0.4690
    -0.4690  -0.4683  -0.4670  -0.4659  -0.4632  -0.4632  -0.4625  -0.4501
    -0.4486  -0.4473  -0.4317  -0.4317  -0.4247  -0.4240  -0.4240  -0.4236
    -0.4132  -0.4022  -0.4022  -0.3787  -0.3765  -0.3670  -0.3670  -0.3560
[...]
     atom   18 type  2   force =     0.00000000    0.00000000    0.00000000
     atom   19 type  2   force =     0.00000000    0.00000000    0.00000000
     atom   20 type  2   force =     0.00000000    0.00000000    0.00000000
     atom   21 type  1   force =     0.00000000    0.00000000    0.00000000
     atom   22 type  1   force =     0.00000000    0.00000000    0.00000000
     atom   23 type  1   force =     0.00000000    0.00000000    0.00000000
     atom   24 type  1   force =     0.00000000    0.00000000    0.00000000
     atom   25 type  2   force =     0.00000000    0.00000000    0.00000000
     atom   26 type  2   force =     0.00000000    0.00000000    0.00000000
     atom   27 type  2   force =     0.00000000    0.00000000    0.00000000
     atom   28 type  2   force =     0.00000000    0.00000000    0.00000000
     atom   29 type  1   force =     0.00000000    0.00000000    0.00000000
     atom   30 type  1   force =     0.00000000    0.00000000    0.00000000
     atom   31 type  1   force =     0.00000000    0.00000000    0.00000000
     atom   32 type  1   force =     0.00000000    0.00000000    0.00000000
     atom   33 type  2   force =     0.00000000    0.00000000    0.00000000
     atom   34 type  2   force =     0.00000000    0.00000000    0.00000000
     atom   35 type  2   force =     0.00000000    0.00000000    0.00000000
     atom   36 type  2   force =     0.00000000    0.00000000    0.00000000
     atom   37 type  1   force =     0.00000000    0.00000000    0.00000000
     atom   38 type  1   force =     0.00000000    0.00000000    0.00000000
     atom   39 type  1   force =     0.00000000    0.00000000    0.00000000
     atom   40 type  1   force =     0.00000000    0.00000000    0.00000000
     atom   41 type  2   force =     0.00000000    0.00000000    0.00000000
     atom   42 type  2   force =     0.00000000    0.00000000    0.00000000
     atom   43 type  2   force =     0.00000000    0.00000000    0.00000000
     atom   44 type  2   force =     0.00000000    0.00000000    0.00000000
     atom   45 type  1   force =     0.00000000    0.00000000    0.00000000
     atom   46 type  1   force =     0.00000000    0.00000000    0.00000000
     atom   47 type  1   force =     0.00000000    0.00000000    0.00000000
     atom   48 type  1   force =     0.00000000    0.00000000    0.00000000
     atom   49 type  2   force =     0.00000000    0.00000000    0.00000000
     atom   50 type  2   force =     0.00000000    0.00000000    0.00000000
     atom   51 type  2   force =     0.00000000    0.00000000    0.00000000
     atom   52 type  2   force =     0.00000000    0.00000000    0.00000000
     atom   53 type  1   force =     0.00000000    0.00000000    0.00000000
     atom   54 type  1   force =     0.00000000    0.00000000    0.00000000
     atom   55 type  1   force =     0.00000000    0.00000000    0.00000000
     atom   56 type  1   force =     0.00000000    0.00000000    0.00000000
     atom   57 type  3   force =     0.00000000    0.00000000    0.00000000
     atom   58 type  2   force =     0.00000000    0.00000000    0.00000000
     atom   59 type  2   force =     0.00000000    0.00000000    0.00000000
     atom   60 type  2   force =     0.00000000    0.00000000    0.00000000
     atom   61 type  1   force =     0.00000000    0.00000000    0.00000000
     atom   62 type  1   force =     0.00000000    0.00000000    0.00000000
     atom   63 type  1   force =     0.00000000    0.00000000    0.00000000
     atom   64 type  1   force =     0.00000000    0.00000000    0.00000000
     The SCF correction term to forces
     atom    1 type  2   force =    -0.00000000   -0.00000000   -0.00000000
     atom    2 type  2   force =    -0.00000410    0.00000060    0.00000060
     atom    3 type  2   force =     0.00000060   -0.00000410    0.00000060
     atom    4 type  2   force =     0.00000060    0.00000060   -0.00000410
     atom    5 type  1   force =     0.00000007    0.00000076    0.00000076
     atom    6 type  1   force =    -0.00000212   -0.00000212   -0.00000212
     atom    7 type  1   force =     0.00000076    0.00000076    0.00000007
     atom    8 type  1   force =     0.00000076    0.00000007    0.00000076
     atom    9 type  2   force =    -0.00000000   -0.00000000   -0.00000000
     atom   10 type  2   force =     0.00000410    0.00000060   -0.00000060
     atom   11 type  2   force =     0.00000060    0.00000410   -0.00000060
     atom   12 type  2   force =    -0.00000017   -0.00000017    0.00000290
     atom   13 type  1   force =     0.00000194   -0.00000052   -0.00000194
     atom   14 type  1   force =     0.00000194    0.00000194    0.00000052
     atom   15 type  1   force =    -0.00000146   -0.00000146    0.00000146
     atom   16 type  1   force =    -0.00000052    0.00000194   -0.00000194
     atom   17 type  2   force =    -0.00000000   -0.00000000   -0.00000000
     atom   18 type  2   force =     0.00000410   -0.00000060    0.00000060
     atom   19 type  2   force =    -0.00000017    0.00000290   -0.00000017
     atom   20 type  2   force =     0.00000060   -0.00000060    0.00000410
     atom   21 type  1   force =     0.00000194   -0.00000194   -0.00000052
     atom   22 type  1   force =     0.00000194    0.00000052    0.00000194
     atom   23 type  1   force =    -0.00000052   -0.00000194    0.00000194
     atom   24 type  1   force =    -0.00000146    0.00000146   -0.00000146
     atom   25 type  2   force =    -0.00000000   -0.00000000   -0.00000000
     atom   26 type  2   force =    -0.00000410   -0.00000060   -0.00000060
     atom   27 type  2   force =    -0.00000017   -0.00000290    0.00000017
     atom   28 type  2   force =    -0.00000017    0.00000017   -0.00000290
     atom   29 type  1   force =    -0.00000212    0.00000212    0.00000212
     atom   30 type  1   force =     0.00000007   -0.00000076   -0.00000076
     atom   31 type  1   force =     0.00000076   -0.00000007   -0.00000076
     atom   32 type  1   force =     0.00000076   -0.00000076   -0.00000007
     atom   33 type  2   force =    -0.00000000   -0.00000000   -0.00000000
     atom   34 type  2   force =     0.00000290   -0.00000017   -0.00000017
     atom   35 type  2   force =    -0.00000060    0.00000410    0.00000060
     atom   36 type  2   force =    -0.00000060    0.00000060    0.00000410
     atom   37 type  1   force =     0.00000146   -0.00000146   -0.00000146
     atom   38 type  1   force =     0.00000052    0.00000194    0.00000194
     atom   39 type  1   force =    -0.00000194   -0.00000052    0.00000194
     atom   40 type  1   force =    -0.00000194    0.00000194   -0.00000052
     atom   41 type  2   force =    -0.00000000    0.00000000   -0.00000000
     atom   42 type  2   force =    -0.00000290   -0.00000017    0.00000017
     atom   43 type  2   force =    -0.00000060   -0.00000410   -0.00000060
     atom   44 type  2   force =     0.00000017   -0.00000017   -0.00000290
     atom   45 type  1   force =    -0.00000076    0.00000076   -0.00000007
     atom   46 type  1   force =    -0.00000076    0.00000007   -0.00000076
     atom   47 type  1   force =    -0.00000007    0.00000076   -0.00000076
     atom   48 type  1   force =     0.00000212   -0.00000212    0.00000212
     atom   49 type  2   force =    -0.00000000   -0.00000000   -0.00000000
     atom   50 type  2   force =    -0.00000290    0.00000017   -0.00000017
     atom   51 type  2   force =     0.00000017   -0.00000290   -0.00000017
     atom   52 type  2   force =    -0.00000060   -0.00000060   -0.00000410
     atom   53 type  1   force =    -0.00000076   -0.00000007    0.00000076
     atom   54 type  1   force =    -0.00000076   -0.00000076    0.00000007
     atom   55 type  1   force =     0.00000212    0.00000212   -0.00000212
     atom   56 type  1   force =    -0.00000007   -0.00000076    0.00000076
     atom   57 type  3   force =    -0.00000000    0.00000000   -0.00000000
     atom   58 type  2   force =     0.00000290    0.00000017    0.00000017
     atom   59 type  2   force =     0.00000017    0.00000290    0.00000017
     atom   60 type  2   force =     0.00000017    0.00000017    0.00000290
     atom   61 type  1   force =     0.00000052   -0.00000194   -0.00000194
     atom   62 type  1   force =     0.00000146    0.00000146    0.00000146
     atom   63 type  1   force =    -0.00000194   -0.00000194    0.00000052
     atom   64 type  1   force =    -0.00000194    0.00000052   -0.00000194

     Total force =     0.000687     Total SCF correction =     0.000022


     Computing stress (Cartesian axis) and pressure

          total   stress  (Ry/bohr**3)                   (kbar)     P=       -2.18
  -0.00001484   0.00000000   0.00000000           -2.18        0.00        0.00
   0.00000000  -0.00001484   0.00000000            0.00       -2.18        0.00
   0.00000000   0.00000000  -0.00001484            0.00        0.00       -2.18

     kinetic stress (kbar)  12235.35      0.00      0.00
                                0.00  12235.35      0.00
                                0.00      0.00  12235.35

     local   stress (kbar)  -1156.62      0.00      0.00
                                0.00  -1156.62      0.00
                                0.00      0.00  -1156.62

     nonloc. stress (kbar)   -475.07      0.00      0.00
                                0.00   -475.07      0.00
                                0.00      0.00   -475.07

     hartree stress (kbar)  11488.36      0.00     -0.00
                                0.00  11488.36      0.00
                               -0.00      0.00  11488.36

     exc-cor stress (kbar)   8262.42      0.00      0.00
                                0.00   8262.42      0.00
                                0.00      0.00   8262.42

     corecor stress (kbar) -13527.90     -0.00      0.00
                               -0.00 -13527.90      0.00
                                0.00      0.00 -13527.90

     ewald   stress (kbar) -16828.72     -0.00     -0.00
                               -0.00 -16828.72     -0.00
                               -0.00     -0.00 -16828.72

     hubbard stress (kbar)      0.00      0.00      0.00
                                0.00      0.00      0.00
                                0.00      0.00      0.00

     DFT-D   stress (kbar)      0.00      0.00      0.00
                                0.00      0.00      0.00
                                0.00      0.00      0.00

     XDM     stress (kbar)      0.00      0.00      0.00
                                0.00      0.00      0.00
                                0.00      0.00      0.00

     dft-nl  stress (kbar)      0.00      0.00      0.00
                                0.00      0.00      0.00
                                0.00      0.00      0.00

     TS-vdW  stress (kbar)      0.00      0.00      0.00
                                0.00      0.00      0.00
                                0.00      0.00      0.00

     MDB     stress (kbar)      0.00      0.00      0.00
                                0.00      0.00      0.00
                                0.00      0.00      0.00

     3D-RISM stress (kbar)      0.00      0.00      0.00
                                0.00      0.00      0.00
                                0.00      0.00      0.00

     Energy error            =      4.0E-06 Ry
     Gradient error          =      8.9E-05 Ry/Bohr

     bfgs converged in  13 scf cycles and  12 bfgs steps
     (criteria: energy <  1.0E-05 Ry, force <  1.0E-04 Ry/Bohr)

     End of BFGS Geometry Optimization

     Final energy             =  -10057.2781467432 Ry

     File ./out/rlx.bfgs deleted, as requested
Begin final coordinates

ATOMIC_POSITIONS (crystal)
Zn            0.0000000000       -0.0000000000        0.0000000000
Zn            0.0000725672        0.2501035622        0.2501035622
Zn            0.2501035622        0.0000725672        0.2501035622
Zn            0.2501035622        0.2501035622        0.0000725672
S             0.1251637690        0.3750916787        0.3750916787
S             0.1250111397        0.1250111397        0.1250111397
S             0.3750916787        0.3750916787        0.1251637690
S             0.3750916787        0.1251637690        0.3750916787
Zn            0.0000000000       -0.0000000000        0.5000000000
Zn           -0.0000725672        0.2501035622        0.7498964378
Zn            0.2501035622       -0.0000725672        0.7498964378
Zn            0.2510105568        0.2510105568        0.5002689328
S             0.1254515898        0.3751545213        0.8745484102
S             0.1254515898        0.1254515898        0.6248454787
S             0.3782651037        0.3782651037        0.6217348963
S             0.3751545213        0.1254515898        0.8745484102
Zn            0.0000000000        0.5000000000        0.0000000000
Zn           -0.0000725672        0.7498964378        0.2501035622
Zn            0.2510105568        0.5002689328        0.2510105568
Zn            0.2501035622        0.7498964378       -0.0000725672
S             0.1254515898        0.8745484102        0.3751545213
S             0.1254515898        0.6248454787        0.1254515898
S             0.3751545213        0.8745484102        0.1254515898
S             0.3782651037        0.6217348963        0.3782651037
Zn            0.0000000000        0.5000000000        0.5000000000
Zn            0.0000725672        0.7498964378        0.7498964378
Zn            0.2510105568        0.4997310672        0.7489894432
Zn            0.2510105568        0.7489894432        0.4997310672
S             0.1250111397        0.8749888603        0.8749888603
S             0.1251637690        0.6249083213        0.6249083213
S             0.3750916787        0.8748362310        0.6249083213
S             0.3750916787        0.6249083213        0.8748362310
Zn            0.5000000000       -0.0000000000        0.0000000000
Zn            0.5002689328        0.2510105568        0.2510105568
Zn            0.7498964378       -0.0000725672        0.2501035622
Zn            0.7498964378        0.2501035622       -0.0000725672
S             0.6217348963        0.3782651037        0.3782651037
S             0.6248454787        0.1254515898        0.1254515898
S             0.8745484102        0.3751545213        0.1254515898
S             0.8745484102        0.1254515898        0.3751545213
Zn            0.5000000000       -0.0000000000        0.5000000000
Zn            0.4997310672        0.2510105568        0.7489894432
Zn            0.7498964378        0.0000725672        0.7498964378
Zn            0.7489894432        0.2510105568        0.4997310672
S             0.6249083213        0.3750916787        0.8748362310
S             0.6249083213        0.1251637690        0.6249083213
S             0.8748362310        0.3750916787        0.6249083213
S             0.8749888603        0.1250111397        0.8749888603
Zn            0.5000000000        0.5000000000        0.0000000000
Zn            0.4997310672        0.7489894432        0.2510105568
Zn            0.7489894432        0.4997310672        0.2510105568
Zn            0.7498964378        0.7498964378        0.0000725672
S             0.6249083213        0.8748362310        0.3750916787
S             0.6249083213        0.6249083213        0.1251637690
S             0.8749888603        0.8749888603        0.1250111397
S             0.8748362310        0.6249083213        0.3750916787
Co            0.5000000000        0.5000000000        0.5000000000
Zn            0.5002689328        0.7489894432        0.7489894432
Zn            0.7489894432        0.5002689328        0.7489894432
Zn            0.7489894432        0.7489894432        0.5002689328
S             0.6248454787        0.8745484102        0.8745484102
S             0.6217348963        0.6217348963        0.6217348963
S             0.8745484102        0.8745484102        0.6248454787
S             0.8745484102        0.6248454787        0.8745484102
End final coordinates


 
     init_run     :      8.27s CPU      9.27s WALL (       1 calls)
     electrons    :   2303.69s CPU   3042.08s WALL (      13 calls)
     update_pot   :     20.69s CPU     44.02s WALL (      12 calls)
     forces       :     46.02s CPU     46.85s WALL (      13 calls)
     stress       :   1508.61s CPU   1523.59s WALL (      13 calls)

     Called by init_run:
     wfcinit      :      5.75s CPU      6.25s WALL (       1 calls)
     wfcinit:atom :      0.05s CPU      0.06s WALL (       4 calls)
     wfcinit:wfcr :      5.50s CPU      5.83s WALL (       4 calls)
     potinit      :      0.70s CPU      0.83s WALL (       1 calls)
     hinit0       :      0.38s CPU      0.53s WALL (       1 calls)

     Called by electrons:
     c_bands      :   2046.71s CPU   2522.26s WALL (     123 calls)
     sum_band     :    212.27s CPU    216.64s WALL (     123 calls)
     v_of_rho     :      7.94s CPU      8.17s WALL (     124 calls)
     v_h          :      0.38s CPU      0.41s WALL (     124 calls)
     v_xc         :      9.09s CPU      9.30s WALL (     150 calls)
     newd         :      6.16s CPU      6.26s WALL (     124 calls)
     PAW_pot      :     14.15s CPU     15.40s WALL (     136 calls)
     mix_rho      :      2.40s CPU      2.56s WALL (     123 calls)

     Called by c_bands:
     init_us_2    :     31.34s CPU     32.89s WALL (    1140 calls)
     init_us_2:cp :     31.33s CPU     32.88s WALL (    1140 calls)
     cegterg      :   1905.74s CPU   1941.28s WALL (     492 calls)

     Called by sum_band:
     sum_band:wei :      0.15s CPU      0.17s WALL (     123 calls)
     sum_band:loo :    193.05s CPU    196.92s WALL (     123 calls)
     sum_band:buf :      4.15s CPU      4.86s WALL (     492 calls)
     sum_band:ini :     13.83s CPU     14.01s WALL (     492 calls)
     sum_band:cal :     79.87s CPU     81.15s WALL (     540 calls)
     sum_band:bec :      2.13s CPU      2.24s WALL (     540 calls)
     addusdens    :      9.49s CPU      9.60s WALL (     123 calls)
                                        0.00s GPU  (     123 calls)
     addusd:skk   :      0.16s CPU      0.16s WALL (     369 calls)
                                        0.00s GPU  (     369 calls)

     Called by *egterg:
     cdiaghg      :    183.95s CPU    186.22s WALL (    2752 calls)
     cegterg:over :    153.49s CPU    155.39s WALL (    2356 calls)
     cegterg:upda :    141.72s CPU    143.31s WALL (    2356 calls)
     cegterg:last :    239.87s CPU    242.62s WALL (    1078 calls)
     cdiaghg:chol :     12.94s CPU     13.11s WALL (    2752 calls)
     cdiaghg:inve :     17.28s CPU     17.42s WALL (    2752 calls)
     cdiaghg:para :     27.19s CPU     27.44s WALL (    5504 calls)
     h_psi        :    925.51s CPU    943.04s WALL (    2852 calls)
     s_psi        :    202.01s CPU    204.58s WALL (    2852 calls)
     g_psi        :      5.21s CPU      5.29s WALL (    2356 calls)

     Called by h_psi:
     h_psi:calbec :    202.86s CPU    204.89s WALL (    2852 calls)
     vloc_psi     :    511.87s CPU    519.18s WALL (    2852 calls)
     add_vuspsi   :    202.29s CPU    204.96s WALL (    2852 calls)

     General routines
     calbec       :    334.28s CPU    337.98s WALL (    3652 calls)
     fft          :     17.72s CPU     19.11s WALL (    3186 calls)
     ffts         :      0.48s CPU      0.50s WALL (     246 calls)
     fftw         :    566.40s CPU    574.72s WALL ( 1060810 calls)
 
     Parallel routines

     PAW routines
     PAW_pot      :     14.15s CPU     15.40s WALL (     136 calls)
     PAW_symme    :      0.44s CPU      0.45s WALL (     259 calls)
 
     PWSCF        :      1h 5m CPU      1h24m WALL

 
   This run was terminated on:  17: 5: 8  27Jun2024            

=------------------------------------------------------------------------------=
   JOB DONE.
=------------------------------------------------------------------------------=
