
     Program PWSCF v.7.2 starts on  7Jul2024 at  1:24:59 

     This program is part of the open-source Quantum ESPRESSO suite
     for quantum simulation of materials; please cite
         "P. Giannozzi et al., J. Phys.:Condens. Matter 21 395502 (2009);
         "P. Giannozzi et al., J. Phys.:Condens. Matter 29 465901 (2017);
         "P. Giannozzi et al., J. Chem. Phys. 152 154105 (2020);
          URL http://www.quantum-espresso.org", 
     in publications or presentations arising from this work. More details at
     http://www.quantum-espresso.org/quote

     Parallel version (MPI), running on  1456 processors

     MPI processes distributed on    13 nodes
     233536 MiB available memory on the printing compute node when the environment starts
 
     Reading input from 1.Fe_vac_in_ZnS.scf.qp2.unrlxd.in

     Current dimensions of program PWSCF are:
     Max number of different atomic species (ntypx) = 10
     Max number of k-points (npk) =  40000
     Max angular momentum in pseudopotentials (lmaxx) =  4
     file S.pbe-n-kjpaw_psl.1.0.0.UPF: wavefunction(s)  3S 3P renormalized
     file Zn.pbe-dnl-kjpaw_psl.1.0.0.UPF: wavefunction(s)  4S 3D renormalized
     file Fe.pbe-spn-kjpaw_psl.1.0.0.UPF: wavefunction(s)  3P 3D renormalized
 
     K-points division:     npool     =      13
     R & G space division:  proc/nbgrp/npool/nimage =     112
     Subspace diagonalization in iterative solution of the eigenvalue problem:
     one sub-group per band group will be used
     scalapack distributed-memory algorithm (size of sub-group:  3*  3 procs)

 
     Parallelization info
     --------------------
     sticks:   dense  smooth     PW     G-vecs:    dense   smooth      PW
     Min         180     180     46                19282    19282    2562
     Max         181     181     47                19291    19291    2573
     Sum       20217   20217   5249              2160009  2160009  287777
 
     Using Slab Decomposition
 


     bravais-lattice index     =            1
     lattice parameter (alat)  =      20.5686  a.u.
     unit-cell volume          =    8701.8437 (a.u.)^3
     number of atoms/cell      =           63
     number of atomic types    =            3
     number of electrons       =       572.00
     number of Kohn-Sham states=          343
     kinetic-energy cutoff     =     150.0000  Ry
     charge density cutoff     =     600.0000  Ry
     scf convergence threshold =      1.0E-08
     mixing beta               =       0.7000
     number of iterations used =            8  plain     mixing
     Exchange-correlation= SLA  PW   PBX  PBC
                           (   1   4   3   4   0   0   0)

     celldm(1)=  20.568554  celldm(2)=   0.000000  celldm(3)=   0.000000
     celldm(4)=   0.000000  celldm(5)=   0.000000  celldm(6)=   0.000000

     crystal axes: (cart. coord. in units of alat)
               a(1) = (   1.000000   0.000000   0.000000 )  
               a(2) = (   0.000000   1.000000   0.000000 )  
               a(3) = (   0.000000   0.000000   1.000000 )  

     reciprocal axes: (cart. coord. in units 2 pi/alat)
               b(1) = (  1.000000  0.000000  0.000000 )  
               b(2) = (  0.000000  1.000000  0.000000 )  
               b(3) = (  0.000000  0.000000  1.000000 )  


     PseudoPot. # 1 for S  read from file:
     /arf/home/amuhaymin/pseudo/S.pbe-n-kjpaw_psl.1.0.0.UPF
     MD5 check sum: fb45dfebcf3e72a4e1bd4a866ec2e262
     Pseudo is Projector augmented-wave + core cor, Zval =  6.0
     Generated using &quot;atomic&quot; code by A. Dal Corso  v.6.3
     Shape of augmentation charge: PSQ
     Using radial grid of 1151 points,  6 beta functions with: 
                l(1) =   0
                l(2) =   0
                l(3) =   1
                l(4) =   1
                l(5) =   2
                l(6) =   2
     Q(r) pseudized with 0 coefficients 


     PseudoPot. # 2 for Zn read from file:
     /arf/home/amuhaymin/pseudo/Zn.pbe-dnl-kjpaw_psl.1.0.0.UPF
     MD5 check sum: c608214d9520ac179f507641260889e3
     Pseudo is Projector augmented-wave + core cor, Zval = 12.0
     Generated using &quot;atomic&quot; code by A. Dal Corso  v.6.2.2
     Shape of augmentation charge: PSQ
     Using radial grid of 1201 points,  6 beta functions with: 
                l(1) =   0
                l(2) =   0
                l(3) =   1
                l(4) =   1
                l(5) =   2
                l(6) =   2
     Q(r) pseudized with 0 coefficients 


     PseudoPot. # 3 for Fe read from file:
     /arf/home/amuhaymin/pseudo/Fe.pbe-spn-kjpaw_psl.1.0.0.UPF
     MD5 check sum: fc81f059e5c5069939230b1155715ae8
     Pseudo is Projector augmented-wave + core cor, Zval = 16.0
     Generated using &quot;atomic&quot; code by A. Dal Corso  v.6.3
     Shape of augmentation charge: PSQ
     Using radial grid of 1191 points,  6 beta functions with: 
                l(1) =   0
                l(2) =   0
                l(3) =   1
                l(4) =   1
                l(5) =   2
                l(6) =   2
     Q(r) pseudized with 0 coefficients 


     atomic species   valence    mass     pseudopotential
        S              6.00    32.06500     S ( 1.00)
        Zn            12.00    65.38000     Zn( 1.00)
        Fe            16.00    63.54600     Fe( 1.00)

     Starting magnetic structure 
     atomic species   magnetization
        S            0.000
        Zn           0.000
        Fe           0.250

      6 Sym. Ops. (no inversion) found


                                    s                        frac. trans.

      isym =  1     identity                                     

 cryst.   s( 1) = (     1          0          0      )
                  (     0          1          0      )
                  (     0          0          1      )

 cart.    s( 1) = (  1.0000000  0.0000000  0.0000000 )
                  (  0.0000000  1.0000000  0.0000000 )
                  (  0.0000000  0.0000000  1.0000000 )


      isym =  2     120 deg rotation - cart. axis [-1,-1,-1]     

 cryst.   s( 2) = (     0          0          1      )
                  (     1          0          0      )
                  (     0          1          0      )

 cart.    s( 2) = (  0.0000000  1.0000000  0.0000000 )
                  (  0.0000000  0.0000000  1.0000000 )
                  (  1.0000000  0.0000000  0.0000000 )


      isym =  3     120 deg rotation - cart. axis [1,1,1]        

 cryst.   s( 3) = (     0          1          0      )
                  (     0          0          1      )
                  (     1          0          0      )

 cart.    s( 3) = (  0.0000000  0.0000000  1.0000000 )
                  (  1.0000000  0.0000000  0.0000000 )
                  (  0.0000000  1.0000000  0.0000000 )


      isym =  4     inv. 180 deg rotation - cart. axis [1,-1,0]  

 cryst.   s( 4) = (     0          1          0      )
                  (     1          0          0      )
                  (     0          0          1      )

 cart.    s( 4) = (  0.0000000  1.0000000  0.0000000 )
                  (  1.0000000  0.0000000  0.0000000 )
                  (  0.0000000  0.0000000  1.0000000 )


      isym =  5     inv. 180 deg rotation - cart. axis [-1,0,1]  

 cryst.   s( 5) = (     0          0          1      )
                  (     0          1          0      )
                  (     1          0          0      )

 cart.    s( 5) = (  0.0000000  0.0000000  1.0000000 )
                  (  0.0000000  1.0000000  0.0000000 )
                  (  1.0000000  0.0000000  0.0000000 )


      isym =  6     inv. 180 deg rotation - cart. axis [0,1,-1]  

 cryst.   s( 6) = (     1          0          0      )
                  (     0          0          1      )
                  (     0          1          0      )

 cart.    s( 6) = (  1.0000000  0.0000000  0.0000000 )
                  (  0.0000000  0.0000000  1.0000000 )
                  (  0.0000000  1.0000000  0.0000000 )


     point group C_3v (3m)  
     there are  3 classes
     the character table:

       E     2C3   3s_v 
A_1    1.00  1.00  1.00
A_2    1.00  1.00 -1.00
E      2.00 -1.00  0.00

     the symmetry operations in each class and the name of the first element:

     E        1
          identity                                               
     2C3      2    3
          120 deg rotation - cart. axis [-1,-1,-1]               
     3s_v     4    5    6
          inv. 180 deg rotation - cart. axis [1,-1,0]            

   Cartesian axes

     site n.     atom                  positions (alat units)
         1           Zn  tau(   1) = (   0.0000000   0.0000000   0.0000000  )
         2           Zn  tau(   2) = (   0.0000000   0.2500000   0.2500000  )
         3           Zn  tau(   3) = (   0.2500000   0.0000000   0.2500000  )
         4           Zn  tau(   4) = (   0.2500000   0.2500000   0.0000000  )
         5           S   tau(   5) = (   0.1250000   0.3750000   0.3750000  )
         6           S   tau(   6) = (   0.1250000   0.1250000   0.1250000  )
         7           S   tau(   7) = (   0.3750000   0.3750000   0.1250000  )
         8           S   tau(   8) = (   0.3750000   0.1250000   0.3750000  )
         9           Zn  tau(   9) = (   0.0000000   0.0000000   0.5000000  )
        10           Zn  tau(  10) = (   0.0000000   0.2500000   0.7500000  )
        11           Zn  tau(  11) = (   0.2500000   0.0000000   0.7500000  )
        12           Zn  tau(  12) = (   0.2500000   0.2500000   0.5000000  )
        13           S   tau(  13) = (   0.1250000   0.3750000   0.8750000  )
        14           S   tau(  14) = (   0.1250000   0.1250000   0.6250000  )
        15           S   tau(  15) = (   0.3750000   0.3750000   0.6250000  )
        16           S   tau(  16) = (   0.3750000   0.1250000   0.8750000  )
        17           Zn  tau(  17) = (   0.0000000   0.5000000   0.0000000  )
        18           Zn  tau(  18) = (   0.0000000   0.7500000   0.2500000  )
        19           Zn  tau(  19) = (   0.2500000   0.5000000   0.2500000  )
        20           Zn  tau(  20) = (   0.2500000   0.7500000   0.0000000  )
        21           S   tau(  21) = (   0.1250000   0.8750000   0.3750000  )
        22           S   tau(  22) = (   0.1250000   0.6250000   0.1250000  )
        23           S   tau(  23) = (   0.3750000   0.8750000   0.1250000  )
        24           S   tau(  24) = (   0.3750000   0.6250000   0.3750000  )
        25           Zn  tau(  25) = (   0.0000000   0.5000000   0.5000000  )
        26           Zn  tau(  26) = (   0.0000000   0.7500000   0.7500000  )
        27           Zn  tau(  27) = (   0.2500000   0.5000000   0.7500000  )
        28           Zn  tau(  28) = (   0.2500000   0.7500000   0.5000000  )
        29           S   tau(  29) = (   0.1250000   0.8750000   0.8750000  )
        30           S   tau(  30) = (   0.1250000   0.6250000   0.6250000  )
        31           S   tau(  31) = (   0.3750000   0.8750000   0.6250000  )
        32           S   tau(  32) = (   0.3750000   0.6250000   0.8750000  )
        33           Zn  tau(  33) = (   0.5000000   0.0000000   0.0000000  )
        34           Zn  tau(  34) = (   0.5000000   0.2500000   0.2500000  )
        35           Zn  tau(  35) = (   0.7500000   0.0000000   0.2500000  )
        36           Zn  tau(  36) = (   0.7500000   0.2500000   0.0000000  )
        37           S   tau(  37) = (   0.6250000   0.3750000   0.3750000  )
        38           S   tau(  38) = (   0.6250000   0.1250000   0.1250000  )
        39           S   tau(  39) = (   0.8750000   0.3750000   0.1250000  )
        40           S   tau(  40) = (   0.8750000   0.1250000   0.3750000  )
        41           Zn  tau(  41) = (   0.5000000   0.0000000   0.5000000  )
        42           Zn  tau(  42) = (   0.5000000   0.2500000   0.7500000  )
        43           Zn  tau(  43) = (   0.7500000   0.0000000   0.7500000  )
        44           Zn  tau(  44) = (   0.7500000   0.2500000   0.5000000  )
        45           S   tau(  45) = (   0.6250000   0.3750000   0.8750000  )
        46           S   tau(  46) = (   0.6250000   0.1250000   0.6250000  )
        47           S   tau(  47) = (   0.8750000   0.3750000   0.6250000  )
        48           S   tau(  48) = (   0.8750000   0.1250000   0.8750000  )
        49           Zn  tau(  49) = (   0.5000000   0.5000000   0.0000000  )
        50           Zn  tau(  50) = (   0.5000000   0.7500000   0.2500000  )
        51           Zn  tau(  51) = (   0.7500000   0.5000000   0.2500000  )
        52           Zn  tau(  52) = (   0.7500000   0.7500000   0.0000000  )
        53           S   tau(  53) = (   0.6250000   0.8750000   0.3750000  )
        54           S   tau(  54) = (   0.6250000   0.6250000   0.1250000  )
        55           S   tau(  55) = (   0.8750000   0.8750000   0.1250000  )
        56           S   tau(  56) = (   0.8750000   0.6250000   0.3750000  )
        57           Fe  tau(  57) = (   0.5000000   0.5000000   0.5000000  )
        58           Zn  tau(  58) = (   0.5000000   0.7500000   0.7500000  )
        59           Zn  tau(  59) = (   0.7500000   0.5000000   0.7500000  )
        60           Zn  tau(  60) = (   0.7500000   0.7500000   0.5000000  )
        61           S   tau(  61) = (   0.6250000   0.8750000   0.8750000  )
        62           S   tau(  62) = (   0.8750000   0.8750000   0.6250000  )
        63           S   tau(  63) = (   0.8750000   0.6250000   0.8750000  )

   Crystallographic axes

     site n.     atom                  positions (cryst. coord.)
         1           Zn  tau(   1) = (  0.0000000  0.0000000  0.0000000  )
         2           Zn  tau(   2) = (  0.0000000  0.2500000  0.2500000  )
         3           Zn  tau(   3) = (  0.2500000  0.0000000  0.2500000  )
         4           Zn  tau(   4) = (  0.2500000  0.2500000  0.0000000  )
         5           S   tau(   5) = (  0.1250000  0.3750000  0.3750000  )
         6           S   tau(   6) = (  0.1250000  0.1250000  0.1250000  )
         7           S   tau(   7) = (  0.3750000  0.3750000  0.1250000  )
         8           S   tau(   8) = (  0.3750000  0.1250000  0.3750000  )
         9           Zn  tau(   9) = (  0.0000000  0.0000000  0.5000000  )
        10           Zn  tau(  10) = (  0.0000000  0.2500000  0.7500000  )
        11           Zn  tau(  11) = (  0.2500000  0.0000000  0.7500000  )
        12           Zn  tau(  12) = (  0.2500000  0.2500000  0.5000000  )
        13           S   tau(  13) = (  0.1250000  0.3750000  0.8750000  )
        14           S   tau(  14) = (  0.1250000  0.1250000  0.6250000  )
        15           S   tau(  15) = (  0.3750000  0.3750000  0.6250000  )
        16           S   tau(  16) = (  0.3750000  0.1250000  0.8750000  )
        17           Zn  tau(  17) = (  0.0000000  0.5000000  0.0000000  )
        18           Zn  tau(  18) = (  0.0000000  0.7500000  0.2500000  )
        19           Zn  tau(  19) = (  0.2500000  0.5000000  0.2500000  )
        20           Zn  tau(  20) = (  0.2500000  0.7500000  0.0000000  )
        21           S   tau(  21) = (  0.1250000  0.8750000  0.3750000  )
        22           S   tau(  22) = (  0.1250000  0.6250000  0.1250000  )
        23           S   tau(  23) = (  0.3750000  0.8750000  0.1250000  )
        24           S   tau(  24) = (  0.3750000  0.6250000  0.3750000  )
        25           Zn  tau(  25) = (  0.0000000  0.5000000  0.5000000  )
        26           Zn  tau(  26) = (  0.0000000  0.7500000  0.7500000  )
        27           Zn  tau(  27) = (  0.2500000  0.5000000  0.7500000  )
        28           Zn  tau(  28) = (  0.2500000  0.7500000  0.5000000  )
        29           S   tau(  29) = (  0.1250000  0.8750000  0.8750000  )
        30           S   tau(  30) = (  0.1250000  0.6250000  0.6250000  )
        31           S   tau(  31) = (  0.3750000  0.8750000  0.6250000  )
        32           S   tau(  32) = (  0.3750000  0.6250000  0.8750000  )
        33           Zn  tau(  33) = (  0.5000000  0.0000000  0.0000000  )
        34           Zn  tau(  34) = (  0.5000000  0.2500000  0.2500000  )
        35           Zn  tau(  35) = (  0.7500000  0.0000000  0.2500000  )
        36           Zn  tau(  36) = (  0.7500000  0.2500000  0.0000000  )
        37           S   tau(  37) = (  0.6250000  0.3750000  0.3750000  )
        38           S   tau(  38) = (  0.6250000  0.1250000  0.1250000  )
        39           S   tau(  39) = (  0.8750000  0.3750000  0.1250000  )
        40           S   tau(  40) = (  0.8750000  0.1250000  0.3750000  )
        41           Zn  tau(  41) = (  0.5000000  0.0000000  0.5000000  )
        42           Zn  tau(  42) = (  0.5000000  0.2500000  0.7500000  )
        43           Zn  tau(  43) = (  0.7500000  0.0000000  0.7500000  )
        44           Zn  tau(  44) = (  0.7500000  0.2500000  0.5000000  )
        45           S   tau(  45) = (  0.6250000  0.3750000  0.8750000  )
        46           S   tau(  46) = (  0.6250000  0.1250000  0.6250000  )
        47           S   tau(  47) = (  0.8750000  0.3750000  0.6250000  )
        48           S   tau(  48) = (  0.8750000  0.1250000  0.8750000  )
        49           Zn  tau(  49) = (  0.5000000  0.5000000  0.0000000  )
        50           Zn  tau(  50) = (  0.5000000  0.7500000  0.2500000  )
        51           Zn  tau(  51) = (  0.7500000  0.5000000  0.2500000  )
        52           Zn  tau(  52) = (  0.7500000  0.7500000  0.0000000  )
        53           S   tau(  53) = (  0.6250000  0.8750000  0.3750000  )
        54           S   tau(  54) = (  0.6250000  0.6250000  0.1250000  )
        55           S   tau(  55) = (  0.8750000  0.8750000  0.1250000  )
        56           S   tau(  56) = (  0.8750000  0.6250000  0.3750000  )
        57           Fe  tau(  57) = (  0.5000000  0.5000000  0.5000000  )
        58           Zn  tau(  58) = (  0.5000000  0.7500000  0.7500000  )
        59           Zn  tau(  59) = (  0.7500000  0.5000000  0.7500000  )
        60           Zn  tau(  60) = (  0.7500000  0.7500000  0.5000000  )
        61           S   tau(  61) = (  0.6250000  0.8750000  0.8750000  )
        62           S   tau(  62) = (  0.8750000  0.8750000  0.6250000  )
        63           S   tau(  63) = (  0.8750000  0.6250000  0.8750000  )

     number of k points=    13  Gaussian smearing, width (Ry)=  0.0010
                       cart. coord. in units 2pi/alat
        k(    1) = (   0.0000000   0.0000000   0.0000000), wk =   0.0156250
        k(    2) = (   0.0000000   0.0000000   0.2500000), wk =   0.0937500
        k(    3) = (   0.0000000   0.0000000  -0.5000000), wk =   0.0468750
        k(    4) = (   0.0000000   0.2500000   0.2500000), wk =   0.0937500
        k(    5) = (   0.0000000   0.2500000  -0.5000000), wk =   0.1875000
        k(    6) = (   0.0000000  -0.5000000  -0.5000000), wk =   0.0468750
        k(    7) = (   0.2500000   0.2500000   0.2500000), wk =   0.0312500
        k(    8) = (   0.2500000   0.2500000  -0.5000000), wk =   0.0937500
        k(    9) = (   0.2500000  -0.5000000  -0.5000000), wk =   0.0937500
        k(   10) = (  -0.5000000  -0.5000000  -0.5000000), wk =   0.0156250
        k(   11) = (  -0.2500000   0.0000000   0.2500000), wk =   0.0937500
        k(   12) = (   0.2500000  -0.2500000   0.2500000), wk =   0.0937500
        k(   13) = (   0.2500000  -0.2500000  -0.5000000), wk =   0.0937500

                       cryst. coord.
        k(    1) = (   0.0000000   0.0000000   0.0000000), wk =   0.0156250
        k(    2) = (   0.0000000   0.0000000   0.2500000), wk =   0.0937500
        k(    3) = (   0.0000000   0.0000000  -0.5000000), wk =   0.0468750
        k(    4) = (   0.0000000   0.2500000   0.2500000), wk =   0.0937500
        k(    5) = (   0.0000000   0.2500000  -0.5000000), wk =   0.1875000
        k(    6) = (   0.0000000  -0.5000000  -0.5000000), wk =   0.0468750
        k(    7) = (   0.2500000   0.2500000   0.2500000), wk =   0.0312500
        k(    8) = (   0.2500000   0.2500000  -0.5000000), wk =   0.0937500
        k(    9) = (   0.2500000  -0.5000000  -0.5000000), wk =   0.0937500
        k(   10) = (  -0.5000000  -0.5000000  -0.5000000), wk =   0.0156250
        k(   11) = (  -0.2500000   0.0000000   0.2500000), wk =   0.0937500
        k(   12) = (   0.2500000  -0.2500000   0.2500000), wk =   0.0937500
        k(   13) = (   0.2500000  -0.2500000  -0.5000000), wk =   0.0937500

     Dense  grid:  2160009 G-vectors     FFT dimensions: ( 162, 162, 162)

     Dynamical RAM for                 wfc:      12.61 MB

     Dynamical RAM for     wfc (w. buffer):      37.84 MB

     Dynamical RAM for           str. fact:       0.88 MB

     Dynamical RAM for           local pot:       0.00 MB

     Dynamical RAM for          nlocal pot:      41.70 MB

     Dynamical RAM for                qrad:       5.90 MB

     Dynamical RAM for          rho,v,vnew:       4.17 MB

     Dynamical RAM for               rhoin:       1.39 MB

     Dynamical RAM for            rho*nmix:       9.42 MB

     Dynamical RAM for           G-vectors:       1.25 MB

     Dynamical RAM for          h,s,v(r/c):       2.38 MB

     Dynamical RAM for          <psi|beta>:       5.94 MB

     Dynamical RAM for                 psi:      25.23 MB

     Dynamical RAM for                hpsi:      25.23 MB

     Dynamical RAM for                spsi:      25.23 MB

     Dynamical RAM for      wfcinit/wfcrot:      34.28 MB

     Dynamical RAM for           addusdens:       5.48 MB

     Estimated static dynamical RAM per process >      96.71 MB

     Estimated max dynamical RAM per process >     190.12 MB

     Estimated total dynamical RAM >     257.97 GB
     Generating pointlists ...
     new r_m :   0.0893 (alat units)  1.8370 (a.u.) for type    1
     new r_m :   0.0893 (alat units)  1.8370 (a.u.) for type    2
     new r_m :   0.0893 (alat units)  1.8370 (a.u.) for type    3

     Initial potential from superposition of free atoms

     starting charge     573.8831, renormalised to     572.0000
     Starting wfcs are  413 randomized atomic wfcs
     Checking if some PAW data can be deallocated... 
       PAW data deallocated on  740 nodes for type:  1
       PAW data deallocated on  739 nodes for type:  2
       PAW data deallocated on 1433 nodes for type:  3

     total cpu time spent up to now is       10.5 secs

     Self-consistent Calculation

     iteration #  1     ecut=   150.00 Ry     beta= 0.70
     Davidson diagonalization with overlap

---- Real-time Memory Report at c_bands before calling an iterative solver
          1222 MiB given to the printing process from OS
             0 MiB allocation reported by mallinfo(arena+hblkhd)
        208350 MiB available memory on the node where the printing process lives
------------------
     ethr =  1.00E-02,  avg # of iterations =  4.0

     Threshold (ethr) on eigenvalues was too large:
     Diagonalizing with lowered threshold

     Davidson diagonalization with overlap

---- Real-time Memory Report at c_bands before calling an iterative solver
          1376 MiB given to the printing process from OS
             0 MiB allocation reported by mallinfo(arena+hblkhd)
        207831 MiB available memory on the node where the printing process lives
------------------
     ethr =  5.20E-04,  avg # of iterations =  2.0

     negative rho (up, down):  0.000E+00 5.331E-06

     total cpu time spent up to now is       41.7 secs

     total energy              =   -9943.02554292 Ry
     estimated scf accuracy    <       2.87952602 Ry

     total magnetization       =     4.00 Bohr mag/cell
     absolute magnetization    =     4.03 Bohr mag/cell

     iteration #  2     ecut=   150.00 Ry     beta= 0.70
     Davidson diagonalization with overlap

---- Real-time Memory Report at c_bands before calling an iterative solver
          1403 MiB given to the printing process from OS
             0 MiB allocation reported by mallinfo(arena+hblkhd)
        207886 MiB available memory on the node where the printing process lives
------------------
     ethr =  5.03E-04,  avg # of iterations =  3.0

     negative rho (up, down):  0.000E+00 1.884E-04

     total cpu time spent up to now is       62.7 secs

     total energy              =   -9942.93178860 Ry
     estimated scf accuracy    <       4.63635200 Ry

     total magnetization       =     4.36 Bohr mag/cell
     absolute magnetization    =     5.05 Bohr mag/cell

     iteration #  3     ecut=   150.00 Ry     beta= 0.70
     Davidson diagonalization with overlap

---- Real-time Memory Report at c_bands before calling an iterative solver
          1426 MiB given to the printing process from OS
             0 MiB allocation reported by mallinfo(arena+hblkhd)
        207522 MiB available memory on the node where the printing process lives
------------------
     ethr =  5.03E-04,  avg # of iterations =  4.1

     negative rho (up, down):  0.000E+00 7.887E-05

     total cpu time spent up to now is       79.6 secs

     total energy              =   -9943.14234870 Ry
     estimated scf accuracy    <      15.33465781 Ry

     total magnetization       =     0.09 Bohr mag/cell
     absolute magnetization    =     0.49 Bohr mag/cell

     iteration #  4     ecut=   150.00 Ry     beta= 0.70
     Davidson diagonalization with overlap

---- Real-time Memory Report at c_bands before calling an iterative solver
          1443 MiB given to the printing process from OS
             0 MiB allocation reported by mallinfo(arena+hblkhd)
        207338 MiB available memory on the node where the printing process lives
------------------
     ethr =  5.03E-04,  avg # of iterations =  3.0

     negative rho (up, down):  0.000E+00 1.392E-04

     total cpu time spent up to now is       94.5 secs

     total energy              =   -9944.00096810 Ry
     estimated scf accuracy    <       1.67479650 Ry

     total magnetization       =     4.40 Bohr mag/cell
     absolute magnetization    =     5.18 Bohr mag/cell

     iteration #  5     ecut=   150.00 Ry     beta= 0.70
     Davidson diagonalization with overlap

---- Real-time Memory Report at c_bands before calling an iterative solver
          1454 MiB given to the printing process from OS
             0 MiB allocation reported by mallinfo(arena+hblkhd)
        207133 MiB available memory on the node where the printing process lives
------------------
     ethr =  2.93E-04,  avg # of iterations =  2.0

     negative rho (up, down):  0.000E+00 1.937E-04

     total cpu time spent up to now is      108.5 secs

     total energy              =   -9944.14293526 Ry
     estimated scf accuracy    <       0.09944391 Ry

     total magnetization       =     4.00 Bohr mag/cell
     absolute magnetization    =     4.62 Bohr mag/cell

     iteration #  6     ecut=   150.00 Ry     beta= 0.70
     Davidson diagonalization with overlap

---- Real-time Memory Report at c_bands before calling an iterative solver
          1462 MiB given to the printing process from OS
             0 MiB allocation reported by mallinfo(arena+hblkhd)
        206921 MiB available memory on the node where the printing process lives
------------------
     c_bands:  2 eigenvalues not converged
     ethr =  1.74E-05,  avg # of iterations = 15.7

     negative rho (up, down):  0.000E+00 2.493E-04

     total cpu time spent up to now is      131.6 secs

     total energy              =   -9944.16069913 Ry
     estimated scf accuracy    <       0.04230924 Ry

     total magnetization       =     4.00 Bohr mag/cell
     absolute magnetization    =     4.59 Bohr mag/cell

     iteration #  7     ecut=   150.00 Ry     beta= 0.70
     Davidson diagonalization with overlap

---- Real-time Memory Report at c_bands before calling an iterative solver
          1479 MiB given to the printing process from OS
             0 MiB allocation reported by mallinfo(arena+hblkhd)
        206655 MiB available memory on the node where the printing process lives
------------------
     ethr =  7.40E-06,  avg # of iterations =  7.7

     negative rho (up, down):  0.000E+00 2.777E-04

     total cpu time spent up to now is      149.8 secs

     total energy              =   -9944.16512096 Ry
     estimated scf accuracy    <       0.01027843 Ry

     total magnetization       =     4.00 Bohr mag/cell
     absolute magnetization    =     4.47 Bohr mag/cell

     iteration #  8     ecut=   150.00 Ry     beta= 0.70
     Davidson diagonalization with overlap

---- Real-time Memory Report at c_bands before calling an iterative solver
          1485 MiB given to the printing process from OS
             0 MiB allocation reported by mallinfo(arena+hblkhd)
        206500 MiB available memory on the node where the printing process lives
------------------
     c_bands:  1 eigenvalues not converged
     ethr =  1.80E-06,  avg # of iterations = 11.9

     negative rho (up, down):  0.000E+00 2.896E-04

     total cpu time spent up to now is      170.0 secs

     total energy              =   -9944.16721796 Ry
     estimated scf accuracy    <       0.00474336 Ry

     total magnetization       =     4.00 Bohr mag/cell
     absolute magnetization    =     4.46 Bohr mag/cell

     iteration #  9     ecut=   150.00 Ry     beta= 0.70
     Davidson diagonalization with overlap

---- Real-time Memory Report at c_bands before calling an iterative solver
          1496 MiB given to the printing process from OS
             0 MiB allocation reported by mallinfo(arena+hblkhd)
        206276 MiB available memory on the node where the printing process lives
------------------
     ethr =  8.29E-07,  avg # of iterations =  3.2

     negative rho (up, down):  0.000E+00 2.944E-04

     total cpu time spent up to now is      185.1 secs

     total energy              =   -9944.16805241 Ry
     estimated scf accuracy    <       0.00071609 Ry

     total magnetization       =     4.00 Bohr mag/cell
     absolute magnetization    =     4.45 Bohr mag/cell

     iteration # 10     ecut=   150.00 Ry     beta= 0.70
     Davidson diagonalization with overlap

---- Real-time Memory Report at c_bands before calling an iterative solver
          1502 MiB given to the printing process from OS
             0 MiB allocation reported by mallinfo(arena+hblkhd)
        206028 MiB available memory on the node where the printing process lives
------------------
     ethr =  1.25E-07,  avg # of iterations =  2.5

     negative rho (up, down):  0.000E+00 2.978E-04

     total cpu time spent up to now is      200.8 secs

     total energy              =   -9944.16817763 Ry
     estimated scf accuracy    <       0.00009986 Ry

     total magnetization       =     4.00 Bohr mag/cell
     absolute magnetization    =     4.43 Bohr mag/cell

     iteration # 11     ecut=   150.00 Ry     beta= 0.70
     Davidson diagonalization with overlap

---- Real-time Memory Report at c_bands before calling an iterative solver
          1508 MiB given to the printing process from OS
             0 MiB allocation reported by mallinfo(arena+hblkhd)
        205881 MiB available memory on the node where the printing process lives
------------------
     ethr =  1.75E-08,  avg # of iterations =  4.5

     negative rho (up, down):  0.000E+00 2.963E-04

     total cpu time spent up to now is      218.1 secs

     total energy              =   -9944.16821213 Ry
     estimated scf accuracy    <       0.00006232 Ry

     total magnetization       =     4.00 Bohr mag/cell
     absolute magnetization    =     4.43 Bohr mag/cell

     iteration # 12     ecut=   150.00 Ry     beta= 0.70
     Davidson diagonalization with overlap

---- Real-time Memory Report at c_bands before calling an iterative solver
          1513 MiB given to the printing process from OS
             0 MiB allocation reported by mallinfo(arena+hblkhd)
        205798 MiB available memory on the node where the printing process lives
------------------
     ethr =  1.09E-08,  avg # of iterations =  2.1

     negative rho (up, down):  0.000E+00 2.957E-04

     total cpu time spent up to now is      232.6 secs

     total energy              =   -9944.16821529 Ry
     estimated scf accuracy    <       0.00002089 Ry

     total magnetization       =     4.00 Bohr mag/cell
     absolute magnetization    =     4.42 Bohr mag/cell

     iteration # 13     ecut=   150.00 Ry     beta= 0.70
     Davidson diagonalization with overlap

---- Real-time Memory Report at c_bands before calling an iterative solver
          1515 MiB given to the printing process from OS
             0 MiB allocation reported by mallinfo(arena+hblkhd)
        205835 MiB available memory on the node where the printing process lives
------------------
     ethr =  3.65E-09,  avg # of iterations =  3.0

     negative rho (up, down):  0.000E+00 2.959E-04

     total cpu time spent up to now is      247.7 secs

     total energy              =   -9944.16821610 Ry
     estimated scf accuracy    <       0.00000832 Ry

     total magnetization       =     4.00 Bohr mag/cell
     absolute magnetization    =     4.43 Bohr mag/cell

     iteration # 14     ecut=   150.00 Ry     beta= 0.70
     Davidson diagonalization with overlap

---- Real-time Memory Report at c_bands before calling an iterative solver
          1519 MiB given to the printing process from OS
             0 MiB allocation reported by mallinfo(arena+hblkhd)
        205796 MiB available memory on the node where the printing process lives
------------------
     ethr =  1.45E-09,  avg # of iterations =  2.8

     negative rho (up, down):  0.000E+00 2.958E-04

     total cpu time spent up to now is      262.6 secs

     total energy              =   -9944.16821793 Ry
     estimated scf accuracy    <       0.00000216 Ry

     total magnetization       =     4.00 Bohr mag/cell
     absolute magnetization    =     4.42 Bohr mag/cell

     iteration # 15     ecut=   150.00 Ry     beta= 0.70
     Davidson diagonalization with overlap

---- Real-time Memory Report at c_bands before calling an iterative solver
          1521 MiB given to the printing process from OS
             0 MiB allocation reported by mallinfo(arena+hblkhd)
        205803 MiB available memory on the node where the printing process lives
------------------
     ethr =  3.78E-10,  avg # of iterations =  2.0

     negative rho (up, down):  0.000E+00 2.955E-04

     total cpu time spent up to now is      276.8 secs

     total energy              =   -9944.16821818 Ry
     estimated scf accuracy    <       0.00000084 Ry

     total magnetization       =     4.00 Bohr mag/cell
     absolute magnetization    =     4.42 Bohr mag/cell

     iteration # 16     ecut=   150.00 Ry     beta= 0.70
     Davidson diagonalization with overlap

---- Real-time Memory Report at c_bands before calling an iterative solver
          1523 MiB given to the printing process from OS
             0 MiB allocation reported by mallinfo(arena+hblkhd)
        205795 MiB available memory on the node where the printing process lives
------------------
     ethr =  1.47E-10,  avg # of iterations =  3.9

     negative rho (up, down):  0.000E+00 2.954E-04

     total cpu time spent up to now is      292.3 secs

     total energy              =   -9944.16821828 Ry
     estimated scf accuracy    <       0.00000007 Ry

     total magnetization       =     4.00 Bohr mag/cell
     absolute magnetization    =     4.42 Bohr mag/cell

     iteration # 17     ecut=   150.00 Ry     beta= 0.70
     Davidson diagonalization with overlap

---- Real-time Memory Report at c_bands before calling an iterative solver
          1527 MiB given to the printing process from OS
             0 MiB allocation reported by mallinfo(arena+hblkhd)
        205788 MiB available memory on the node where the printing process lives
------------------
     ethr =  1.21E-11,  avg # of iterations =  5.0

     negative rho (up, down):  0.000E+00 2.954E-04

     total cpu time spent up to now is      309.8 secs

     total energy              =   -9944.16821830 Ry
     estimated scf accuracy    <       0.00000003 Ry

     total magnetization       =     4.00 Bohr mag/cell
     absolute magnetization    =     4.42 Bohr mag/cell

     iteration # 18     ecut=   150.00 Ry     beta= 0.70
     Davidson diagonalization with overlap

---- Real-time Memory Report at c_bands before calling an iterative solver
          1532 MiB given to the printing process from OS
             0 MiB allocation reported by mallinfo(arena+hblkhd)
        205742 MiB available memory on the node where the printing process lives
------------------
     ethr =  5.60E-12,  avg # of iterations =  2.9

     negative rho (up, down):  0.000E+00 2.953E-04
 
     Magnetic moment per site  (integrated on atomic sphere of radius R)
     atom   1 (R=0.089)  charge= 10.1524  magn= -0.0001
     atom   2 (R=0.089)  charge= 10.1520  magn=  0.0002
     atom   3 (R=0.089)  charge= 10.1520  magn=  0.0002
     atom   4 (R=0.089)  charge= 10.1520  magn=  0.0002
     atom   5 (R=0.089)  charge=  3.9816  magn=  0.0021
     atom   6 (R=0.089)  charge=  3.9820  magn=  0.0006
     atom   7 (R=0.089)  charge=  3.9816  magn=  0.0021
     atom   8 (R=0.089)  charge=  3.9816  magn=  0.0021
     atom   9 (R=0.089)  charge= 10.1508  magn=  0.0011
     atom  10 (R=0.089)  charge= 10.1510  magn= -0.0006
     atom  11 (R=0.089)  charge= 10.1510  magn= -0.0006
     atom  12 (R=0.089)  charge= 10.1504  magn=  0.0045
     atom  13 (R=0.089)  charge=  3.9810  magn=  0.0073
     atom  14 (R=0.089)  charge=  3.9776  magn=  0.0022
     atom  15 (R=0.089)  charge=  3.9801  magn=  0.0809
     atom  16 (R=0.089)  charge=  3.9810  magn=  0.0073
     atom  17 (R=0.089)  charge= 10.1508  magn=  0.0011
     atom  18 (R=0.089)  charge= 10.1510  magn= -0.0006
     atom  19 (R=0.089)  charge= 10.1504  magn=  0.0045
     atom  20 (R=0.089)  charge= 10.1510  magn= -0.0006
     atom  21 (R=0.089)  charge=  3.9810  magn=  0.0073
     atom  22 (R=0.089)  charge=  3.9776  magn=  0.0022
     atom  23 (R=0.089)  charge=  3.9810  magn=  0.0073
     atom  24 (R=0.089)  charge=  3.9801  magn=  0.0809
     atom  25 (R=0.089)  charge= 10.1537  magn=  0.0000
     atom  26 (R=0.089)  charge= 10.1529  magn=  0.0004
     atom  27 (R=0.089)  charge= 10.1521  magn=  0.0073
     atom  28 (R=0.089)  charge= 10.1521  magn=  0.0073
     atom  29 (R=0.089)  charge=  3.9818  magn=  0.0002
     atom  30 (R=0.089)  charge=  3.9825  magn=  0.0032
     atom  31 (R=0.089)  charge=  3.9751  magn= -0.0025
     atom  32 (R=0.089)  charge=  3.9751  magn= -0.0025
     atom  33 (R=0.089)  charge= 10.1508  magn=  0.0011
     atom  34 (R=0.089)  charge= 10.1504  magn=  0.0045
     atom  35 (R=0.089)  charge= 10.1510  magn= -0.0006
     atom  36 (R=0.089)  charge= 10.1510  magn= -0.0006
     atom  37 (R=0.089)  charge=  3.9801  magn=  0.0809
     atom  38 (R=0.089)  charge=  3.9776  magn=  0.0022
     atom  39 (R=0.089)  charge=  3.9810  magn=  0.0073
     atom  40 (R=0.089)  charge=  3.9810  magn=  0.0073
     atom  41 (R=0.089)  charge= 10.1537  magn=  0.0000
     atom  42 (R=0.089)  charge= 10.1521  magn=  0.0073
     atom  43 (R=0.089)  charge= 10.1529  magn=  0.0004
     atom  44 (R=0.089)  charge= 10.1521  magn=  0.0073
     atom  45 (R=0.089)  charge=  3.9751  magn= -0.0025
     atom  46 (R=0.089)  charge=  3.9825  magn=  0.0032
     atom  47 (R=0.089)  charge=  3.9751  magn= -0.0025
     atom  48 (R=0.089)  charge=  3.9818  magn=  0.0002
     atom  49 (R=0.089)  charge= 10.1537  magn=  0.0000
     atom  50 (R=0.089)  charge= 10.1521  magn=  0.0073
     atom  51 (R=0.089)  charge= 10.1521  magn=  0.0073
     atom  52 (R=0.089)  charge= 10.1529  magn=  0.0004
     atom  53 (R=0.089)  charge=  3.9751  magn= -0.0025
     atom  54 (R=0.089)  charge=  3.9825  magn=  0.0032
     atom  55 (R=0.089)  charge=  3.9818  magn=  0.0002
     atom  56 (R=0.089)  charge=  3.9751  magn= -0.0025
     atom  57 (R=0.089)  charge= 13.9002  magn=  3.3142
     atom  58 (R=0.089)  charge= 10.1168  magn= -0.0045
     atom  59 (R=0.089)  charge= 10.1168  magn= -0.0045
     atom  60 (R=0.089)  charge= 10.1168  magn= -0.0045
     atom  61 (R=0.089)  charge=  3.9748  magn= -0.0024
     atom  62 (R=0.089)  charge=  3.9748  magn= -0.0024
     atom  63 (R=0.089)  charge=  3.9748  magn= -0.0024

     total cpu time spent up to now is      324.9 secs

     End of self-consistent calculation

 ------ SPIN UP ------------


          k = 0.0000 0.0000 0.0000 (269825 PWs)   bands (ev):

   -83.9614 -50.1936 -50.1936 -49.6123  -7.5584  -7.1557  -7.1276  -7.1276
    -7.0262  -7.0262  -6.9025  -6.8938  -6.8938  -6.8463  -6.7713  -6.7713
    -6.7465  -6.6556  -6.6556  -6.6481  -6.6305  -6.6305  -6.5574  -6.5478
    -6.5478  -6.5442  -6.4616  -6.4616  -6.4393  -6.3315  -6.3243  -6.3243
    -6.2519  -6.2519  -6.2082  -1.0755  -1.0755  -1.0731  -1.0515  -1.0432
    -1.0432  -1.0268  -1.0118  -1.0118  -0.9891  -0.9667  -0.9667  -0.9363
    -0.9363  -0.9211  -0.7459  -0.7459  -0.7452  -0.7367  -0.7320  -0.7320
    -0.7107  -0.7107  -0.7077  -0.6764  -0.6631  -0.6617  -0.6617  -0.6431
    -0.6399  -0.6399  -0.6277  -0.6277  -0.6180  -0.6180  -0.6103  -0.6103
    -0.6071  -0.6055  -0.5989  -0.5989  -0.5979  -0.5968  -0.5949  -0.5853
    -0.5853  -0.5803  -0.5803  -0.5724  -0.5724  -0.5711  -0.5636  -0.5624
    -0.5624  -0.5544  -0.5544  -0.5526  -0.5434  -0.5434  -0.5414  -0.5362
    -0.5315  -0.5315  -0.5158  -0.5158  -0.4997  -0.4822  -0.4822  -0.4757
    -0.4757  -0.4752  -0.4601  -0.4530  -0.4530  -0.4438  -0.4438  -0.4386
    -0.4386  -0.4371  -0.4332  -0.4205  -0.4205  -0.4184  -0.4164  -0.4087
    -0.4087  -0.3739  -0.3647  -0.3647  -0.3586  -0.3317  -0.3317  -0.3194
    -0.3171  -0.3171  -0.3000  -0.3000  -0.2959  -0.2948  -0.2893  -0.2893
    -0.2832  -0.2755  -0.2730  -0.2730  -0.2670  -0.2670  -0.2646  -0.2626
    -0.2626  -0.2539  -0.2486  -0.2452  -0.2452  -0.2367  -0.2367  -0.2355
    -0.2326  -0.2326  -0.2258  -0.2249  -0.2183  -0.2183  -0.2167  -0.2123
    -0.2123  -0.2081  -0.2001  -0.2001  -0.1857  -0.1857  -0.1780  -0.1780
    -0.1756  -0.1571  -0.1143  -0.1143  -0.1056  -0.1021  -0.1021  -0.0826
    -0.0818  -0.0818  -0.0617  -0.0617  -0.0565  -0.0523  -0.0523  -0.0239
     0.0933   0.0933   0.1109   0.1132   0.1283   0.1283   0.2874   0.3750
     0.3750   0.3901   0.9081   0.9081   0.9603   1.0127   1.0127   1.0450
     1.0546   1.0546   1.1014   1.1576   1.2132   1.2132   1.5479   1.5739
     1.5739   1.5763   1.5851   1.5851   1.7042   1.7042   1.8069   1.9503
     1.9503   2.0206   2.0206   2.6298   2.7553   2.7869   2.7869   2.7953
     2.8140   2.8140   2.8267   2.8664   2.8889   2.8889   2.9255   2.9366
     2.9366   2.9910   2.9910   3.0270   3.0270   3.0377   3.0474   3.0630
     3.0630   3.0797   3.1047   3.1047   3.1671   3.1786   3.1786   3.2585
     3.2585   3.2811   3.3346   3.3578   3.3578   3.6747   3.6747   3.7650
     4.2418   4.2418   4.2425   4.2706   4.2791   4.2791   4.2857   4.3438
     4.3438   4.4249   4.4249   4.4348   4.4654   4.5395   4.5395   4.5889
     4.5909   4.5909   4.5926   4.6289   4.6289   4.6968   4.6968   4.6987
     4.7221   4.7221   4.7298   4.7384   4.7384   5.4088   5.4162   5.4162
     5.8670   7.7910   8.1848   8.1848   8.7253   8.8105   8.8105   8.8298
     8.9252   8.9812   8.9812   9.2563   9.6099   9.6099   9.6265   9.9196
     9.9196  10.0439  10.0439  10.0586  10.0770  10.0770  10.1060  10.1231
    10.1231  10.1383  10.1673  10.2172  10.2247  10.2247  10.2497  10.2497
    10.2641  10.2641  10.2925  10.6343  10.6343  10.7159  11.1898  11.2449
    11.2449  11.2792  11.2792  11.3624  11.3769  11.3937  11.3937  11.7419
    11.7419  11.7656  11.9040  11.9335  11.9335  11.9348  12.1188

     occupation numbers 
     1.0000   1.0000   1.0000   1.0000   1.0000   1.0000   1.0000   1.0000
     1.0000   1.0000   1.0000   1.0000   1.0000   1.0000   1.0000   1.0000
     1.0000   1.0000   1.0000   1.0000   1.0000   1.0000   1.0000   1.0000
     1.0000   1.0000   1.0000   1.0000   1.0000   1.0000   1.0000   1.0000
     1.0000   1.0000   1.0000   1.0000   1.0000   1.0000   1.0000   1.0000
     1.0000   1.0000   1.0000   1.0000   1.0000   1.0000   1.0000   1.0000
     1.0000   1.0000   1.0000   1.0000   1.0000   1.0000   1.0000   1.0000
     1.0000   1.0000   1.0000   1.0000   1.0000   1.0000   1.0000   1.0000
     1.0000   1.0000   1.0000   1.0000   1.0000   1.0000   1.0000   1.0000
     1.0000   1.0000   1.0000   1.0000   1.0000   1.0000   1.0000   1.0000
     1.0000   1.0000   1.0000   1.0000   1.0000   1.0000   1.0000   1.0000
     1.0000   1.0000   1.0000   1.0000   1.0000   1.0000   1.0000   1.0000
     1.0000   1.0000   1.0000   1.0000   1.0000   1.0000   1.0000   1.0000
     1.0000   1.0000   1.0000   1.0000   1.0000   1.0000   1.0000   1.0000
     1.0000   1.0000   1.0000   1.0000   1.0000   1.0000   1.0000   1.0000
     1.0000   1.0000   1.0000   1.0000   1.0000   1.0000   1.0000   1.0000
     1.0000   1.0000   1.0000   1.0000   1.0000   1.0000   1.0000   1.0000
     1.0000   1.0000   1.0000   1.0000   1.0000   1.0000   1.0000   1.0000
     1.0000   1.0000   1.0000   1.0000   1.0000   1.0000   1.0000   1.0000
     1.0000   1.0000   1.0000   1.0000   1.0000   1.0000   1.0000   1.0000
     1.0000   1.0000   1.0000   1.0000   1.0000   1.0000   1.0000   1.0000
     1.0000   1.0000   1.0000   1.0000   1.0000   1.0000   1.0000   1.0000
     1.0000   1.0000   1.0000   1.0000   1.0000   1.0000   1.0000   1.0000
     1.0000   1.0000   1.0000   1.0000   1.0000   1.0000   1.0000   1.0000
     1.0000   1.0000   1.0000   1.0000   1.0000   1.0000   1.0000   1.0000
     1.0000   1.0000   1.0000   1.0000   1.0000   1.0000   1.0000   1.0000
     1.0000   1.0000   1.0000   1.0000   1.0000   1.0000   1.0000   1.0000
     1.0000   1.0000   1.0000   1.0000   1.0000   1.0000   1.0000   1.0000
     1.0000   1.0000   1.0000   1.0000   1.0000   1.0000   1.0000   1.0000
     1.0000   1.0000   1.0000   1.0000   1.0000   1.0000   1.0000   1.0000
     1.0000   1.0000   1.0000   1.0000   1.0000   1.0000   1.0000   1.0000
     1.0000   1.0000   1.0000   1.0000   1.0000   1.0000   1.0000   1.0000
     1.0000   1.0000   1.0000   1.0000   1.0000   1.0000   1.0000   1.0000
     1.0000   1.0000   1.0000   1.0000   1.0000   1.0000   1.0000   1.0000
     1.0000   1.0000   1.0000   1.0000   1.0000   1.0000   1.0000   1.0000
     1.0000   1.0000   1.0000   1.0000   1.0000   1.0000   1.0000   1.0000
     0.0000   0.0000   0.0000   0.0000   0.0000   0.0000   0.0000   0.0000
     0.0000   0.0000   0.0000   0.0000   0.0000   0.0000   0.0000   0.0000
     0.0000   0.0000   0.0000   0.0000   0.0000   0.0000   0.0000   0.0000
     0.0000   0.0000   0.0000   0.0000   0.0000   0.0000   0.0000   0.0000
     0.0000   0.0000   0.0000   0.0000   0.0000   0.0000   0.0000   0.0000
     0.0000   0.0000   0.0000   0.0000   0.0000   0.0000   0.0000   0.0000
     0.0000   0.0000   0.0000   0.0000   0.0000   0.0000   0.0000

          k = 0.0000 0.0000 0.2500 (269876 PWs)   bands (ev):

   -83.9614 -50.1936 -50.1936 -49.6123  -7.5244  -7.2660  -7.1236  -7.1148
    -7.0082  -6.9912  -6.9180  -6.8987  -6.8764  -6.8353  -6.8324  -6.7590
    -6.7478  -6.6877  -6.6601  -6.6528  -6.5930  -6.5759  -6.5486  -6.5410
    -6.5171  -6.5117  -6.4822  -6.4676  -6.4228  -6.3477  -6.3392  -6.3200
    -6.2752  -6.2645  -6.2168  -1.0748  -1.0742  -1.0724  -1.0511  -1.0435
    -1.0434  -1.0280  -1.0118  -1.0107  -0.9864  -0.9666  -0.9636  -0.9373
    -0.9353  -0.9229  -0.7417  -0.7364  -0.7340  -0.7311  -0.7274  -0.7242
    -0.7121  -0.7011  -0.6977  -0.6838  -0.6640  -0.6629  -0.6615  -0.6498
    -0.6421  -0.6373  -0.6323  -0.6317  -0.6253  -0.6223  -0.6184  -0.6181
    -0.6094  -0.6072  -0.6051  -0.6018  -0.6007  -0.5981  -0.5951  -0.5896
    -0.5882  -0.5860  -0.5827  -0.5821  -0.5783  -0.5737  -0.5717  -0.5686
    -0.5638  -0.5595  -0.5550  -0.5524  -0.5484  -0.5377  -0.5374  -0.5327
    -0.5291  -0.5283  -0.5221  -0.5216  -0.5152  -0.5141  -0.5050  -0.4885
    -0.4821  -0.4812  -0.4762  -0.4701  -0.4665  -0.4594  -0.4488  -0.4404
    -0.4347  -0.4287  -0.4193  -0.4085  -0.4052  -0.3984  -0.3855  -0.3848
    -0.3693  -0.3671  -0.3512  -0.3498  -0.3403  -0.3314  -0.3258  -0.3213
    -0.3123  -0.3072  -0.3017  -0.3001  -0.2922  -0.2908  -0.2838  -0.2808
    -0.2795  -0.2738  -0.2732  -0.2697  -0.2665  -0.2626  -0.2597  -0.2589
    -0.2549  -0.2542  -0.2472  -0.2441  -0.2417  -0.2389  -0.2380  -0.2312
    -0.2299  -0.2282  -0.2278  -0.2248  -0.2201  -0.2177  -0.2140  -0.2125
    -0.2058  -0.2053  -0.2027  -0.1928  -0.1909  -0.1850  -0.1810  -0.1802
    -0.1626  -0.1607  -0.1378  -0.1197  -0.1190  -0.1133  -0.1085  -0.1059
    -0.0957  -0.0876  -0.0836  -0.0798  -0.0742  -0.0682  -0.0595  -0.0574
     0.0626   0.0729   0.0864   0.0906   0.0976   0.1130   0.4724   0.5399
     0.5431   0.5631   0.8919   0.9119   0.9562   0.9712   1.0131   1.0281
     1.0502   1.0712   1.1586   1.1644   1.1715   1.2535   1.2870   1.3072
     1.3643   1.3732   1.4196   1.6411   1.6697   1.8638   1.9197   2.0058
     2.0230   2.1132   2.1199   2.3399   2.5870   2.6041   2.6361   2.6639
     2.6654   2.7533   2.7618   2.7705   2.7818   2.8278   2.8553   2.8567
     2.9334   2.9402   3.0198   3.0569   3.1178   3.1929   3.2435   3.2613
     3.2779   3.2937   3.3254   3.3268   3.3525   3.3755   3.3883   3.4097
     3.4213   3.4342   3.4706   3.4816   3.6328   3.7046   3.7091   3.7765
     3.9734   3.9783   4.1568   4.1612   4.2248   4.2449   4.2526   4.3361
     4.3374   4.3615   4.3739   4.3954   4.4061   4.4112   4.4201   4.4265
     4.5486   4.5884   4.5937   4.6231   4.6405   4.6678   4.6988   4.6996
     4.7166   4.7186   4.7388   4.7691   4.7737   5.0378   5.3150   5.3248
     6.0823   7.8911   8.1447   8.2503   8.6163   9.0044   9.0248   9.0400
     9.0881   9.1554   9.2073   9.4518   9.5858   9.6652   9.6937   9.8005
     9.8168   9.9817  10.0033  10.0160  10.0390  10.0581  10.1097  10.1351
    10.1484  10.2008  10.2211  10.2937  10.2964  10.3042  10.3384  10.3443
    10.3626  10.3847  10.5100  10.6275  10.6529  10.6766  10.7372  10.8760
    10.9873  11.0121  11.0206  11.2178  11.2657  11.3284  11.5189  11.6263
    11.6523  11.6832  11.7236  11.8062  11.8127  11.8399  11.8533

     occupation numbers 
     1.0000   1.0000   1.0000   1.0000   1.0000   1.0000   1.0000   1.0000
     1.0000   1.0000   1.0000   1.0000   1.0000   1.0000   1.0000   1.0000
     1.0000   1.0000   1.0000   1.0000   1.0000   1.0000   1.0000   1.0000
     1.0000   1.0000   1.0000   1.0000   1.0000   1.0000   1.0000   1.0000
     1.0000   1.0000   1.0000   1.0000   1.0000   1.0000   1.0000   1.0000
     1.0000   1.0000   1.0000   1.0000   1.0000   1.0000   1.0000   1.0000
     1.0000   1.0000   1.0000   1.0000   1.0000   1.0000   1.0000   1.0000
     1.0000   1.0000   1.0000   1.0000   1.0000   1.0000   1.0000   1.0000
     1.0000   1.0000   1.0000   1.0000   1.0000   1.0000   1.0000   1.0000
     1.0000   1.0000   1.0000   1.0000   1.0000   1.0000   1.0000   1.0000
     1.0000   1.0000   1.0000   1.0000   1.0000   1.0000   1.0000   1.0000
     1.0000   1.0000   1.0000   1.0000   1.0000   1.0000   1.0000   1.0000
     1.0000   1.0000   1.0000   1.0000   1.0000   1.0000   1.0000   1.0000
     1.0000   1.0000   1.0000   1.0000   1.0000   1.0000   1.0000   1.0000
     1.0000   1.0000   1.0000   1.0000   1.0000   1.0000   1.0000   1.0000
     1.0000   1.0000   1.0000   1.0000   1.0000   1.0000   1.0000   1.0000
     1.0000   1.0000   1.0000   1.0000   1.0000   1.0000   1.0000   1.0000
     1.0000   1.0000   1.0000   1.0000   1.0000   1.0000   1.0000   1.0000
     1.0000   1.0000   1.0000   1.0000   1.0000   1.0000   1.0000   1.0000
     1.0000   1.0000   1.0000   1.0000   1.0000   1.0000   1.0000   1.0000
     1.0000   1.0000   1.0000   1.0000   1.0000   1.0000   1.0000   1.0000
     1.0000   1.0000   1.0000   1.0000   1.0000   1.0000   1.0000   1.0000
     1.0000   1.0000   1.0000   1.0000   1.0000   1.0000   1.0000   1.0000
     1.0000   1.0000   1.0000   1.0000   1.0000   1.0000   1.0000   1.0000
     1.0000   1.0000   1.0000   1.0000   1.0000   1.0000   1.0000   1.0000
     1.0000   1.0000   1.0000   1.0000   1.0000   1.0000   1.0000   1.0000
     1.0000   1.0000   1.0000   1.0000   1.0000   1.0000   1.0000   1.0000
     1.0000   1.0000   1.0000   1.0000   1.0000   1.0000   1.0000   1.0000
     1.0000   1.0000   1.0000   1.0000   1.0000   1.0000   1.0000   1.0000
     1.0000   1.0000   1.0000   1.0000   1.0000   1.0000   1.0000   1.0000
     1.0000   1.0000   1.0000   1.0000   1.0000   1.0000   1.0000   1.0000
     1.0000   1.0000   1.0000   1.0000   1.0000   1.0000   1.0000   1.0000
     1.0000   1.0000   1.0000   1.0000   1.0000   1.0000   1.0000   1.0000
     1.0000   1.0000   1.0000   1.0000   1.0000   1.0000   1.0000   1.0000
     1.0000   1.0000   1.0000   1.0000   1.0000   1.0000   1.0000   1.0000
     1.0000   1.0000   1.0000   1.0000   1.0000   1.0000   1.0000   1.0000
     0.0000   0.0000   0.0000   0.0000   0.0000   0.0000   0.0000   0.0000
     0.0000   0.0000   0.0000   0.0000   0.0000   0.0000   0.0000   0.0000
     0.0000   0.0000   0.0000   0.0000   0.0000   0.0000   0.0000   0.0000
     0.0000   0.0000   0.0000   0.0000   0.0000   0.0000   0.0000   0.0000
     0.0000   0.0000   0.0000   0.0000   0.0000   0.0000   0.0000   0.0000
     0.0000   0.0000   0.0000   0.0000   0.0000   0.0000   0.0000   0.0000
     0.0000   0.0000   0.0000   0.0000   0.0000   0.0000   0.0000

          k = 0.0000 0.0000-0.5000 (270152 PWs)   bands (ev):

   -83.9614 -50.1936 -50.1936 -49.6123  -7.4510  -7.3871  -7.1072  -7.0983
    -6.9969  -6.9872  -6.9214  -6.9059  -6.8937  -6.8607  -6.8489  -6.7572
    -6.7474  -6.6629  -6.6568  -6.6295  -6.5863  -6.5516  -6.5408  -6.5297
    -6.5230  -6.4820  -6.4761  -6.4671  -6.3799  -6.3751  -6.3599  -6.3238
    -6.3075  -6.2840  -6.2210  -1.0741  -1.0727  -1.0717  -1.0507  -1.0439
    -1.0436  -1.0293  -1.0119  -1.0098  -0.9837  -0.9663  -0.9601  -0.9384
    -0.9342  -0.9252  -0.7370  -0.7307  -0.7242  -0.7188  -0.7112  -0.7079
    -0.7044  -0.7031  -0.6845  -0.6801  -0.6687  -0.6677  -0.6637  -0.6587
    -0.6560  -0.6533  -0.6462  -0.6440  -0.6339  -0.6279  -0.6260  -0.6230
    -0.6197  -0.6174  -0.6105  -0.6028  -0.6011  -0.5982  -0.5962  -0.5918
    -0.5896  -0.5879  -0.5869  -0.5843  -0.5794  -0.5768  -0.5742  -0.5729
    -0.5636  -0.5627  -0.5566  -0.5560  -0.5516  -0.5388  -0.5377  -0.5365
    -0.5317  -0.5294  -0.5259  -0.5244  -0.5105  -0.5085  -0.5057  -0.4977
    -0.4936  -0.4823  -0.4760  -0.4715  -0.4606  -0.4606  -0.4520  -0.4427
    -0.4405  -0.4307  -0.4163  -0.4045  -0.3792  -0.3748  -0.3705  -0.3674
    -0.3601  -0.3517  -0.3472  -0.3400  -0.3346  -0.3288  -0.3238  -0.3167
    -0.3130  -0.3081  -0.3033  -0.3015  -0.2987  -0.2932  -0.2916  -0.2879
    -0.2812  -0.2794  -0.2793  -0.2722  -0.2666  -0.2635  -0.2588  -0.2585
    -0.2509  -0.2494  -0.2477  -0.2441  -0.2437  -0.2388  -0.2376  -0.2334
    -0.2327  -0.2284  -0.2232  -0.2216  -0.2213  -0.2205  -0.2148  -0.2113
    -0.2065  -0.2026  -0.2008  -0.1983  -0.1981  -0.1951  -0.1907  -0.1834
    -0.1777  -0.1736  -0.1601  -0.1203  -0.1090  -0.1077  -0.1041  -0.0892
    -0.0887  -0.0848  -0.0806  -0.0639  -0.0477  -0.0463  -0.0407  -0.0063
     0.0035   0.0076   0.0260   0.0398   0.0661   0.1159   0.7015   0.8008
     0.8035   0.8727   0.8766   0.9029   0.9249   0.9483   0.9764   0.9824
     0.9905   1.0125   1.0380   1.0697   1.0814   1.0907   1.1202   1.2055
     1.2284   1.2825   1.5077   1.5624   1.6310   1.7421   1.9421   2.0521
     2.1048   2.3674   2.3791   2.4035   2.4174   2.4654   2.5151   2.5548
     2.5810   2.6021   2.6085   2.6163   2.6941   2.7131   2.7438   2.7789
     3.0018   3.0331   3.0644   3.1187   3.1336   3.1474   3.1794   3.2215
     3.3206   3.5871   3.6143   3.6215   3.6433   3.6823   3.7379   3.7534
     3.7538   3.7924   3.7999   3.8140   3.8249   3.8373   3.8735   3.8738
     3.8830   3.8882   3.8888   3.8965   3.9206   3.9209   3.9565   3.9691
     3.9733   4.0198   4.2292   4.2458   4.2815   4.3441   4.5221   4.5363
     4.5640   4.5751   4.6024   4.6038   4.6186   4.6299   4.6455   4.6583
     4.6954   4.7024   4.7139   4.7191   4.9800   4.9817   5.1190   5.1482
     6.2366   7.8111   8.1089   8.4799   8.8351   8.9970   9.2772   9.2904
     9.4745   9.4944   9.5276   9.5690   9.5690   9.5828   9.6414   9.7119
     9.7981   9.8185   9.8439   9.8463   9.9421  10.0919  10.1025  10.1289
    10.1490  10.1596  10.2550  10.2593  10.3380  10.3542  10.3556  10.4771
    10.5128  10.6144  10.6378  10.6589  10.6884  10.7022  10.8098  10.8692
    10.8892  10.9107  10.9307  10.9368  10.9734  11.0573  11.1961  11.2245
    11.2275  11.2878  11.3239  11.7129  11.7176  11.7365  11.7729

     occupation numbers 
     1.0000   1.0000   1.0000   1.0000   1.0000   1.0000   1.0000   1.0000
     1.0000   1.0000   1.0000   1.0000   1.0000   1.0000   1.0000   1.0000
     1.0000   1.0000   1.0000   1.0000   1.0000   1.0000   1.0000   1.0000
     1.0000   1.0000   1.0000   1.0000   1.0000   1.0000   1.0000   1.0000
     1.0000   1.0000   1.0000   1.0000   1.0000   1.0000   1.0000   1.0000
     1.0000   1.0000   1.0000   1.0000   1.0000   1.0000   1.0000   1.0000
     1.0000   1.0000   1.0000   1.0000   1.0000   1.0000   1.0000   1.0000
     1.0000   1.0000   1.0000   1.0000   1.0000   1.0000   1.0000   1.0000
     1.0000   1.0000   1.0000   1.0000   1.0000   1.0000   1.0000   1.0000
     1.0000   1.0000   1.0000   1.0000   1.0000   1.0000   1.0000   1.0000
     1.0000   1.0000   1.0000   1.0000   1.0000   1.0000   1.0000   1.0000
     1.0000   1.0000   1.0000   1.0000   1.0000   1.0000   1.0000   1.0000
     1.0000   1.0000   1.0000   1.0000   1.0000   1.0000   1.0000   1.0000
     1.0000   1.0000   1.0000   1.0000   1.0000   1.0000   1.0000   1.0000
     1.0000   1.0000   1.0000   1.0000   1.0000   1.0000   1.0000   1.0000
     1.0000   1.0000   1.0000   1.0000   1.0000   1.0000   1.0000   1.0000
     1.0000   1.0000   1.0000   1.0000   1.0000   1.0000   1.0000   1.0000
     1.0000   1.0000   1.0000   1.0000   1.0000   1.0000   1.0000   1.0000
     1.0000   1.0000   1.0000   1.0000   1.0000   1.0000   1.0000   1.0000
     1.0000   1.0000   1.0000   1.0000   1.0000   1.0000   1.0000   1.0000
     1.0000   1.0000   1.0000   1.0000   1.0000   1.0000   1.0000   1.0000
     1.0000   1.0000   1.0000   1.0000   1.0000   1.0000   1.0000   1.0000
     1.0000   1.0000   1.0000   1.0000   1.0000   1.0000   1.0000   1.0000
     1.0000   1.0000   1.0000   1.0000   1.0000   1.0000   1.0000   1.0000
     1.0000   1.0000   1.0000   1.0000   1.0000   1.0000   1.0000   1.0000
     1.0000   1.0000   1.0000   1.0000   1.0000   1.0000   1.0000   1.0000
     1.0000   1.0000   1.0000   1.0000   1.0000   1.0000   1.0000   1.0000
     1.0000   1.0000   1.0000   1.0000   1.0000   1.0000   1.0000   1.0000
     1.0000   1.0000   1.0000   1.0000   1.0000   1.0000   1.0000   1.0000
     1.0000   1.0000   1.0000   1.0000   1.0000   1.0000   1.0000   1.0000
     1.0000   1.0000   1.0000   1.0000   1.0000   1.0000   1.0000   1.0000
     1.0000   1.0000   1.0000   1.0000   1.0000   1.0000   1.0000   1.0000
     1.0000   1.0000   1.0000   1.0000   1.0000   1.0000   1.0000   1.0000
     1.0000   1.0000   1.0000   1.0000   1.0000   1.0000   1.0000   1.0000
     1.0000   1.0000   1.0000   1.0000   1.0000   1.0000   1.0000   1.0000
     1.0000   1.0000   1.0000   1.0000   1.0000   1.0000   1.0000   1.0000
     0.0000   0.0000   0.0000   0.0000   0.0000   0.0000   0.0000   0.0000
     0.0000   0.0000   0.0000   0.0000   0.0000   0.0000   0.0000   0.0000
     0.0000   0.0000   0.0000   0.0000   0.0000   0.0000   0.0000   0.0000
     0.0000   0.0000   0.0000   0.0000   0.0000   0.0000   0.0000   0.0000
     0.0000   0.0000   0.0000   0.0000   0.0000   0.0000   0.0000   0.0000
     0.0000   0.0000   0.0000   0.0000   0.0000   0.0000   0.0000   0.0000
     0.0000   0.0000   0.0000   0.0000   0.0000   0.0000   0.0000

          k = 0.0000 0.2500 0.2500 (269929 PWs)   bands (ev):

   -83.9614 -50.1936 -50.1936 -49.6123  -7.4919  -7.2456  -7.2347  -7.1046
    -7.0177  -6.9694  -6.9673  -6.8961  -6.8479  -6.8472  -6.7927  -6.7704
    -6.7262  -6.6857  -6.6745  -6.6480  -6.5813  -6.5403  -6.5366  -6.5149
    -6.5147  -6.5052  -6.4867  -6.4750  -6.4141  -6.3596  -6.3433  -6.3298
    -6.2854  -6.2836  -6.2293  -1.0738  -1.0733  -1.0719  -1.0503  -1.0437
    -1.0436  -1.0288  -1.0116  -1.0105  -0.9841  -0.9648  -0.9627  -0.9369
    -0.9356  -0.9242  -0.7375  -0.7304  -0.7297  -0.7218  -0.7198  -0.7187
    -0.7015  -0.6987  -0.6905  -0.6870  -0.6736  -0.6627  -0.6598  -0.6520
    -0.6483  -0.6386  -0.6374  -0.6325  -0.6310  -0.6282  -0.6203  -0.6191
    -0.6184  -0.6135  -0.6081  -0.6050  -0.6017  -0.5993  -0.5982  -0.5947
    -0.5926  -0.5896  -0.5849  -0.5813  -0.5796  -0.5774  -0.5761  -0.5724
    -0.5597  -0.5572  -0.5566  -0.5472  -0.5435  -0.5401  -0.5362  -0.5351
    -0.5282  -0.5214  -0.5204  -0.5143  -0.5139  -0.5053  -0.5040  -0.4978
    -0.4914  -0.4884  -0.4775  -0.4740  -0.4719  -0.4618  -0.4616  -0.4529
    -0.4454  -0.4423  -0.4337  -0.4186  -0.4130  -0.3997  -0.3905  -0.3723
    -0.3654  -0.3579  -0.3522  -0.3444  -0.3348  -0.3332  -0.3286  -0.3225
    -0.3217  -0.3075  -0.3030  -0.2969  -0.2933  -0.2900  -0.2865  -0.2851
    -0.2823  -0.2784  -0.2732  -0.2706  -0.2662  -0.2627  -0.2590  -0.2548
    -0.2533  -0.2502  -0.2479  -0.2473  -0.2441  -0.2389  -0.2347  -0.2344
    -0.2304  -0.2261  -0.2221  -0.2215  -0.2167  -0.2149  -0.2137  -0.2127
    -0.2093  -0.2066  -0.2040  -0.1939  -0.1931  -0.1839  -0.1719  -0.1716
    -0.1567  -0.1549  -0.1328  -0.1264  -0.1157  -0.1099  -0.1011  -0.0873
    -0.0827  -0.0805  -0.0757  -0.0661  -0.0652  -0.0537  -0.0308  -0.0180
     0.0370   0.0541   0.0584   0.0798   0.0888   0.1060   0.4512   0.4800
     0.7674   0.8067   0.8712   0.9317   0.9341   0.9723   0.9903   0.9952
     1.0291   1.0539   1.0884   1.1041   1.1414   1.1626   1.1686   1.2890
     1.3397   1.3629   1.5432   1.6378   1.7356   1.8044   1.8691   1.9387
     1.9888   2.0223   2.1753   2.2740   2.3793   2.5358   2.5639   2.6077
     2.6230   2.6733   2.6909   2.7521   2.7891   2.8833   2.9715   2.9993
     3.0546   3.0553   3.0790   3.1368   3.1718   3.2000   3.2362   3.2809
     3.2838   3.3417   3.3436   3.3976   3.3990   3.4442   3.4497   3.4878
     3.5644   3.5776   3.6512   3.6954   3.7191   3.7617   3.8057   3.8454
     3.8706   3.9688   4.0360   4.0554   4.0822   4.1871   4.1914   4.2131
     4.2697   4.2858   4.2882   4.3151   4.3398   4.3692   4.4120   4.4569
     4.4754   4.5021   4.5269   4.5624   4.5821   4.6366   4.6575   4.7021
     4.7176   4.7213   4.7393   4.8340   4.8439   4.9922   5.2220   5.3786
     6.1516   7.9471   8.1322   8.2808   8.6351   9.0583   9.1032   9.2844
     9.2872   9.3262   9.3358   9.5706   9.6203   9.6491   9.8393   9.8459
     9.8637   9.8724   9.8911   9.9049   9.9254   9.9684   9.9751  10.0520
    10.0857  10.1483  10.1803  10.2261  10.2388  10.2783  10.2879  10.3640
    10.4395  10.6071  10.6403  10.6722  10.6789  10.7221  10.8326  10.8436
    10.8962  10.9408  10.9738  11.0397  11.0764  11.3264  11.3929  11.4396
    11.4554  11.5696  11.6160  11.6651  11.7345  11.7736  11.7815

     occupation numbers 
     1.0000   1.0000   1.0000   1.0000   1.0000   1.0000   1.0000   1.0000
     1.0000   1.0000   1.0000   1.0000   1.0000   1.0000   1.0000   1.0000
     1.0000   1.0000   1.0000   1.0000   1.0000   1.0000   1.0000   1.0000
     1.0000   1.0000   1.0000   1.0000   1.0000   1.0000   1.0000   1.0000
     1.0000   1.0000   1.0000   1.0000   1.0000   1.0000   1.0000   1.0000
     1.0000   1.0000   1.0000   1.0000   1.0000   1.0000   1.0000   1.0000
     1.0000   1.0000   1.0000   1.0000   1.0000   1.0000   1.0000   1.0000
     1.0000   1.0000   1.0000   1.0000   1.0000   1.0000   1.0000   1.0000
     1.0000   1.0000   1.0000   1.0000   1.0000   1.0000   1.0000   1.0000
     1.0000   1.0000   1.0000   1.0000   1.0000   1.0000   1.0000   1.0000
     1.0000   1.0000   1.0000   1.0000   1.0000   1.0000   1.0000   1.0000
     1.0000   1.0000   1.0000   1.0000   1.0000   1.0000   1.0000   1.0000
     1.0000   1.0000   1.0000   1.0000   1.0000   1.0000   1.0000   1.0000
     1.0000   1.0000   1.0000   1.0000   1.0000   1.0000   1.0000   1.0000
     1.0000   1.0000   1.0000   1.0000   1.0000   1.0000   1.0000   1.0000
     1.0000   1.0000   1.0000   1.0000   1.0000   1.0000   1.0000   1.0000
     1.0000   1.0000   1.0000   1.0000   1.0000   1.0000   1.0000   1.0000
     1.0000   1.0000   1.0000   1.0000   1.0000   1.0000   1.0000   1.0000
     1.0000   1.0000   1.0000   1.0000   1.0000   1.0000   1.0000   1.0000
     1.0000   1.0000   1.0000   1.0000   1.0000   1.0000   1.0000   1.0000
     1.0000   1.0000   1.0000   1.0000   1.0000   1.0000   1.0000   1.0000
     1.0000   1.0000   1.0000   1.0000   1.0000   1.0000   1.0000   1.0000
     1.0000   1.0000   1.0000   1.0000   1.0000   1.0000   1.0000   1.0000
     1.0000   1.0000   1.0000   1.0000   1.0000   1.0000   1.0000   1.0000
     1.0000   1.0000   1.0000   1.0000   1.0000   1.0000   1.0000   1.0000
     1.0000   1.0000   1.0000   1.0000   1.0000   1.0000   1.0000   1.0000
     1.0000   1.0000   1.0000   1.0000   1.0000   1.0000   1.0000   1.0000
     1.0000   1.0000   1.0000   1.0000   1.0000   1.0000   1.0000   1.0000
     1.0000   1.0000   1.0000   1.0000   1.0000   1.0000   1.0000   1.0000
     1.0000   1.0000   1.0000   1.0000   1.0000   1.0000   1.0000   1.0000
     1.0000   1.0000   1.0000   1.0000   1.0000   1.0000   1.0000   1.0000
     1.0000   1.0000   1.0000   1.0000   1.0000   1.0000   1.0000   1.0000
     1.0000   1.0000   1.0000   1.0000   1.0000   1.0000   1.0000   1.0000
     1.0000   1.0000   1.0000   1.0000   1.0000   1.0000   1.0000   1.0000
     1.0000   1.0000   1.0000   1.0000   1.0000   1.0000   1.0000   1.0000
     1.0000   1.0000   1.0000   1.0000   1.0000   1.0000   1.0000   1.0000
     0.0000   0.0000   0.0000   0.0000   0.0000   0.0000   0.0000   0.0000
     0.0000   0.0000   0.0000   0.0000   0.0000   0.0000   0.0000   0.0000
     0.0000   0.0000   0.0000   0.0000   0.0000   0.0000   0.0000   0.0000
     0.0000   0.0000   0.0000   0.0000   0.0000   0.0000   0.0000   0.0000
     0.0000   0.0000   0.0000   0.0000   0.0000   0.0000   0.0000   0.0000
     0.0000   0.0000   0.0000   0.0000   0.0000   0.0000   0.0000   0.0000
     0.0000   0.0000   0.0000   0.0000   0.0000   0.0000   0.0000

          k = 0.0000 0.2500-0.5000 (269962 PWs)   bands (ev):

   -83.9614 -50.1936 -50.1936 -49.6123  -7.4228  -7.3571  -7.1940  -7.1170
    -7.0635  -6.9816  -6.9426  -6.9028  -6.8681  -6.8315  -6.7843  -6.7720
    -6.7083  -6.6886  -6.6687  -6.6197  -6.5574  -6.5393  -6.5242  -6.5167
    -6.5108  -6.4887  -6.4767  -6.4629  -6.3903  -6.3829  -6.3669  -6.3245
    -6.3196  -6.2997  -6.2369  -1.0730  -1.0721  -1.0713  -1.0499  -1.0440
    -1.0437  -1.0300  -1.0116  -1.0099  -0.9815  -0.9643  -0.9598  -0.9376
    -0.9348  -0.9265  -0.7338  -0.7290  -0.7199  -0.7122  -0.7082  -0.7046
    -0.7007  -0.6934  -0.6853  -0.6729  -0.6709  -0.6643  -0.6618  -0.6587
    -0.6534  -0.6516  -0.6480  -0.6428  -0.6370  -0.6320  -0.6284  -0.6253
    -0.6216  -0.6163  -0.6141  -0.6096  -0.6077  -0.6012  -0.5993  -0.5952
    -0.5934  -0.5895  -0.5848  -0.5838  -0.5801  -0.5780  -0.5752  -0.5674
    -0.5631  -0.5602  -0.5567  -0.5501  -0.5464  -0.5423  -0.5398  -0.5333
    -0.5267  -0.5253  -0.5184  -0.5163  -0.5110  -0.5053  -0.5017  -0.4982
    -0.4915  -0.4888  -0.4797  -0.4734  -0.4683  -0.4612  -0.4575  -0.4518
    -0.4471  -0.4452  -0.4348  -0.4246  -0.4172  -0.4133  -0.4112  -0.4043
    -0.3781  -0.3721  -0.3551  -0.3467  -0.3406  -0.3373  -0.3279  -0.3235
    -0.3184  -0.3099  -0.3024  -0.2969  -0.2917  -0.2894  -0.2887  -0.2833
    -0.2799  -0.2752  -0.2731  -0.2709  -0.2661  -0.2587  -0.2574  -0.2523
    -0.2492  -0.2454  -0.2434  -0.2411  -0.2385  -0.2365  -0.2340  -0.2289
    -0.2263  -0.2244  -0.2214  -0.2192  -0.2170  -0.2136  -0.2093  -0.2079
    -0.2044  -0.2026  -0.1988  -0.1967  -0.1943  -0.1856  -0.1751  -0.1669
    -0.1431  -0.1340  -0.1183  -0.1136  -0.1069  -0.0985  -0.0878  -0.0838
    -0.0790  -0.0720  -0.0647  -0.0603  -0.0509  -0.0344  -0.0279  -0.0148
    -0.0109   0.0264   0.0433   0.0560   0.0600   0.1146   0.6251   0.6817
     0.6966   0.7405   0.8270   0.8814   0.9160   0.9309   0.9667   1.0004
     1.0222   1.0339   1.0850   1.1494   1.1807   1.1927   1.2403   1.2638
     1.2934   1.3462   1.5095   1.5678   1.6313   1.7368   1.8796   1.9067
     2.0298   2.0735   2.1338   2.2004   2.2666   2.3234   2.4728   2.5440
     2.7018   2.7438   2.8042   2.8150   2.8247   2.8705   2.8915   2.9098
     2.9606   3.0093   3.0838   3.1085   3.2124   3.2916   3.3368   3.4161
     3.4493   3.4845   3.5107   3.5353   3.5604   3.5785   3.5931   3.6444
     3.6851   3.6956   3.7142   3.7282   3.7514   3.8127   3.8581   3.8789
     3.9213   3.9468   3.9638   4.0206   4.0582   4.0841   4.0959   4.1103
     4.1333   4.1532   4.1748   4.2153   4.2347   4.2645   4.2930   4.3171
     4.3939   4.4211   4.4848   4.5110   4.5483   4.5615   4.6027   4.6302
     4.6866   4.7153   4.8759   4.9860   4.9911   5.0268   5.1629   5.2416
     6.2229   7.8941   8.0509   8.4286   8.9612   9.0558   9.3871   9.4090
     9.4548   9.4917   9.5336   9.5636   9.6301   9.6569   9.7001   9.7543
     9.8224   9.8441   9.8623   9.8763   9.8930   9.8993   9.9629   9.9843
     9.9946  10.0142  10.0844  10.1476  10.3035  10.3469  10.4198  10.4478
    10.4876  10.5352  10.5486  10.6068  10.6480  10.7057  10.7877  10.8622
    10.9122  10.9386  11.0362  11.1179  11.1969  11.2799  11.3020  11.3463
    11.3795  11.3984  11.4118  11.4535  11.5044  11.5489  11.6177

     occupation numbers 
     1.0000   1.0000   1.0000   1.0000   1.0000   1.0000   1.0000   1.0000
     1.0000   1.0000   1.0000   1.0000   1.0000   1.0000   1.0000   1.0000
     1.0000   1.0000   1.0000   1.0000   1.0000   1.0000   1.0000   1.0000
     1.0000   1.0000   1.0000   1.0000   1.0000   1.0000   1.0000   1.0000
     1.0000   1.0000   1.0000   1.0000   1.0000   1.0000   1.0000   1.0000
     1.0000   1.0000   1.0000   1.0000   1.0000   1.0000   1.0000   1.0000
     1.0000   1.0000   1.0000   1.0000   1.0000   1.0000   1.0000   1.0000
     1.0000   1.0000   1.0000   1.0000   1.0000   1.0000   1.0000   1.0000
     1.0000   1.0000   1.0000   1.0000   1.0000   1.0000   1.0000   1.0000
     1.0000   1.0000   1.0000   1.0000   1.0000   1.0000   1.0000   1.0000
     1.0000   1.0000   1.0000   1.0000   1.0000   1.0000   1.0000   1.0000
     1.0000   1.0000   1.0000   1.0000   1.0000   1.0000   1.0000   1.0000
     1.0000   1.0000   1.0000   1.0000   1.0000   1.0000   1.0000   1.0000
     1.0000   1.0000   1.0000   1.0000   1.0000   1.0000   1.0000   1.0000
     1.0000   1.0000   1.0000   1.0000   1.0000   1.0000   1.0000   1.0000
     1.0000   1.0000   1.0000   1.0000   1.0000   1.0000   1.0000   1.0000
     1.0000   1.0000   1.0000   1.0000   1.0000   1.0000   1.0000   1.0000
     1.0000   1.0000   1.0000   1.0000   1.0000   1.0000   1.0000   1.0000
     1.0000   1.0000   1.0000   1.0000   1.0000   1.0000   1.0000   1.0000
     1.0000   1.0000   1.0000   1.0000   1.0000   1.0000   1.0000   1.0000
     1.0000   1.0000   1.0000   1.0000   1.0000   1.0000   1.0000   1.0000
     1.0000   1.0000   1.0000   1.0000   1.0000   1.0000   1.0000   1.0000
     1.0000   1.0000   1.0000   1.0000   1.0000   1.0000   1.0000   1.0000
     1.0000   1.0000   1.0000   1.0000   1.0000   1.0000   1.0000   1.0000
     1.0000   1.0000   1.0000   1.0000   1.0000   1.0000   1.0000   1.0000
     1.0000   1.0000   1.0000   1.0000   1.0000   1.0000   1.0000   1.0000
     1.0000   1.0000   1.0000   1.0000   1.0000   1.0000   1.0000   1.0000
     1.0000   1.0000   1.0000   1.0000   1.0000   1.0000   1.0000   1.0000
     1.0000   1.0000   1.0000   1.0000   1.0000   1.0000   1.0000   1.0000
     1.0000   1.0000   1.0000   1.0000   1.0000   1.0000   1.0000   1.0000
     1.0000   1.0000   1.0000   1.0000   1.0000   1.0000   1.0000   1.0000
     1.0000   1.0000   1.0000   1.0000   1.0000   1.0000   1.0000   1.0000
     1.0000   1.0000   1.0000   1.0000   1.0000   1.0000   1.0000   1.0000
     1.0000   1.0000   1.0000   1.0000   1.0000   1.0000   1.0000   1.0000
     1.0000   1.0000   1.0000   1.0000   1.0000   1.0000   1.0000   1.0000
     1.0000   1.0000   1.0000   1.0000   1.0000   1.0000   1.0000   1.0000
     0.0000   0.0000   0.0000   0.0000   0.0000   0.0000   0.0000   0.0000
     0.0000   0.0000   0.0000   0.0000   0.0000   0.0000   0.0000   0.0000
     0.0000   0.0000   0.0000   0.0000   0.0000   0.0000   0.0000   0.0000
     0.0000   0.0000   0.0000   0.0000   0.0000   0.0000   0.0000   0.0000
     0.0000   0.0000   0.0000   0.0000   0.0000   0.0000   0.0000   0.0000
     0.0000   0.0000   0.0000   0.0000   0.0000   0.0000   0.0000   0.0000
     0.0000   0.0000   0.0000   0.0000   0.0000   0.0000   0.0000

          k = 0.0000-0.5000-0.5000 (269920 PWs)   bands (ev):

   -83.9614 -50.1936 -50.1936 -49.6123  -7.3695  -7.3067  -7.2758  -7.2108
    -7.0597  -6.9795  -6.9424  -6.9160  -6.8484  -6.8149  -6.7927  -6.7664
    -6.7164  -6.6669  -6.6252  -6.5980  -6.5787  -6.5394  -6.5295  -6.4906
    -6.4842  -6.4770  -6.4516  -6.4404  -6.4137  -6.4104  -6.3858  -6.3459
    -6.3193  -6.3143  -6.2502  -1.0720  -1.0714  -1.0708  -1.0490  -1.0441
    -1.0437  -1.0308  -1.0116  -1.0098  -0.9792  -0.9623  -0.9591  -0.9371
    -0.9351  -0.9280  -0.7315  -0.7231  -0.7201  -0.7088  -0.7028  -0.6997
    -0.6977  -0.6884  -0.6704  -0.6683  -0.6632  -0.6628  -0.6567  -0.6542
    -0.6525  -0.6511  -0.6507  -0.6452  -0.6419  -0.6400  -0.6372  -0.6261
    -0.6258  -0.6191  -0.6175  -0.6119  -0.6079  -0.6034  -0.5979  -0.5971
    -0.5945  -0.5930  -0.5917  -0.5890  -0.5816  -0.5751  -0.5735  -0.5644
    -0.5622  -0.5578  -0.5489  -0.5447  -0.5425  -0.5417  -0.5353  -0.5331
    -0.5259  -0.5221  -0.5217  -0.5148  -0.5135  -0.5118  -0.5105  -0.5085
    -0.4921  -0.4902  -0.4855  -0.4801  -0.4795  -0.4718  -0.4671  -0.4628
    -0.4626  -0.4570  -0.4467  -0.4407  -0.4347  -0.4250  -0.4228  -0.3909
    -0.3838  -0.3831  -0.3668  -0.3604  -0.3438  -0.3382  -0.3271  -0.3256
    -0.3175  -0.3153  -0.3027  -0.2941  -0.2939  -0.2918  -0.2887  -0.2830
    -0.2794  -0.2745  -0.2730  -0.2693  -0.2615  -0.2611  -0.2533  -0.2480
    -0.2466  -0.2429  -0.2416  -0.2358  -0.2339  -0.2333  -0.2316  -0.2253
    -0.2226  -0.2223  -0.2170  -0.2134  -0.2125  -0.2083  -0.2076  -0.2051
    -0.2031  -0.2008  -0.1979  -0.1946  -0.1929  -0.1836  -0.1684  -0.1545
    -0.1389  -0.1227  -0.1156  -0.1142  -0.1096  -0.0931  -0.0871  -0.0821
    -0.0770  -0.0746  -0.0643  -0.0605  -0.0337  -0.0200  -0.0000   0.0122
     0.0148   0.0513   0.0543   0.0741   0.0782   0.1280   0.6466   0.6557
     0.6843   0.7136   0.7230   0.7349   0.7928   0.8178   0.9572   0.9804
     0.9989   1.0285   1.1388   1.1423   1.2154   1.3689   1.4621   1.4806
     1.4942   1.5086   1.5444   1.5992   1.6292   1.6901   1.7442   1.7916
     1.8219   1.8756   2.0102   2.0246   2.0728   2.1284   2.4884   2.4963
     2.5616   2.6292   2.9388   3.0383   3.0646   3.1487   3.1716   3.1829
     3.2011   3.2103   3.2167   3.2338   3.2484   3.2580   3.2728   3.3250
     3.3817   3.3865   3.3900   3.5206   3.5287   3.5410   3.5686   3.5762
     3.6158   3.6292   3.6557   3.7078   3.7139   3.7262   3.7429   3.7569
     3.7662   3.9301   3.9617   3.9738   4.0831   4.0851   4.1111   4.1388
     4.1927   4.2109   4.2314   4.2899   4.3575   4.3611   4.4198   4.4235
     4.4371   4.4374   4.4602   4.4709   4.4739   4.4766   4.4970   4.5573
     4.5613   4.6526   4.7004   4.7395   5.1579   5.1682   5.2707   5.3032
     6.2088   7.9389   8.0292   8.4248   9.1555   9.2383   9.2843   9.3289
     9.4965   9.5029   9.5250   9.5590   9.5627   9.6043   9.6358   9.6594
     9.6710   9.7058   9.9258   9.9736  10.1234  10.1306  10.1428  10.1520
    10.1571  10.1660  10.1978  10.2284  10.2395  10.2888  10.3028  10.3184
    10.3350  10.3404  10.3895  10.4132  10.4251  10.4552  10.4883  10.5005
    10.7891  10.9886  11.0551  11.3594  11.4389  11.4461  11.4487  11.4848
    11.4887  11.4992  11.5139  11.5401  11.5591  11.5820  11.6080

     occupation numbers 
     1.0000   1.0000   1.0000   1.0000   1.0000   1.0000   1.0000   1.0000
     1.0000   1.0000   1.0000   1.0000   1.0000   1.0000   1.0000   1.0000
     1.0000   1.0000   1.0000   1.0000   1.0000   1.0000   1.0000   1.0000
     1.0000   1.0000   1.0000   1.0000   1.0000   1.0000   1.0000   1.0000
     1.0000   1.0000   1.0000   1.0000   1.0000   1.0000   1.0000   1.0000
     1.0000   1.0000   1.0000   1.0000   1.0000   1.0000   1.0000   1.0000
     1.0000   1.0000   1.0000   1.0000   1.0000   1.0000   1.0000   1.0000
     1.0000   1.0000   1.0000   1.0000   1.0000   1.0000   1.0000   1.0000
     1.0000   1.0000   1.0000   1.0000   1.0000   1.0000   1.0000   1.0000
     1.0000   1.0000   1.0000   1.0000   1.0000   1.0000   1.0000   1.0000
     1.0000   1.0000   1.0000   1.0000   1.0000   1.0000   1.0000   1.0000
     1.0000   1.0000   1.0000   1.0000   1.0000   1.0000   1.0000   1.0000
     1.0000   1.0000   1.0000   1.0000   1.0000   1.0000   1.0000   1.0000
     1.0000   1.0000   1.0000   1.0000   1.0000   1.0000   1.0000   1.0000
     1.0000   1.0000   1.0000   1.0000   1.0000   1.0000   1.0000   1.0000
     1.0000   1.0000   1.0000   1.0000   1.0000   1.0000   1.0000   1.0000
     1.0000   1.0000   1.0000   1.0000   1.0000   1.0000   1.0000   1.0000
     1.0000   1.0000   1.0000   1.0000   1.0000   1.0000   1.0000   1.0000
     1.0000   1.0000   1.0000   1.0000   1.0000   1.0000   1.0000   1.0000
     1.0000   1.0000   1.0000   1.0000   1.0000   1.0000   1.0000   1.0000
     1.0000   1.0000   1.0000   1.0000   1.0000   1.0000   1.0000   1.0000
     1.0000   1.0000   1.0000   1.0000   1.0000   1.0000   1.0000   1.0000
     1.0000   1.0000   1.0000   1.0000   1.0000   1.0000   1.0000   1.0000
     1.0000   1.0000   1.0000   1.0000   1.0000   1.0000   1.0000   1.0000
     1.0000   1.0000   1.0000   1.0000   1.0000   1.0000   1.0000   1.0000
     1.0000   1.0000   1.0000   1.0000   1.0000   1.0000   1.0000   1.0000
     1.0000   1.0000   1.0000   1.0000   1.0000   1.0000   1.0000   1.0000
     1.0000   1.0000   1.0000   1.0000   1.0000   1.0000   1.0000   1.0000
     1.0000   1.0000   1.0000   1.0000   1.0000   1.0000   1.0000   1.0000
     1.0000   1.0000   1.0000   1.0000   1.0000   1.0000   1.0000   1.0000
     1.0000   1.0000   1.0000   1.0000   1.0000   1.0000   1.0000   1.0000
     1.0000   1.0000   1.0000   1.0000   1.0000   1.0000   1.0000   1.0000
     1.0000   1.0000   1.0000   1.0000   1.0000   1.0000   1.0000   1.0000
     1.0000   1.0000   1.0000   1.0000   1.0000   1.0000   1.0000   1.0000
     1.0000   1.0000   1.0000   1.0000   1.0000   1.0000   1.0000   1.0000
     1.0000   1.0000   1.0000   1.0000   1.0000   1.0000   1.0000   1.0000
     0.0000   0.0000   0.0000   0.0000   0.0000   0.0000   0.0000   0.0000
     0.0000   0.0000   0.0000   0.0000   0.0000   0.0000   0.0000   0.0000
     0.0000   0.0000   0.0000   0.0000   0.0000   0.0000   0.0000   0.0000
     0.0000   0.0000   0.0000   0.0000   0.0000   0.0000   0.0000   0.0000
     0.0000   0.0000   0.0000   0.0000   0.0000   0.0000   0.0000   0.0000
     0.0000   0.0000   0.0000   0.0000   0.0000   0.0000   0.0000   0.0000
     0.0000   0.0000   0.0000   0.0000   0.0000   0.0000   0.0000

          k = 0.2500 0.2500 0.2500 (269935 PWs)   bands (ev):

   -83.9614 -50.1936 -50.1936 -49.6123  -7.4613  -7.2223  -7.2223  -7.2015
    -7.0199  -7.0199  -6.9860  -6.8777  -6.8777  -6.8191  -6.7518  -6.7518
    -6.7126  -6.7089  -6.6360  -6.6360  -6.5454  -6.5454  -6.5439  -6.5075
    -6.5016  -6.5016  -6.4800  -6.4800  -6.4107  -6.3670  -6.3450  -6.3450
[...]
     1.0000   1.0000   1.0000   1.0000   1.0000   1.0000   1.0000   1.0000
     1.0000   1.0000   1.0000   1.0000   1.0000   1.0000   1.0000   1.0000
     1.0000   1.0000   1.0000   1.0000   1.0000   1.0000   1.0000   1.0000
     1.0000   1.0000   1.0000   1.0000   1.0000   1.0000   1.0000   1.0000
     1.0000   1.0000   1.0000   1.0000   1.0000   1.0000   1.0000   1.0000
     1.0000   1.0000   1.0000   1.0000   1.0000   1.0000   1.0000   1.0000
     1.0000   1.0000   1.0000   1.0000   1.0000   1.0000   1.0000   1.0000
     1.0000   1.0000   1.0000   1.0000   1.0000   1.0000   1.0000   1.0000
     1.0000   1.0000   1.0000   1.0000   1.0000   1.0000   1.0000   1.0000
     1.0000   1.0000   1.0000   1.0000   1.0000   1.0000   1.0000   1.0000
     1.0000   1.0000   1.0000   1.0000   1.0000   1.0000   1.0000   1.0000
     1.0000   1.0000   1.0000   1.0000   1.0000   1.0000   1.0000   1.0000
     1.0000   1.0000   1.0000   1.0000   1.0000   1.0000   1.0000   1.0000
     1.0000   1.0000   1.0000   1.0000   1.0000   1.0000   1.0000   1.0000
     1.0000   1.0000   1.0000   1.0000   1.0000   1.0000   1.0000   1.0000
     1.0000   1.0000   1.0000   1.0000   1.0000   1.0000   1.0000   1.0000
     1.0000   1.0000   1.0000   1.0000   1.0000   1.0000   1.0000   1.0000
     1.0000   1.0000   1.0000   1.0000   1.0000   1.0000   1.0000   1.0000
     1.0000   1.0000   1.0000   1.0000   1.0000   1.0000   1.0000   1.0000
     1.0000   1.0000   1.0000   1.0000   0.0000   0.0000   0.0000   0.0000
     0.0000   0.0000   0.0000   0.0000   0.0000   0.0000   0.0000   0.0000
     0.0000   0.0000   0.0000   0.0000   0.0000   0.0000   0.0000   0.0000
     0.0000   0.0000   0.0000   0.0000   0.0000   0.0000   0.0000   0.0000
     0.0000   0.0000   0.0000   0.0000   0.0000   0.0000   0.0000   0.0000
     0.0000   0.0000   0.0000   0.0000   0.0000   0.0000   0.0000   0.0000
     0.0000   0.0000   0.0000   0.0000   0.0000   0.0000   0.0000   0.0000
     0.0000   0.0000   0.0000   0.0000   0.0000   0.0000   0.0000

          k = 0.2500-0.2500 0.2500 (269935 PWs)   bands (ev):

   -80.0906 -46.2601 -46.2601 -46.1131  -7.4284  -7.1990  -7.1953  -7.1437
    -6.9958  -6.9939  -6.9647  -6.8379  -6.8094  -6.8038  -6.7634  -6.7421
    -6.7198  -6.7072  -6.6181  -6.6177  -6.5413  -6.5409  -6.5273  -6.5097
    -6.4906  -6.4872  -6.4808  -6.4756  -6.4078  -6.3538  -6.3429  -6.3378
    -6.2948  -6.2942  -6.2430  -1.0744  -1.0744  -1.0733  -1.0567  -1.0454
    -1.0449  -1.0312  -1.0166  -1.0165  -0.9834  -0.9649  -0.9644  -0.9381
    -0.9376  -0.9282  -0.7240  -0.7162  -0.7140  -0.7080  -0.7002  -0.7002
    -0.6870  -0.6830  -0.6775  -0.6747  -0.6658  -0.6543  -0.6539  -0.6436
    -0.6408  -0.6380  -0.6368  -0.6319  -0.6297  -0.6255  -0.6211  -0.6183
    -0.6171  -0.6148  -0.6088  -0.6057  -0.6039  -0.6010  -0.5995  -0.5975
    -0.5909  -0.5905  -0.5857  -0.5767  -0.5760  -0.5710  -0.5689  -0.5683
    -0.5662  -0.5586  -0.5544  -0.5534  -0.5417  -0.5369  -0.5354  -0.5335
    -0.5295  -0.5290  -0.5170  -0.5127  -0.5078  -0.5065  -0.4987  -0.4949
    -0.4877  -0.4774  -0.4773  -0.4663  -0.4641  -0.4560  -0.4467  -0.4448
    -0.4425  -0.4396  -0.4259  -0.4202  -0.4143  -0.4043  -0.3987  -0.3902
    -0.3861  -0.3803  -0.3586  -0.3418  -0.3403  -0.3318  -0.3291  -0.3205
    -0.3196  -0.3107  -0.3079  -0.3034  -0.2915  -0.2913  -0.2822  -0.2818
    -0.2760  -0.2731  -0.2702  -0.2689  -0.2629  -0.2549  -0.2542  -0.2488
    -0.2451  -0.2433  -0.2406  -0.2387  -0.2379  -0.2350  -0.2335  -0.2303
    -0.2263  -0.2230  -0.2191  -0.2182  -0.2141  -0.2105  -0.2085  -0.2059
    -0.2054  -0.1967  -0.1944  -0.1906  -0.1879  -0.1813  -0.1753  -0.1637
    -0.1430  -0.1255  -0.1240  -0.1111  -0.1104  -0.0997  -0.0890  -0.0841
    -0.0769  -0.0750  -0.0746  -0.0624  -0.0578  -0.0380  -0.0330  -0.0310
     0.0395   0.0495   0.0518   0.0564   0.0623   0.0897   0.5634   0.6418
     0.6606   0.8354   0.8848   0.9062   0.9766   0.9879   0.9955   1.0541
     1.0937   1.1099   1.1602   1.1696   1.1706   1.2245   1.3119   1.3337
     1.3677   1.3764   1.4807   1.6091   1.9175   1.9770   1.9964   2.1415
     2.1549   2.2627   2.6009   2.6222   2.6442   2.7058   2.7129   2.7468
     2.7878   2.8372   2.8410   2.9429   2.9573   3.0224   3.0600   3.1524
     3.1715   3.2565   3.2901   3.3000   3.3329   3.3540   3.3722   3.3867
     3.4245   3.4510   3.5036   3.5130   3.5210   3.5213   3.5940   3.6135
     3.7167   3.8094   3.8101   3.8529   3.9251   3.9446   3.9991   4.0557
     4.0701   4.0919   4.1324   4.1363   4.1659   4.1948   4.2218   4.2219
     4.2385   4.2452   4.3086   4.3421   4.3546   4.3749   4.5003   4.5012
     4.6680   4.6705   4.7139   4.7178   4.7443   4.7753   4.9130   4.9355
     4.9613   5.1891   5.2431   5.3782   6.1422   6.1685   6.2264   6.4476
     6.4929   7.8451   8.1429   8.5779   8.8643   8.9365   9.3790   9.3801
     9.4005   9.4418   9.4828   9.5450   9.5469   9.6137   9.6369   9.6416
     9.7080   9.8426   9.9070   9.9251   9.9950  10.0936  10.1004  10.1769
    10.1777  10.2024  10.2632  10.2807  10.3034  10.3377  10.3503  10.3690
    10.3951  10.4177  10.4187  10.4540  10.4784  10.5471  10.7511  10.8436
    11.0425  11.1204  11.1304  11.2103  11.3880  11.4039  11.4217  11.4582
    11.4847  11.5143  11.5332  11.5875  11.5975  11.6655  11.7867

     occupation numbers 
     1.0000   1.0000   1.0000   1.0000   1.0000   1.0000   1.0000   1.0000
     1.0000   1.0000   1.0000   1.0000   1.0000   1.0000   1.0000   1.0000
     1.0000   1.0000   1.0000   1.0000   1.0000   1.0000   1.0000   1.0000
     1.0000   1.0000   1.0000   1.0000   1.0000   1.0000   1.0000   1.0000
     1.0000   1.0000   1.0000   1.0000   1.0000   1.0000   1.0000   1.0000
     1.0000   1.0000   1.0000   1.0000   1.0000   1.0000   1.0000   1.0000
     1.0000   1.0000   1.0000   1.0000   1.0000   1.0000   1.0000   1.0000
     1.0000   1.0000   1.0000   1.0000   1.0000   1.0000   1.0000   1.0000
     1.0000   1.0000   1.0000   1.0000   1.0000   1.0000   1.0000   1.0000
     1.0000   1.0000   1.0000   1.0000   1.0000   1.0000   1.0000   1.0000
     1.0000   1.0000   1.0000   1.0000   1.0000   1.0000   1.0000   1.0000
     1.0000   1.0000   1.0000   1.0000   1.0000   1.0000   1.0000   1.0000
     1.0000   1.0000   1.0000   1.0000   1.0000   1.0000   1.0000   1.0000
     1.0000   1.0000   1.0000   1.0000   1.0000   1.0000   1.0000   1.0000
     1.0000   1.0000   1.0000   1.0000   1.0000   1.0000   1.0000   1.0000
     1.0000   1.0000   1.0000   1.0000   1.0000   1.0000   1.0000   1.0000
     1.0000   1.0000   1.0000   1.0000   1.0000   1.0000   1.0000   1.0000
     1.0000   1.0000   1.0000   1.0000   1.0000   1.0000   1.0000   1.0000
     1.0000   1.0000   1.0000   1.0000   1.0000   1.0000   1.0000   1.0000
     1.0000   1.0000   1.0000   1.0000   1.0000   1.0000   1.0000   1.0000
     1.0000   1.0000   1.0000   1.0000   1.0000   1.0000   1.0000   1.0000
     1.0000   1.0000   1.0000   1.0000   1.0000   1.0000   1.0000   1.0000
     1.0000   1.0000   1.0000   1.0000   1.0000   1.0000   1.0000   1.0000
     1.0000   1.0000   1.0000   1.0000   1.0000   1.0000   1.0000   1.0000
     1.0000   1.0000   1.0000   1.0000   1.0000   1.0000   1.0000   1.0000
     1.0000   1.0000   1.0000   1.0000   1.0000   1.0000   1.0000   1.0000
     1.0000   1.0000   1.0000   1.0000   1.0000   1.0000   1.0000   1.0000
     1.0000   1.0000   1.0000   1.0000   1.0000   1.0000   1.0000   1.0000
     1.0000   1.0000   1.0000   1.0000   1.0000   1.0000   1.0000   1.0000
     1.0000   1.0000   1.0000   1.0000   1.0000   1.0000   1.0000   1.0000
     1.0000   1.0000   1.0000   1.0000   1.0000   1.0000   1.0000   1.0000
     1.0000   1.0000   1.0000   1.0000   1.0000   1.0000   1.0000   1.0000
     1.0000   1.0000   1.0000   1.0000   1.0000   1.0000   1.0000   1.0000
     1.0000   1.0000   1.0000   1.0000   1.0000   1.0000   1.0000   1.0000
     1.0000   1.0000   1.0000   1.0000   1.0000   1.0000   1.0000   1.0000
     1.0000   1.0000   1.0000   1.0000   0.0000   0.0000   0.0000   0.0000
     0.0000   0.0000   0.0000   0.0000   0.0000   0.0000   0.0000   0.0000
     0.0000   0.0000   0.0000   0.0000   0.0000   0.0000   0.0000   0.0000
     0.0000   0.0000   0.0000   0.0000   0.0000   0.0000   0.0000   0.0000
     0.0000   0.0000   0.0000   0.0000   0.0000   0.0000   0.0000   0.0000
     0.0000   0.0000   0.0000   0.0000   0.0000   0.0000   0.0000   0.0000
     0.0000   0.0000   0.0000   0.0000   0.0000   0.0000   0.0000   0.0000
     0.0000   0.0000   0.0000   0.0000   0.0000   0.0000   0.0000

          k = 0.2500-0.2500-0.5000 (269988 PWs)   bands (ev):

   -80.0906 -46.2601 -46.2601 -46.1131  -7.3468  -7.3141  -7.1495  -7.1100
    -7.0749  -7.0527  -6.9676  -6.8520  -6.8021  -6.7744  -6.7591  -6.7378
    -6.6974  -6.6778  -6.6024  -6.5985  -6.5324  -6.5244  -6.5207  -6.5119
    -6.4950  -6.4840  -6.4646  -6.4585  -6.3898  -6.3796  -6.3639  -6.3330
    -6.3279  -6.3121  -6.2531  -1.0738  -1.0733  -1.0728  -1.0560  -1.0454
    -1.0452  -1.0320  -1.0169  -1.0161  -0.9812  -0.9645  -0.9620  -0.9385
    -0.9372  -0.9298  -0.7159  -0.7145  -0.7070  -0.6962  -0.6935  -0.6917
    -0.6843  -0.6817  -0.6716  -0.6661  -0.6625  -0.6603  -0.6566  -0.6490
    -0.6488  -0.6432  -0.6390  -0.6379  -0.6335  -0.6321  -0.6286  -0.6241
    -0.6202  -0.6193  -0.6130  -0.6089  -0.6071  -0.6051  -0.5965  -0.5964
    -0.5946  -0.5893  -0.5827  -0.5794  -0.5741  -0.5722  -0.5704  -0.5661
    -0.5638  -0.5586  -0.5555  -0.5496  -0.5451  -0.5382  -0.5330  -0.5318
    -0.5266  -0.5204  -0.5184  -0.5098  -0.5074  -0.5037  -0.4994  -0.4963
    -0.4949  -0.4892  -0.4820  -0.4773  -0.4639  -0.4622  -0.4535  -0.4523
    -0.4462  -0.4428  -0.4388  -0.4231  -0.4152  -0.4087  -0.3789  -0.3753
    -0.3710  -0.3669  -0.3620  -0.3547  -0.3517  -0.3470  -0.3457  -0.3315
    -0.3227  -0.3126  -0.3058  -0.3032  -0.3012  -0.2925  -0.2872  -0.2792
    -0.2772  -0.2753  -0.2718  -0.2684  -0.2629  -0.2562  -0.2497  -0.2452
    -0.2435  -0.2407  -0.2393  -0.2373  -0.2361  -0.2339  -0.2320  -0.2272
    -0.2215  -0.2181  -0.2154  -0.2120  -0.2087  -0.2065  -0.2040  -0.2031
    -0.2005  -0.1964  -0.1939  -0.1897  -0.1851  -0.1767  -0.1695  -0.1661
    -0.1530  -0.1238  -0.1204  -0.1070  -0.1045  -0.0954  -0.0847  -0.0825
    -0.0766  -0.0713  -0.0639  -0.0544  -0.0480  -0.0358  -0.0190  -0.0042
    -0.0000   0.0163   0.0385   0.0457   0.0673   0.0936   0.6426   0.6653
     0.7755   0.8755   0.9015   0.9165   0.9783   0.9869   1.0047   1.0135
     1.0410   1.0767   1.0955   1.1126   1.1422   1.1631   1.2121   1.3529
     1.4500   1.5522   1.6025   1.6266   1.7096   1.7483   1.8122   1.9163
     2.3943   2.5491   2.6240   2.6418   2.6681   2.6817   2.6983   2.7137
     2.7824   2.8422   2.8631   2.8965   2.9267   2.9682   2.9948   3.0816
     3.2177   3.2575   3.3638   3.3810   3.4213   3.4548   3.4791   3.5290
     3.5497   3.5704   3.5793   3.6058   3.6215   3.6541   3.6919   3.7254
     3.7367   3.7546   3.7864   3.7908   3.7993   3.8223   3.8332   3.8547
     3.8670   4.0128   4.0326   4.0475   4.0790   4.0906   4.1558   4.1780
     4.2479   4.2711   4.3005   4.3268   4.3620   4.3858   4.4919   4.4925
     4.5254   4.5861   4.8223   4.8631   4.9077   4.9314   4.9581   4.9882
     5.0735   5.0917   5.1403   5.3283   6.1426   6.1625   6.2404   6.4532
     6.4819   7.9530   8.0457   8.7369   8.9783   9.1209   9.1422   9.2113
     9.4322   9.4590   9.5120   9.5892   9.6088   9.6735   9.7263   9.7431
     9.7459   9.8184   9.8505   9.8765   9.9051   9.9263   9.9701  10.0410
    10.0554  10.0843  10.1150  10.1365  10.1626  10.2371  10.2910  10.3507
    10.4575  10.4798  10.5010  10.6246  10.7259  10.8454  10.8758  10.8920
    10.9470  11.0428  11.0797  11.1846  11.3167  11.3898  11.4079  11.4723
    11.5242  11.5636  11.5876  11.6056  11.6565  11.6868  11.7089

     occupation numbers 
     1.0000   1.0000   1.0000   1.0000   1.0000   1.0000   1.0000   1.0000
     1.0000   1.0000   1.0000   1.0000   1.0000   1.0000   1.0000   1.0000
     1.0000   1.0000   1.0000   1.0000   1.0000   1.0000   1.0000   1.0000
     1.0000   1.0000   1.0000   1.0000   1.0000   1.0000   1.0000   1.0000
     1.0000   1.0000   1.0000   1.0000   1.0000   1.0000   1.0000   1.0000
     1.0000   1.0000   1.0000   1.0000   1.0000   1.0000   1.0000   1.0000
     1.0000   1.0000   1.0000   1.0000   1.0000   1.0000   1.0000   1.0000
     1.0000   1.0000   1.0000   1.0000   1.0000   1.0000   1.0000   1.0000
     1.0000   1.0000   1.0000   1.0000   1.0000   1.0000   1.0000   1.0000
     1.0000   1.0000   1.0000   1.0000   1.0000   1.0000   1.0000   1.0000
     1.0000   1.0000   1.0000   1.0000   1.0000   1.0000   1.0000   1.0000
     1.0000   1.0000   1.0000   1.0000   1.0000   1.0000   1.0000   1.0000
     1.0000   1.0000   1.0000   1.0000   1.0000   1.0000   1.0000   1.0000
     1.0000   1.0000   1.0000   1.0000   1.0000   1.0000   1.0000   1.0000
     1.0000   1.0000   1.0000   1.0000   1.0000   1.0000   1.0000   1.0000
     1.0000   1.0000   1.0000   1.0000   1.0000   1.0000   1.0000   1.0000
     1.0000   1.0000   1.0000   1.0000   1.0000   1.0000   1.0000   1.0000
     1.0000   1.0000   1.0000   1.0000   1.0000   1.0000   1.0000   1.0000
     1.0000   1.0000   1.0000   1.0000   1.0000   1.0000   1.0000   1.0000
     1.0000   1.0000   1.0000   1.0000   1.0000   1.0000   1.0000   1.0000
     1.0000   1.0000   1.0000   1.0000   1.0000   1.0000   1.0000   1.0000
     1.0000   1.0000   1.0000   1.0000   1.0000   1.0000   1.0000   1.0000
     1.0000   1.0000   1.0000   1.0000   1.0000   1.0000   1.0000   1.0000
     1.0000   1.0000   1.0000   1.0000   1.0000   1.0000   1.0000   1.0000
     1.0000   1.0000   1.0000   1.0000   1.0000   1.0000   1.0000   1.0000
     1.0000   1.0000   1.0000   1.0000   1.0000   1.0000   1.0000   1.0000
     1.0000   1.0000   1.0000   1.0000   1.0000   1.0000   1.0000   1.0000
     1.0000   1.0000   1.0000   1.0000   1.0000   1.0000   1.0000   1.0000
     1.0000   1.0000   1.0000   1.0000   1.0000   1.0000   1.0000   1.0000
     1.0000   1.0000   1.0000   1.0000   1.0000   1.0000   1.0000   1.0000
     1.0000   1.0000   1.0000   1.0000   1.0000   1.0000   1.0000   1.0000
     1.0000   1.0000   1.0000   1.0000   1.0000   1.0000   1.0000   1.0000
     1.0000   1.0000   1.0000   1.0000   1.0000   1.0000   1.0000   1.0000
     1.0000   1.0000   1.0000   1.0000   1.0000   1.0000   1.0000   1.0000
     1.0000   1.0000   1.0000   1.0000   1.0000   1.0000   1.0000   1.0000
     1.0000   1.0000   1.0000   1.0000   0.0000   0.0000   0.0000   0.0000
     0.0000   0.0000   0.0000   0.0000   0.0000   0.0000   0.0000   0.0000
     0.0000   0.0000   0.0000   0.0000   0.0000   0.0000   0.0000   0.0000
     0.0000   0.0000   0.0000   0.0000   0.0000   0.0000   0.0000   0.0000
     0.0000   0.0000   0.0000   0.0000   0.0000   0.0000   0.0000   0.0000
     0.0000   0.0000   0.0000   0.0000   0.0000   0.0000   0.0000   0.0000
     0.0000   0.0000   0.0000   0.0000   0.0000   0.0000   0.0000   0.0000
     0.0000   0.0000   0.0000   0.0000   0.0000   0.0000   0.0000

     the Fermi energy is     5.6762 ev

!    total energy              =   -9944.16821831 Ry
     total all-electron energy =   -138655.907196 Ry
     estimated scf accuracy    <          2.1E-09 Ry
     smearing contrib. (-TS)   =      -0.00000000 Ry
     internal energy E=F+TS    =   -9944.16821831 Ry

     The total energy is F=E-TS. E is the sum of the following terms:
     one-electron contribution =   -2895.76590237 Ry
     hartree contribution      =    2012.68992669 Ry
     xc contribution           =   -1648.29118645 Ry
     ewald contribution        =   -2941.96206788 Ry
     one-center paw contrib.   =   -4470.83898830 Ry
      -> PAW hartree energy AE =     123.03296270 Ry
      -> PAW hartree energy PS =    -122.39042771 Ry
      -> PAW xc energy AE      =    -143.18990680 Ry
      -> PAW xc energy PS      =      47.12890293 Ry
      -> total E_H with PAW    =    2013.33246167 Ry
      -> total E_XC with PAW   =   -1744.35219032 Ry

     total magnetization       =     4.00 Bohr mag/cell
     absolute magnetization    =     4.42 Bohr mag/cell

     convergence has been achieved in  18 iterations

     Writing all to output data dir ./out/Fe_vac_qp2_unrlxd.save/
 
     init_run     :      9.07s CPU      9.79s WALL (       1 calls)
     electrons    :    311.23s CPU    314.58s WALL (       1 calls)

     Called by init_run:
     wfcinit      :      2.76s CPU      3.05s WALL (       1 calls)
     wfcinit:atom :      0.02s CPU      0.03s WALL (       2 calls)
     wfcinit:wfcr :      2.64s CPU      2.89s WALL (       2 calls)
     potinit      :      0.77s CPU      0.88s WALL (       1 calls)
     hinit0       :      0.66s CPU      0.73s WALL (       1 calls)

     Called by electrons:
     c_bands      :    271.17s CPU    273.86s WALL (      19 calls)
     sum_band     :     33.74s CPU     34.06s WALL (      19 calls)
     v_of_rho     :      1.42s CPU      1.52s WALL (      19 calls)
     v_h          :      0.06s CPU      0.07s WALL (      19 calls)
     v_xc         :      1.36s CPU      1.46s WALL (      19 calls)
     newd         :      0.82s CPU      0.87s WALL (      19 calls)
     PAW_pot      :      3.62s CPU      3.68s WALL (      19 calls)
     mix_rho      :      0.48s CPU      0.52s WALL (      19 calls)

     Called by c_bands:
     init_us_2    :      2.13s CPU      2.15s WALL (      78 calls)
     init_us_2:cp :      2.13s CPU      2.15s WALL (      78 calls)
     cegterg      :    133.92s CPU    135.96s WALL (      38 calls)

     Called by sum_band:
     sum_band:wei :      0.06s CPU      0.07s WALL (      19 calls)
     sum_band:loo :     14.34s CPU     14.52s WALL (      19 calls)
     sum_band:buf :      0.32s CPU      0.38s WALL (      38 calls)
     sum_band:ini :      1.05s CPU      1.06s WALL (      38 calls)
     sum_band:cal :      5.42s CPU      5.46s WALL (      38 calls)
     sum_band:bec :      0.11s CPU      0.11s WALL (      38 calls)
     addusdens    :      0.97s CPU      1.00s WALL (      19 calls)
                                        0.00s GPU  (      19 calls)
     addusd:skk   :      0.01s CPU      0.01s WALL (      57 calls)
                                        0.00s GPU  (      57 calls)

     Called by *egterg:
     cdiaghg      :     13.24s CPU     13.47s WALL (     204 calls)
     cegterg:over :     10.18s CPU     10.26s WALL (     168 calls)
     cegterg:upda :      9.77s CPU      9.89s WALL (     168 calls)
     cegterg:last :     16.30s CPU     16.40s WALL (      78 calls)
     cdiaghg:chol :      0.88s CPU      0.94s WALL (     204 calls)
     cdiaghg:inve :      1.31s CPU      1.32s WALL (     204 calls)
     cdiaghg:para :      2.01s CPU      2.02s WALL (     408 calls)
     h_psi        :     67.50s CPU     68.60s WALL (     208 calls)
     s_psi        :     14.90s CPU     14.99s WALL (     208 calls)
     g_psi        :      0.35s CPU      0.35s WALL (     168 calls)

     Called by h_psi:
     h_psi:calbec :     14.66s CPU     14.79s WALL (     208 calls)
     vloc_psi     :     36.93s CPU     37.35s WALL (     208 calls)
     add_vuspsi   :     15.32s CPU     15.45s WALL (     208 calls)

     General routines
     calbec       :     20.08s CPU     20.25s WALL (     246 calls)
     fft          :      1.06s CPU      1.23s WALL (     399 calls)
     ffts         :      0.19s CPU      0.19s WALL (      38 calls)
     fftw         :     41.00s CPU     41.45s WALL (   76248 calls)
 
     Parallel routines

     PAW routines
     PAW_pot      :      3.62s CPU      3.68s WALL (      19 calls)
     PAW_symme    :      0.23s CPU      0.24s WALL (      38 calls)
 
     PWSCF        :   5m25.65s CPU   5m33.58s WALL

 
   This run was terminated on:   1:30:33   7Jul2024            

=------------------------------------------------------------------------------=
   JOB DONE.
=------------------------------------------------------------------------------=
