
     Program PWSCF v.7.2 starts on  5Jul2024 at 11:55: 6 

     This program is part of the open-source Quantum ESPRESSO suite
     for quantum simulation of materials; please cite
         "P. Giannozzi et al., J. Phys.:Condens. Matter 21 395502 (2009);
         "P. Giannozzi et al., J. Phys.:Condens. Matter 29 465901 (2017);
         "P. Giannozzi et al., J. Chem. Phys. 152 154105 (2020);
          URL http://www.quantum-espresso.org", 
     in publications or presentations arising from this work. More details at
     http://www.quantum-espresso.org/quote

     Parallel version (MPI), running on  1120 processors

     MPI processes distributed on    10 nodes
     234013 MiB available memory on the printing compute node when the environment starts
 
     Reading input from 3.Fe_in_ZnS.nscf.q0.in

     Current dimensions of program PWSCF are:
     Max number of different atomic species (ntypx) = 10
     Max number of k-points (npk) =  40000
     Max angular momentum in pseudopotentials (lmaxx) =  4

     Atomic positions and unit cell read from directory:
     ./out/Fe_q0.save/
 
     file S.pbe-n-kjpaw_psl.1.0.0.UPF: wavefunction(s)  3S 3P renormalized
     file Zn.pbe-dnl-kjpaw_psl.1.0.0.UPF: wavefunction(s)  4S 3D renormalized
     file Fe.pbe-spn-kjpaw_psl.1.0.0.UPF: wavefunction(s)  3P 3D renormalized
     [opt_tetra]  Optimized tetrahedron method is used.
 
     K-points division:     npool     =      10
     R & G space division:  proc/nbgrp/npool/nimage =     112
     Subspace diagonalization in iterative solution of the eigenvalue problem:
     one sub-group per band group will be used
     scalapack distributed-memory algorithm (size of sub-group:  3*  3 procs)

 
     Parallelization info
     --------------------
     sticks:   dense  smooth     PW     G-vecs:    dense   smooth      PW
     Min         180     180     46                19282    19282    2562
     Max         181     181     47                19291    19291    2573
     Sum       20217   20217   5249              2160009  2160009  287777
 
     Using Slab Decomposition
 


     bravais-lattice index     =            1
     lattice parameter (alat)  =      20.5686  a.u.
     unit-cell volume          =    8701.8437 (a.u.)^3
     number of atoms/cell      =           64
     number of atomic types    =            3
     number of electrons       =       580.00
     number of Kohn-Sham states=          348
     kinetic-energy cutoff     =     150.0000  Ry
     charge density cutoff     =     600.0000  Ry
     Exchange-correlation= SLA  PW   PBX  PBC
                           (   1   4   3   4   0   0   0)

     celldm(1)=  20.568554  celldm(2)=   0.000000  celldm(3)=   0.000000
     celldm(4)=   0.000000  celldm(5)=   0.000000  celldm(6)=   0.000000

     crystal axes: (cart. coord. in units of alat)
               a(1) = (   1.000000   0.000000   0.000000 )  
               a(2) = (   0.000000   1.000000   0.000000 )  
               a(3) = (   0.000000   0.000000   1.000000 )  

     reciprocal axes: (cart. coord. in units 2 pi/alat)
               b(1) = (  1.000000  0.000000  0.000000 )  
               b(2) = (  0.000000  1.000000  0.000000 )  
               b(3) = (  0.000000  0.000000  1.000000 )  


     PseudoPot. # 1 for S  read from file:
     /arf/home/amuhaymin/pseudo/S.pbe-n-kjpaw_psl.1.0.0.UPF
     MD5 check sum: fb45dfebcf3e72a4e1bd4a866ec2e262
     Pseudo is Projector augmented-wave + core cor, Zval =  6.0
     Generated using &quot;atomic&quot; code by A. Dal Corso  v.6.3
     Shape of augmentation charge: PSQ
     Using radial grid of 1151 points,  6 beta functions with: 
                l(1) =   0
                l(2) =   0
                l(3) =   1
                l(4) =   1
                l(5) =   2
                l(6) =   2
     Q(r) pseudized with 0 coefficients 


     PseudoPot. # 2 for Zn read from file:
     /arf/home/amuhaymin/pseudo/Zn.pbe-dnl-kjpaw_psl.1.0.0.UPF
     MD5 check sum: c608214d9520ac179f507641260889e3
     Pseudo is Projector augmented-wave + core cor, Zval = 12.0
     Generated using &quot;atomic&quot; code by A. Dal Corso  v.6.2.2
     Shape of augmentation charge: PSQ
     Using radial grid of 1201 points,  6 beta functions with: 
                l(1) =   0
                l(2) =   0
                l(3) =   1
                l(4) =   1
                l(5) =   2
                l(6) =   2
     Q(r) pseudized with 0 coefficients 


     PseudoPot. # 3 for Fe read from file:
     /arf/home/amuhaymin/pseudo/Fe.pbe-spn-kjpaw_psl.1.0.0.UPF
     MD5 check sum: fc81f059e5c5069939230b1155715ae8
     Pseudo is Projector augmented-wave + core cor, Zval = 16.0
     Generated using &quot;atomic&quot; code by A. Dal Corso  v.6.3
     Shape of augmentation charge: PSQ
     Using radial grid of 1191 points,  6 beta functions with: 
                l(1) =   0
                l(2) =   0
                l(3) =   1
                l(4) =   1
                l(5) =   2
                l(6) =   2
     Q(r) pseudized with 0 coefficients 


     atomic species   valence    mass     pseudopotential
        S              6.00    32.06500     S ( 1.00)
        Zn            12.00    65.38000     Zn( 1.00)
        Fe            16.00    63.54600     Fe( 1.00)

     Starting magnetic structure 
     atomic species   magnetization
        S            0.000
        Zn           0.000
        Fe           0.250

     24 Sym. Ops. (no inversion) found


                                    s                        frac. trans.

      isym =  1     identity                                     

 cryst.   s( 1) = (     1          0          0      )
                  (     0          1          0      )
                  (     0          0          1      )

 cart.    s( 1) = (  1.0000000  0.0000000  0.0000000 )
                  (  0.0000000  1.0000000  0.0000000 )
                  (  0.0000000  0.0000000  1.0000000 )


      isym =  2     180 deg rotation - cart. axis [0,0,1]        

 cryst.   s( 2) = (    -1          0          0      )
                  (     0         -1          0      )
                  (     0          0          1      )

 cart.    s( 2) = ( -1.0000000  0.0000000  0.0000000 )
                  (  0.0000000 -1.0000000  0.0000000 )
                  (  0.0000000  0.0000000  1.0000000 )


      isym =  3     180 deg rotation - cart. axis [0,1,0]        

 cryst.   s( 3) = (    -1          0          0      )
                  (     0          1          0      )
                  (     0          0         -1      )

 cart.    s( 3) = ( -1.0000000  0.0000000  0.0000000 )
                  (  0.0000000  1.0000000  0.0000000 )
                  (  0.0000000  0.0000000 -1.0000000 )


      isym =  4     180 deg rotation - cart. axis [1,0,0]        

 cryst.   s( 4) = (     1          0          0      )
                  (     0         -1          0      )
                  (     0          0         -1      )

 cart.    s( 4) = (  1.0000000  0.0000000  0.0000000 )
                  (  0.0000000 -1.0000000  0.0000000 )
                  (  0.0000000  0.0000000 -1.0000000 )


      isym =  5     120 deg rotation - cart. axis [-1,-1,-1]     

 cryst.   s( 5) = (     0          0          1      )
                  (     1          0          0      )
                  (     0          1          0      )

 cart.    s( 5) = (  0.0000000  1.0000000  0.0000000 )
                  (  0.0000000  0.0000000  1.0000000 )
                  (  1.0000000  0.0000000  0.0000000 )


      isym =  6     120 deg rotation - cart. axis [-1,1,1]       

 cryst.   s( 6) = (     0          0         -1      )
                  (    -1          0          0      )
                  (     0          1          0      )

 cart.    s( 6) = (  0.0000000 -1.0000000  0.0000000 )
                  (  0.0000000  0.0000000  1.0000000 )
                  ( -1.0000000  0.0000000  0.0000000 )


      isym =  7     120 deg rotation - cart. axis [1,1,-1]       

 cryst.   s( 7) = (     0          0         -1      )
                  (     1          0          0      )
                  (     0         -1          0      )

 cart.    s( 7) = (  0.0000000  1.0000000  0.0000000 )
                  (  0.0000000  0.0000000 -1.0000000 )
                  ( -1.0000000  0.0000000  0.0000000 )


      isym =  8     120 deg rotation - cart. axis [1,-1,1]       

 cryst.   s( 8) = (     0          0          1      )
                  (    -1          0          0      )
                  (     0         -1          0      )

 cart.    s( 8) = (  0.0000000 -1.0000000  0.0000000 )
                  (  0.0000000  0.0000000 -1.0000000 )
                  (  1.0000000  0.0000000  0.0000000 )


      isym =  9     120 deg rotation - cart. axis [1,1,1]        

 cryst.   s( 9) = (     0          1          0      )
                  (     0          0          1      )
                  (     1          0          0      )

 cart.    s( 9) = (  0.0000000  0.0000000  1.0000000 )
                  (  1.0000000  0.0000000  0.0000000 )
                  (  0.0000000  1.0000000  0.0000000 )


      isym = 10     120 deg rotation - cart. axis [-1,1,-1]      

 cryst.   s(10) = (     0         -1          0      )
                  (     0          0         -1      )
                  (     1          0          0      )

 cart.    s(10) = (  0.0000000  0.0000000  1.0000000 )
                  ( -1.0000000  0.0000000  0.0000000 )
                  (  0.0000000 -1.0000000  0.0000000 )


      isym = 11     120 deg rotation - cart. axis [1,-1,-1]      

 cryst.   s(11) = (     0         -1          0      )
                  (     0          0          1      )
                  (    -1          0          0      )

 cart.    s(11) = (  0.0000000  0.0000000 -1.0000000 )
                  ( -1.0000000  0.0000000  0.0000000 )
                  (  0.0000000  1.0000000  0.0000000 )


      isym = 12     120 deg rotation - cart. axis [-1,-1,1]      

 cryst.   s(12) = (     0          1          0      )
                  (     0          0         -1      )
                  (    -1          0          0      )

 cart.    s(12) = (  0.0000000  0.0000000 -1.0000000 )
                  (  1.0000000  0.0000000  0.0000000 )
                  (  0.0000000 -1.0000000  0.0000000 )


      isym = 13     inv. 180 deg rotation - cart. axis [1,1,0]   

 cryst.   s(13) = (     0         -1          0      )
                  (    -1          0          0      )
                  (     0          0          1      )

 cart.    s(13) = (  0.0000000 -1.0000000  0.0000000 )
                  ( -1.0000000  0.0000000  0.0000000 )
                  (  0.0000000  0.0000000  1.0000000 )


      isym = 14     inv. 180 deg rotation - cart. axis [1,-1,0]  

 cryst.   s(14) = (     0          1          0      )
                  (     1          0          0      )
                  (     0          0          1      )

 cart.    s(14) = (  0.0000000  1.0000000  0.0000000 )
                  (  1.0000000  0.0000000  0.0000000 )
                  (  0.0000000  0.0000000  1.0000000 )


      isym = 15     inv.  90 deg rotation - cart. axis [0,0,-1]  

 cryst.   s(15) = (     0          1          0      )
                  (    -1          0          0      )
                  (     0          0         -1      )

 cart.    s(15) = (  0.0000000 -1.0000000  0.0000000 )
                  (  1.0000000  0.0000000  0.0000000 )
                  (  0.0000000  0.0000000 -1.0000000 )


      isym = 16     inv.  90 deg rotation - cart. axis [0,0,1]   

 cryst.   s(16) = (     0         -1          0      )
                  (     1          0          0      )
                  (     0          0         -1      )

 cart.    s(16) = (  0.0000000  1.0000000  0.0000000 )
                  ( -1.0000000  0.0000000  0.0000000 )
                  (  0.0000000  0.0000000 -1.0000000 )


      isym = 17     inv. 180 deg rotation - cart. axis [1,0,1]   

 cryst.   s(17) = (     0          0         -1      )
                  (     0          1          0      )
                  (    -1          0          0      )

 cart.    s(17) = (  0.0000000  0.0000000 -1.0000000 )
                  (  0.0000000  1.0000000  0.0000000 )
                  ( -1.0000000  0.0000000  0.0000000 )


      isym = 18     inv. 180 deg rotation - cart. axis [-1,0,1]  

 cryst.   s(18) = (     0          0          1      )
                  (     0          1          0      )
                  (     1          0          0      )

 cart.    s(18) = (  0.0000000  0.0000000  1.0000000 )
                  (  0.0000000  1.0000000  0.0000000 )
                  (  1.0000000  0.0000000  0.0000000 )


      isym = 19     inv.  90 deg rotation - cart. axis [0,1,0]   

 cryst.   s(19) = (     0          0          1      )
                  (     0         -1          0      )
                  (    -1          0          0      )

 cart.    s(19) = (  0.0000000  0.0000000 -1.0000000 )
                  (  0.0000000 -1.0000000  0.0000000 )
                  (  1.0000000  0.0000000  0.0000000 )


      isym = 20     inv.  90 deg rotation - cart. axis [0,-1,0]  

 cryst.   s(20) = (     0          0         -1      )
                  (     0         -1          0      )
                  (     1          0          0      )

 cart.    s(20) = (  0.0000000  0.0000000  1.0000000 )
                  (  0.0000000 -1.0000000  0.0000000 )
                  ( -1.0000000  0.0000000  0.0000000 )


      isym = 21     inv. 180 deg rotation - cart. axis [0,1,1]   

 cryst.   s(21) = (     1          0          0      )
                  (     0          0         -1      )
                  (     0         -1          0      )

 cart.    s(21) = (  1.0000000  0.0000000  0.0000000 )
                  (  0.0000000  0.0000000 -1.0000000 )
                  (  0.0000000 -1.0000000  0.0000000 )


      isym = 22     inv. 180 deg rotation - cart. axis [0,1,-1]  

 cryst.   s(22) = (     1          0          0      )
                  (     0          0          1      )
                  (     0          1          0      )

 cart.    s(22) = (  1.0000000  0.0000000  0.0000000 )
                  (  0.0000000  0.0000000  1.0000000 )
                  (  0.0000000  1.0000000  0.0000000 )


      isym = 23     inv.  90 deg rotation - cart. axis [-1,0,0]  

 cryst.   s(23) = (    -1          0          0      )
                  (     0          0          1      )
                  (     0         -1          0      )

 cart.    s(23) = ( -1.0000000  0.0000000  0.0000000 )
                  (  0.0000000  0.0000000 -1.0000000 )
                  (  0.0000000  1.0000000  0.0000000 )


      isym = 24     inv.  90 deg rotation - cart. axis [1,0,0]   

 cryst.   s(24) = (    -1          0          0      )
                  (     0          0         -1      )
                  (     0          1          0      )

 cart.    s(24) = ( -1.0000000  0.0000000  0.0000000 )
                  (  0.0000000  0.0000000  1.0000000 )
                  (  0.0000000 -1.0000000  0.0000000 )


     point group T_d (-43m) 
     there are  5 classes
     the character table:

       E     8C3   3C2   6S4   6s_d 
A_1    1.00  1.00  1.00  1.00  1.00
A_2    1.00  1.00  1.00 -1.00 -1.00
E      2.00 -1.00  2.00  0.00  0.00
T_1    3.00  0.00 -1.00  1.00 -1.00
T_2    3.00  0.00 -1.00 -1.00  1.00

     the symmetry operations in each class and the name of the first element:

     E        1
          identity                                               
     8C3      5    7    8    6   12    9   10   11
          120 deg rotation - cart. axis [-1,-1,-1]               
     3C2      2    3    4
          180 deg rotation - cart. axis [0,0,1]                  
     6S4     15   16   20   19   23   24
          inv.  90 deg rotation - cart. axis [0,0,-1]            
     6s_d    13   14   17   18   21   22
          inv. 180 deg rotation - cart. axis [1,1,0]             

   Cartesian axes

     site n.     atom                  positions (alat units)
         1           Zn  tau(   1) = (   0.0000000   0.0000000   0.0000000  )
         2           Zn  tau(   2) = (   0.0000768   0.2500361   0.2500361  )
         3           Zn  tau(   3) = (   0.2500361   0.0000768   0.2500361  )
         4           Zn  tau(   4) = (   0.2500361   0.2500361   0.0000768  )
         5           S   tau(   5) = (   0.1250707   0.3750436   0.3750436  )
         6           S   tau(   6) = (   0.1250009   0.1250009   0.1250009  )
         7           S   tau(   7) = (   0.3750436   0.3750436   0.1250707  )
         8           S   tau(   8) = (   0.3750436   0.1250707   0.3750436  )
         9           Zn  tau(   9) = (   0.0000000   0.0000000   0.5000000  )
        10           Zn  tau(  10) = (  -0.0000768   0.2500361   0.7499639  )
        11           Zn  tau(  11) = (   0.2500361  -0.0000768   0.7499639  )
        12           Zn  tau(  12) = (   0.2502072   0.2502072   0.5002164  )
        13           S   tau(  13) = (   0.1250639   0.3749724   0.8749361  )
        14           S   tau(  14) = (   0.1250639   0.1250639   0.6250276  )
        15           S   tau(  15) = (   0.3761959   0.3761959   0.6238041  )
        16           S   tau(  16) = (   0.3749724   0.1250639   0.8749361  )
        17           Zn  tau(  17) = (   0.0000000   0.5000000   0.0000000  )
        18           Zn  tau(  18) = (  -0.0000768   0.7499639   0.2500361  )
        19           Zn  tau(  19) = (   0.2502072   0.5002164   0.2502072  )
        20           Zn  tau(  20) = (   0.2500361   0.7499639  -0.0000768  )
        21           S   tau(  21) = (   0.1250639   0.8749361   0.3749724  )
        22           S   tau(  22) = (   0.1250639   0.6250276   0.1250639  )
        23           S   tau(  23) = (   0.3749724   0.8749361   0.1250639  )
        24           S   tau(  24) = (   0.3761959   0.6238041   0.3761959  )
        25           Zn  tau(  25) = (   0.0000000   0.5000000   0.5000000  )
        26           Zn  tau(  26) = (   0.0000768   0.7499639   0.7499639  )
        27           Zn  tau(  27) = (   0.2502072   0.4997836   0.7497928  )
        28           Zn  tau(  28) = (   0.2502072   0.7497928   0.4997836  )
        29           S   tau(  29) = (   0.1250009   0.8749991   0.8749991  )
        30           S   tau(  30) = (   0.1250707   0.6249564   0.6249564  )
        31           S   tau(  31) = (   0.3750436   0.8749293   0.6249564  )
        32           S   tau(  32) = (   0.3750436   0.6249564   0.8749293  )
        33           Zn  tau(  33) = (   0.5000000   0.0000000   0.0000000  )
        34           Zn  tau(  34) = (   0.5002164   0.2502072   0.2502072  )
        35           Zn  tau(  35) = (   0.7499639  -0.0000768   0.2500361  )
        36           Zn  tau(  36) = (   0.7499639   0.2500361  -0.0000768  )
        37           S   tau(  37) = (   0.6238041   0.3761959   0.3761959  )
        38           S   tau(  38) = (   0.6250276   0.1250639   0.1250639  )
        39           S   tau(  39) = (   0.8749361   0.3749724   0.1250639  )
        40           S   tau(  40) = (   0.8749361   0.1250639   0.3749724  )
        41           Zn  tau(  41) = (   0.5000000   0.0000000   0.5000000  )
        42           Zn  tau(  42) = (   0.4997836   0.2502072   0.7497928  )
        43           Zn  tau(  43) = (   0.7499639   0.0000768   0.7499639  )
        44           Zn  tau(  44) = (   0.7497928   0.2502072   0.4997836  )
        45           S   tau(  45) = (   0.6249564   0.3750436   0.8749293  )
        46           S   tau(  46) = (   0.6249564   0.1250707   0.6249564  )
        47           S   tau(  47) = (   0.8749293   0.3750436   0.6249564  )
        48           S   tau(  48) = (   0.8749991   0.1250009   0.8749991  )
        49           Zn  tau(  49) = (   0.5000000   0.5000000   0.0000000  )
        50           Zn  tau(  50) = (   0.4997836   0.7497928   0.2502072  )
        51           Zn  tau(  51) = (   0.7497928   0.4997836   0.2502072  )
        52           Zn  tau(  52) = (   0.7499639   0.7499639   0.0000768  )
        53           S   tau(  53) = (   0.6249564   0.8749293   0.3750436  )
        54           S   tau(  54) = (   0.6249564   0.6249564   0.1250707  )
        55           S   tau(  55) = (   0.8749991   0.8749991   0.1250009  )
        56           S   tau(  56) = (   0.8749293   0.6249564   0.3750436  )
        57           Fe  tau(  57) = (   0.5000000   0.5000000   0.5000000  )
        58           Zn  tau(  58) = (   0.5002164   0.7497928   0.7497928  )
        59           Zn  tau(  59) = (   0.7497928   0.5002164   0.7497928  )
        60           Zn  tau(  60) = (   0.7497928   0.7497928   0.5002164  )
        61           S   tau(  61) = (   0.6250276   0.8749361   0.8749361  )
        62           S   tau(  62) = (   0.6238041   0.6238041   0.6238041  )
        63           S   tau(  63) = (   0.8749361   0.8749361   0.6250276  )
        64           S   tau(  64) = (   0.8749361   0.6250276   0.8749361  )

   Crystallographic axes

     site n.     atom                  positions (cryst. coord.)
         1           Zn  tau(   1) = (  0.0000000  0.0000000  0.0000000  )
         2           Zn  tau(   2) = (  0.0000768  0.2500361  0.2500361  )
         3           Zn  tau(   3) = (  0.2500361  0.0000768  0.2500361  )
         4           Zn  tau(   4) = (  0.2500361  0.2500361  0.0000768  )
         5           S   tau(   5) = (  0.1250707  0.3750436  0.3750436  )
         6           S   tau(   6) = (  0.1250009  0.1250009  0.1250009  )
         7           S   tau(   7) = (  0.3750436  0.3750436  0.1250707  )
         8           S   tau(   8) = (  0.3750436  0.1250707  0.3750436  )
         9           Zn  tau(   9) = (  0.0000000  0.0000000  0.5000000  )
        10           Zn  tau(  10) = ( -0.0000768  0.2500361  0.7499639  )
        11           Zn  tau(  11) = (  0.2500361 -0.0000768  0.7499639  )
        12           Zn  tau(  12) = (  0.2502072  0.2502072  0.5002164  )
        13           S   tau(  13) = (  0.1250639  0.3749724  0.8749361  )
        14           S   tau(  14) = (  0.1250639  0.1250639  0.6250276  )
        15           S   tau(  15) = (  0.3761959  0.3761959  0.6238041  )
        16           S   tau(  16) = (  0.3749724  0.1250639  0.8749361  )
        17           Zn  tau(  17) = (  0.0000000  0.5000000  0.0000000  )
        18           Zn  tau(  18) = ( -0.0000768  0.7499639  0.2500361  )
        19           Zn  tau(  19) = (  0.2502072  0.5002164  0.2502072  )
        20           Zn  tau(  20) = (  0.2500361  0.7499639 -0.0000768  )
        21           S   tau(  21) = (  0.1250639  0.8749361  0.3749724  )
        22           S   tau(  22) = (  0.1250639  0.6250276  0.1250639  )
        23           S   tau(  23) = (  0.3749724  0.8749361  0.1250639  )
        24           S   tau(  24) = (  0.3761959  0.6238041  0.3761959  )
        25           Zn  tau(  25) = (  0.0000000  0.5000000  0.5000000  )
        26           Zn  tau(  26) = (  0.0000768  0.7499639  0.7499639  )
        27           Zn  tau(  27) = (  0.2502072  0.4997836  0.7497928  )
        28           Zn  tau(  28) = (  0.2502072  0.7497928  0.4997836  )
        29           S   tau(  29) = (  0.1250009  0.8749991  0.8749991  )
        30           S   tau(  30) = (  0.1250707  0.6249564  0.6249564  )
        31           S   tau(  31) = (  0.3750436  0.8749293  0.6249564  )
        32           S   tau(  32) = (  0.3750436  0.6249564  0.8749293  )
        33           Zn  tau(  33) = (  0.5000000  0.0000000  0.0000000  )
        34           Zn  tau(  34) = (  0.5002164  0.2502072  0.2502072  )
        35           Zn  tau(  35) = (  0.7499639 -0.0000768  0.2500361  )
        36           Zn  tau(  36) = (  0.7499639  0.2500361 -0.0000768  )
        37           S   tau(  37) = (  0.6238041  0.3761959  0.3761959  )
        38           S   tau(  38) = (  0.6250276  0.1250639  0.1250639  )
        39           S   tau(  39) = (  0.8749361  0.3749724  0.1250639  )
        40           S   tau(  40) = (  0.8749361  0.1250639  0.3749724  )
        41           Zn  tau(  41) = (  0.5000000  0.0000000  0.5000000  )
        42           Zn  tau(  42) = (  0.4997836  0.2502072  0.7497928  )
        43           Zn  tau(  43) = (  0.7499639  0.0000768  0.7499639  )
        44           Zn  tau(  44) = (  0.7497928  0.2502072  0.4997836  )
        45           S   tau(  45) = (  0.6249564  0.3750436  0.8749293  )
        46           S   tau(  46) = (  0.6249564  0.1250707  0.6249564  )
        47           S   tau(  47) = (  0.8749293  0.3750436  0.6249564  )
        48           S   tau(  48) = (  0.8749991  0.1250009  0.8749991  )
        49           Zn  tau(  49) = (  0.5000000  0.5000000  0.0000000  )
        50           Zn  tau(  50) = (  0.4997836  0.7497928  0.2502072  )
        51           Zn  tau(  51) = (  0.7497928  0.4997836  0.2502072  )
        52           Zn  tau(  52) = (  0.7499639  0.7499639  0.0000768  )
        53           S   tau(  53) = (  0.6249564  0.8749293  0.3750436  )
        54           S   tau(  54) = (  0.6249564  0.6249564  0.1250707  )
        55           S   tau(  55) = (  0.8749991  0.8749991  0.1250009  )
        56           S   tau(  56) = (  0.8749293  0.6249564  0.3750436  )
        57           Fe  tau(  57) = (  0.5000000  0.5000000  0.5000000  )
        58           Zn  tau(  58) = (  0.5002164  0.7497928  0.7497928  )
        59           Zn  tau(  59) = (  0.7497928  0.5002164  0.7497928  )
        60           Zn  tau(  60) = (  0.7497928  0.7497928  0.5002164  )
        61           S   tau(  61) = (  0.6250276  0.8749361  0.8749361  )
        62           S   tau(  62) = (  0.6238041  0.6238041  0.6238041  )
        63           S   tau(  63) = (  0.8749361  0.8749361  0.6250276  )
        64           S   tau(  64) = (  0.8749361  0.6250276  0.8749361  )

     number of k points=    10 (tetrahedron method)
                       cart. coord. in units 2pi/alat
        k(    1) = (   0.0000000   0.0000000   0.0000000), wk =   0.0156250
        k(    2) = (   0.0000000   0.0000000   0.2500000), wk =   0.0937500
        k(    3) = (   0.0000000   0.0000000  -0.5000000), wk =   0.0468750
        k(    4) = (   0.0000000   0.2500000   0.2500000), wk =   0.1875000
        k(    5) = (   0.0000000   0.2500000  -0.5000000), wk =   0.1875000
        k(    6) = (   0.0000000  -0.5000000  -0.5000000), wk =   0.0468750
        k(    7) = (   0.2500000   0.2500000   0.2500000), wk =   0.1250000
        k(    8) = (   0.2500000   0.2500000  -0.5000000), wk =   0.1875000
        k(    9) = (   0.2500000  -0.5000000  -0.5000000), wk =   0.0937500
        k(   10) = (  -0.5000000  -0.5000000  -0.5000000), wk =   0.0156250

                       cryst. coord.
        k(    1) = (   0.0000000   0.0000000   0.0000000), wk =   0.0156250
        k(    2) = (   0.0000000   0.0000000   0.2500000), wk =   0.0937500
        k(    3) = (   0.0000000   0.0000000  -0.5000000), wk =   0.0468750
        k(    4) = (   0.0000000   0.2500000   0.2500000), wk =   0.1875000
        k(    5) = (   0.0000000   0.2500000  -0.5000000), wk =   0.1875000
        k(    6) = (   0.0000000  -0.5000000  -0.5000000), wk =   0.0468750
        k(    7) = (   0.2500000   0.2500000   0.2500000), wk =   0.1250000
        k(    8) = (   0.2500000   0.2500000  -0.5000000), wk =   0.1875000
        k(    9) = (   0.2500000  -0.5000000  -0.5000000), wk =   0.0937500
        k(   10) = (  -0.5000000  -0.5000000  -0.5000000), wk =   0.0156250

     Dense  grid:  2160009 G-vectors     FFT dimensions: ( 162, 162, 162)

     Dynamical RAM for                 wfc:      12.80 MB

     Dynamical RAM for     wfc (w. buffer):      38.39 MB

     Dynamical RAM for           str. fact:       0.88 MB

     Dynamical RAM for           local pot:       0.00 MB

     Dynamical RAM for          nlocal pot:      42.36 MB

     Dynamical RAM for                qrad:       5.90 MB

     Dynamical RAM for          rho,v,vnew:       4.17 MB

     Dynamical RAM for           G-vectors:       1.25 MB

     Dynamical RAM for          h,s,v(r/c):       2.46 MB

     Dynamical RAM for          <psi|beta>:       6.12 MB

     Dynamical RAM for                 psi:      25.59 MB

     Dynamical RAM for                hpsi:      25.59 MB

     Dynamical RAM for                spsi:      25.59 MB

     Dynamical RAM for      wfcinit/wfcrot:      34.65 MB

     Dynamical RAM for           addusdens:       6.97 MB

     Estimated static dynamical RAM per process >      96.53 MB

     Estimated max dynamical RAM per process >     181.90 MB

     Estimated total dynamical RAM >     198.95 GB
     Generating pointlists ...
     new r_m :   0.0885 (alat units)  1.8194 (a.u.) for type    1
     new r_m :   0.0893 (alat units)  1.8369 (a.u.) for type    2
     new r_m :   0.0885 (alat units)  1.8194 (a.u.) for type    3

     The potential is recalculated from file :
     ./out/Fe_q0.save/charge-density


     negative rho (up, down):  0.000E+00 2.676E-04
     Starting wfcs are  417 randomized atomic wfcs
     Checking if some PAW data can be deallocated... 
       PAW data deallocated on  560 nodes for type:  1
       PAW data deallocated on  577 nodes for type:  2
       PAW data deallocated on 1103 nodes for type:  3

     Band Structure Calculation
     Davidson diagonalization with overlap

     Computing kpt #:     1  of     2 on this pool
     c_bands:  6 eigenvalues not converged
     total cpu time spent up to now is       94.3 secs

     Computing kpt #:     2  of     2 on this pool
     c_bands:  3 eigenvalues not converged
     total cpu time spent up to now is      160.8 secs

     ethr =  1.72E-12,  avg # of iterations =104.7

     total cpu time spent up to now is      162.2 secs

     End of band structure calculation

 ------ SPIN UP ------------


          k = 0.0000 0.0000 0.0000 (269825 PWs)   bands (ev):

   -82.4431 -48.5013 -48.5013 -48.5013  -7.4255  -6.8867  -6.8867  -6.8867
    -6.8858  -6.8858  -6.8800  -6.5669  -6.5669  -6.5669  -6.5627  -6.5627
    -6.5627  -6.5625  -6.5625  -6.5625  -6.5625  -6.5625  -6.5575  -6.5398
    -6.5398  -6.5398  -6.5314  -6.2406  -6.2406  -6.2406  -6.2366  -6.2366
    -6.2366  -6.2333  -6.2333  -6.2333  -0.6815  -0.6815  -0.6804  -0.6765
    -0.6765  -0.6765  -0.6478  -0.6473  -0.6473  -0.6343  -0.6343  -0.6343
    -0.5303  -0.5303  -0.5303  -0.5290  -0.5290  -0.5284  -0.5284  -0.5284
    -0.5213  -0.5213  -0.5213  -0.5207  -0.5207  -0.5207  -0.5201  -0.5179
    -0.5179  -0.5148  -0.5148  -0.5148  -0.5102  -0.5082  -0.5082  -0.5082
    -0.5004  -0.5004  -0.5004  -0.5004  -0.5004  -0.5004  -0.5002  -0.5002
    -0.5002  -0.4957  -0.4957  -0.4934  -0.4934  -0.4934  -0.4913  -0.4913
    -0.4913  -0.4897  -0.4893  -0.4893  -0.4893  -0.4706  -0.4706  -0.4149
    -0.4149  -0.4149  -0.3698  -0.3698  -0.3698  -0.3666  -0.3666  -0.3666
    -0.3632  -0.3632  -0.3632  -0.3630  -0.3630  -0.3630  -0.3542  -0.3542
    -0.3409  -0.3262  -0.3262  -0.3262  -0.3110  -0.3110  -0.3110  -0.2263
    -0.2263  -0.2263  -0.2168  -0.2168  -0.2168  -0.2103  -0.2103  -0.2094
    -0.1981  -0.1981  -0.1981  -0.1972  -0.1971  -0.1971  -0.1957  -0.1901
    -0.1901  -0.1787  -0.1787  -0.1787  -0.1750  -0.1750  -0.1750  -0.1748
    -0.1748  -0.1748  -0.1736  -0.1636  -0.1636  -0.1485  -0.1485  -0.1421
    -0.1421  -0.1421  -0.1320  -0.1320  -0.1320  -0.1273  -0.1273  -0.1251
    -0.1251  -0.1251  -0.1242  -0.1177  -0.1177  -0.1177  -0.1111  -0.1111
    -0.1017  -0.1017  -0.1017  -0.1016  -0.1016  -0.1016  -0.0954  -0.0903
    -0.0903  -0.0891  -0.0047  -0.0047  -0.0047   0.0350   0.0434   0.0434
     0.0434   0.1766   0.1766   0.1766   0.2191   0.2191   0.2191   0.4158
     0.4158   0.4158   0.4597   1.0450   1.0450   1.0861   1.0861   1.0861
     1.0955   1.0955   1.1000   1.2443   1.5013   1.5013   1.5013   1.6972
     1.6972   1.6979   1.6979   1.6979   1.7006   1.7006   1.7006   1.9102
     2.4957   2.4957   2.4957   2.6740   2.6740   2.9259   2.9259   2.9259
     2.9293   2.9293   2.9293   2.9495   2.9685   2.9685   2.9685   3.0146
     3.0146   3.1000   3.1020   3.1020   3.1053   3.1053   3.1053   3.1471
     3.1471   3.1471   3.1507   3.1507   3.1507   3.2299   3.3658   3.3658
     3.3658   3.4243   3.4243   3.4243   3.6426   3.6426   3.6426   4.0349
     4.0349   4.3798   4.3798   4.3798   4.3856   4.3856   4.3856   4.3881
     4.3881   4.3881   4.5043   4.5043   4.5043   4.6999   4.6999   4.6999
     4.7045   4.7045   4.7045   4.7060   4.7241   4.7241   4.7241   4.7261
     4.7261   4.7345   4.7345   4.7345   4.9971   4.9971   5.2107   5.2107
     5.2107   5.7607   5.7607   5.7607   7.6055   8.8351   8.8351   8.8351
     8.9226   9.0482   9.0482   9.0482   9.6580   9.6580   9.6875  10.0046
    10.0046  10.0046  10.0118  10.0118  10.0328  10.1419  10.1419  10.1609
    10.1609  10.1609  10.1784  10.3336  10.3336  10.3336  10.3360  10.3360
    10.3360  10.3464  10.3464  10.3583  10.3583  10.3583  10.8202  11.2594
    11.2594  11.2594  11.3151  11.3151  11.3151  11.4861  11.4861  11.4861
    11.5013  11.5013  11.9183  11.9749  11.9749  11.9749  12.1997  12.1997
    12.1997  12.2059  12.2059  12.2059

     occupation numbers 
     1.0000   1.0000   1.0000   1.0000   1.0000   1.0000   1.0000   1.0000
     1.0000   1.0000   1.0000   1.0000   1.0000   1.0000   1.0000   1.0000
     1.0000   1.0000   1.0000   1.0000   1.0000   1.0000   1.0000   1.0000
     1.0000   1.0000   1.0000   1.0000   1.0000   1.0000   1.0000   1.0000
     1.0000   1.0000   1.0000   1.0000   1.0000   1.0000   1.0000   1.0000
     1.0000   1.0000   1.0000   1.0000   1.0000   1.0000   1.0000   1.0000
     1.0000   1.0000   1.0000   1.0000   1.0000   1.0000   1.0000   1.0000
     1.0000   1.0000   1.0000   1.0000   1.0000   1.0000   1.0000   1.0000
     1.0000   1.0000   1.0000   1.0000   1.0000   1.0000   1.0000   1.0000
     1.0000   1.0000   1.0000   1.0000   1.0000   1.0000   1.0000   1.0000
     1.0000   1.0000   1.0000   1.0000   1.0000   1.0000   1.0000   1.0000
     1.0000   1.0000   1.0000   1.0000   1.0000   1.0000   1.0000   1.0000
     1.0000   1.0000   1.0000   1.0000   1.0000   1.0000   1.0000   1.0000
     1.0000   1.0000   1.0000   1.0000   1.0000   1.0000   1.0000   1.0000
     1.0000   1.0000   1.0000   1.0000   1.0000   1.0000   1.0000   1.0000
     1.0000   1.0000   1.0000   1.0000   1.0000   1.0000   1.0000   1.0000
     1.0000   1.0000   1.0000   1.0000   1.0000   1.0000   1.0000   1.0000
     1.0000   1.0000   1.0000   1.0000   1.0000   1.0000   1.0000   1.0000
     1.0000   1.0000   1.0000   1.0000   1.0000   1.0000   1.0000   1.0000
     1.0000   1.0000   1.0000   1.0000   1.0000   1.0000   1.0000   1.0000
     1.0000   1.0000   1.0000   1.0000   1.0000   1.0000   1.0000   1.0000
     1.0000   1.0000   1.0000   1.0000   1.0000   1.0000   1.0000   1.0000
     1.0000   1.0000   1.0000   1.0000   1.0000   1.0000   1.0000   1.0000
     1.0000   1.0000   1.0000   1.0000   1.0000   1.0000   1.0000   1.0000
     1.0000   1.0000   1.0000   1.0000   1.0000   1.0000   1.0000   1.0000
     1.0000   1.0000   1.0000   1.0000   1.0000   1.0000   1.0000   1.0000
     1.0000   1.0000   1.0000   1.0000   1.0000   1.0000   1.0000   1.0000
     1.0000   1.0000   1.0000   1.0000   1.0000   1.0000   1.0000   1.0000
     1.0000   1.0000   1.0000   1.0000   1.0000   1.0000   1.0000   1.0000
     1.0000   1.0000   1.0000   1.0000   1.0000   1.0000   1.0000   1.0000
     1.0000   1.0000   1.0000   1.0000   1.0000   1.0000   1.0000   1.0000
     1.0000   1.0000   1.0000   1.0000   1.0000   1.0000   1.0000   1.0000
     1.0000   1.0000   1.0000   1.0000   1.0000   1.0000   1.0000   1.0000
     1.0000   1.0000   1.0000   1.0000   1.0000   1.0000   1.0000   1.0000
     1.0000   1.0000   1.0000   1.0000   1.0000   1.0000   1.0000   1.0000
     1.0000   1.0000   1.0000   1.0000   1.0000   1.0000   1.0000   1.0000
     1.0000   1.0000   1.0000   1.0000   0.0000   0.0000   0.0000   0.0000
     0.0000   0.0000   0.0000   0.0000   0.0000   0.0000   0.0000   0.0000
     0.0000   0.0000   0.0000   0.0000   0.0000   0.0000   0.0000   0.0000
     0.0000   0.0000   0.0000   0.0000   0.0000   0.0000   0.0000   0.0000
     0.0000   0.0000   0.0000   0.0000   0.0000   0.0000   0.0000   0.0000
     0.0000   0.0000   0.0000   0.0000   0.0000   0.0000   0.0000   0.0000
     0.0000   0.0000   0.0000   0.0000   0.0000   0.0000   0.0000   0.0000
     0.0000   0.0000   0.0000   0.0000

          k = 0.0000 0.0000 0.2500 (269876 PWs)   bands (ev):

   -82.4431 -48.5013 -48.5013 -48.5013  -7.3872  -7.1021  -6.8625  -6.8625
    -6.8616  -6.8579  -6.6884  -6.6884  -6.6872  -6.6855  -6.6534  -6.5608
    -6.5608  -6.5599  -6.5573  -6.5434  -6.5434  -6.5433  -6.5369  -6.4383
    -6.4383  -6.4373  -6.4369  -6.2944  -6.2612  -6.2601  -6.2601  -6.2584
    -6.2397  -6.2397  -6.2356  -6.2356  -0.6781  -0.6700  -0.6640  -0.6632
    -0.6600  -0.6600  -0.6507  -0.6388  -0.6279  -0.6276  -0.6253  -0.6253
    -0.5561  -0.5561  -0.5383  -0.5370  -0.5364  -0.5364  -0.5307  -0.5291
    -0.5291  -0.5287  -0.5286  -0.5261  -0.5250  -0.5244  -0.5244  -0.5235
    -0.5224  -0.5224  -0.5217  -0.5206  -0.5178  -0.5177  -0.5177  -0.5145
    -0.5120  -0.5114  -0.5114  -0.5109  -0.5065  -0.5065  -0.5043  -0.5025
    -0.5006  -0.5006  -0.5004  -0.4974  -0.4973  -0.4973  -0.4970  -0.4842
    -0.4777  -0.4747  -0.4685  -0.4685  -0.4620  -0.4582  -0.4582  -0.4497
    -0.4487  -0.4425  -0.4425  -0.4065  -0.4064  -0.4064  -0.3902  -0.3783
    -0.3783  -0.3509  -0.3509  -0.3416  -0.3318  -0.3318  -0.3285  -0.3243
    -0.3243  -0.3227  -0.3069  -0.2712  -0.2712  -0.2667  -0.2591  -0.2563
    -0.2528  -0.2264  -0.2264  -0.2050  -0.2035  -0.1996  -0.1996  -0.1993
    -0.1930  -0.1930  -0.1924  -0.1907  -0.1904  -0.1857  -0.1853  -0.1793
    -0.1793  -0.1751  -0.1748  -0.1709  -0.1709  -0.1681  -0.1672  -0.1628
    -0.1622  -0.1622  -0.1617  -0.1600  -0.1600  -0.1588  -0.1568  -0.1550
    -0.1535  -0.1470  -0.1418  -0.1418  -0.1381  -0.1377  -0.1352  -0.1269
    -0.1263  -0.1263  -0.1256  -0.1214  -0.1214  -0.1205  -0.1184  -0.1121
    -0.1061  -0.1010  -0.1010  -0.0967  -0.0955  -0.0932  -0.0789  -0.0789
    -0.0765  -0.0606  -0.0542  -0.0537  -0.0537  -0.0421  -0.0275   0.0517
     0.0517   0.1434   0.1477   0.1477   0.1810   0.1886   0.1886   0.6037
     0.6037   0.6158   0.6431   1.0526   1.0604   1.0925   1.0974   1.0994
     1.0994   1.1021   1.1668   1.2638   1.3310   1.3310   1.3938   1.4078
     1.4197   1.4197   1.4463   1.5527   1.9654   1.9654   2.0035   2.0693
     2.3141   2.4631   2.4631   2.5699   2.6097   2.6831   2.7187   2.7187
     2.7668   2.8323   2.8548   2.8548   2.8593   2.9634   2.9683   2.9892
     2.9892   3.0987   3.1404   3.1404   3.2047   3.3261   3.3538   3.3538
     3.3603   3.3846   3.4011   3.4011   3.4205   3.4564   3.4564   3.4830
     3.5088   3.5088   3.5297   3.6062   3.7096   3.7096   3.8299   4.0062
     4.0427   4.0427   4.0774   4.2657   4.2703   4.3158   4.3158   4.3816
     4.4174   4.4174   4.4433   4.5106   4.5106   4.5183   4.5263   4.5498
     4.5498   4.6193   4.7080   4.7202   4.7202   4.7213   4.7302   4.7750
     4.7750   4.7901   4.8019   4.8019   4.8998   5.0163   5.0852   5.1907
     5.1907   5.5176   5.6791   5.6791   8.0036   9.0532   9.0534   9.0534
     9.1212   9.1351   9.2760   9.2760   9.5404   9.6825   9.7369   9.8581
     9.8744  10.0750  10.0757  10.0757  10.0855  10.0921  10.1055  10.1055
    10.1202  10.2028  10.3064  10.3116  10.3116  10.3406  10.3583  10.3854
    10.3854  10.4077  10.4686  10.4730  10.4730  10.6737  10.7396  10.7396
    10.7791  11.0802  11.0870  11.0930  11.0930  11.0945  11.3649  11.6091
    11.6091  11.6092  11.7519  11.8272  11.8556  11.8884  11.8884  11.9079
    12.0458  12.0476  12.0476  12.0580

     occupation numbers 
     1.0000   1.0000   1.0000   1.0000   1.0000   1.0000   1.0000   1.0000
     1.0000   1.0000   1.0000   1.0000   1.0000   1.0000   1.0000   1.0000
     1.0000   1.0000   1.0000   1.0000   1.0000   1.0000   1.0000   1.0000
     1.0000   1.0000   1.0000   1.0000   1.0000   1.0000   1.0000   1.0000
     1.0000   1.0000   1.0000   1.0000   1.0000   1.0000   1.0000   1.0000
     1.0000   1.0000   1.0000   1.0000   1.0000   1.0000   1.0000   1.0000
     1.0000   1.0000   1.0000   1.0000   1.0000   1.0000   1.0000   1.0000
     1.0000   1.0000   1.0000   1.0000   1.0000   1.0000   1.0000   1.0000
     1.0000   1.0000   1.0000   1.0000   1.0000   1.0000   1.0000   1.0000
     1.0000   1.0000   1.0000   1.0000   1.0000   1.0000   1.0000   1.0000
     1.0000   1.0000   1.0000   1.0000   1.0000   1.0000   1.0000   1.0000
     1.0000   1.0000   1.0000   1.0000   1.0000   1.0000   1.0000   1.0000
     1.0000   1.0000   1.0000   1.0000   1.0000   1.0000   1.0000   1.0000
     1.0000   1.0000   1.0000   1.0000   1.0000   1.0000   1.0000   1.0000
     1.0000   1.0000   1.0000   1.0000   1.0000   1.0000   1.0000   1.0000
     1.0000   1.0000   1.0000   1.0000   1.0000   1.0000   1.0000   1.0000
     1.0000   1.0000   1.0000   1.0000   1.0000   1.0000   1.0000   1.0000
     1.0000   1.0000   1.0000   1.0000   1.0000   1.0000   1.0000   1.0000
     1.0000   1.0000   1.0000   1.0000   1.0000   1.0000   1.0000   1.0000
     1.0000   1.0000   1.0000   1.0000   1.0000   1.0000   1.0000   1.0000
     1.0000   1.0000   1.0000   1.0000   1.0000   1.0000   1.0000   1.0000
     1.0000   1.0000   1.0000   1.0000   1.0000   1.0000   1.0000   1.0000
     1.0000   1.0000   1.0000   1.0000   1.0000   1.0000   1.0000   1.0000
     1.0000   1.0000   1.0000   1.0000   1.0000   1.0000   1.0000   1.0000
     1.0000   1.0000   1.0000   1.0000   1.0000   1.0000   1.0000   1.0000
     1.0000   1.0000   1.0000   1.0000   1.0000   1.0000   1.0000   1.0000
     1.0000   1.0000   1.0000   1.0000   1.0000   1.0000   1.0000   1.0000
     1.0000   1.0000   1.0000   1.0000   1.0000   1.0000   1.0000   1.0000
     1.0000   1.0000   1.0000   1.0000   1.0000   1.0000   1.0000   1.0000
     1.0000   1.0000   1.0000   1.0000   1.0000   1.0000   1.0000   1.0000
     1.0000   1.0000   1.0000   1.0000   1.0000   1.0000   1.0000   1.0000
     1.0000   1.0000   1.0000   1.0000   1.0000   1.0000   1.0000   1.0000
     1.0000   1.0000   1.0000   1.0000   1.0000   1.0000   1.0000   1.0000
     1.0000   1.0000   1.0000   1.0000   1.0000   1.0000   1.0000   1.0000
     1.0000   1.0000   1.0000   1.0000   1.0000   1.0000   1.0000   1.0000
     1.0000   1.0000   1.0000   1.0000   1.0000   1.0000   1.0000   1.0000
     1.0000   1.0000   1.0000   1.0000   0.0000   0.0000   0.0000   0.0000
     0.0000   0.0000   0.0000   0.0000   0.0000   0.0000   0.0000   0.0000
     0.0000   0.0000   0.0000   0.0000   0.0000   0.0000   0.0000   0.0000
     0.0000   0.0000   0.0000   0.0000   0.0000   0.0000   0.0000   0.0000
     0.0000   0.0000   0.0000   0.0000   0.0000   0.0000   0.0000   0.0000
     0.0000   0.0000   0.0000   0.0000   0.0000   0.0000   0.0000   0.0000
     0.0000   0.0000   0.0000   0.0000   0.0000   0.0000   0.0000   0.0000
     0.0000   0.0000   0.0000   0.0000

          k = 0.0000 0.0000-0.5000 (270152 PWs)   bands (ev):

   -82.4431 -48.5013 -48.5013 -48.5013  -7.2786  -7.2730  -6.7955  -6.7955
    -6.7948  -6.7927  -6.7906  -6.7906  -6.7893  -6.7854  -6.5523  -6.5523
    -6.5522  -6.5522  -6.5521  -6.5521  -6.5509  -6.5423  -6.4431  -6.4429
    -6.3364  -6.3349  -6.3349  -6.3333  -6.3281  -6.3281  -6.3271  -6.3265
    -6.2379  -6.2379  -6.2375  -6.2375  -0.6721  -0.6630  -0.6547  -0.6458
    -0.6161  -0.6158  -0.6158  -0.6154  -0.6099  -0.6096  -0.6096  -0.6069
    -0.6043  -0.6043  -0.5866  -0.5845  -0.5845  -0.5837  -0.5715  -0.5654
    -0.5283  -0.5279  -0.5279  -0.5278  -0.5254  -0.5254  -0.5225  -0.5197
    -0.5139  -0.5139  -0.5137  -0.5130  -0.5126  -0.5124  -0.5124  -0.5122
    -0.5115  -0.5115  -0.5114  -0.5113  -0.5109  -0.5106  -0.5106  -0.5102
    -0.5101  -0.5095  -0.5095  -0.5047  -0.4902  -0.4893  -0.4893  -0.4867
    -0.4867  -0.4854  -0.4845  -0.4775  -0.4736  -0.4518  -0.4459  -0.4459
    -0.4319  -0.4319  -0.4305  -0.4261  -0.4211  -0.4029  -0.4029  -0.3734
    -0.3734  -0.3570  -0.3570  -0.3450  -0.3450  -0.3381  -0.2918  -0.2918
    -0.2889  -0.2884  -0.2884  -0.2585  -0.2550  -0.2550  -0.2529  -0.2527
    -0.2352  -0.2352  -0.2314  -0.2211  -0.2210  -0.2207  -0.2207  -0.2186
    -0.2071  -0.1911  -0.1893  -0.1893  -0.1821  -0.1818  -0.1818  -0.1813
    -0.1782  -0.1775  -0.1753  -0.1700  -0.1700  -0.1655  -0.1655  -0.1650
    -0.1642  -0.1606  -0.1563  -0.1563  -0.1547  -0.1533  -0.1525  -0.1523
    -0.1523  -0.1521  -0.1501  -0.1498  -0.1489  -0.1293  -0.1282  -0.1282
    -0.1250  -0.1247  -0.1245  -0.1245  -0.1244  -0.1189  -0.1186  -0.1166
    -0.1162  -0.1097  -0.1025  -0.0998  -0.0961  -0.0961  -0.0948  -0.0927
    -0.0925  -0.0925  -0.0906   0.0131   0.0131   0.0273   0.0674   0.0676
     0.0683   0.0683   0.0758   0.1108   0.1108   0.1337   0.1337   0.9401
     0.9401   0.9654   0.9999   1.0113   1.0113   1.0133   1.0378   1.0577
     1.0971   1.0984   1.1015   1.1251   1.1761   1.1761   1.1849   1.1906
     1.1927   1.1927   1.4144   1.6859   1.7705   2.1183   2.1183   2.2682
     2.4112   2.4872   2.4907   2.4907   2.5756   2.5900   2.6228   2.6518
     2.6518   2.6843   2.6847   2.6859   2.6859   2.8795   3.0047   3.0047
     3.0739   3.1671   3.1671   3.1745   3.1786   3.2430   3.2430   3.3225
     3.4095   3.6986   3.6986   3.7274   3.7274   3.7786   3.8818   3.8877
     3.8877   3.8894   3.9036   3.9036   3.9111   3.9298   3.9311   3.9311
     3.9379   3.9429   3.9674   3.9968   3.9968   4.0157   4.0180   4.0180
     4.0398   4.1115   4.2223   4.2604   4.2604   4.4367   4.5805   4.5812
     4.7040   4.7040   4.7091   4.7099   4.7102   4.7102   4.7159   4.7211
     4.7211   4.7214   4.7224   4.8759   4.9740   4.9740   5.0193   5.1844
     5.1844   5.3693   5.5659   5.5659   8.7682   8.7908   9.3190   9.3527
     9.5656   9.5656   9.5699   9.5752   9.5752   9.5758   9.5865   9.6983
     9.8737   9.8737   9.8827   9.9195   9.9195   9.9532  10.2095  10.2165
    10.2165  10.2232  10.2254  10.2254  10.2323  10.3118  10.3791  10.3886
    10.4137  10.5502  10.7360  10.7360  10.7369  10.7520  10.7621  10.7646
    10.7646  10.9303  10.9773  10.9775  10.9784  10.9851  10.9851  11.0481
    11.0481  11.2108  11.2928  11.3943  11.8016  11.8071  11.8071  11.8211
    11.8313  11.8313  11.8619  12.0646

     occupation numbers 
     1.0000   1.0000   1.0000   1.0000   1.0000   1.0000   1.0000   1.0000
     1.0000   1.0000   1.0000   1.0000   1.0000   1.0000   1.0000   1.0000
     1.0000   1.0000   1.0000   1.0000   1.0000   1.0000   1.0000   1.0000
     1.0000   1.0000   1.0000   1.0000   1.0000   1.0000   1.0000   1.0000
     1.0000   1.0000   1.0000   1.0000   1.0000   1.0000   1.0000   1.0000
     1.0000   1.0000   1.0000   1.0000   1.0000   1.0000   1.0000   1.0000
     1.0000   1.0000   1.0000   1.0000   1.0000   1.0000   1.0000   1.0000
     1.0000   1.0000   1.0000   1.0000   1.0000   1.0000   1.0000   1.0000
     1.0000   1.0000   1.0000   1.0000   1.0000   1.0000   1.0000   1.0000
     1.0000   1.0000   1.0000   1.0000   1.0000   1.0000   1.0000   1.0000
     1.0000   1.0000   1.0000   1.0000   1.0000   1.0000   1.0000   1.0000
     1.0000   1.0000   1.0000   1.0000   1.0000   1.0000   1.0000   1.0000
     1.0000   1.0000   1.0000   1.0000   1.0000   1.0000   1.0000   1.0000
     1.0000   1.0000   1.0000   1.0000   1.0000   1.0000   1.0000   1.0000
     1.0000   1.0000   1.0000   1.0000   1.0000   1.0000   1.0000   1.0000
     1.0000   1.0000   1.0000   1.0000   1.0000   1.0000   1.0000   1.0000
     1.0000   1.0000   1.0000   1.0000   1.0000   1.0000   1.0000   1.0000
     1.0000   1.0000   1.0000   1.0000   1.0000   1.0000   1.0000   1.0000
     1.0000   1.0000   1.0000   1.0000   1.0000   1.0000   1.0000   1.0000
     1.0000   1.0000   1.0000   1.0000   1.0000   1.0000   1.0000   1.0000
     1.0000   1.0000   1.0000   1.0000   1.0000   1.0000   1.0000   1.0000
     1.0000   1.0000   1.0000   1.0000   1.0000   1.0000   1.0000   1.0000
     1.0000   1.0000   1.0000   1.0000   1.0000   1.0000   1.0000   1.0000
     1.0000   1.0000   1.0000   1.0000   1.0000   1.0000   1.0000   1.0000
     1.0000   1.0000   1.0000   1.0000   1.0000   1.0000   1.0000   1.0000
     1.0000   1.0000   1.0000   1.0000   1.0000   1.0000   1.0000   1.0000
     1.0000   1.0000   1.0000   1.0000   1.0000   1.0000   1.0000   1.0000
     1.0000   1.0000   1.0000   1.0000   1.0000   1.0000   1.0000   1.0000
     1.0000   1.0000   1.0000   1.0000   1.0000   1.0000   1.0000   1.0000
     1.0000   1.0000   1.0000   1.0000   1.0000   1.0000   1.0000   1.0000
     1.0000   1.0000   1.0000   1.0000   1.0000   1.0000   1.0000   1.0000
     1.0000   1.0000   1.0000   1.0000   1.0000   1.0000   1.0000   1.0000
     1.0000   1.0000   1.0000   1.0000   1.0000   1.0000   1.0000   1.0000
     1.0000   1.0000   1.0000   1.0000   1.0000   1.0000   1.0000   1.0000
     1.0000   1.0000   1.0000   1.0000   1.0000   1.0000   1.0000   1.0000
     1.0000   1.0000   1.0000   1.0000   1.0000   1.0000   1.0000   1.0000
     1.0000   1.0000   1.0000   1.0000   0.0000   0.0000   0.0000   0.0000
     0.0000   0.0000   0.0000   0.0000   0.0000   0.0000   0.0000   0.0000
     0.0000   0.0000   0.0000   0.0000   0.0000   0.0000   0.0000   0.0000
     0.0000   0.0000   0.0000   0.0000   0.0000   0.0000   0.0000   0.0000
     0.0000   0.0000   0.0000   0.0000   0.0000   0.0000   0.0000   0.0000
     0.0000   0.0000   0.0000   0.0000   0.0000   0.0000   0.0000   0.0000
     0.0000   0.0000   0.0000   0.0000   0.0000   0.0000   0.0000   0.0000
     0.0000   0.0000   0.0000   0.0000

          k = 0.0000 0.2500 0.2500 (269929 PWs)   bands (ev):

   -82.4431 -48.5013 -48.5013 -48.5013  -7.3498  -7.0732  -7.0704  -6.8505
    -6.8393  -6.8369  -6.6771  -6.6765  -6.6750  -6.6722  -6.6368  -6.6363
    -6.5946  -6.5920  -6.5203  -6.5180  -6.4980  -6.4954  -6.4462  -6.4443
    -6.4433  -6.4422  -6.3586  -6.2915  -6.2911  -6.2827  -6.2820  -6.2722
    -6.2705  -6.2510  -6.2497  -6.2407  -0.6591  -0.6588  -0.6574  -0.6540
    -0.6470  -0.6444  -0.6361  -0.6314  -0.6299  -0.6224  -0.6172  -0.6114
    -0.5597  -0.5571  -0.5558  -0.5529  -0.5519  -0.5456  -0.5414  -0.5397
    -0.5391  -0.5377  -0.5358  -0.5344  -0.5311  -0.5303  -0.5286  -0.5284
    -0.5279  -0.5276  -0.5262  -0.5235  -0.5232  -0.5224  -0.5215  -0.5186
    -0.5174  -0.5171  -0.5166  -0.5156  -0.5135  -0.5119  -0.5104  -0.5073
    -0.5048  -0.5046  -0.4991  -0.4957  -0.4938  -0.4911  -0.4817  -0.4781
    -0.4758  -0.4702  -0.4649  -0.4576  -0.4544  -0.4471  -0.4444  -0.4372
    -0.4365  -0.4308  -0.4285  -0.4274  -0.4129  -0.4125  -0.4020  -0.3938
    -0.3908  -0.3765  -0.3659  -0.3609  -0.3557  -0.3440  -0.3366  -0.3357
    -0.3241  -0.3139  -0.2837  -0.2726  -0.2707  -0.2585  -0.2526  -0.2495
    -0.2448  -0.2431  -0.2377  -0.2376  -0.2197  -0.2088  -0.2038  -0.1955
    -0.1939  -0.1897  -0.1852  -0.1850  -0.1837  -0.1821  -0.1796  -0.1764
    -0.1728  -0.1725  -0.1711  -0.1704  -0.1674  -0.1662  -0.1630  -0.1594
    -0.1577  -0.1558  -0.1547  -0.1544  -0.1537  -0.1523  -0.1521  -0.1486
    -0.1471  -0.1464  -0.1443  -0.1392  -0.1378  -0.1357  -0.1344  -0.1338
    -0.1333  -0.1281  -0.1279  -0.1270  -0.1225  -0.1208  -0.1205  -0.1187
    -0.1146  -0.1124  -0.1074  -0.1026  -0.0982  -0.0978  -0.0965  -0.0680
    -0.0616  -0.0452  -0.0445  -0.0140  -0.0107   0.0164   0.0383   0.0392
     0.0802   0.1144   0.1167   0.1422   0.1471   0.1741   0.1828   0.5292
     0.5492   0.9163   0.9179   1.0331   1.0537   1.0680   1.0787   1.0901
     1.1277   1.1403   1.1516   1.1528   1.1748   1.1753   1.2362   1.2519
     1.3935   1.5662   1.6677   1.7234   1.7749   1.8271   1.8863   2.1146
     2.1901   2.3465   2.4457   2.5501   2.5816   2.6347   2.6533   2.6617
     2.7372   2.7493   2.8089   2.8928   2.9389   2.9523   3.0257   3.0873
     3.1198   3.1711   3.1876   3.2130   3.2727   3.2995   3.3172   3.3988
     3.4105   3.4358   3.4606   3.4694   3.5080   3.5145   3.5333   3.5512
     3.5987   3.6535   3.7555   3.7590   3.8503   3.8832   3.8926   3.9356
     3.9956   4.0318   4.0625   4.1252   4.1354   4.2440   4.2559   4.2961
     4.3614   4.3721   4.3838   4.3955   4.3994   4.4314   4.4709   4.5105
     4.5455   4.5834   4.6297   4.6452   4.6708   4.6785   4.7287   4.7329
     4.7687   4.7804   4.8338   4.8969   4.9302   4.9697   5.0440   5.1412
     5.2807   5.4453   5.5993   5.7258   8.2600   9.0772   9.1110   9.3472
     9.3492   9.3520   9.3967   9.4263   9.5697   9.5961   9.9133   9.9135
     9.9213   9.9280   9.9476   9.9532   9.9740   9.9971   9.9993  10.0027
    10.0743  10.1549  10.1801  10.2039  10.2441  10.3279  10.3318  10.3418
    10.3809  10.4040  10.5245  10.7089  10.7137  10.7322  10.8069  10.8241
    10.8401  10.8980  10.9199  11.0131  11.0438  11.0895  11.3159  11.4516
    11.4576  11.4832  11.5344  11.5353  11.7096  11.8152  11.8278  11.8435
    11.8587  11.8879  11.9580  11.9608

     occupation numbers 
     1.0000   1.0000   1.0000   1.0000   1.0000   1.0000   1.0000   1.0000
     1.0000   1.0000   1.0000   1.0000   1.0000   1.0000   1.0000   1.0000
     1.0000   1.0000   1.0000   1.0000   1.0000   1.0000   1.0000   1.0000
     1.0000   1.0000   1.0000   1.0000   1.0000   1.0000   1.0000   1.0000
     1.0000   1.0000   1.0000   1.0000   1.0000   1.0000   1.0000   1.0000
     1.0000   1.0000   1.0000   1.0000   1.0000   1.0000   1.0000   1.0000
     1.0000   1.0000   1.0000   1.0000   1.0000   1.0000   1.0000   1.0000
     1.0000   1.0000   1.0000   1.0000   1.0000   1.0000   1.0000   1.0000
     1.0000   1.0000   1.0000   1.0000   1.0000   1.0000   1.0000   1.0000
     1.0000   1.0000   1.0000   1.0000   1.0000   1.0000   1.0000   1.0000
     1.0000   1.0000   1.0000   1.0000   1.0000   1.0000   1.0000   1.0000
     1.0000   1.0000   1.0000   1.0000   1.0000   1.0000   1.0000   1.0000
     1.0000   1.0000   1.0000   1.0000   1.0000   1.0000   1.0000   1.0000
     1.0000   1.0000   1.0000   1.0000   1.0000   1.0000   1.0000   1.0000
     1.0000   1.0000   1.0000   1.0000   1.0000   1.0000   1.0000   1.0000
     1.0000   1.0000   1.0000   1.0000   1.0000   1.0000   1.0000   1.0000
     1.0000   1.0000   1.0000   1.0000   1.0000   1.0000   1.0000   1.0000
     1.0000   1.0000   1.0000   1.0000   1.0000   1.0000   1.0000   1.0000
     1.0000   1.0000   1.0000   1.0000   1.0000   1.0000   1.0000   1.0000
     1.0000   1.0000   1.0000   1.0000   1.0000   1.0000   1.0000   1.0000
     1.0000   1.0000   1.0000   1.0000   1.0000   1.0000   1.0000   1.0000
     1.0000   1.0000   1.0000   1.0000   1.0000   1.0000   1.0000   1.0000
     1.0000   1.0000   1.0000   1.0000   1.0000   1.0000   1.0000   1.0000
     1.0000   1.0000   1.0000   1.0000   1.0000   1.0000   1.0000   1.0000
     1.0000   1.0000   1.0000   1.0000   1.0000   1.0000   1.0000   1.0000
     1.0000   1.0000   1.0000   1.0000   1.0000   1.0000   1.0000   1.0000
     1.0000   1.0000   1.0000   1.0000   1.0000   1.0000   1.0000   1.0000
     1.0000   1.0000   1.0000   1.0000   1.0000   1.0000   1.0000   1.0000
     1.0000   1.0000   1.0000   1.0000   1.0000   1.0000   1.0000   1.0000
     1.0000   1.0000   1.0000   1.0000   1.0000   1.0000   1.0000   1.0000
     1.0000   1.0000   1.0000   1.0000   1.0000   1.0000   1.0000   1.0000
     1.0000   1.0000   1.0000   1.0000   1.0000   1.0000   1.0000   1.0000
     1.0000   1.0000   1.0000   1.0000   1.0000   1.0000   1.0000   1.0000
     1.0000   1.0000   1.0000   1.0000   1.0000   1.0000   1.0000   1.0000
     1.0000   1.0000   1.0000   1.0000   1.0000   1.0000   1.0000   1.0000
     1.0000   1.0000   1.0000   1.0000   1.0000   1.0000   1.0000   1.0000
     1.0000   1.0000   1.0000   1.0000   0.0000   0.0000   0.0000   0.0000
     0.0000   0.0000   0.0000   0.0000   0.0000   0.0000   0.0000   0.0000
     0.0000   0.0000   0.0000   0.0000   0.0000   0.0000   0.0000   0.0000
     0.0000   0.0000   0.0000   0.0000   0.0000   0.0000   0.0000   0.0000
     0.0000   0.0000   0.0000   0.0000   0.0000   0.0000   0.0000   0.0000
     0.0000   0.0000   0.0000   0.0000   0.0000   0.0000   0.0000   0.0000
     0.0000   0.0000   0.0000   0.0000   0.0000   0.0000   0.0000   0.0000
     0.0000   0.0000   0.0000   0.0000

          k = 0.0000 0.2500-0.5000 (269962 PWs)   bands (ev):

   -82.4431 -48.5013 -48.5013 -48.5013  -7.2438  -7.2383  -6.9866  -6.9819
    -6.7749  -6.7747  -6.7738  -6.7687  -6.6428  -6.6427  -6.6420  -6.6373
    -6.5905  -6.5877  -6.4650  -6.4649  -6.4643  -6.4606  -6.4339  -6.4335
    -6.3726  -6.3721  -6.3479  -6.3467  -6.3466  -6.3455  -6.2931  -6.2928
    -6.2831  -6.2823  -6.2442  -6.2440  -0.6515  -0.6510  -0.6381  -0.6365
    -0.6226  -0.6156  -0.6045  -0.6030  -0.6026  -0.6024  -0.6009  -0.5997
    -0.5980  -0.5961  -0.5863  -0.5838  -0.5806  -0.5760  -0.5692  -0.5619
    -0.5571  -0.5512  -0.5480  -0.5451  -0.5410  -0.5389  -0.5389  -0.5336
    -0.5281  -0.5249  -0.5247  -0.5232  -0.5224  -0.5222  -0.5203  -0.5185
    -0.5182  -0.5156  -0.5139  -0.5128  -0.5123  -0.5119  -0.5116  -0.5083
    -0.5032  -0.4976  -0.4937  -0.4880  -0.4865  -0.4844  -0.4837  -0.4811
    -0.4753  -0.4745  -0.4636  -0.4636  -0.4482  -0.4463  -0.4399  -0.4372
    -0.4321  -0.4223  -0.4180  -0.4152  -0.4077  -0.3998  -0.3915  -0.3839
    -0.3787  -0.3770  -0.3700  -0.3685  -0.3666  -0.3665  -0.3611  -0.3551
    -0.3532  -0.3247  -0.3020  -0.2998  -0.2975  -0.2908  -0.2835  -0.2592
    -0.2323  -0.2208  -0.2173  -0.2163  -0.2132  -0.2131  -0.2078  -0.2076
    -0.1981  -0.1865  -0.1850  -0.1822  -0.1792  -0.1764  -0.1754  -0.1729
    -0.1711  -0.1701  -0.1632  -0.1610  -0.1578  -0.1566  -0.1565  -0.1550
    -0.1530  -0.1526  -0.1525  -0.1511  -0.1502  -0.1484  -0.1483  -0.1456
    -0.1436  -0.1421  -0.1410  -0.1392  -0.1389  -0.1359  -0.1353  -0.1286
    -0.1266  -0.1260  -0.1255  -0.1225  -0.1221  -0.1186  -0.1184  -0.1169
    -0.1153  -0.1144  -0.1132  -0.1125  -0.1098  -0.1022  -0.1021  -0.0534
    -0.0271  -0.0095  -0.0028   0.0035   0.0113   0.0342   0.0442   0.0629
     0.0722   0.0793   0.0884   0.1126   0.1377   0.1386   0.1472   0.7812
     0.7842   0.7915   0.8000   1.0046   1.0286   1.0290   1.0333   1.0673
     1.0712   1.0836   1.1196   1.2353   1.2478   1.2986   1.3050   1.3538
     1.3696   1.3719   1.4375   1.6459   1.7190   1.9399   1.9659   2.0323
     2.1801   2.2352   2.2563   2.4544   2.5187   2.6176   2.6418   2.7316
     2.7661   2.8006   2.8284   2.8947   2.9092   2.9272   2.9520   3.0249
     3.1291   3.1492   3.2259   3.2466   3.3151   3.3855   3.4136   3.5120
     3.5690   3.5816   3.5825   3.5843   3.6642   3.6891   3.6926   3.7305
     3.7360   3.7674   3.7937   3.8209   3.8713   3.8954   3.9329   3.9648
     3.9955   4.0118   4.0283   4.1450   4.1532   4.1675   4.1741   4.1974
     4.1999   4.2518   4.2817   4.2932   4.3074   4.3508   4.3704   4.4041
     4.4595   4.4843   4.5036   4.5490   4.5830   4.6646   4.6739   4.7006
     4.7444   4.7887   4.8981   4.9035   4.9444   4.9759   5.0720   5.2495
     5.2581   5.4828   5.5589   5.6257   8.8660   8.8896   9.4565   9.4568
     9.4629   9.5060   9.5569   9.5910   9.6984   9.7011   9.7243   9.7325
     9.9081   9.9083   9.9111   9.9262   9.9288   9.9295   9.9363   9.9577
     9.9959  10.0209  10.0541  10.1071  10.1324  10.2305  10.4203  10.4549
    10.4953  10.5553  10.5722  10.5821  10.6744  10.6842  10.7065  10.7850
    10.8187  10.8950  10.9581  11.0692  11.1182  11.2152  11.3410  11.3421
    11.3808  11.3972  11.4179  11.4312  11.4436  11.5404  11.5932  11.6180
    11.6234  11.7060  11.7964  11.8129

     occupation numbers 
     1.0000   1.0000   1.0000   1.0000   1.0000   1.0000   1.0000   1.0000
     1.0000   1.0000   1.0000   1.0000   1.0000   1.0000   1.0000   1.0000
     1.0000   1.0000   1.0000   1.0000   1.0000   1.0000   1.0000   1.0000
     1.0000   1.0000   1.0000   1.0000   1.0000   1.0000   1.0000   1.0000
     1.0000   1.0000   1.0000   1.0000   1.0000   1.0000   1.0000   1.0000
     1.0000   1.0000   1.0000   1.0000   1.0000   1.0000   1.0000   1.0000
     1.0000   1.0000   1.0000   1.0000   1.0000   1.0000   1.0000   1.0000
     1.0000   1.0000   1.0000   1.0000   1.0000   1.0000   1.0000   1.0000
     1.0000   1.0000   1.0000   1.0000   1.0000   1.0000   1.0000   1.0000
     1.0000   1.0000   1.0000   1.0000   1.0000   1.0000   1.0000   1.0000
     1.0000   1.0000   1.0000   1.0000   1.0000   1.0000   1.0000   1.0000
     1.0000   1.0000   1.0000   1.0000   1.0000   1.0000   1.0000   1.0000
     1.0000   1.0000   1.0000   1.0000   1.0000   1.0000   1.0000   1.0000
     1.0000   1.0000   1.0000   1.0000   1.0000   1.0000   1.0000   1.0000
     1.0000   1.0000   1.0000   1.0000   1.0000   1.0000   1.0000   1.0000
     1.0000   1.0000   1.0000   1.0000   1.0000   1.0000   1.0000   1.0000
     1.0000   1.0000   1.0000   1.0000   1.0000   1.0000   1.0000   1.0000
     1.0000   1.0000   1.0000   1.0000   1.0000   1.0000   1.0000   1.0000
     1.0000   1.0000   1.0000   1.0000   1.0000   1.0000   1.0000   1.0000
     1.0000   1.0000   1.0000   1.0000   1.0000   1.0000   1.0000   1.0000
     1.0000   1.0000   1.0000   1.0000   1.0000   1.0000   1.0000   1.0000
     1.0000   1.0000   1.0000   1.0000   1.0000   1.0000   1.0000   1.0000
     1.0000   1.0000   1.0000   1.0000   1.0000   1.0000   1.0000   1.0000
     1.0000   1.0000   1.0000   1.0000   1.0000   1.0000   1.0000   1.0000
     1.0000   1.0000   1.0000   1.0000   1.0000   1.0000   1.0000   1.0000
     1.0000   1.0000   1.0000   1.0000   1.0000   1.0000   1.0000   1.0000
     1.0000   1.0000   1.0000   1.0000   1.0000   1.0000   1.0000   1.0000
     1.0000   1.0000   1.0000   1.0000   1.0000   1.0000   1.0000   1.0000
     1.0000   1.0000   1.0000   1.0000   1.0000   1.0000   1.0000   1.0000
     1.0000   1.0000   1.0000   1.0000   1.0000   1.0000   1.0000   1.0000
     1.0000   1.0000   1.0000   1.0000   1.0000   1.0000   1.0000   1.0000
     1.0000   1.0000   1.0000   1.0000   1.0000   1.0000   1.0000   1.0000
     1.0000   1.0000   1.0000   1.0000   1.0000   1.0000   1.0000   1.0000
     1.0000   1.0000   1.0000   1.0000   1.0000   1.0000   1.0000   1.0000
     1.0000   1.0000   1.0000   1.0000   1.0000   1.0000   1.0000   1.0000
     1.0000   1.0000   1.0000   1.0000   1.0000   1.0000   1.0000   1.0000
     1.0000   1.0000   1.0000   1.0000   0.0000   0.0000   0.0000   0.0000
     0.0000   0.0000   0.0000   0.0000   0.0000   0.0000   0.0000   0.0000
     0.0000   0.0000   0.0000   0.0000   0.0000   0.0000   0.0000   0.0000
     0.0000   0.0000   0.0000   0.0000   0.0000   0.0000   0.0000   0.0000
     0.0000   0.0000   0.0000   0.0000   0.0000   0.0000   0.0000   0.0000
     0.0000   0.0000   0.0000   0.0000   0.0000   0.0000   0.0000   0.0000
     0.0000   0.0000   0.0000   0.0000   0.0000   0.0000   0.0000   0.0000
     0.0000   0.0000   0.0000   0.0000

          k = 0.0000-0.5000-0.5000 (269920 PWs)   bands (ev):

   -82.4431 -48.5013 -48.5013 -48.5013  -7.1438  -7.1418  -7.1418  -7.1334
    -6.7225  -6.7224  -6.7211  -6.7211  -6.7207  -6.7198  -6.7198  -6.7103
    -6.4122  -6.4122  -6.4090  -6.4089  -6.4088  -6.4088  -6.4086  -6.4066
    -6.3940  -6.3940  -6.3940  -6.3919  -6.3919  -6.3904  -6.3902  -6.3869
    -6.2637  -6.2633  -6.2624  -6.2624  -0.6317  -0.6300  -0.6251  -0.6251
    -0.5962  -0.5960  -0.5942  -0.5942  -0.5928  -0.5923  -0.5921  -0.5921
    -0.5803  -0.5803  -0.5803  -0.5778  -0.5778  -0.5744  -0.5725  -0.5713
    -0.5703  -0.5703  -0.5695  -0.5676  -0.5676  -0.5676  -0.5636  -0.5581
    -0.5532  -0.5532  -0.5339  -0.5224  -0.5177  -0.5173  -0.5173  -0.5169
    -0.5169  -0.5164  -0.5158  -0.5150  -0.5150  -0.5144  -0.5140  -0.5137
    -0.4992  -0.4880  -0.4880  -0.4815  -0.4632  -0.4631  -0.4631  -0.4599
    -0.4599  -0.4590  -0.4569  -0.4563  -0.4540  -0.4537  -0.4537  -0.4424
    -0.4414  -0.4377  -0.4220  -0.4220  -0.4152  -0.4152  -0.4149  -0.4144
    -0.4050  -0.3937  -0.3937  -0.3700  -0.3664  -0.3575  -0.3575  -0.3465
    -0.3430  -0.3430  -0.3425  -0.3379  -0.3375  -0.2858  -0.2712  -0.2712
    -0.2528  -0.2344  -0.2181  -0.2181  -0.2109  -0.2105  -0.2105  -0.2082
    -0.1963  -0.1808  -0.1808  -0.1764  -0.1724  -0.1720  -0.1720  -0.1627
    -0.1598  -0.1591  -0.1587  -0.1587  -0.1548  -0.1544  -0.1544  -0.1515
    -0.1507  -0.1499  -0.1499  -0.1490  -0.1489  -0.1476  -0.1476  -0.1474
    -0.1358  -0.1358  -0.1303  -0.1298  -0.1298  -0.1294  -0.1291  -0.1277
    -0.1264  -0.1264  -0.1259  -0.1220  -0.1198  -0.1182  -0.1182  -0.1175
    -0.1167  -0.1158  -0.1158  -0.0917  -0.0859  -0.0859  -0.0651  -0.0620
    -0.0618  -0.0618  -0.0607   0.0390   0.0390   0.0471   0.0955   0.0966
     0.0966   0.0974   0.1031   0.1388   0.1601   0.1601   0.1700   0.7921
     0.8026   0.8026   0.8103   0.8119   0.8119   0.8127   0.8696   1.0539
     1.0539   1.0541   1.1161   1.4228   1.4228   1.5041   1.5122   1.5698
     1.5721   1.5721   1.6290   1.6552   1.7507   1.7507   1.8052   1.8106
     1.8124   1.8124   1.9895   2.4434   2.5250   2.5250   2.5500   2.6935
     2.6935   2.7312   3.0022   3.1236   3.2864   3.2941   3.2950   3.2950
     3.2982   3.2982   3.3009   3.3040   3.3040   3.3062   3.3412   3.3904
     3.3904   3.5115   3.5850   3.6189   3.6293   3.6698   3.6785   3.6785
     3.7276   3.7287   3.7287   3.7573   3.7962   3.7969   3.7969   3.8326
     3.9354   4.0145   4.0145   4.0245   4.1664   4.1689   4.1689   4.2212
     4.2212   4.2709   4.2768   4.3872   4.4787   4.4787   4.4798   4.4953
     4.4953   4.4962   4.5494   4.5564   4.5567   4.5567   4.5568   4.6147
     4.7277   4.7512   4.7512   4.7602   4.8613   4.9572   4.9572   5.3819
     5.3971   5.4243   5.6644   5.6644   9.1860   9.1860   9.1889   9.2333
     9.5883   9.5895   9.5919   9.5919   9.5967   9.5967   9.5998   9.6742
     9.7153   9.7153   9.7644   9.8474  10.1769  10.1892  10.1892  10.1911
    10.1960  10.2066  10.2530  10.2530  10.3468  10.3571  10.3581  10.3581
    10.3613  10.3851  10.3851  10.4279  10.4977  10.4977  10.5027  10.5044
    10.5094  10.5094  10.5530  11.0663  11.4630  11.4630  11.4981  11.5399
    11.5401  11.5401  11.5402  11.5421  11.5773  11.5813  11.5813  11.5897
    11.6632  11.6909  11.6909  11.7370

     occupation numbers 
     1.0000   1.0000   1.0000   1.0000   1.0000   1.0000   1.0000   1.0000
     1.0000   1.0000   1.0000   1.0000   1.0000   1.0000   1.0000   1.0000
     1.0000   1.0000   1.0000   1.0000   1.0000   1.0000   1.0000   1.0000
     1.0000   1.0000   1.0000   1.0000   1.0000   1.0000   1.0000   1.0000
     1.0000   1.0000   1.0000   1.0000   1.0000   1.0000   1.0000   1.0000
     1.0000   1.0000   1.0000   1.0000   1.0000   1.0000   1.0000   1.0000
     1.0000   1.0000   1.0000   1.0000   1.0000   1.0000   1.0000   1.0000
     1.0000   1.0000   1.0000   1.0000   1.0000   1.0000   1.0000   1.0000
     1.0000   1.0000   1.0000   1.0000   1.0000   1.0000   1.0000   1.0000
     1.0000   1.0000   1.0000   1.0000   1.0000   1.0000   1.0000   1.0000
     1.0000   1.0000   1.0000   1.0000   1.0000   1.0000   1.0000   1.0000
     1.0000   1.0000   1.0000   1.0000   1.0000   1.0000   1.0000   1.0000
     1.0000   1.0000   1.0000   1.0000   1.0000   1.0000   1.0000   1.0000
     1.0000   1.0000   1.0000   1.0000   1.0000   1.0000   1.0000   1.0000
     1.0000   1.0000   1.0000   1.0000   1.0000   1.0000   1.0000   1.0000
     1.0000   1.0000   1.0000   1.0000   1.0000   1.0000   1.0000   1.0000
     1.0000   1.0000   1.0000   1.0000   1.0000   1.0000   1.0000   1.0000
     1.0000   1.0000   1.0000   1.0000   1.0000   1.0000   1.0000   1.0000
     1.0000   1.0000   1.0000   1.0000   1.0000   1.0000   1.0000   1.0000
     1.0000   1.0000   1.0000   1.0000   1.0000   1.0000   1.0000   1.0000
     1.0000   1.0000   1.0000   1.0000   1.0000   1.0000   1.0000   1.0000
     1.0000   1.0000   1.0000   1.0000   1.0000   1.0000   1.0000   1.0000
     1.0000   1.0000   1.0000   1.0000   1.0000   1.0000   1.0000   1.0000
     1.0000   1.0000   1.0000   1.0000   1.0000   1.0000   1.0000   1.0000
     1.0000   1.0000   1.0000   1.0000   1.0000   1.0000   1.0000   1.0000
     1.0000   1.0000   1.0000   1.0000   1.0000   1.0000   1.0000   1.0000
     1.0000   1.0000   1.0000   1.0000   1.0000   1.0000   1.0000   1.0000
     1.0000   1.0000   1.0000   1.0000   1.0000   1.0000   1.0000   1.0000
     1.0000   1.0000   1.0000   1.0000   1.0000   1.0000   1.0000   1.0000
     1.0000   1.0000   1.0000   1.0000   1.0000   1.0000   1.0000   1.0000
     1.0000   1.0000   1.0000   1.0000   1.0000   1.0000   1.0000   1.0000
     1.0000   1.0000   1.0000   1.0000   1.0000   1.0000   1.0000   1.0000
     1.0000   1.0000   1.0000   1.0000   1.0000   1.0000   1.0000   1.0000
     1.0000   1.0000   1.0000   1.0000   1.0000   1.0000   1.0000   1.0000
     1.0000   1.0000   1.0000   1.0000   1.0000   1.0000   1.0000   1.0000
     1.0000   1.0000   1.0000   1.0000   1.0000   1.0000   1.0000   1.0000
     1.0000   1.0000   1.0000   1.0000   0.0000   0.0000   0.0000   0.0000
     0.0000   0.0000   0.0000   0.0000   0.0000   0.0000   0.0000   0.0000
     0.0000   0.0000   0.0000   0.0000   0.0000   0.0000   0.0000   0.0000
     0.0000   0.0000   0.0000   0.0000   0.0000   0.0000   0.0000   0.0000
     0.0000   0.0000   0.0000   0.0000   0.0000   0.0000   0.0000   0.0000
     0.0000   0.0000   0.0000   0.0000   0.0000   0.0000   0.0000   0.0000
     0.0000   0.0000   0.0000   0.0000   0.0000   0.0000   0.0000   0.0000
     0.0000   0.0000   0.0000   0.0000

          k = 0.2500 0.2500 0.2500 (269935 PWs)   bands (ev):

   -82.4431 -48.5013 -48.5013 -48.5013  -7.3133  -7.0439  -7.0439  -7.0398
    -6.8312  -6.8312  -6.8284  -6.6899  -6.6218  -6.6218  -6.6210  -6.5183
    -6.5183  -6.5152  -6.5152  -6.5152  -6.5137  -6.5013  -6.5013  -6.4963
    -6.3763  -6.3749  -6.3749  -6.2902  -6.2902  -6.2898  -6.2854  -6.2854
    -6.2839  -6.2822  -6.2822  -6.2822  -0.6465  -0.6449  -0.6449  -0.6405
    -0.6376  -0.6376  -0.6311  -0.6159  -0.6159  -0.6131  -0.6127  -0.6127
    -0.5567  -0.5563  -0.5563  -0.5538  -0.5536  -0.5536  -0.5525  -0.5525
    -0.5481  -0.5453  -0.5453  -0.5414  -0.5392  -0.5392  -0.5326  -0.5325
    -0.5325  -0.5324  -0.5318  -0.5318  -0.5310  -0.5310  -0.5300  -0.5287
    -0.5287  -0.5284  -0.5256  -0.5234  -0.5234  -0.5176  -0.5105  -0.5105
    -0.5047  -0.4999  -0.4978  -0.4978  -0.4883  -0.4883  -0.4827  -0.4753
    -0.4753  -0.4607  -0.4607  -0.4521  -0.4451  -0.4406  -0.4406  -0.4402
    -0.4318  -0.4318  -0.4121  -0.4079  -0.4079  -0.3955  -0.3931  -0.3931
    -0.3786  -0.3717  -0.3717  -0.3472  -0.3433  -0.3423  -0.3423  -0.3415
    -0.3369  -0.3369  -0.3271  -0.3255  -0.3255  -0.2722  -0.2722  -0.2605
    -0.2532  -0.2512  -0.2512  -0.2218  -0.2132  -0.2132  -0.2096  -0.2096
    -0.2070  -0.1872  -0.1849  -0.1849  -0.1792  -0.1792  -0.1752  -0.1719
    -0.1644  -0.1644  -0.1590  -0.1590  -0.1544  -0.1533  -0.1533  -0.1488
    -0.1477  -0.1477  -0.1457  -0.1456  -0.1456  -0.1447  -0.1447  -0.1435
    -0.1435  -0.1432  -0.1432  -0.1413  -0.1413  -0.1398  -0.1354  -0.1354
    -0.1334  -0.1329  -0.1329  -0.1291  -0.1167  -0.1167  -0.1132  -0.1104
    -0.1104  -0.1014  -0.1001  -0.1001  -0.0986  -0.0908  -0.0908  -0.0900
    -0.0338  -0.0270  -0.0270   0.0103   0.0132   0.0132   0.0448   0.0496
     0.0496   0.1047   0.1047   0.1247   0.1371   0.1371   0.1381   0.6916
     0.6916   0.7283   0.9785   0.9835   0.9835   1.0737   1.0737   1.0984
     1.0984   1.1020   1.1672   1.2293   1.2293   1.2781   1.3040   1.3764
     1.3764   1.4724   1.4726   1.4726   1.6095   1.9624   2.0426   2.0426
     2.1833   2.1833   2.3168   2.5790   2.5790   2.6847   2.6847   2.7139
     2.7889   2.8293   2.8293   2.8969   2.9132   2.9132   2.9167   3.1423
     3.1423   3.2385   3.2924   3.2924   3.2956   3.4043   3.4043   3.4190
     3.4573   3.4573   3.4673   3.5349   3.5349   3.5798   3.5853   3.5853
     3.5957   3.6591   3.6634   3.6634   3.9010   3.9108   3.9108   3.9915
     3.9915   4.0744   4.1455   4.1455   4.1721   4.1743   4.1743   4.2360
     4.2360   4.2676   4.2820   4.3271   4.3271   4.3522   4.3818   4.3818
     4.4479   4.5126   4.5486   4.5486   4.6770   4.6770   4.6941   4.8163
     4.8582   4.8582   4.9169   4.9169   5.0112   5.0112   5.0703   5.2753
     5.2753   5.4063   5.6672   5.6672   8.4258   8.9285   9.4193   9.4193
     9.4222   9.5074   9.5074   9.5146   9.5261   9.5261   9.5737   9.6500
     9.6500   9.7253   9.9071   9.9071   9.9349  10.1331  10.1331  10.1670
    10.2105  10.2105  10.2488  10.3743  10.3759  10.3759  10.3826  10.3826
    10.4170  10.4324  10.4324  10.4334  10.4575  10.4575  10.4885  10.5270
    10.5270  10.9108  11.1481  11.1481  11.2056  11.4530  11.4728  11.4728
    11.4932  11.4932  11.5587  11.5630  11.5635  11.5635  11.6172  11.6172
    11.7714  11.8811  11.9516  11.9516

     occupation numbers 
     1.0000   1.0000   1.0000   1.0000   1.0000   1.0000   1.0000   1.0000
     1.0000   1.0000   1.0000   1.0000   1.0000   1.0000   1.0000   1.0000
     1.0000   1.0000   1.0000   1.0000   1.0000   1.0000   1.0000   1.0000
     1.0000   1.0000   1.0000   1.0000   1.0000   1.0000   1.0000   1.0000
     1.0000   1.0000   1.0000   1.0000   1.0000   1.0000   1.0000   1.0000
     1.0000   1.0000   1.0000   1.0000   1.0000   1.0000   1.0000   1.0000
     1.0000   1.0000   1.0000   1.0000   1.0000   1.0000   1.0000   1.0000
     1.0000   1.0000   1.0000   1.0000   1.0000   1.0000   1.0000   1.0000
     1.0000   1.0000   1.0000   1.0000   1.0000   1.0000   1.0000   1.0000
     1.0000   1.0000   1.0000   1.0000   1.0000   1.0000   1.0000   1.0000
     1.0000   1.0000   1.0000   1.0000   1.0000   1.0000   1.0000   1.0000
     1.0000   1.0000   1.0000   1.0000   1.0000   1.0000   1.0000   1.0000
     1.0000   1.0000   1.0000   1.0000   1.0000   1.0000   1.0000   1.0000
     1.0000   1.0000   1.0000   1.0000   1.0000   1.0000   1.0000   1.0000
     1.0000   1.0000   1.0000   1.0000   1.0000   1.0000   1.0000   1.0000
     1.0000   1.0000   1.0000   1.0000   1.0000   1.0000   1.0000   1.0000
     1.0000   1.0000   1.0000   1.0000   1.0000   1.0000   1.0000   1.0000
     1.0000   1.0000   1.0000   1.0000   1.0000   1.0000   1.0000   1.0000
     1.0000   1.0000   1.0000   1.0000   1.0000   1.0000   1.0000   1.0000
     1.0000   1.0000   1.0000   1.0000   1.0000   1.0000   1.0000   1.0000
     1.0000   1.0000   1.0000   1.0000   1.0000   1.0000   1.0000   1.0000
     1.0000   1.0000   1.0000   1.0000   1.0000   1.0000   1.0000   1.0000
     1.0000   1.0000   1.0000   1.0000   1.0000   1.0000   1.0000   1.0000
     1.0000   1.0000   1.0000   1.0000   1.0000   1.0000   1.0000   1.0000
     1.0000   1.0000   1.0000   1.0000   1.0000   1.0000   1.0000   1.0000
     1.0000   1.0000   1.0000   1.0000   1.0000   1.0000   1.0000   1.0000
     1.0000   1.0000   1.0000   1.0000   1.0000   1.0000   1.0000   1.0000
     1.0000   1.0000   1.0000   1.0000   1.0000   1.0000   1.0000   1.0000
     1.0000   1.0000   1.0000   1.0000   1.0000   1.0000   1.0000   1.0000
     1.0000   1.0000   1.0000   1.0000   1.0000   1.0000   1.0000   1.0000
     1.0000   1.0000   1.0000   1.0000   1.0000   1.0000   1.0000   1.0000
     1.0000   1.0000   1.0000   1.0000   1.0000   1.0000   1.0000   1.0000
     1.0000   1.0000   1.0000   1.0000   1.0000   1.0000   1.0000   1.0000
     1.0000   1.0000   1.0000   1.0000   1.0000   1.0000   1.0000   1.0000
     1.0000   1.0000   1.0000   1.0000   1.0000   1.0000   1.0000   1.0000
     1.0000   1.0000   1.0000   1.0000   1.0000   1.0000   1.0000   1.0000
     1.0000   1.0000   1.0000   1.0000   0.0000   0.0000   0.0000   0.0000
     0.0000   0.0000   0.0000   0.0000   0.0000   0.0000   0.0000   0.0000
     0.0000   0.0000   0.0000   0.0000   0.0000   0.0000   0.0000   0.0000
     0.0000   0.0000   0.0000   0.0000   0.0000   0.0000   0.0000   0.0000
     0.0000   0.0000   0.0000   0.0000   0.0000   0.0000   0.0000   0.0000
     0.0000   0.0000   0.0000   0.0000   0.0000   0.0000   0.0000   0.0000
     0.0000   0.0000   0.0000   0.0000   0.0000   0.0000   0.0000   0.0000
     0.0000   0.0000   0.0000   0.0000

          k = 0.2500 0.2500-0.5000 (269988 PWs)   bands (ev):

   -82.4431 -48.5013 -48.5013 -48.5013  -7.2099  -7.2046  -6.9616  -6.9603
    -6.9578  -6.9543  -6.7754  -6.7717  -6.5809  -6.5806  -6.5766  -6.5765
    -6.5092  -6.5092  -6.5091  -6.5045  -6.4282  -6.4276  -6.4240  -6.4218
    -6.3801  -6.3801  -6.3754  -6.3748  -6.3229  -6.3213  -6.3171  -6.3163
    -6.2872  -6.2872  -6.2868  -6.2858  -0.6414  -0.6368  -0.6266  -0.6191
    -0.6107  -0.6107  -0.6053  -0.6041  -0.5985  -0.5971  -0.5925  -0.5919
    -0.5909  -0.5902  -0.5800  -0.5796  -0.5761  -0.5761  -0.5643  -0.5613
    -0.5557  -0.5542  -0.5540  -0.5492  -0.5482  -0.5470  -0.5468  -0.5459
    -0.5454  -0.5407  -0.5392  -0.5380  -0.5348  -0.5340  -0.5332  -0.5314
    -0.5305  -0.5296  -0.5292  -0.5289  -0.5262  -0.5102  -0.5071  -0.5059
    -0.5013  -0.4990  -0.4842  -0.4815  -0.4797  -0.4713  -0.4679  -0.4660
    -0.4645  -0.4634  -0.4591  -0.4586  -0.4407  -0.4384  -0.4362  -0.4335
    -0.4284  -0.4190  -0.4132  -0.4110  -0.4073  -0.4045  -0.4041  -0.4030
    -0.3891  -0.3865  -0.3747  -0.3731  -0.3689  -0.3678  -0.3677  -0.3273
    -0.3232  -0.3041  -0.2990  -0.2949  -0.2936  -0.2842  -0.2823  -0.2817
    -0.2809  -0.2765  -0.2743  -0.2413  -0.2390  -0.2315  -0.2262  -0.2131
    -0.2096  -0.1822  -0.1801  -0.1799  -0.1774  -0.1745  -0.1687  -0.1678
    -0.1622  -0.1596  -0.1562  -0.1539  -0.1526  -0.1490  -0.1448  -0.1434
    -0.1432  -0.1432  -0.1423  -0.1420  -0.1407  -0.1403  -0.1391  -0.1382
    -0.1380  -0.1378  -0.1367  -0.1364  -0.1346  -0.1340  -0.1318  -0.1316
    -0.1316  -0.1223  -0.1208  -0.1191  -0.1178  -0.1155  -0.1151  -0.1144
    -0.1132  -0.1084  -0.1071  -0.1056  -0.0910  -0.0799  -0.0770  -0.0677
    -0.0677  -0.0284  -0.0163   0.0134   0.0140   0.0268   0.0534   0.0728
     0.0789   0.0803   0.0842   0.0986   0.1243   0.1329   0.1334   0.7206
     0.7425   0.9599   0.9731   0.9808   1.0093   1.0127   1.0512   1.0697
     1.0918   1.1554   1.1612   1.1772   1.1922   1.1934   1.2155   1.2277
     1.3493   1.5616   1.6200   1.6452   1.7544   1.7544   1.8068   1.8183
     1.9207   2.3162   2.4436   2.6201   2.6467   2.7058   2.7679   2.7701
     2.7710   2.8552   2.8601   2.8802   2.9272   2.9434   2.9789   3.0120
     3.0503   3.1138   3.1757   3.2119   3.3366   3.4529   3.4896   3.4987
     3.5321   3.6281   3.6437   3.6656   3.6704   3.6934   3.6998   3.7416
     3.7424   3.7735   3.7959   3.8327   3.8520   3.8743   3.8796   3.8848
     3.8959   3.9164   3.9405   3.9524   3.9699   4.0639   4.0798   4.0829
     4.1275   4.2143   4.2462   4.2646   4.3091   4.3809   4.4013   4.4133
     4.4877   4.4900   4.5249   4.5278   4.6022   4.6124   4.6694   4.7520
     4.8159   4.9398   5.0011   5.0344   5.0845   5.1534   5.1846   5.2029
     5.2266   5.5481   5.5882   5.6014   8.8881   8.9120   9.1586   9.1897
     9.4793   9.4817   9.4825   9.5339   9.6133   9.6565   9.7742   9.7812
     9.7908   9.7946   9.8793   9.8826   9.8916   9.9240   9.9454   9.9997
    10.0983  10.1046  10.1051  10.1158  10.1534  10.1566  10.1687  10.2849
    10.3417  10.3939  10.5172  10.5179  10.5238  10.6964  10.8508  10.8608
    10.8641  10.9755  11.0878  11.0979  11.1089  11.2325  11.4268  11.4380
    11.4418  11.5408  11.6247  11.6283  11.7138  11.7153  11.7231  11.7420
    11.7543  11.7718  11.7722  11.7905

     occupation numbers 
     1.0000   1.0000   1.0000   1.0000   1.0000   1.0000   1.0000   1.0000
     1.0000   1.0000   1.0000   1.0000   1.0000   1.0000   1.0000   1.0000
     1.0000   1.0000   1.0000   1.0000   1.0000   1.0000   1.0000   1.0000
     1.0000   1.0000   1.0000   1.0000   1.0000   1.0000   1.0000   1.0000
[...]
     6.7689   7.6990   7.7067   7.7430   8.9085   8.9309   9.1724   9.2060
     9.4837   9.4893   9.4927   9.5662   9.6172   9.7101   9.7887   9.7950
     9.8217   9.8295   9.8936   9.8946   9.9265   9.9544   9.9603  10.0288
    10.1081  10.1166  10.1186  10.1207  10.1943  10.2058  10.2385  10.3472
    10.3614  10.4208  10.5229  10.5256  10.5343  10.7795  10.8696  10.8864
    10.8937  11.0128  11.0949  11.1213  11.1494  11.3054  11.4396  11.4502
    11.4544  11.5740  11.6436  11.6542  11.7282  11.7297  11.7334  11.7538
    11.7622  11.7874  11.7947  11.8077

     occupation numbers 
     1.0000   1.0000   1.0000   1.0000   1.0000   1.0000   1.0000   1.0000
     1.0000   1.0000   1.0000   1.0000   1.0000   1.0000   1.0000   1.0000
     1.0000   1.0000   1.0000   1.0000   1.0000   1.0000   1.0000   1.0000
     1.0000   1.0000   1.0000   1.0000   1.0000   1.0000   1.0000   1.0000
     1.0000   1.0000   1.0000   1.0000   1.0000   1.0000   1.0000   1.0000
     1.0000   1.0000   1.0000   1.0000   1.0000   1.0000   1.0000   1.0000
     1.0000   1.0000   1.0000   1.0000   1.0000   1.0000   1.0000   1.0000
     1.0000   1.0000   1.0000   1.0000   1.0000   1.0000   1.0000   1.0000
     1.0000   1.0000   1.0000   1.0000   1.0000   1.0000   1.0000   1.0000
     1.0000   1.0000   1.0000   1.0000   1.0000   1.0000   1.0000   1.0000
     1.0000   1.0000   1.0000   1.0000   1.0000   1.0000   1.0000   1.0000
     1.0000   1.0000   1.0000   1.0000   1.0000   1.0000   1.0000   1.0000
     1.0000   1.0000   1.0000   1.0000   1.0000   1.0000   1.0000   1.0000
     1.0000   1.0000   1.0000   1.0000   1.0000   1.0000   1.0000   1.0000
     1.0000   1.0000   1.0000   1.0000   1.0000   1.0000   1.0000   1.0000
     1.0000   1.0000   1.0000   1.0000   1.0000   1.0000   1.0000   1.0000
     1.0000   1.0000   1.0000   1.0000   1.0000   1.0000   1.0000   1.0000
     1.0000   1.0000   1.0000   1.0000   1.0000   1.0000   1.0000   1.0000
     1.0000   1.0000   1.0000   1.0000   1.0000   1.0000   1.0000   1.0000
     1.0000   1.0000   1.0000   1.0000   1.0000   1.0000   1.0000   1.0000
     1.0000   1.0000   1.0000   1.0000   1.0000   1.0000   1.0000   1.0000
     1.0000   1.0000   1.0000   1.0000   1.0000   1.0000   1.0000   1.0000
     1.0000   1.0000   1.0000   1.0000   1.0000   1.0000   1.0000   1.0000
     1.0000   1.0000   1.0000   1.0000   1.0000   1.0000   1.0000   1.0000
     1.0000   1.0000   1.0000   1.0000   1.0000   1.0000   1.0000   1.0000
     1.0000   1.0000   1.0000   1.0000   1.0000   1.0000   1.0000   1.0000
     1.0000   1.0000   1.0000   1.0000   1.0000   1.0000   1.0000   1.0000
     1.0000   1.0000   1.0000   1.0000   1.0000   1.0000   1.0000   1.0000
     1.0000   1.0000   1.0000   1.0000   1.0000   1.0000   1.0000   1.0000
     1.0000   1.0000   1.0000   1.0000   1.0000   1.0000   1.0000   1.0000
     1.0000   1.0000   1.0000   1.0000   1.0000   1.0000   1.0000   1.0000
     1.0000   1.0000   1.0000   1.0000   1.0000   1.0000   1.0000   1.0000
     1.0000   1.0000   1.0000   1.0000   1.0000   1.0000   1.0000   1.0000
     1.0000   1.0000   1.0000   1.0000   1.0000   1.0000   1.0000   1.0000
     1.0000   1.0000   1.0000   1.0000   1.0000   1.0000   1.0000   1.0000
     1.0000   1.0000   1.0000   1.0000   1.0000   1.0000   1.0000   0.9936
     0.0901   0.0000   0.0000   0.0000   0.0000   0.0000   0.0000   0.0000
     0.0000   0.0000   0.0000   0.0000   0.0000   0.0000   0.0000   0.0000
     0.0000   0.0000   0.0000   0.0000   0.0000   0.0000   0.0000   0.0000
     0.0000   0.0000   0.0000   0.0000   0.0000   0.0000   0.0000   0.0000
     0.0000   0.0000   0.0000   0.0000   0.0000   0.0000   0.0000   0.0000
     0.0000   0.0000   0.0000   0.0000   0.0000   0.0000   0.0000   0.0000
     0.0000   0.0000   0.0000   0.0000   0.0000   0.0000   0.0000   0.0000
     0.0000   0.0000   0.0000   0.0000

          k = 0.2500-0.5000-0.5000 (269956 PWs)   bands (ev):

   -78.7876 -44.9246 -44.9246 -44.9246  -7.1092  -7.1033  -7.1033  -7.0735
    -6.8839  -6.8781  -6.8781  -6.8437  -6.5473  -6.5425  -6.5425  -6.5169
    -6.4048  -6.4048  -6.4025  -6.4024  -6.3998  -6.3995  -6.3959  -6.3959
    -6.3929  -6.3929  -6.3904  -6.3901  -6.3781  -6.3576  -6.3401  -6.3401
    -6.2943  -6.2841  -6.2841  -6.2565  -0.6188  -0.6166  -0.6138  -0.6138
    -0.5898  -0.5896  -0.5855  -0.5855  -0.5813  -0.5810  -0.5798  -0.5798
    -0.5795  -0.5781  -0.5781  -0.5773  -0.5742  -0.5742  -0.5741  -0.5699
    -0.5699  -0.5638  -0.5616  -0.5607  -0.5598  -0.5598  -0.5568  -0.5552
    -0.5529  -0.5529  -0.5489  -0.5479  -0.5435  -0.5435  -0.5345  -0.5308
    -0.5300  -0.5300  -0.5300  -0.5294  -0.5278  -0.5278  -0.5108  -0.5060
    -0.4954  -0.4936  -0.4936  -0.4919  -0.4677  -0.4606  -0.4570  -0.4570
    -0.4465  -0.4463  -0.4463  -0.4386  -0.4382  -0.4262  -0.4240  -0.4240
    -0.4111  -0.4103  -0.4103  -0.4080  -0.4027  -0.3978  -0.3978  -0.3835
    -0.3776  -0.3729  -0.3729  -0.3703  -0.3556  -0.3527  -0.3527  -0.3417
    -0.3402  -0.3402  -0.3390  -0.3362  -0.3318  -0.2854  -0.2815  -0.2815
    -0.2625  -0.2547  -0.2547  -0.2532  -0.2492  -0.2478  -0.2478  -0.2438
    -0.2307  -0.1733  -0.1733  -0.1715  -0.1705  -0.1664  -0.1664  -0.1640
    -0.1598  -0.1548  -0.1548  -0.1536  -0.1498  -0.1498  -0.1454  -0.1439
    -0.1398  -0.1398  -0.1384  -0.1355  -0.1327  -0.1317  -0.1317  -0.1282
    -0.1268  -0.1268  -0.1239  -0.1231  -0.1210  -0.1204  -0.1203  -0.1203
    -0.1195  -0.1158  -0.1158  -0.1153  -0.1136  -0.1136  -0.1136  -0.1125
    -0.1116  -0.1116  -0.1097  -0.0704  -0.0704  -0.0697  -0.0490  -0.0448
    -0.0448  -0.0443  -0.0397   0.0242   0.0242   0.0322   0.0579   0.0612
     0.0612   0.0615   0.0711   0.0999   0.1134   0.1134   0.1214   0.9180
     0.9180   0.9187   0.9381   0.9381   0.9384   0.9407   0.9863   1.0766
     1.0836   1.0836   1.1326   1.3955   1.3955   1.4094   1.4344   1.4492
     1.4546   1.4546   1.4591   1.4632   1.4632   1.4694   1.7748   2.2397
     2.2397   2.2697   2.3321   2.7053   2.7734   2.7734   2.7788   3.1210
     3.1210   3.1437   3.1595   3.2240   3.2651   3.2685   3.2685   3.2756
     3.2794   3.2794   3.2894   3.2970   3.2970   3.2972   3.3091   3.3212
     3.3212   3.3398   3.4584   3.7452   3.7656   3.7656   3.7974   3.8274
     3.8569   3.8569   3.8591   3.8678   3.8678   3.8697   3.8715   3.8833
     3.8912   3.8912   3.8943   4.0598   4.1110   4.1148   4.1148   4.1259
     4.1431   4.1529   4.1529   4.2345   4.2345   4.2588   4.2748   4.7091
     4.7346   4.7346   4.8384   4.8592   4.9071   4.9255   4.9255   4.9531
     4.9599   4.9599   4.9635   5.2260   5.2260   5.2803   5.3194   6.7529
     6.7744   7.7194   7.7367   7.7367   9.0763   9.0822   9.0822   9.1169
     9.1889   9.1950   9.1950   9.3190   9.7764   9.7764   9.8210   9.8359
     9.9008   9.9008   9.9444   9.9475   9.9480   9.9480   9.9616  10.0015
    10.0208  10.0208  10.0311  10.0682  10.1329  10.1377  10.1377  10.1489
    10.1809  10.2403  10.2403  10.5194  10.9518  10.9522  10.9522  10.9542
    10.9951  11.0180  11.0180  11.2209  11.4835  11.4835  11.5160  11.5473
    11.5646  11.5646  11.6139  11.6638  11.6774  11.6800  11.6800  11.6993
    11.7172  11.7787  11.7787  11.8816

     occupation numbers 
     1.0000   1.0000   1.0000   1.0000   1.0000   1.0000   1.0000   1.0000
     1.0000   1.0000   1.0000   1.0000   1.0000   1.0000   1.0000   1.0000
     1.0000   1.0000   1.0000   1.0000   1.0000   1.0000   1.0000   1.0000
     1.0000   1.0000   1.0000   1.0000   1.0000   1.0000   1.0000   1.0000
     1.0000   1.0000   1.0000   1.0000   1.0000   1.0000   1.0000   1.0000
     1.0000   1.0000   1.0000   1.0000   1.0000   1.0000   1.0000   1.0000
     1.0000   1.0000   1.0000   1.0000   1.0000   1.0000   1.0000   1.0000
     1.0000   1.0000   1.0000   1.0000   1.0000   1.0000   1.0000   1.0000
     1.0000   1.0000   1.0000   1.0000   1.0000   1.0000   1.0000   1.0000
     1.0000   1.0000   1.0000   1.0000   1.0000   1.0000   1.0000   1.0000
     1.0000   1.0000   1.0000   1.0000   1.0000   1.0000   1.0000   1.0000
     1.0000   1.0000   1.0000   1.0000   1.0000   1.0000   1.0000   1.0000
     1.0000   1.0000   1.0000   1.0000   1.0000   1.0000   1.0000   1.0000
     1.0000   1.0000   1.0000   1.0000   1.0000   1.0000   1.0000   1.0000
     1.0000   1.0000   1.0000   1.0000   1.0000   1.0000   1.0000   1.0000
     1.0000   1.0000   1.0000   1.0000   1.0000   1.0000   1.0000   1.0000
     1.0000   1.0000   1.0000   1.0000   1.0000   1.0000   1.0000   1.0000
     1.0000   1.0000   1.0000   1.0000   1.0000   1.0000   1.0000   1.0000
     1.0000   1.0000   1.0000   1.0000   1.0000   1.0000   1.0000   1.0000
     1.0000   1.0000   1.0000   1.0000   1.0000   1.0000   1.0000   1.0000
     1.0000   1.0000   1.0000   1.0000   1.0000   1.0000   1.0000   1.0000
     1.0000   1.0000   1.0000   1.0000   1.0000   1.0000   1.0000   1.0000
     1.0000   1.0000   1.0000   1.0000   1.0000   1.0000   1.0000   1.0000
     1.0000   1.0000   1.0000   1.0000   1.0000   1.0000   1.0000   1.0000
     1.0000   1.0000   1.0000   1.0000   1.0000   1.0000   1.0000   1.0000
     1.0000   1.0000   1.0000   1.0000   1.0000   1.0000   1.0000   1.0000
     1.0000   1.0000   1.0000   1.0000   1.0000   1.0000   1.0000   1.0000
     1.0000   1.0000   1.0000   1.0000   1.0000   1.0000   1.0000   1.0000
     1.0000   1.0000   1.0000   1.0000   1.0000   1.0000   1.0000   1.0000
     1.0000   1.0000   1.0000   1.0000   1.0000   1.0000   1.0000   1.0000
     1.0000   1.0000   1.0000   1.0000   1.0000   1.0000   1.0000   1.0000
     1.0000   1.0000   1.0000   1.0000   1.0000   1.0000   1.0000   1.0000
     1.0000   1.0000   1.0000   1.0000   1.0000   1.0000   1.0000   1.0000
     1.0000   1.0000   1.0000   1.0000   1.0000   1.0000   1.0000   1.0000
     1.0000   1.0000   1.0000   1.0000   1.0000   1.0000   1.0000   1.0000
     1.0000   1.0000   1.0000   1.0000   1.0000   1.0000   1.0000   1.0035
     0.1415   0.0000   0.0000   0.0000   0.0000   0.0000   0.0000   0.0000
     0.0000   0.0000   0.0000   0.0000   0.0000   0.0000   0.0000   0.0000
     0.0000   0.0000   0.0000   0.0000   0.0000   0.0000   0.0000   0.0000
     0.0000   0.0000   0.0000   0.0000   0.0000   0.0000   0.0000   0.0000
     0.0000   0.0000   0.0000   0.0000   0.0000   0.0000   0.0000   0.0000
     0.0000   0.0000   0.0000   0.0000   0.0000   0.0000   0.0000   0.0000
     0.0000   0.0000   0.0000   0.0000   0.0000   0.0000   0.0000   0.0000
     0.0000   0.0000   0.0000   0.0000

          k =-0.5000-0.5000-0.5000 (269968 PWs)   bands (ev):

   -78.7876 -44.9246 -44.9246 -44.9246  -7.0225  -7.0193  -7.0193  -7.0193
    -7.0093  -7.0093  -7.0093  -6.9528  -6.4009  -6.4009  -6.4009  -6.3994
    -6.3986  -6.3986  -6.3986  -6.3986  -6.3986  -6.3979  -6.3979  -6.3979
    -6.3949  -6.3949  -6.3949  -6.3943  -6.3943  -6.3940  -6.3940  -6.3940
    -6.3435  -6.3268  -6.3268  -6.3268  -0.5909  -0.5882  -0.5882  -0.5882
    -0.5866  -0.5866  -0.5866  -0.5816  -0.5763  -0.5763  -0.5763  -0.5758
    -0.5758  -0.5754  -0.5754  -0.5754  -0.5733  -0.5733  -0.5733  -0.5731
    -0.5731  -0.5623  -0.5623  -0.5623  -0.5581  -0.5572  -0.5572  -0.5568
    -0.5568  -0.5568  -0.5567  -0.5567  -0.5567  -0.5557  -0.5557  -0.5557
    -0.5543  -0.5543  -0.5543  -0.5539  -0.5539  -0.5539  -0.5179  -0.5009
    -0.5009  -0.4942  -0.4942  -0.4942  -0.4237  -0.4232  -0.4232  -0.4232
    -0.4220  -0.4220  -0.4220  -0.4212  -0.4212  -0.4212  -0.4211  -0.4211
    -0.4204  -0.4204  -0.4204  -0.4194  -0.4172  -0.4172  -0.4172  -0.4044
    -0.4044  -0.3494  -0.3494  -0.3494  -0.3101  -0.3101  -0.3101  -0.3097
    -0.3097  -0.3093  -0.3093  -0.3093  -0.3091  -0.3084  -0.3084  -0.3084
    -0.3084  -0.3084  -0.3084  -0.3071  -0.3071  -0.3071  -0.2800  -0.2800
    -0.2797  -0.1671  -0.1671  -0.1671  -0.1596  -0.1596  -0.1595  -0.1595
    -0.1595  -0.1578  -0.1578  -0.1578  -0.1564  -0.1564  -0.1564  -0.1400
    -0.1400  -0.1400  -0.1400  -0.1400  -0.1200  -0.1200  -0.1200  -0.1193
    -0.1193  -0.1192  -0.1183  -0.1183  -0.1183  -0.1177  -0.1177  -0.1177
    -0.1169  -0.1166  -0.1166  -0.1166  -0.1147  -0.1147  -0.1147  -0.0744
    -0.0744  -0.0744  -0.0130  -0.0130  -0.0011  -0.0011  -0.0011  -0.0001
    -0.0001   0.0002   0.0002   0.0002   0.0003   0.0005   0.0005   0.0005
     0.0011   0.0011   0.0011   0.0014   0.0014   0.0014   0.0326   1.1098
     1.1098   1.1098   1.1656   1.1656   1.1943   1.1957   1.1957   1.1957
     1.1968   1.1968   1.1968   1.1983   1.1983   1.1990   1.1990   1.1990
     1.2079   1.2079   1.2079   1.2237   1.2237   1.2237   1.7037   2.6632
     2.6632   2.6632   2.7994   2.8074   2.8074   2.8074   2.9288   3.0947
     3.0947   3.1677   3.1677   3.1677   3.2544   3.2545   3.2545   3.2545
     3.2547   3.2547   3.2578   3.2578   3.2578   3.2580   3.2580   3.2580
     3.2646   3.2646   3.2646   3.2973   3.2973   3.2973   3.4356   3.8803
     3.8803   3.8803   3.9803   3.9803   4.0349   4.0349   4.0349   4.0359
     4.0376   4.0376   4.0376   4.0380   4.0380   4.0380   4.0401   4.0401
     4.0433   4.0537   4.0537   4.0537   4.0578   4.0578   4.0578   4.8437
     4.8437   4.8437   5.0713   5.0713   5.1255   5.1255   5.1255   5.1278
     5.1278   5.1332   5.1332   5.1332   5.1334   5.1334   5.1334   6.7551
     6.7552   7.7577   7.7578   7.7578   8.9728   8.9810   8.9810   8.9810
     8.9883   8.9883   8.9883   9.1646   9.8886   9.8886   9.8886   9.8897
     9.8922   9.8922   9.8926   9.8926   9.8926   9.8978   9.8978   9.8978
     9.8989   9.8989   9.8989   9.9020   9.9020   9.9020  10.0429  10.0429
    10.0784  10.0784  10.0784  10.4452  11.4712  11.4712  11.4712  11.4941
    11.4941  11.4941  11.4962  11.4962  11.4962  11.4966  11.4995  11.4995
    11.4995  11.5053  11.5053  11.5053  11.5067  11.5067  11.5118  11.5118
    11.6849  11.6849  11.6849  12.2478

     occupation numbers 
     1.0000   1.0000   1.0000   1.0000   1.0000   1.0000   1.0000   1.0000
     1.0000   1.0000   1.0000   1.0000   1.0000   1.0000   1.0000   1.0000
     1.0000   1.0000   1.0000   1.0000   1.0000   1.0000   1.0000   1.0000
     1.0000   1.0000   1.0000   1.0000   1.0000   1.0000   1.0000   1.0000
     1.0000   1.0000   1.0000   1.0000   1.0000   1.0000   1.0000   1.0000
     1.0000   1.0000   1.0000   1.0000   1.0000   1.0000   1.0000   1.0000
     1.0000   1.0000   1.0000   1.0000   1.0000   1.0000   1.0000   1.0000
     1.0000   1.0000   1.0000   1.0000   1.0000   1.0000   1.0000   1.0000
     1.0000   1.0000   1.0000   1.0000   1.0000   1.0000   1.0000   1.0000
     1.0000   1.0000   1.0000   1.0000   1.0000   1.0000   1.0000   1.0000
     1.0000   1.0000   1.0000   1.0000   1.0000   1.0000   1.0000   1.0000
     1.0000   1.0000   1.0000   1.0000   1.0000   1.0000   1.0000   1.0000
     1.0000   1.0000   1.0000   1.0000   1.0000   1.0000   1.0000   1.0000
     1.0000   1.0000   1.0000   1.0000   1.0000   1.0000   1.0000   1.0000
     1.0000   1.0000   1.0000   1.0000   1.0000   1.0000   1.0000   1.0000
     1.0000   1.0000   1.0000   1.0000   1.0000   1.0000   1.0000   1.0000
     1.0000   1.0000   1.0000   1.0000   1.0000   1.0000   1.0000   1.0000
     1.0000   1.0000   1.0000   1.0000   1.0000   1.0000   1.0000   1.0000
     1.0000   1.0000   1.0000   1.0000   1.0000   1.0000   1.0000   1.0000
     1.0000   1.0000   1.0000   1.0000   1.0000   1.0000   1.0000   1.0000
     1.0000   1.0000   1.0000   1.0000   1.0000   1.0000   1.0000   1.0000
     1.0000   1.0000   1.0000   1.0000   1.0000   1.0000   1.0000   1.0000
     1.0000   1.0000   1.0000   1.0000   1.0000   1.0000   1.0000   1.0000
     1.0000   1.0000   1.0000   1.0000   1.0000   1.0000   1.0000   1.0000
     1.0000   1.0000   1.0000   1.0000   1.0000   1.0000   1.0000   1.0000
     1.0000   1.0000   1.0000   1.0000   1.0000   1.0000   1.0000   1.0000
     1.0000   1.0000   1.0000   1.0000   1.0000   1.0000   1.0000   1.0000
     1.0000   1.0000   1.0000   1.0000   1.0000   1.0000   1.0000   1.0000
     1.0000   1.0000   1.0000   1.0000   1.0000   1.0000   1.0000   1.0000
     1.0000   1.0000   1.0000   1.0000   1.0000   1.0000   1.0000   1.0000
     1.0000   1.0000   1.0000   1.0000   1.0000   1.0000   1.0000   1.0000
     1.0000   1.0000   1.0000   1.0000   1.0000   1.0000   1.0000   1.0000
     1.0000   1.0000   1.0000   1.0000   1.0000   1.0000   1.0000   1.0000
     1.0000   1.0000   1.0000   1.0000   1.0000   1.0000   1.0000   1.0000
     1.0000   1.0000   1.0000   1.0000   1.0000   1.0000   1.0000   1.0000
     1.0000   1.0000   1.0000   1.0000   1.0000   1.0000   1.0000   1.0044
     1.0548   0.0000   0.0000   0.0000   0.0000   0.0000   0.0000   0.0000
     0.0000   0.0000   0.0000   0.0000   0.0000   0.0000   0.0000   0.0000
     0.0000   0.0000   0.0000   0.0000   0.0000   0.0000   0.0000   0.0000
     0.0000   0.0000   0.0000   0.0000   0.0000   0.0000   0.0000   0.0000
     0.0000   0.0000   0.0000   0.0000   0.0000   0.0000   0.0000   0.0000
     0.0000   0.0000   0.0000   0.0000   0.0000   0.0000   0.0000   0.0000
     0.0000   0.0000   0.0000   0.0000   0.0000   0.0000   0.0000   0.0000
     0.0000   0.0000   0.0000   0.0000

     the Fermi energy is     6.7686 ev
     (compare with:     6.7687 eV, computed in scf)

     Writing all to output data dir ./out/Fe_q0.save/
 
     init_run     :      6.69s CPU      8.05s WALL (       1 calls)
     electrons    :    132.88s CPU    134.26s WALL (       1 calls)

     Called by init_run:
     wfcinit      :      0.00s CPU      0.23s WALL (       1 calls)
     wfcinit:atom :      0.03s CPU      0.04s WALL (       2 calls)
     wfcinit:wfcr :      2.52s CPU      2.63s WALL (       2 calls)
     potinit      :      0.59s CPU      1.47s WALL (       1 calls)
     hinit0       :      0.38s CPU      0.46s WALL (       1 calls)

     Called by electrons:
     c_bands      :    131.49s CPU    132.85s WALL (       1 calls)
     v_of_rho     :      0.27s CPU      0.33s WALL (       1 calls)
     v_h          :      0.01s CPU      0.01s WALL (       1 calls)
     v_xc         :      0.26s CPU      0.32s WALL (       1 calls)
     newd         :      0.05s CPU      0.05s WALL (       1 calls)
     PAW_pot      :      0.15s CPU      0.17s WALL (       1 calls)

     Called by c_bands:
     init_us_2    :      0.05s CPU      0.07s WALL (       2 calls)
     init_us_2:cp :      0.05s CPU      0.07s WALL (       2 calls)
     cegterg      :    125.73s CPU    126.92s WALL (      12 calls)

     Called by sum_band:

     Called by *egterg:
     cdiaghg      :     14.53s CPU     14.62s WALL (     242 calls)
     cegterg:over :     11.58s CPU     11.68s WALL (     240 calls)
     cegterg:upda :     11.08s CPU     11.17s WALL (     240 calls)
     cegterg:last :     19.17s CPU     19.29s WALL (      65 calls)
     cdiaghg:chol :      0.91s CPU      0.91s WALL (     242 calls)
     cdiaghg:inve :      1.27s CPU      1.28s WALL (     242 calls)
     cdiaghg:para :      2.22s CPU      2.24s WALL (     484 calls)
     h_psi        :     55.74s CPU     56.35s WALL (     254 calls)
     s_psi        :     13.27s CPU     13.35s WALL (     254 calls)
     g_psi        :      0.38s CPU      0.39s WALL (     240 calls)

     Called by h_psi:
     h_psi:calbec :     12.54s CPU     12.63s WALL (     254 calls)
     vloc_psi     :     29.48s CPU     29.77s WALL (     254 calls)
     add_vuspsi   :     13.13s CPU     13.24s WALL (     254 calls)

     General routines
     calbec       :     12.54s CPU     12.62s WALL (     254 calls)
     fft          :      0.45s CPU      0.59s WALL (      21 calls)
     fftw         :     27.39s CPU     27.66s WALL (   50628 calls)
 
     Parallel routines

     PAW routines
     PAW_pot      :      0.15s CPU      0.17s WALL (       1 calls)
 
     PWSCF        :   2m49.30s CPU   3m59.87s WALL

 
   This run was terminated on:  11:59: 6   5Jul2024            

=------------------------------------------------------------------------------=
   JOB DONE.
=------------------------------------------------------------------------------=
