
     Program PWSCF v.7.2 starts on  7Jul2024 at  3:17:25 

     This program is part of the open-source Quantum ESPRESSO suite
     for quantum simulation of materials; please cite
         "P. Giannozzi et al., J. Phys.:Condens. Matter 21 395502 (2009);
         "P. Giannozzi et al., J. Phys.:Condens. Matter 29 465901 (2017);
         "P. Giannozzi et al., J. Chem. Phys. 152 154105 (2020);
          URL http://www.quantum-espresso.org", 
     in publications or presentations arising from this work. More details at
     http://www.quantum-espresso.org/quote

     Parallel version (MPI), running on   784 processors

     MPI processes distributed on     7 nodes
     224173 MiB available memory on the printing compute node when the environment starts
 
     Reading input from 2.Co_vac_in_ZnS.nscf.qp1.unrlxd.in

     Current dimensions of program PWSCF are:
     Max number of different atomic species (ntypx) = 10
     Max number of k-points (npk) =  40000
     Max angular momentum in pseudopotentials (lmaxx) =  4

     Atomic positions and unit cell read from directory:
     ./out/Co_vac_qp1_unrlxd.save/
 
     file S.pbe-n-kjpaw_psl.1.0.0.UPF: wavefunction(s)  3S 3P renormalized
     file Zn.pbe-dnl-kjpaw_psl.1.0.0.UPF: wavefunction(s)  4S 3D renormalized
     file Co.pbe-spn-kjpaw_psl.0.3.1.UPF: wavefunction(s)  3P 3D renormalized
     [opt_tetra]  Optimized tetrahedron method is used.
 
     K-points division:     npool     =       7
     R & G space division:  proc/nbgrp/npool/nimage =     112
     Subspace diagonalization in iterative solution of the eigenvalue problem:
     one sub-group per band group will be used
     scalapack distributed-memory algorithm (size of sub-group:  3*  3 procs)

 
     Parallelization info
     --------------------
     sticks:   dense  smooth     PW     G-vecs:    dense   smooth      PW
     Min         180     180     46                19282    19282    2562
     Max         181     181     47                19291    19291    2573
     Sum       20217   20217   5249              2160009  2160009  287777
 
     Using Slab Decomposition
 


     bravais-lattice index     =            1
     lattice parameter (alat)  =      20.5686  a.u.
     unit-cell volume          =    8701.8437 (a.u.)^3
     number of atoms/cell      =           63
     number of atomic types    =            3
     number of electrons       =       574.00
     number of Kohn-Sham states=          344
     kinetic-energy cutoff     =     150.0000  Ry
     charge density cutoff     =     600.0000  Ry
     Exchange-correlation= SLA  PW   PBX  PBC
                           (   1   4   3   4   0   0   0)

     celldm(1)=  20.568554  celldm(2)=   0.000000  celldm(3)=   0.000000
     celldm(4)=   0.000000  celldm(5)=   0.000000  celldm(6)=   0.000000

     crystal axes: (cart. coord. in units of alat)
               a(1) = (   1.000000   0.000000   0.000000 )  
               a(2) = (   0.000000   1.000000   0.000000 )  
               a(3) = (   0.000000   0.000000   1.000000 )  

     reciprocal axes: (cart. coord. in units 2 pi/alat)
               b(1) = (  1.000000  0.000000  0.000000 )  
               b(2) = (  0.000000  1.000000  0.000000 )  
               b(3) = (  0.000000  0.000000  1.000000 )  


     PseudoPot. # 1 for S  read from file:
     /arf/home/amuhaymin/pseudo/S.pbe-n-kjpaw_psl.1.0.0.UPF
     MD5 check sum: fb45dfebcf3e72a4e1bd4a866ec2e262
     Pseudo is Projector augmented-wave + core cor, Zval =  6.0
     Generated using &quot;atomic&quot; code by A. Dal Corso  v.6.3
     Shape of augmentation charge: PSQ
     Using radial grid of 1151 points,  6 beta functions with: 
                l(1) =   0
                l(2) =   0
                l(3) =   1
                l(4) =   1
                l(5) =   2
                l(6) =   2
     Q(r) pseudized with 0 coefficients 


     PseudoPot. # 2 for Zn read from file:
     /arf/home/amuhaymin/pseudo/Zn.pbe-dnl-kjpaw_psl.1.0.0.UPF
     MD5 check sum: c608214d9520ac179f507641260889e3
     Pseudo is Projector augmented-wave + core cor, Zval = 12.0
     Generated using &quot;atomic&quot; code by A. Dal Corso  v.6.2.2
     Shape of augmentation charge: PSQ
     Using radial grid of 1201 points,  6 beta functions with: 
                l(1) =   0
                l(2) =   0
                l(3) =   1
                l(4) =   1
                l(5) =   2
                l(6) =   2
     Q(r) pseudized with 0 coefficients 


     PseudoPot. # 3 for Co read from file:
     /arf/home/amuhaymin/pseudo/Co.pbe-spn-kjpaw_psl.0.3.1.UPF
     MD5 check sum: b0a1ad65bf214e88c1f3d33b20c7d919
     Pseudo is Projector augmented-wave + core cor, Zval = 17.0
     Generated using &quot;atomic&quot; code by A. Dal Corso  v.6.2.2
     Shape of augmentation charge: PSQ
     Using radial grid of 1193 points,  6 beta functions with: 
                l(1) =   0
                l(2) =   0
                l(3) =   1
                l(4) =   1
                l(5) =   2
                l(6) =   2
     Q(r) pseudized with 0 coefficients 


     atomic species   valence    mass     pseudopotential
        S              6.00    32.06500     S ( 1.00)
        Zn            12.00    65.38000     Zn( 1.00)
        Co            17.00    63.54600     Co( 1.00)

     Starting magnetic structure 
     atomic species   magnetization
        S            0.000
        Zn           0.000
        Co           0.235

      6 Sym. Ops. (no inversion) found


                                    s                        frac. trans.

      isym =  1     identity                                     

 cryst.   s( 1) = (     1          0          0      )
                  (     0          1          0      )
                  (     0          0          1      )

 cart.    s( 1) = (  1.0000000  0.0000000  0.0000000 )
                  (  0.0000000  1.0000000  0.0000000 )
                  (  0.0000000  0.0000000  1.0000000 )


      isym =  2     120 deg rotation - cart. axis [-1,-1,-1]     

 cryst.   s( 2) = (     0          0          1      )
                  (     1          0          0      )
                  (     0          1          0      )

 cart.    s( 2) = (  0.0000000  1.0000000  0.0000000 )
                  (  0.0000000  0.0000000  1.0000000 )
                  (  1.0000000  0.0000000  0.0000000 )


      isym =  3     120 deg rotation - cart. axis [1,1,1]        

 cryst.   s( 3) = (     0          1          0      )
                  (     0          0          1      )
                  (     1          0          0      )

 cart.    s( 3) = (  0.0000000  0.0000000  1.0000000 )
                  (  1.0000000  0.0000000  0.0000000 )
                  (  0.0000000  1.0000000  0.0000000 )


      isym =  4     inv. 180 deg rotation - cart. axis [1,-1,0]  

 cryst.   s( 4) = (     0          1          0      )
                  (     1          0          0      )
                  (     0          0          1      )

 cart.    s( 4) = (  0.0000000  1.0000000  0.0000000 )
                  (  1.0000000  0.0000000  0.0000000 )
                  (  0.0000000  0.0000000  1.0000000 )


      isym =  5     inv. 180 deg rotation - cart. axis [-1,0,1]  

 cryst.   s( 5) = (     0          0          1      )
                  (     0          1          0      )
                  (     1          0          0      )

 cart.    s( 5) = (  0.0000000  0.0000000  1.0000000 )
                  (  0.0000000  1.0000000  0.0000000 )
                  (  1.0000000  0.0000000  0.0000000 )


      isym =  6     inv. 180 deg rotation - cart. axis [0,1,-1]  

 cryst.   s( 6) = (     1          0          0      )
                  (     0          0          1      )
                  (     0          1          0      )

 cart.    s( 6) = (  1.0000000  0.0000000  0.0000000 )
                  (  0.0000000  0.0000000  1.0000000 )
                  (  0.0000000  1.0000000  0.0000000 )


     point group C_3v (3m)  
     there are  3 classes
     the character table:

       E     2C3   3s_v 
A_1    1.00  1.00  1.00
A_2    1.00  1.00 -1.00
E      2.00 -1.00  0.00

     the symmetry operations in each class and the name of the first element:

     E        1
          identity                                               
     2C3      2    3
          120 deg rotation - cart. axis [-1,-1,-1]               
     3s_v     4    5    6
          inv. 180 deg rotation - cart. axis [1,-1,0]            

   Cartesian axes

     site n.     atom                  positions (alat units)
         1           Zn  tau(   1) = (   0.0000000   0.0000000   0.0000000  )
         2           Zn  tau(   2) = (   0.0000000   0.2500000   0.2500000  )
         3           Zn  tau(   3) = (   0.2500000   0.0000000   0.2500000  )
         4           Zn  tau(   4) = (   0.2500000   0.2500000   0.0000000  )
         5           S   tau(   5) = (   0.1250000   0.3750000   0.3750000  )
         6           S   tau(   6) = (   0.1250000   0.1250000   0.1250000  )
         7           S   tau(   7) = (   0.3750000   0.3750000   0.1250000  )
         8           S   tau(   8) = (   0.3750000   0.1250000   0.3750000  )
         9           Zn  tau(   9) = (   0.0000000   0.0000000   0.5000000  )
        10           Zn  tau(  10) = (   0.0000000   0.2500000   0.7500000  )
        11           Zn  tau(  11) = (   0.2500000   0.0000000   0.7500000  )
        12           Zn  tau(  12) = (   0.2500000   0.2500000   0.5000000  )
        13           S   tau(  13) = (   0.1250000   0.3750000   0.8750000  )
        14           S   tau(  14) = (   0.1250000   0.1250000   0.6250000  )
        15           S   tau(  15) = (   0.3750000   0.3750000   0.6250000  )
        16           S   tau(  16) = (   0.3750000   0.1250000   0.8750000  )
        17           Zn  tau(  17) = (   0.0000000   0.5000000   0.0000000  )
        18           Zn  tau(  18) = (   0.0000000   0.7500000   0.2500000  )
        19           Zn  tau(  19) = (   0.2500000   0.5000000   0.2500000  )
        20           Zn  tau(  20) = (   0.2500000   0.7500000   0.0000000  )
        21           S   tau(  21) = (   0.1250000   0.8750000   0.3750000  )
        22           S   tau(  22) = (   0.1250000   0.6250000   0.1250000  )
        23           S   tau(  23) = (   0.3750000   0.8750000   0.1250000  )
        24           S   tau(  24) = (   0.3750000   0.6250000   0.3750000  )
        25           Zn  tau(  25) = (   0.0000000   0.5000000   0.5000000  )
        26           Zn  tau(  26) = (   0.0000000   0.7500000   0.7500000  )
        27           Zn  tau(  27) = (   0.2500000   0.5000000   0.7500000  )
        28           Zn  tau(  28) = (   0.2500000   0.7500000   0.5000000  )
        29           S   tau(  29) = (   0.1250000   0.8750000   0.8750000  )
        30           S   tau(  30) = (   0.1250000   0.6250000   0.6250000  )
        31           S   tau(  31) = (   0.3750000   0.8750000   0.6250000  )
        32           S   tau(  32) = (   0.3750000   0.6250000   0.8750000  )
        33           Zn  tau(  33) = (   0.5000000   0.0000000   0.0000000  )
        34           Zn  tau(  34) = (   0.5000000   0.2500000   0.2500000  )
        35           Zn  tau(  35) = (   0.7500000   0.0000000   0.2500000  )
        36           Zn  tau(  36) = (   0.7500000   0.2500000   0.0000000  )
        37           S   tau(  37) = (   0.6250000   0.3750000   0.3750000  )
        38           S   tau(  38) = (   0.6250000   0.1250000   0.1250000  )
        39           S   tau(  39) = (   0.8750000   0.3750000   0.1250000  )
        40           S   tau(  40) = (   0.8750000   0.1250000   0.3750000  )
        41           Zn  tau(  41) = (   0.5000000   0.0000000   0.5000000  )
        42           Zn  tau(  42) = (   0.5000000   0.2500000   0.7500000  )
        43           Zn  tau(  43) = (   0.7500000   0.0000000   0.7500000  )
        44           Zn  tau(  44) = (   0.7500000   0.2500000   0.5000000  )
        45           S   tau(  45) = (   0.6250000   0.3750000   0.8750000  )
        46           S   tau(  46) = (   0.6250000   0.1250000   0.6250000  )
        47           S   tau(  47) = (   0.8750000   0.3750000   0.6250000  )
        48           S   tau(  48) = (   0.8750000   0.1250000   0.8750000  )
        49           Zn  tau(  49) = (   0.5000000   0.5000000   0.0000000  )
        50           Zn  tau(  50) = (   0.5000000   0.7500000   0.2500000  )
        51           Zn  tau(  51) = (   0.7500000   0.5000000   0.2500000  )
        52           Zn  tau(  52) = (   0.7500000   0.7500000   0.0000000  )
        53           S   tau(  53) = (   0.6250000   0.8750000   0.3750000  )
        54           S   tau(  54) = (   0.6250000   0.6250000   0.1250000  )
        55           S   tau(  55) = (   0.8750000   0.8750000   0.1250000  )
        56           S   tau(  56) = (   0.8750000   0.6250000   0.3750000  )
        57           Co  tau(  57) = (   0.5000000   0.5000000   0.5000000  )
        58           Zn  tau(  58) = (   0.5000000   0.7500000   0.7500000  )
        59           Zn  tau(  59) = (   0.7500000   0.5000000   0.7500000  )
        60           Zn  tau(  60) = (   0.7500000   0.7500000   0.5000000  )
        61           S   tau(  61) = (   0.6250000   0.8750000   0.8750000  )
        62           S   tau(  62) = (   0.8750000   0.8750000   0.6250000  )
        63           S   tau(  63) = (   0.8750000   0.6250000   0.8750000  )

   Crystallographic axes

     site n.     atom                  positions (cryst. coord.)
         1           Zn  tau(   1) = (  0.0000000  0.0000000  0.0000000  )
         2           Zn  tau(   2) = (  0.0000000  0.2500000  0.2500000  )
         3           Zn  tau(   3) = (  0.2500000  0.0000000  0.2500000  )
         4           Zn  tau(   4) = (  0.2500000  0.2500000  0.0000000  )
         5           S   tau(   5) = (  0.1250000  0.3750000  0.3750000  )
         6           S   tau(   6) = (  0.1250000  0.1250000  0.1250000  )
         7           S   tau(   7) = (  0.3750000  0.3750000  0.1250000  )
         8           S   tau(   8) = (  0.3750000  0.1250000  0.3750000  )
         9           Zn  tau(   9) = (  0.0000000  0.0000000  0.5000000  )
        10           Zn  tau(  10) = (  0.0000000  0.2500000  0.7500000  )
        11           Zn  tau(  11) = (  0.2500000  0.0000000  0.7500000  )
        12           Zn  tau(  12) = (  0.2500000  0.2500000  0.5000000  )
        13           S   tau(  13) = (  0.1250000  0.3750000  0.8750000  )
        14           S   tau(  14) = (  0.1250000  0.1250000  0.6250000  )
        15           S   tau(  15) = (  0.3750000  0.3750000  0.6250000  )
        16           S   tau(  16) = (  0.3750000  0.1250000  0.8750000  )
        17           Zn  tau(  17) = (  0.0000000  0.5000000  0.0000000  )
        18           Zn  tau(  18) = (  0.0000000  0.7500000  0.2500000  )
        19           Zn  tau(  19) = (  0.2500000  0.5000000  0.2500000  )
        20           Zn  tau(  20) = (  0.2500000  0.7500000  0.0000000  )
        21           S   tau(  21) = (  0.1250000  0.8750000  0.3750000  )
        22           S   tau(  22) = (  0.1250000  0.6250000  0.1250000  )
        23           S   tau(  23) = (  0.3750000  0.8750000  0.1250000  )
        24           S   tau(  24) = (  0.3750000  0.6250000  0.3750000  )
        25           Zn  tau(  25) = (  0.0000000  0.5000000  0.5000000  )
        26           Zn  tau(  26) = (  0.0000000  0.7500000  0.7500000  )
        27           Zn  tau(  27) = (  0.2500000  0.5000000  0.7500000  )
        28           Zn  tau(  28) = (  0.2500000  0.7500000  0.5000000  )
        29           S   tau(  29) = (  0.1250000  0.8750000  0.8750000  )
        30           S   tau(  30) = (  0.1250000  0.6250000  0.6250000  )
        31           S   tau(  31) = (  0.3750000  0.8750000  0.6250000  )
        32           S   tau(  32) = (  0.3750000  0.6250000  0.8750000  )
        33           Zn  tau(  33) = (  0.5000000  0.0000000  0.0000000  )
        34           Zn  tau(  34) = (  0.5000000  0.2500000  0.2500000  )
        35           Zn  tau(  35) = (  0.7500000  0.0000000  0.2500000  )
        36           Zn  tau(  36) = (  0.7500000  0.2500000  0.0000000  )
        37           S   tau(  37) = (  0.6250000  0.3750000  0.3750000  )
        38           S   tau(  38) = (  0.6250000  0.1250000  0.1250000  )
        39           S   tau(  39) = (  0.8750000  0.3750000  0.1250000  )
        40           S   tau(  40) = (  0.8750000  0.1250000  0.3750000  )
        41           Zn  tau(  41) = (  0.5000000  0.0000000  0.5000000  )
        42           Zn  tau(  42) = (  0.5000000  0.2500000  0.7500000  )
        43           Zn  tau(  43) = (  0.7500000  0.0000000  0.7500000  )
        44           Zn  tau(  44) = (  0.7500000  0.2500000  0.5000000  )
        45           S   tau(  45) = (  0.6250000  0.3750000  0.8750000  )
        46           S   tau(  46) = (  0.6250000  0.1250000  0.6250000  )
        47           S   tau(  47) = (  0.8750000  0.3750000  0.6250000  )
        48           S   tau(  48) = (  0.8750000  0.1250000  0.8750000  )
        49           Zn  tau(  49) = (  0.5000000  0.5000000  0.0000000  )
        50           Zn  tau(  50) = (  0.5000000  0.7500000  0.2500000  )
        51           Zn  tau(  51) = (  0.7500000  0.5000000  0.2500000  )
        52           Zn  tau(  52) = (  0.7500000  0.7500000  0.0000000  )
        53           S   tau(  53) = (  0.6250000  0.8750000  0.3750000  )
        54           S   tau(  54) = (  0.6250000  0.6250000  0.1250000  )
        55           S   tau(  55) = (  0.8750000  0.8750000  0.1250000  )
        56           S   tau(  56) = (  0.8750000  0.6250000  0.3750000  )
        57           Co  tau(  57) = (  0.5000000  0.5000000  0.5000000  )
        58           Zn  tau(  58) = (  0.5000000  0.7500000  0.7500000  )
        59           Zn  tau(  59) = (  0.7500000  0.5000000  0.7500000  )
        60           Zn  tau(  60) = (  0.7500000  0.7500000  0.5000000  )
        61           S   tau(  61) = (  0.6250000  0.8750000  0.8750000  )
        62           S   tau(  62) = (  0.8750000  0.8750000  0.6250000  )
        63           S   tau(  63) = (  0.8750000  0.6250000  0.8750000  )

     number of k points=    13 (tetrahedron method)
                       cart. coord. in units 2pi/alat
        k(    1) = (   0.0000000   0.0000000   0.0000000), wk =   0.0156250
        k(    2) = (   0.0000000   0.0000000   0.2500000), wk =   0.0937500
        k(    3) = (   0.0000000   0.0000000  -0.5000000), wk =   0.0468750
        k(    4) = (   0.0000000   0.2500000   0.2500000), wk =   0.0937500
        k(    5) = (   0.0000000   0.2500000  -0.5000000), wk =   0.1875000
        k(    6) = (   0.0000000  -0.5000000  -0.5000000), wk =   0.0468750
        k(    7) = (   0.2500000   0.2500000   0.2500000), wk =   0.0312500
        k(    8) = (   0.2500000   0.2500000  -0.5000000), wk =   0.0937500
        k(    9) = (   0.2500000  -0.5000000  -0.5000000), wk =   0.0937500
        k(   10) = (  -0.5000000  -0.5000000  -0.5000000), wk =   0.0156250
        k(   11) = (  -0.2500000   0.0000000   0.2500000), wk =   0.0937500
        k(   12) = (   0.2500000  -0.2500000   0.2500000), wk =   0.0937500
        k(   13) = (   0.2500000  -0.2500000  -0.5000000), wk =   0.0937500

                       cryst. coord.
        k(    1) = (   0.0000000   0.0000000   0.0000000), wk =   0.0156250
        k(    2) = (   0.0000000   0.0000000   0.2500000), wk =   0.0937500
        k(    3) = (   0.0000000   0.0000000  -0.5000000), wk =   0.0468750
        k(    4) = (   0.0000000   0.2500000   0.2500000), wk =   0.0937500
        k(    5) = (   0.0000000   0.2500000  -0.5000000), wk =   0.1875000
        k(    6) = (   0.0000000  -0.5000000  -0.5000000), wk =   0.0468750
        k(    7) = (   0.2500000   0.2500000   0.2500000), wk =   0.0312500
        k(    8) = (   0.2500000   0.2500000  -0.5000000), wk =   0.0937500
        k(    9) = (   0.2500000  -0.5000000  -0.5000000), wk =   0.0937500
        k(   10) = (  -0.5000000  -0.5000000  -0.5000000), wk =   0.0156250
        k(   11) = (  -0.2500000   0.0000000   0.2500000), wk =   0.0937500
        k(   12) = (   0.2500000  -0.2500000   0.2500000), wk =   0.0937500
        k(   13) = (   0.2500000  -0.2500000  -0.5000000), wk =   0.0937500

     Dense  grid:  2160009 G-vectors     FFT dimensions: ( 162, 162, 162)

     Dynamical RAM for                 wfc:      12.65 MB

     Dynamical RAM for     wfc (w. buffer):      63.25 MB

     Dynamical RAM for           str. fact:       0.88 MB

     Dynamical RAM for           local pot:       0.00 MB

     Dynamical RAM for          nlocal pot:      41.70 MB

     Dynamical RAM for                qrad:       5.90 MB

     Dynamical RAM for          rho,v,vnew:       4.17 MB

     Dynamical RAM for           G-vectors:       1.25 MB

     Dynamical RAM for          h,s,v(r/c):       2.40 MB

     Dynamical RAM for          <psi|beta>:       5.95 MB

     Dynamical RAM for                 psi:      25.30 MB

     Dynamical RAM for                hpsi:      25.30 MB

     Dynamical RAM for                spsi:      25.30 MB

     Dynamical RAM for      wfcinit/wfcrot:      34.28 MB

     Dynamical RAM for           addusdens:       9.67 MB

     Estimated static dynamical RAM per process >     120.73 MB

     Estimated max dynamical RAM per process >     204.98 MB

     Estimated total dynamical RAM >     156.94 GB

     Check: negative core charge=   -0.000001
     Generating pointlists ...
     new r_m :   0.0893 (alat units)  1.8370 (a.u.) for type    1
     new r_m :   0.0893 (alat units)  1.8370 (a.u.) for type    2
     new r_m :   0.0893 (alat units)  1.8370 (a.u.) for type    3

     The potential is recalculated from file :
     ./out/Co_vac_qp1_unrlxd.save/charge-density

     Starting wfcs are  413 randomized atomic wfcs
     Checking if some PAW data can be deallocated... 
       PAW data deallocated on  400 nodes for type:  1
       PAW data deallocated on  396 nodes for type:  2
       PAW data deallocated on  772 nodes for type:  3

     Band Structure Calculation
     Davidson diagonalization with overlap

     Computing kpt #:     1  of     4 on this pool
     c_bands:  2 eigenvalues not converged
     total cpu time spent up to now is       93.1 secs

     Computing kpt #:     2  of     4 on this pool
     c_bands:  1 eigenvalues not converged
     total cpu time spent up to now is      181.9 secs

     Computing kpt #:     3  of     4 on this pool
     total cpu time spent up to now is      271.4 secs

     Computing kpt #:     4  of     4 on this pool
     c_bands:  2 eigenvalues not converged
     total cpu time spent up to now is      342.4 secs

     ethr =  1.74E-12,  avg # of iterations =107.5

     total cpu time spent up to now is      344.7 secs

     End of band structure calculation

 ------ SPIN UP ------------


          k = 0.0000 0.0000 0.0000 (269825 PWs)   bands (ev):

   -90.0531 -53.4194 -53.4194 -53.1630  -7.5516  -7.0793  -7.0793  -7.0462
    -7.0314  -7.0314  -6.9327  -6.8156  -6.8156  -6.7830  -6.7617  -6.7259
    -6.7259  -6.6954  -6.6954  -6.6787  -6.6787  -6.6704  -6.6348  -6.6259
    -6.6259  -6.6241  -6.4645  -6.4429  -6.4429  -6.3850  -6.3588  -6.3588
    -6.3229  -6.3229  -6.3116  -0.9898  -0.9898  -0.9859  -0.9589  -0.9569
    -0.9569  -0.9361  -0.9127  -0.9127  -0.9063  -0.8758  -0.8758  -0.8528
    -0.8528  -0.8285  -0.7825  -0.7825  -0.7810  -0.7351  -0.7351  -0.7274
    -0.7083  -0.7083  -0.7063  -0.6947  -0.6947  -0.6859  -0.6624  -0.6624
    -0.6606  -0.6511  -0.6503  -0.6503  -0.6454  -0.6454  -0.6452  -0.6437
    -0.6387  -0.6387  -0.6385  -0.6347  -0.6318  -0.6318  -0.6267  -0.6267
    -0.6159  -0.6159  -0.6114  -0.6106  -0.6106  -0.6066  -0.6031  -0.5955
    -0.5955  -0.5922  -0.5922  -0.5921  -0.5852  -0.5788  -0.5788  -0.5749
    -0.5749  -0.5702  -0.5696  -0.5629  -0.5629  -0.5088  -0.5088  -0.5064
    -0.5064  -0.5049  -0.5011  -0.4951  -0.4951  -0.4870  -0.4764  -0.4764
    -0.4740  -0.4740  -0.4719  -0.4631  -0.4631  -0.4600  -0.4518  -0.4518
    -0.4504  -0.4314  -0.4314  -0.4314  -0.3853  -0.3465  -0.3465  -0.3441
    -0.3414  -0.3414  -0.3366  -0.3346  -0.3346  -0.3311  -0.3270  -0.3270
    -0.3201  -0.3159  -0.3159  -0.3151  -0.3140  -0.3026  -0.3026  -0.2991
    -0.2991  -0.2956  -0.2928  -0.2826  -0.2824  -0.2824  -0.2794  -0.2794
    -0.2768  -0.2768  -0.2631  -0.2631  -0.2579  -0.2559  -0.2559  -0.2550
    -0.2515  -0.2515  -0.2435  -0.2305  -0.2305  -0.2274  -0.2256  -0.2256
    -0.2113  -0.2033  -0.2033  -0.2032  -0.1886  -0.1841  -0.1841  -0.1783
    -0.1783  -0.1748  -0.1236  -0.1236  -0.1057  -0.1053  -0.1053  -0.0636
     0.0405   0.0470   0.0470   0.0681   0.0847   0.0847   0.2726   0.3551
     0.3576   0.3576   0.9345   0.9345   0.9499   0.9790   0.9797   0.9797
     1.0360   1.0360   1.1007   1.2621   1.4225   1.4225   1.5450   1.5450
     1.5461   1.5564   1.5637   1.5637   1.7025   1.7025   1.9359   2.3779
     2.3779   2.6405   2.7126   2.7126   2.7700   2.7700   2.7783   2.7804
     2.7863   2.8024   2.8024   2.8624   2.8624   2.8664   2.9457   2.9457
     2.9555   2.9639   2.9639   2.9896   2.9896   2.9944   3.0032   3.0097
     3.0097   3.0777   3.1665   3.1665   3.1870   3.2326   3.2326   3.2731
     3.4457   3.4457   3.4717   3.6984   3.6984   3.9358   4.1226   4.1226
     4.2198   4.2229   4.2229   4.2445   4.2555   4.2555   4.3203   4.3506
     4.3506   4.3914   4.4244   4.4244   4.5084   4.5109   4.5109   4.5487
     4.5563   4.5563   4.5638   4.6250   4.6250   4.6334   4.6400   4.6429
     4.6429   4.8614   4.8614   4.9853   4.9853   5.3784   5.4534   5.4534
     6.1707   7.7911   8.3599   8.3599   8.7815   8.8059   8.8059   8.8658
     8.9591   8.9591   9.0630   9.2529   9.5755   9.5826   9.5826   9.8956
     9.8956  10.0143  10.0143  10.0161  10.0522  10.0522  10.0605  10.0705
    10.0838  10.0838  10.1995  10.2034  10.2086  10.2086  10.2148  10.2148
    10.2400  10.2400  10.2791  10.6374  10.6374  10.7129  11.1487  11.2207
    11.2207  11.2400  11.2400  11.3512  11.3622  11.3674  11.3674  11.7112
    11.7112  11.7492  11.8763  11.9021  11.9021  11.9170  12.0834  12.0941

     occupation numbers 
     1.0000   1.0000   1.0000   1.0000   1.0000   1.0000   1.0000   1.0000
     1.0000   1.0000   1.0000   1.0000   1.0000   1.0000   1.0000   1.0000
     1.0000   1.0000   1.0000   1.0000   1.0000   1.0000   1.0000   1.0000
     1.0000   1.0000   1.0000   1.0000   1.0000   1.0000   1.0000   1.0000
     1.0000   1.0000   1.0000   1.0000   1.0000   1.0000   1.0000   1.0000
     1.0000   1.0000   1.0000   1.0000   1.0000   1.0000   1.0000   1.0000
     1.0000   1.0000   1.0000   1.0000   1.0000   1.0000   1.0000   1.0000
     1.0000   1.0000   1.0000   1.0000   1.0000   1.0000   1.0000   1.0000
     1.0000   1.0000   1.0000   1.0000   1.0000   1.0000   1.0000   1.0000
     1.0000   1.0000   1.0000   1.0000   1.0000   1.0000   1.0000   1.0000
     1.0000   1.0000   1.0000   1.0000   1.0000   1.0000   1.0000   1.0000
     1.0000   1.0000   1.0000   1.0000   1.0000   1.0000   1.0000   1.0000
     1.0000   1.0000   1.0000   1.0000   1.0000   1.0000   1.0000   1.0000
     1.0000   1.0000   1.0000   1.0000   1.0000   1.0000   1.0000   1.0000
     1.0000   1.0000   1.0000   1.0000   1.0000   1.0000   1.0000   1.0000
     1.0000   1.0000   1.0000   1.0000   1.0000   1.0000   1.0000   1.0000
     1.0000   1.0000   1.0000   1.0000   1.0000   1.0000   1.0000   1.0000
     1.0000   1.0000   1.0000   1.0000   1.0000   1.0000   1.0000   1.0000
     1.0000   1.0000   1.0000   1.0000   1.0000   1.0000   1.0000   1.0000
     1.0000   1.0000   1.0000   1.0000   1.0000   1.0000   1.0000   1.0000
     1.0000   1.0000   1.0000   1.0000   1.0000   1.0000   1.0000   1.0000
     1.0000   1.0000   1.0000   1.0000   1.0000   1.0000   1.0000   1.0000
     1.0000   1.0000   1.0000   1.0000   1.0000   1.0000   1.0000   1.0000
     1.0000   1.0000   1.0000   1.0000   1.0000   1.0000   1.0000   1.0000
     1.0000   1.0000   1.0000   1.0000   1.0000   1.0000   1.0000   1.0000
     1.0000   1.0000   1.0000   1.0000   1.0000   1.0000   1.0000   1.0000
     1.0000   1.0000   1.0000   1.0000   1.0000   1.0000   1.0000   1.0000
     1.0000   1.0000   1.0000   1.0000   1.0000   1.0000   1.0000   1.0000
     1.0000   1.0000   1.0000   1.0000   1.0000   1.0000   1.0000   1.0000
     1.0000   1.0000   1.0000   1.0000   1.0000   1.0000   1.0000   1.0000
     1.0000   1.0000   1.0000   1.0000   1.0000   1.0000   1.0000   1.0000
     1.0000   1.0000   1.0000   1.0000   1.0000   1.0000   1.0000   1.0000
     1.0000   1.0000   1.0000   1.0000   1.0000   1.0000   1.0000   1.0000
     1.0000   1.0000   1.0000   1.0000   1.0000   1.0000   1.0000   1.0000
     1.0000   1.0000   1.0000   1.0000   1.0000   1.0000   1.0000   1.0000
     1.0000   1.0000   1.0000   1.0000   1.0000   1.0000   1.0000   1.0000
     0.0000   0.0000   0.0000   0.0000   0.0000   0.0000   0.0000   0.0000
     0.0000   0.0000   0.0000   0.0000   0.0000   0.0000   0.0000   0.0000
     0.0000   0.0000   0.0000   0.0000   0.0000   0.0000   0.0000   0.0000
     0.0000   0.0000   0.0000   0.0000   0.0000   0.0000   0.0000   0.0000
     0.0000   0.0000   0.0000   0.0000   0.0000   0.0000   0.0000   0.0000
     0.0000   0.0000   0.0000   0.0000   0.0000   0.0000   0.0000   0.0000
     0.0000   0.0000   0.0000   0.0000   0.0000   0.0000   0.0000   0.0000

          k = 0.0000 0.0000 0.2500 (269876 PWs)   bands (ev):

   -90.0531 -53.4194 -53.4194 -53.1630  -7.5151  -7.2439  -7.0593  -7.0341
    -7.0089  -6.9512  -6.8797  -6.8760  -6.8404  -6.8325  -6.7858  -6.7413
    -6.7382  -6.7227  -6.6908  -6.6772  -6.6522  -6.6280  -6.5929  -6.5865
    -6.5779  -6.5607  -6.4778  -6.4495  -6.4488  -6.4006  -6.3797  -6.3659
    -6.3522  -6.3335  -6.3161  -0.9881  -0.9863  -0.9845  -0.9573  -0.9570
    -0.9558  -0.9385  -0.9134  -0.9077  -0.9012  -0.8763  -0.8714  -0.8546
    -0.8501  -0.8319  -0.7787  -0.7680  -0.7667  -0.7370  -0.7305  -0.7258
    -0.7107  -0.7089  -0.7035  -0.6946  -0.6916  -0.6827  -0.6764  -0.6745
    -0.6608  -0.6590  -0.6583  -0.6565  -0.6529  -0.6504  -0.6485  -0.6447
    -0.6426  -0.6402  -0.6386  -0.6357  -0.6343  -0.6335  -0.6303  -0.6293
    -0.6254  -0.6200  -0.6175  -0.6146  -0.6146  -0.6090  -0.6040  -0.6035
    -0.6008  -0.5929  -0.5924  -0.5868  -0.5853  -0.5807  -0.5803  -0.5713
    -0.5713  -0.5656  -0.5637  -0.5543  -0.5527  -0.5471  -0.5399  -0.5362
    -0.5262  -0.5182  -0.5150  -0.5114  -0.5094  -0.5017  -0.4996  -0.4829
    -0.4771  -0.4685  -0.4550  -0.4496  -0.4473  -0.4418  -0.4388  -0.4348
    -0.4173  -0.3978  -0.3851  -0.3831  -0.3749  -0.3656  -0.3590  -0.3483
    -0.3378  -0.3355  -0.3303  -0.3275  -0.3240  -0.3236  -0.3217  -0.3168
    -0.3135  -0.3110  -0.3109  -0.3065  -0.3059  -0.2999  -0.2992  -0.2967
    -0.2961  -0.2949  -0.2905  -0.2850  -0.2818  -0.2813  -0.2785  -0.2730
    -0.2726  -0.2681  -0.2656  -0.2618  -0.2615  -0.2569  -0.2559  -0.2558
    -0.2533  -0.2457  -0.2383  -0.2348  -0.2305  -0.2305  -0.2232  -0.2216
    -0.2212  -0.2070  -0.1991  -0.1986  -0.1915  -0.1858  -0.1845  -0.1806
    -0.1788  -0.1757  -0.1574  -0.1547  -0.1544  -0.1515  -0.1101  -0.0928
     0.0160   0.0213   0.0267   0.0385   0.0519   0.0572   0.4594   0.5237
     0.5261   0.5303   0.9285   0.9434   0.9503   0.9595   0.9822   0.9828
     1.0347   1.0831   1.1296   1.2226   1.2309   1.2581   1.2700   1.2896
     1.3588   1.3838   1.5346   1.8534   1.8650   1.9530   1.9651   2.2258
     2.3415   2.4297   2.5284   2.5646   2.5949   2.6159   2.6513   2.6753
     2.7167   2.7241   2.7583   2.7730   2.8463   2.8809   2.9130   2.9446
     2.9917   3.0309   3.1680   3.1852   3.2079   3.2327   3.2506   3.2622
     3.2727   3.2894   3.3009   3.3197   3.3295   3.3585   3.3746   3.4563
     3.4797   3.5127   3.6389   3.7436   3.7564   3.8764   3.9527   3.9778
     4.0630   4.0752   4.1702   4.1709   4.2085   4.2466   4.2543   4.3149
     4.3360   4.3401   4.3719   4.3730   4.3871   4.3876   4.4375   4.5210
     4.5371   4.5564   4.5911   4.6102   4.6315   4.6342   4.6560   4.6630
     4.6798   4.8111   4.8654   4.8966   4.9821   5.1203   5.3148   5.3764
     6.3810   7.9681   8.3310   8.3442   8.8623   8.9776   9.0080   9.0132
     9.0987   9.1278   9.1836   9.4330   9.5591   9.6386   9.6780   9.7718
     9.7775   9.9582   9.9691   9.9836  10.0105  10.0165  10.0976  10.0997
    10.1169  10.1783  10.1888  10.2538  10.2565  10.2832  10.3022  10.3129
    10.3579  10.3625  10.5090  10.5982  10.6236  10.6756  10.7246  10.8434
    10.9554  10.9905  11.0013  11.2003  11.2496  11.3127  11.4895  11.6096
    11.6364  11.6494  11.7000  11.7744  11.7981  11.8070  11.8281  11.9295

     occupation numbers 
     1.0000   1.0000   1.0000   1.0000   1.0000   1.0000   1.0000   1.0000
     1.0000   1.0000   1.0000   1.0000   1.0000   1.0000   1.0000   1.0000
     1.0000   1.0000   1.0000   1.0000   1.0000   1.0000   1.0000   1.0000
     1.0000   1.0000   1.0000   1.0000   1.0000   1.0000   1.0000   1.0000
     1.0000   1.0000   1.0000   1.0000   1.0000   1.0000   1.0000   1.0000
     1.0000   1.0000   1.0000   1.0000   1.0000   1.0000   1.0000   1.0000
     1.0000   1.0000   1.0000   1.0000   1.0000   1.0000   1.0000   1.0000
     1.0000   1.0000   1.0000   1.0000   1.0000   1.0000   1.0000   1.0000
     1.0000   1.0000   1.0000   1.0000   1.0000   1.0000   1.0000   1.0000
     1.0000   1.0000   1.0000   1.0000   1.0000   1.0000   1.0000   1.0000
     1.0000   1.0000   1.0000   1.0000   1.0000   1.0000   1.0000   1.0000
     1.0000   1.0000   1.0000   1.0000   1.0000   1.0000   1.0000   1.0000
     1.0000   1.0000   1.0000   1.0000   1.0000   1.0000   1.0000   1.0000
     1.0000   1.0000   1.0000   1.0000   1.0000   1.0000   1.0000   1.0000
     1.0000   1.0000   1.0000   1.0000   1.0000   1.0000   1.0000   1.0000
     1.0000   1.0000   1.0000   1.0000   1.0000   1.0000   1.0000   1.0000
     1.0000   1.0000   1.0000   1.0000   1.0000   1.0000   1.0000   1.0000
     1.0000   1.0000   1.0000   1.0000   1.0000   1.0000   1.0000   1.0000
     1.0000   1.0000   1.0000   1.0000   1.0000   1.0000   1.0000   1.0000
     1.0000   1.0000   1.0000   1.0000   1.0000   1.0000   1.0000   1.0000
     1.0000   1.0000   1.0000   1.0000   1.0000   1.0000   1.0000   1.0000
     1.0000   1.0000   1.0000   1.0000   1.0000   1.0000   1.0000   1.0000
     1.0000   1.0000   1.0000   1.0000   1.0000   1.0000   1.0000   1.0000
     1.0000   1.0000   1.0000   1.0000   1.0000   1.0000   1.0000   1.0000
     1.0000   1.0000   1.0000   1.0000   1.0000   1.0000   1.0000   1.0000
     1.0000   1.0000   1.0000   1.0000   1.0000   1.0000   1.0000   1.0000
     1.0000   1.0000   1.0000   1.0000   1.0000   1.0000   1.0000   1.0000
     1.0000   1.0000   1.0000   1.0000   1.0000   1.0000   1.0000   1.0000
     1.0000   1.0000   1.0000   1.0000   1.0000   1.0000   1.0000   1.0000
     1.0000   1.0000   1.0000   1.0000   1.0000   1.0000   1.0000   1.0000
     1.0000   1.0000   1.0000   1.0000   1.0000   1.0000   1.0000   1.0000
     1.0000   1.0000   1.0000   1.0000   1.0000   1.0000   1.0000   1.0000
     1.0000   1.0000   1.0000   1.0000   1.0000   1.0000   1.0000   1.0000
     1.0000   1.0000   1.0000   1.0000   1.0000   1.0000   1.0000   1.0000
     1.0000   1.0000   1.0000   1.0000   1.0000   1.0000   1.0000   1.0000
     1.0000   1.0000   1.0000   1.0000   1.0000   1.0000   1.0000   1.0000
     0.0000   0.0000   0.0000   0.0000   0.0000   0.0000   0.0000   0.0000
     0.0000   0.0000   0.0000   0.0000   0.0000   0.0000   0.0000   0.0000
     0.0000   0.0000   0.0000   0.0000   0.0000   0.0000   0.0000   0.0000
     0.0000   0.0000   0.0000   0.0000   0.0000   0.0000   0.0000   0.0000
     0.0000   0.0000   0.0000   0.0000   0.0000   0.0000   0.0000   0.0000
     0.0000   0.0000   0.0000   0.0000   0.0000   0.0000   0.0000   0.0000
     0.0000   0.0000   0.0000   0.0000   0.0000   0.0000   0.0000   0.0000

          k = 0.0000 0.0000-0.5000 (270152 PWs)   bands (ev):

   -90.0531 -53.4194 -53.4194 -53.1630  -7.4233  -7.3922  -7.0256  -6.9979
    -6.9631  -6.9414  -6.9329  -6.9097  -6.9096  -6.8649  -6.7842  -6.7368
    -6.7299  -6.6886  -6.6853  -6.6550  -6.6302  -6.6285  -6.5662  -6.5470
    -6.5213  -6.5205  -6.4815  -6.4661  -6.4336  -6.4292  -6.4139  -6.4077
    -6.3731  -6.3436  -6.3168  -0.9865  -0.9830  -0.9822  -0.9576  -0.9573
    -0.9524  -0.9412  -0.9143  -0.9031  -0.8961  -0.8753  -0.8646  -0.8576
    -0.8470  -0.8374  -0.7750  -0.7409  -0.7333  -0.7310  -0.7264  -0.7235
    -0.7200  -0.7136  -0.7064  -0.7062  -0.6986  -0.6919  -0.6909  -0.6839
    -0.6823  -0.6768  -0.6697  -0.6599  -0.6559  -0.6524  -0.6495  -0.6466
    -0.6435  -0.6397  -0.6377  -0.6363  -0.6356  -0.6343  -0.6320  -0.6302
    -0.6275  -0.6250  -0.6232  -0.6169  -0.6152  -0.6130  -0.6068  -0.6053
    -0.6046  -0.5919  -0.5917  -0.5906  -0.5846  -0.5842  -0.5805  -0.5749
    -0.5740  -0.5668  -0.5609  -0.5556  -0.5539  -0.5451  -0.5390  -0.5379
    -0.5278  -0.5249  -0.5218  -0.5137  -0.5135  -0.4978  -0.4971  -0.4909
    -0.4848  -0.4771  -0.4551  -0.4545  -0.4458  -0.4136  -0.4097  -0.3982
    -0.3929  -0.3911  -0.3768  -0.3707  -0.3597  -0.3553  -0.3547  -0.3515
    -0.3488  -0.3428  -0.3393  -0.3376  -0.3349  -0.3253  -0.3211  -0.3195
    -0.3173  -0.3096  -0.3065  -0.3041  -0.3040  -0.2998  -0.2977  -0.2976
    -0.2946  -0.2934  -0.2921  -0.2904  -0.2874  -0.2784  -0.2769  -0.2766
    -0.2722  -0.2677  -0.2661  -0.2655  -0.2618  -0.2597  -0.2575  -0.2522
    -0.2503  -0.2468  -0.2461  -0.2399  -0.2355  -0.2349  -0.2342  -0.2296
    -0.2268  -0.2224  -0.2055  -0.2040  -0.2015  -0.1907  -0.1861  -0.1801
    -0.1793  -0.1750  -0.1637  -0.1041  -0.1007  -0.0880  -0.0841  -0.0546
    -0.0525  -0.0411  -0.0244  -0.0116   0.0030   0.0390   0.7103   0.8301
     0.8373   0.8631   0.8753   0.8975   0.8990   0.9362   0.9634   0.9647
     0.9737   0.9923   1.0071   1.0484   1.0524   1.0556   1.0679   1.2075
     1.2253   1.4049   1.5646   1.7372   2.0076   2.0351   2.1889   2.3233
     2.3466   2.3587   2.3753   2.4896   2.4910   2.5152   2.5443   2.5556
     2.5568   2.5891   2.6659   2.6838   2.8574   2.8809   3.0003   3.0061
     3.0524   3.0754   3.0998   3.1308   3.1350   3.2383   3.4587   3.5579
     3.5717   3.6043   3.6324   3.6393   3.7151   3.7225   3.7272   3.7412
     3.7495   3.7677   3.7776   3.7815   3.7964   3.8005   3.8234   3.8263
     3.8485   3.8633   3.8743   3.8941   3.9279   3.9768   4.0360   4.0596
     4.1362   4.2575   4.2848   4.3079   4.3507   4.4245   4.4837   4.5238
     4.5316   4.5496   4.5693   4.5764   4.5928   4.6037   4.6326   4.6370
     4.7693   4.7803   4.8467   4.8787   5.0366   5.0579   5.1007   5.2544
     6.5508   7.9541   8.3028   8.7229   8.8191   9.0473   9.2408   9.2624
     9.4629   9.4725   9.4749   9.5323   9.5416   9.5720   9.6128   9.6911
     9.7698   9.7787   9.8178   9.8498   9.9026  10.0610  10.0871  10.0963
    10.1113  10.1202  10.2117  10.2335  10.2843  10.3170  10.3350  10.4589
    10.4987  10.5717  10.6155  10.6257  10.6594  10.6669  10.7720  10.8250
    10.8281  10.8738  10.9151  10.9366  10.9909  11.0520  11.1690  11.2264
    11.2312  11.2750  11.3438  11.6871  11.6951  11.7043  11.7128  11.7516

     occupation numbers 
     1.0000   1.0000   1.0000   1.0000   1.0000   1.0000   1.0000   1.0000
     1.0000   1.0000   1.0000   1.0000   1.0000   1.0000   1.0000   1.0000
     1.0000   1.0000   1.0000   1.0000   1.0000   1.0000   1.0000   1.0000
     1.0000   1.0000   1.0000   1.0000   1.0000   1.0000   1.0000   1.0000
     1.0000   1.0000   1.0000   1.0000   1.0000   1.0000   1.0000   1.0000
     1.0000   1.0000   1.0000   1.0000   1.0000   1.0000   1.0000   1.0000
     1.0000   1.0000   1.0000   1.0000   1.0000   1.0000   1.0000   1.0000
     1.0000   1.0000   1.0000   1.0000   1.0000   1.0000   1.0000   1.0000
     1.0000   1.0000   1.0000   1.0000   1.0000   1.0000   1.0000   1.0000
     1.0000   1.0000   1.0000   1.0000   1.0000   1.0000   1.0000   1.0000
     1.0000   1.0000   1.0000   1.0000   1.0000   1.0000   1.0000   1.0000
     1.0000   1.0000   1.0000   1.0000   1.0000   1.0000   1.0000   1.0000
     1.0000   1.0000   1.0000   1.0000   1.0000   1.0000   1.0000   1.0000
     1.0000   1.0000   1.0000   1.0000   1.0000   1.0000   1.0000   1.0000
     1.0000   1.0000   1.0000   1.0000   1.0000   1.0000   1.0000   1.0000
     1.0000   1.0000   1.0000   1.0000   1.0000   1.0000   1.0000   1.0000
     1.0000   1.0000   1.0000   1.0000   1.0000   1.0000   1.0000   1.0000
     1.0000   1.0000   1.0000   1.0000   1.0000   1.0000   1.0000   1.0000
     1.0000   1.0000   1.0000   1.0000   1.0000   1.0000   1.0000   1.0000
     1.0000   1.0000   1.0000   1.0000   1.0000   1.0000   1.0000   1.0000
     1.0000   1.0000   1.0000   1.0000   1.0000   1.0000   1.0000   1.0000
     1.0000   1.0000   1.0000   1.0000   1.0000   1.0000   1.0000   1.0000
     1.0000   1.0000   1.0000   1.0000   1.0000   1.0000   1.0000   1.0000
     1.0000   1.0000   1.0000   1.0000   1.0000   1.0000   1.0000   1.0000
     1.0000   1.0000   1.0000   1.0000   1.0000   1.0000   1.0000   1.0000
     1.0000   1.0000   1.0000   1.0000   1.0000   1.0000   1.0000   1.0000
     1.0000   1.0000   1.0000   1.0000   1.0000   1.0000   1.0000   1.0000
     1.0000   1.0000   1.0000   1.0000   1.0000   1.0000   1.0000   1.0000
     1.0000   1.0000   1.0000   1.0000   1.0000   1.0000   1.0000   1.0000
     1.0000   1.0000   1.0000   1.0000   1.0000   1.0000   1.0000   1.0000
     1.0000   1.0000   1.0000   1.0000   1.0000   1.0000   1.0000   1.0000
     1.0000   1.0000   1.0000   1.0000   1.0000   1.0000   1.0000   1.0000
     1.0000   1.0000   1.0000   1.0000   1.0000   1.0000   1.0000   1.0000
     1.0000   1.0000   1.0000   1.0000   1.0000   1.0000   1.0000   1.0000
     1.0000   1.0000   1.0000   1.0000   1.0000   1.0000   1.0000   1.0000
     1.0000   1.0000   1.0000   1.0000   1.0000   1.0000   1.0000   1.0000
     0.0000   0.0000   0.0000   0.0000   0.0000   0.0000   0.0000   0.0000
     0.0000   0.0000   0.0000   0.0000   0.0000   0.0000   0.0000   0.0000
     0.0000   0.0000   0.0000   0.0000   0.0000   0.0000   0.0000   0.0000
     0.0000   0.0000   0.0000   0.0000   0.0000   0.0000   0.0000   0.0000
     0.0000   0.0000   0.0000   0.0000   0.0000   0.0000   0.0000   0.0000
     0.0000   0.0000   0.0000   0.0000   0.0000   0.0000   0.0000   0.0000
     0.0000   0.0000   0.0000   0.0000   0.0000   0.0000   0.0000   0.0000

          k = 0.0000 0.2500 0.2500 (269929 PWs)   bands (ev):

   -90.0531 -53.4194 -53.4194 -53.1630  -7.4793  -7.2365  -7.1915  -7.0308
    -6.9993  -6.9571  -6.8714  -6.8600  -6.8467  -6.8176  -6.7876  -6.7492
    -6.7323  -6.7186  -6.6994  -6.6571  -6.6107  -6.5890  -6.5876  -6.5709
    -6.5703  -6.5289  -6.4778  -6.4703  -6.4446  -6.4157  -6.3909  -6.3828
    -6.3612  -6.3560  -6.3284  -0.9854  -0.9847  -0.9837  -0.9575  -0.9568
    -0.9526  -0.9398  -0.9095  -0.9071  -0.8972  -0.8745  -0.8710  -0.8531
    -0.8503  -0.8338  -0.7681  -0.7612  -0.7536  -0.7391  -0.7277  -0.7250
    -0.7098  -0.7056  -0.7008  -0.6947  -0.6940  -0.6799  -0.6779  -0.6774
    -0.6748  -0.6695  -0.6657  -0.6600  -0.6592  -0.6552  -0.6523  -0.6486
    -0.6479  -0.6471  -0.6422  -0.6388  -0.6358  -0.6347  -0.6328  -0.6294
    -0.6273  -0.6269  -0.6213  -0.6184  -0.6126  -0.6105  -0.6033  -0.6001
    -0.5937  -0.5933  -0.5908  -0.5885  -0.5842  -0.5782  -0.5750  -0.5715
    -0.5674  -0.5612  -0.5562  -0.5527  -0.5476  -0.5447  -0.5422  -0.5339
    -0.5274  -0.5232  -0.5184  -0.5135  -0.5099  -0.5099  -0.5000  -0.4966
    -0.4915  -0.4880  -0.4735  -0.4627  -0.4582  -0.4531  -0.4531  -0.4333
    -0.3989  -0.3844  -0.3839  -0.3710  -0.3706  -0.3653  -0.3596  -0.3559
    -0.3545  -0.3474  -0.3425  -0.3335  -0.3245  -0.3228  -0.3173  -0.3127
    -0.3118  -0.3102  -0.3065  -0.3038  -0.3034  -0.2962  -0.2960  -0.2916
    -0.2907  -0.2904  -0.2884  -0.2866  -0.2833  -0.2795  -0.2770  -0.2738
    -0.2714  -0.2694  -0.2658  -0.2614  -0.2602  -0.2573  -0.2570  -0.2550
    -0.2526  -0.2472  -0.2439  -0.2369  -0.2356  -0.2277  -0.2224  -0.2180
    -0.2112  -0.2083  -0.2079  -0.1956  -0.1923  -0.1833  -0.1795  -0.1742
    -0.1666  -0.1627  -0.1548  -0.1444  -0.1098  -0.1058  -0.0905  -0.0549
    -0.0156  -0.0026   0.0104   0.0202   0.0439   0.0452   0.4298   0.4627
     0.7648   0.8015   0.8818   0.9260   0.9372   0.9721   0.9816   1.0138
     1.0289   1.0343   1.0367   1.0635   1.1047   1.1607   1.1643   1.3503
     1.4999   1.5099   1.5946   1.6338   1.8032   1.8427   2.0426   2.0754
     2.2978   2.3878   2.4598   2.4907   2.5140   2.5462   2.5686   2.6457
     2.7194   2.7541   2.7585   2.8727   2.9460   2.9757   3.0149   3.0510
     3.0556   3.1176   3.1379   3.1846   3.2164   3.2602   3.3064   3.3144
     3.3405   3.3504   3.3754   3.3825   3.4216   3.4792   3.5547   3.5832
     3.5843   3.6738   3.6830   3.7267   3.8657   3.8801   3.9005   3.9447
     3.9699   4.0209   4.0355   4.0937   4.1331   4.1748   4.2006   4.2380
     4.2388   4.2682   4.2808   4.3191   4.3564   4.4008   4.4182   4.4517
     4.4954   4.5259   4.5390   4.5807   4.6096   4.6262   4.6263   4.7103
     4.7483   4.7749   4.8300   4.8998   4.9773   5.0415   5.2675   5.4248
     6.4599   8.0773   8.3158   8.3897   8.8315   9.0464   9.0823   9.2560
     9.2565   9.2945   9.3089   9.5557   9.6005   9.6085   9.8008   9.8086
     9.8401   9.8411   9.8583   9.8761   9.8856   9.9438   9.9568  10.0326
    10.0672  10.1235  10.1521  10.1890  10.2071  10.2482  10.2587  10.3564
    10.4357  10.5855  10.6174  10.6362  10.6542  10.6870  10.7899  10.8098
    10.8781  10.9281  10.9539  11.0311  11.0738  11.2870  11.3571  11.4184
    11.4291  11.5543  11.6079  11.6327  11.7048  11.7402  11.7489  11.8045

     occupation numbers 
     1.0000   1.0000   1.0000   1.0000   1.0000   1.0000   1.0000   1.0000
     1.0000   1.0000   1.0000   1.0000   1.0000   1.0000   1.0000   1.0000
     1.0000   1.0000   1.0000   1.0000   1.0000   1.0000   1.0000   1.0000
     1.0000   1.0000   1.0000   1.0000   1.0000   1.0000   1.0000   1.0000
     1.0000   1.0000   1.0000   1.0000   1.0000   1.0000   1.0000   1.0000
     1.0000   1.0000   1.0000   1.0000   1.0000   1.0000   1.0000   1.0000
     1.0000   1.0000   1.0000   1.0000   1.0000   1.0000   1.0000   1.0000
     1.0000   1.0000   1.0000   1.0000   1.0000   1.0000   1.0000   1.0000
     1.0000   1.0000   1.0000   1.0000   1.0000   1.0000   1.0000   1.0000
     1.0000   1.0000   1.0000   1.0000   1.0000   1.0000   1.0000   1.0000
     1.0000   1.0000   1.0000   1.0000   1.0000   1.0000   1.0000   1.0000
     1.0000   1.0000   1.0000   1.0000   1.0000   1.0000   1.0000   1.0000
     1.0000   1.0000   1.0000   1.0000   1.0000   1.0000   1.0000   1.0000
     1.0000   1.0000   1.0000   1.0000   1.0000   1.0000   1.0000   1.0000
     1.0000   1.0000   1.0000   1.0000   1.0000   1.0000   1.0000   1.0000
     1.0000   1.0000   1.0000   1.0000   1.0000   1.0000   1.0000   1.0000
     1.0000   1.0000   1.0000   1.0000   1.0000   1.0000   1.0000   1.0000
     1.0000   1.0000   1.0000   1.0000   1.0000   1.0000   1.0000   1.0000
     1.0000   1.0000   1.0000   1.0000   1.0000   1.0000   1.0000   1.0000
     1.0000   1.0000   1.0000   1.0000   1.0000   1.0000   1.0000   1.0000
     1.0000   1.0000   1.0000   1.0000   1.0000   1.0000   1.0000   1.0000
     1.0000   1.0000   1.0000   1.0000   1.0000   1.0000   1.0000   1.0000
     1.0000   1.0000   1.0000   1.0000   1.0000   1.0000   1.0000   1.0000
     1.0000   1.0000   1.0000   1.0000   1.0000   1.0000   1.0000   1.0000
     1.0000   1.0000   1.0000   1.0000   1.0000   1.0000   1.0000   1.0000
     1.0000   1.0000   1.0000   1.0000   1.0000   1.0000   1.0000   1.0000
     1.0000   1.0000   1.0000   1.0000   1.0000   1.0000   1.0000   1.0000
     1.0000   1.0000   1.0000   1.0000   1.0000   1.0000   1.0000   1.0000
     1.0000   1.0000   1.0000   1.0000   1.0000   1.0000   1.0000   1.0000
     1.0000   1.0000   1.0000   1.0000   1.0000   1.0000   1.0000   1.0000
     1.0000   1.0000   1.0000   1.0000   1.0000   1.0000   1.0000   1.0000
     1.0000   1.0000   1.0000   1.0000   1.0000   1.0000   1.0000   1.0000
     1.0000   1.0000   1.0000   1.0000   1.0000   1.0000   1.0000   1.0000
     1.0000   1.0000   1.0000   1.0000   1.0000   1.0000   1.0000   1.0000
     1.0000   1.0000   1.0000   1.0000   1.0000   1.0000   1.0000   1.0000
     1.0000   1.0000   1.0000   1.0000   1.0000   1.0000   1.0000   1.0000
     0.0000   0.0000   0.0000   0.0000   0.0000   0.0000   0.0000   0.0000
     0.0000   0.0000   0.0000   0.0000   0.0000   0.0000   0.0000   0.0000
     0.0000   0.0000   0.0000   0.0000   0.0000   0.0000   0.0000   0.0000
     0.0000   0.0000   0.0000   0.0000   0.0000   0.0000   0.0000   0.0000
     0.0000   0.0000   0.0000   0.0000   0.0000   0.0000   0.0000   0.0000
     0.0000   0.0000   0.0000   0.0000   0.0000   0.0000   0.0000   0.0000
     0.0000   0.0000   0.0000   0.0000   0.0000   0.0000   0.0000   0.0000

          k = 0.0000 0.2500-0.5000 (269962 PWs)   bands (ev):

   -90.0531 -53.4194 -53.4194 -53.1630  -7.3907  -7.3603  -7.1465  -7.1089
    -6.9946  -6.9191  -6.9158  -6.8863  -6.8407  -6.8207  -6.7687  -6.7559
    -6.7331  -6.7148  -6.6598  -6.6103  -6.5936  -6.5792  -6.5565  -6.5410
    -6.5335  -6.5245  -6.4899  -6.4689  -6.4505  -6.4400  -6.4305  -6.3980
    -6.3892  -6.3651  -6.3332  -0.9841  -0.9826  -0.9812  -0.9577  -0.9572
    -0.9492  -0.9425  -0.9101  -0.9039  -0.8920  -0.8728  -0.8648  -0.8555
    -0.8486  -0.8391  -0.7624  -0.7429  -0.7323  -0.7255  -0.7216  -0.7195
    -0.7148  -0.7106  -0.7045  -0.7009  -0.6984  -0.6962  -0.6902  -0.6832
    -0.6805  -0.6782  -0.6729  -0.6672  -0.6622  -0.6597  -0.6566  -0.6532
    -0.6495  -0.6455  -0.6420  -0.6387  -0.6367  -0.6350  -0.6320  -0.6306
    -0.6295  -0.6251  -0.6222  -0.6208  -0.6157  -0.6107  -0.6047  -0.5992
    -0.5966  -0.5918  -0.5856  -0.5828  -0.5811  -0.5778  -0.5747  -0.5726
    -0.5671  -0.5630  -0.5610  -0.5554  -0.5513  -0.5404  -0.5365  -0.5325
    -0.5280  -0.5241  -0.5194  -0.5176  -0.5107  -0.5032  -0.4999  -0.4962
    -0.4895  -0.4836  -0.4820  -0.4777  -0.4727  -0.4699  -0.4495  -0.4380
    -0.4307  -0.4153  -0.4011  -0.3932  -0.3840  -0.3647  -0.3571  -0.3537
    -0.3471  -0.3433  -0.3343  -0.3305  -0.3278  -0.3208  -0.3171  -0.3107
    -0.3102  -0.3060  -0.3018  -0.3000  -0.2982  -0.2957  -0.2944  -0.2928
    -0.2882  -0.2863  -0.2838  -0.2814  -0.2806  -0.2770  -0.2737  -0.2714
    -0.2690  -0.2641  -0.2615  -0.2582  -0.2556  -0.2546  -0.2529  -0.2508
    -0.2477  -0.2445  -0.2402  -0.2375  -0.2363  -0.2275  -0.2230  -0.2206
    -0.2112  -0.2032  -0.1993  -0.1941  -0.1887  -0.1845  -0.1788  -0.1600
    -0.1469  -0.1361  -0.1239  -0.1117  -0.1006  -0.0872  -0.0757  -0.0641
    -0.0479  -0.0324  -0.0187   0.0066   0.0095   0.0418   0.6214   0.6711
     0.6801   0.7084   0.8345   0.8940   0.9138   0.9208   0.9358   0.9806
     1.0078   1.0451   1.1165   1.1250   1.2007   1.2153   1.2298   1.2540
     1.3097   1.3993   1.5368   1.6611   1.8434   1.8823   1.9475   2.0787
     2.1180   2.2028   2.3882   2.4117   2.5188   2.5872   2.6661   2.7044
     2.7284   2.7758   2.8137   2.8296   2.8598   2.9109   2.9498   3.0141
     3.0728   3.1432   3.2205   3.2847   3.3774   3.4007   3.4149   3.4288
     3.4628   3.5018   3.5218   3.5551   3.5934   3.6165   3.6412   3.6480
     3.6866   3.7175   3.7485   3.7722   3.8093   3.8455   3.8934   3.9078
     3.9291   3.9812   3.9992   4.0335   4.0552   4.0596   4.0876   4.1176
     4.1561   4.1869   4.2020   4.2339   4.2542   4.3061   4.3386   4.3534
     4.4065   4.4486   4.4962   4.5301   4.5741   4.5910   4.6950   4.7133
     4.7574   4.7931   4.9081   4.9683   5.0127   5.1048   5.2075   5.2992
     6.5436   8.0477   8.2295   8.6630   8.9588   9.0972   9.3567   9.3830
     9.4201   9.4551   9.5054   9.5465   9.6041   9.6273   9.6575   9.7223
     9.8020   9.8052   9.8220   9.8352   9.8539   9.8815   9.9249   9.9649
     9.9720  10.0028  10.0789  10.1339  10.2785  10.3185  10.3673  10.4252
    10.4606  10.4950  10.5408  10.5676  10.6262  10.6933  10.7676  10.8309
    10.8891  10.9540  10.9858  11.0799  11.1593  11.2591  11.2865  11.3194
    11.3403  11.3728  11.3956  11.4257  11.4965  11.5213  11.5983  11.6240

     occupation numbers 
     1.0000   1.0000   1.0000   1.0000   1.0000   1.0000   1.0000   1.0000
     1.0000   1.0000   1.0000   1.0000   1.0000   1.0000   1.0000   1.0000
     1.0000   1.0000   1.0000   1.0000   1.0000   1.0000   1.0000   1.0000
     1.0000   1.0000   1.0000   1.0000   1.0000   1.0000   1.0000   1.0000
     1.0000   1.0000   1.0000   1.0000   1.0000   1.0000   1.0000   1.0000
     1.0000   1.0000   1.0000   1.0000   1.0000   1.0000   1.0000   1.0000
     1.0000   1.0000   1.0000   1.0000   1.0000   1.0000   1.0000   1.0000
     1.0000   1.0000   1.0000   1.0000   1.0000   1.0000   1.0000   1.0000
     1.0000   1.0000   1.0000   1.0000   1.0000   1.0000   1.0000   1.0000
     1.0000   1.0000   1.0000   1.0000   1.0000   1.0000   1.0000   1.0000
     1.0000   1.0000   1.0000   1.0000   1.0000   1.0000   1.0000   1.0000
     1.0000   1.0000   1.0000   1.0000   1.0000   1.0000   1.0000   1.0000
     1.0000   1.0000   1.0000   1.0000   1.0000   1.0000   1.0000   1.0000
     1.0000   1.0000   1.0000   1.0000   1.0000   1.0000   1.0000   1.0000
     1.0000   1.0000   1.0000   1.0000   1.0000   1.0000   1.0000   1.0000
     1.0000   1.0000   1.0000   1.0000   1.0000   1.0000   1.0000   1.0000
     1.0000   1.0000   1.0000   1.0000   1.0000   1.0000   1.0000   1.0000
     1.0000   1.0000   1.0000   1.0000   1.0000   1.0000   1.0000   1.0000
     1.0000   1.0000   1.0000   1.0000   1.0000   1.0000   1.0000   1.0000
     1.0000   1.0000   1.0000   1.0000   1.0000   1.0000   1.0000   1.0000
     1.0000   1.0000   1.0000   1.0000   1.0000   1.0000   1.0000   1.0000
     1.0000   1.0000   1.0000   1.0000   1.0000   1.0000   1.0000   1.0000
     1.0000   1.0000   1.0000   1.0000   1.0000   1.0000   1.0000   1.0000
     1.0000   1.0000   1.0000   1.0000   1.0000   1.0000   1.0000   1.0000
     1.0000   1.0000   1.0000   1.0000   1.0000   1.0000   1.0000   1.0000
     1.0000   1.0000   1.0000   1.0000   1.0000   1.0000   1.0000   1.0000
     1.0000   1.0000   1.0000   1.0000   1.0000   1.0000   1.0000   1.0000
     1.0000   1.0000   1.0000   1.0000   1.0000   1.0000   1.0000   1.0000
     1.0000   1.0000   1.0000   1.0000   1.0000   1.0000   1.0000   1.0000
     1.0000   1.0000   1.0000   1.0000   1.0000   1.0000   1.0000   1.0000
     1.0000   1.0000   1.0000   1.0000   1.0000   1.0000   1.0000   1.0000
     1.0000   1.0000   1.0000   1.0000   1.0000   1.0000   1.0000   1.0000
     1.0000   1.0000   1.0000   1.0000   1.0000   1.0000   1.0000   1.0000
     1.0000   1.0000   1.0000   1.0000   1.0000   1.0000   1.0000   1.0000
     1.0000   1.0000   1.0000   1.0000   1.0000   1.0000   1.0000   1.0000
     1.0000   1.0000   1.0000   1.0000   1.0000   1.0000   1.0000   1.0000
     0.0000   0.0000   0.0000   0.0000   0.0000   0.0000   0.0000   0.0000
     0.0000   0.0000   0.0000   0.0000   0.0000   0.0000   0.0000   0.0000
     0.0000   0.0000   0.0000   0.0000   0.0000   0.0000   0.0000   0.0000
     0.0000   0.0000   0.0000   0.0000   0.0000   0.0000   0.0000   0.0000
     0.0000   0.0000   0.0000   0.0000   0.0000   0.0000   0.0000   0.0000
     0.0000   0.0000   0.0000   0.0000   0.0000   0.0000   0.0000   0.0000
     0.0000   0.0000   0.0000   0.0000   0.0000   0.0000   0.0000   0.0000

          k = 0.0000-0.5000-0.5000 (269920 PWs)   bands (ev):

   -90.0531 -53.4194 -53.4194 -53.1630  -7.3109  -7.3030  -7.2590  -7.2323
    -6.9733  -6.9051  -6.8812  -6.8798  -6.8738  -6.8424  -6.7971  -6.7836
    -6.6852  -6.6305  -6.6052  -6.5888  -6.5784  -6.5641  -6.5386  -6.5154
    -6.5135  -6.5067  -6.5044  -6.4903  -6.4810  -6.4649  -6.4614  -6.4444
    -6.3818  -6.3786  -6.3452  -0.9827  -0.9811  -0.9801  -0.9578  -0.9571
    -0.9459  -0.9438  -0.9067  -0.9043  -0.8870  -0.8694  -0.8646  -0.8544
    -0.8498  -0.8418  -0.7450  -0.7398  -0.7312  -0.7241  -0.7168  -0.7132
    -0.7089  -0.7052  -0.7010  -0.6992  -0.6979  -0.6971  -0.6941  -0.6901
    -0.6847  -0.6778  -0.6756  -0.6738  -0.6703  -0.6692  -0.6576  -0.6543
    -0.6511  -0.6490  -0.6453  -0.6376  -0.6372  -0.6348  -0.6328  -0.6286
    -0.6269  -0.6241  -0.6223  -0.6178  -0.6160  -0.6114  -0.6005  -0.5996
    -0.5922  -0.5913  -0.5809  -0.5799  -0.5764  -0.5763  -0.5712  -0.5683
    -0.5646  -0.5593  -0.5588  -0.5553  -0.5523  -0.5462  -0.5430  -0.5410
    -0.5341  -0.5322  -0.5305  -0.5221  -0.5161  -0.5155  -0.5106  -0.5071
    -0.5023  -0.4973  -0.4930  -0.4815  -0.4762  -0.4726  -0.4697  -0.4409
    -0.4405  -0.4364  -0.4259  -0.4051  -0.3851  -0.3837  -0.3597  -0.3506
    -0.3480  -0.3377  -0.3356  -0.3347  -0.3302  -0.3193  -0.3191  -0.3061
    -0.3047  -0.3000  -0.2989  -0.2979  -0.2930  -0.2926  -0.2918  -0.2887
    -0.2874  -0.2830  -0.2828  -0.2771  -0.2770  -0.2761  -0.2703  -0.2692
    -0.2633  -0.2571  -0.2562  -0.2549  -0.2519  -0.2516  -0.2489  -0.2480
    -0.2433  -0.2405  -0.2381  -0.2362  -0.2344  -0.2185  -0.2119  -0.2055
    -0.2038  -0.1916  -0.1914  -0.1884  -0.1877  -0.1857  -0.1766  -0.1753
    -0.1730  -0.1673  -0.1181  -0.1085  -0.0717  -0.0637  -0.0373  -0.0305
    -0.0283  -0.0156  -0.0087   0.0270   0.0307   0.0588   0.6224   0.6481
     0.6672   0.6950   0.6958   0.7300   0.7779   0.7962   0.9279   0.9696
     0.9713   1.0631   1.1771   1.3318   1.3863   1.4305   1.4356   1.4475
     1.4840   1.5152   1.5563   1.6068   1.6359   1.6718   1.6965   1.7759
     1.8093   2.0358   2.4066   2.4190   2.4342   2.4775   2.6034   2.6114
     3.0042   3.0575   3.0909   3.0963   3.1282   3.1353   3.1497   3.1579
     3.1655   3.1770   3.1972   3.2216   3.2579   3.3310   3.3418   3.3660
     3.3917   3.4803   3.5054   3.5317   3.5407   3.5496   3.5706   3.6110
     3.6395   3.6440   3.6819   3.7039   3.7075   3.7973   3.8045   3.8938
     3.8967   3.9933   4.0052   4.0316   4.0415   4.0663   4.1281   4.1517
     4.2001   4.2876   4.3010   4.3218   4.3383   4.3418   4.3786   4.3882
     4.4181   4.4195   4.4238   4.4433   4.4646   4.5756   4.6002   4.6297
     4.6932   4.7649   4.7719   4.9289   5.1323   5.1934   5.2621   5.3846
     6.5374   8.1134   8.1949   8.6800   9.1059   9.2220   9.2853   9.3571
     9.4644   9.4683   9.4918   9.5270   9.5372   9.5630   9.5929   9.5956
     9.6456   9.7051   9.9285   9.9906  10.0795  10.0876  10.1032  10.1055
    10.1315  10.1556  10.1727  10.1899  10.2151  10.2531  10.2646  10.2906
    10.2913  10.3438  10.3457  10.3840  10.3935  10.4099  10.4384  10.5118
    10.7870  11.0019  11.0824  11.3420  11.4063  11.4113  11.4162  11.4315
    11.4377  11.4630  11.4773  11.5102  11.5396  11.5642  11.5871  11.6143

     occupation numbers 
     1.0000   1.0000   1.0000   1.0000   1.0000   1.0000   1.0000   1.0000
     1.0000   1.0000   1.0000   1.0000   1.0000   1.0000   1.0000   1.0000
     1.0000   1.0000   1.0000   1.0000   1.0000   1.0000   1.0000   1.0000
     1.0000   1.0000   1.0000   1.0000   1.0000   1.0000   1.0000   1.0000
     1.0000   1.0000   1.0000   1.0000   1.0000   1.0000   1.0000   1.0000
     1.0000   1.0000   1.0000   1.0000   1.0000   1.0000   1.0000   1.0000
     1.0000   1.0000   1.0000   1.0000   1.0000   1.0000   1.0000   1.0000
     1.0000   1.0000   1.0000   1.0000   1.0000   1.0000   1.0000   1.0000
     1.0000   1.0000   1.0000   1.0000   1.0000   1.0000   1.0000   1.0000
     1.0000   1.0000   1.0000   1.0000   1.0000   1.0000   1.0000   1.0000
     1.0000   1.0000   1.0000   1.0000   1.0000   1.0000   1.0000   1.0000
     1.0000   1.0000   1.0000   1.0000   1.0000   1.0000   1.0000   1.0000
     1.0000   1.0000   1.0000   1.0000   1.0000   1.0000   1.0000   1.0000
     1.0000   1.0000   1.0000   1.0000   1.0000   1.0000   1.0000   1.0000
     1.0000   1.0000   1.0000   1.0000   1.0000   1.0000   1.0000   1.0000
     1.0000   1.0000   1.0000   1.0000   1.0000   1.0000   1.0000   1.0000
     1.0000   1.0000   1.0000   1.0000   1.0000   1.0000   1.0000   1.0000
     1.0000   1.0000   1.0000   1.0000   1.0000   1.0000   1.0000   1.0000
     1.0000   1.0000   1.0000   1.0000   1.0000   1.0000   1.0000   1.0000
     1.0000   1.0000   1.0000   1.0000   1.0000   1.0000   1.0000   1.0000
     1.0000   1.0000   1.0000   1.0000   1.0000   1.0000   1.0000   1.0000
     1.0000   1.0000   1.0000   1.0000   1.0000   1.0000   1.0000   1.0000
     1.0000   1.0000   1.0000   1.0000   1.0000   1.0000   1.0000   1.0000
     1.0000   1.0000   1.0000   1.0000   1.0000   1.0000   1.0000   1.0000
     1.0000   1.0000   1.0000   1.0000   1.0000   1.0000   1.0000   1.0000
     1.0000   1.0000   1.0000   1.0000   1.0000   1.0000   1.0000   1.0000
     1.0000   1.0000   1.0000   1.0000   1.0000   1.0000   1.0000   1.0000
     1.0000   1.0000   1.0000   1.0000   1.0000   1.0000   1.0000   1.0000
     1.0000   1.0000   1.0000   1.0000   1.0000   1.0000   1.0000   1.0000
     1.0000   1.0000   1.0000   1.0000   1.0000   1.0000   1.0000   1.0000
     1.0000   1.0000   1.0000   1.0000   1.0000   1.0000   1.0000   1.0000
     1.0000   1.0000   1.0000   1.0000   1.0000   1.0000   1.0000   1.0000
     1.0000   1.0000   1.0000   1.0000   1.0000   1.0000   1.0000   1.0000
     1.0000   1.0000   1.0000   1.0000   1.0000   1.0000   1.0000   1.0000
     1.0000   1.0000   1.0000   1.0000   1.0000   1.0000   1.0000   1.0000
     1.0000   1.0000   1.0000   1.0000   1.0000   1.0000   1.0000   1.0000
     0.0000   0.0000   0.0000   0.0000   0.0000   0.0000   0.0000   0.0000
     0.0000   0.0000   0.0000   0.0000   0.0000   0.0000   0.0000   0.0000
     0.0000   0.0000   0.0000   0.0000   0.0000   0.0000   0.0000   0.0000
     0.0000   0.0000   0.0000   0.0000   0.0000   0.0000   0.0000   0.0000
     0.0000   0.0000   0.0000   0.0000   0.0000   0.0000   0.0000   0.0000
     0.0000   0.0000   0.0000   0.0000   0.0000   0.0000   0.0000   0.0000
     0.0000   0.0000   0.0000   0.0000   0.0000   0.0000   0.0000   0.0000

          k = 0.2500 0.2500 0.2500 (269935 PWs)   bands (ev):

   -90.0531 -53.4194 -53.4194 -53.1630  -7.4443  -7.2087  -7.2087  -7.1367
    -6.9999  -6.9999  -6.9480  -6.8303  -6.8069  -6.8069  -6.7384  -6.7231
    -6.7215  -6.7215  -6.6445  -6.6445  -6.5993  -6.5993  -6.5931  -6.5427
    -6.5373  -6.5373  -6.4752  -6.4752  -6.4540  -6.4253  -6.4001  -6.4001
    -6.3705  -6.3705  -6.3559  -0.9835  -0.9835  -0.9833  -0.9570  -0.9570
    -0.9500  -0.9399  -0.9060  -0.9060  -0.8938  -0.8721  -0.8721  -0.8513
    -0.8513  -0.8346  -0.7559  -0.7498  -0.7498  -0.7362  -0.7289  -0.7289
    -0.7045  -0.7043  -0.7043  -0.6865  -0.6865  -0.6842  -0.6834  -0.6761
    -0.6761  -0.6725  -0.6716  -0.6716  -0.6685  -0.6593  -0.6593  -0.6530
    -0.6530  -0.6473  -0.6436  -0.6436  -0.6414  -0.6385  -0.6385  -0.6359
    -0.6272  -0.6272  -0.6163  -0.6150  -0.6150  -0.6053  -0.6033  -0.6033
    -0.5965  -0.5951  -0.5951  -0.5935  -0.5793  -0.5793  -0.5703  -0.5683
    -0.5627  -0.5627  -0.5503  -0.5503  -0.5456  -0.5447  -0.5433  -0.5433
    -0.5234  -0.5234  -0.5157  -0.5128  -0.5047  -0.5047  -0.4976  -0.4976
    -0.4951  -0.4857  -0.4619  -0.4619  -0.4580  -0.4546  -0.4546  -0.4385
    -0.4385  -0.4335  -0.4043  -0.3840  -0.3840  -0.3717  -0.3675  -0.3659
    -0.3659  -0.3442  -0.3442  -0.3351  -0.3243  -0.3224  -0.3224  -0.3071
    -0.3071  -0.3054  -0.3008  -0.2970  -0.2970  -0.2921  -0.2921  -0.2895
    -0.2854  -0.2852  -0.2852  -0.2781  -0.2781  -0.2759  -0.2703  -0.2703
    -0.2695  -0.2669  -0.2669  -0.2586  -0.2550  -0.2550  -0.2509  -0.2509
    -0.2488  -0.2422  -0.2422  -0.2365  -0.2258  -0.2258  -0.2231  -0.2117
    -0.2041  -0.2041  -0.1978  -0.1978  -0.1831  -0.1818  -0.1818  -0.1720
    -0.1456  -0.1456  -0.1253  -0.1253  -0.1226  -0.0865  -0.0865  -0.0794
    -0.0150  -0.0150  -0.0088   0.0106   0.0110   0.0110   0.5631   0.6139
     0.6139   0.8184   0.8479   0.8479   0.9423   0.9423   0.9665   1.0456
     1.0456   1.0458   1.0951   1.1334   1.1334   1.1707   1.3031   1.3031
     1.3323   1.4312   1.4312   1.5625   1.8606   1.9196   1.9196   2.1129
     2.1129   2.2916   2.4617   2.4617   2.5991   2.5991   2.6340   2.6931
     2.7155   2.7155   2.7626   2.9980   2.9980   3.0219   3.0219   3.0326
     3.1297   3.1737   3.1737   3.2674   3.2757   3.2757   3.3082   3.3877
     3.3877   3.3972   3.4199   3.4199   3.4309   3.4718   3.4913   3.4913
     3.7094   3.7374   3.7374   3.7880   3.7880   3.8320   3.9294   3.9489
     3.9489   4.0234   4.0234   4.0816   4.0817   4.1039   4.1273   4.1388
     4.1388   4.1956   4.1981   4.2277   4.2277   4.3160   4.3655   4.3693
     4.3693   4.5570   4.5571   4.6517   4.6658   4.6658   4.6742   4.7687
     4.7687   4.8777   4.8777   4.9281   4.9935   4.9935   5.3819   5.3819
     6.4658   8.2850   8.3210   8.3210   8.8405   8.9046   9.3266   9.3266
     9.3678   9.4199   9.4199   9.4476   9.4966   9.4966   9.6089   9.6089
     9.6903   9.8457   9.8457   9.9008   9.9641  10.0497  10.0497  10.1037
    10.1385  10.1385  10.2454  10.2538  10.2538  10.3034  10.3034  10.3042
    10.3413  10.3437  10.3437  10.3881  10.4008  10.4008  10.7614  10.7614
    10.9543  11.0844  11.0844  11.1334  11.3481  11.3691  11.3691  11.4141
    11.4338  11.4338  11.4407  11.5430  11.5430  11.6844  11.7625  11.7625

     occupation numbers 
     1.0000   1.0000   1.0000   1.0000   1.0000   1.0000   1.0000   1.0000
     1.0000   1.0000   1.0000   1.0000   1.0000   1.0000   1.0000   1.0000
     1.0000   1.0000   1.0000   1.0000   1.0000   1.0000   1.0000   1.0000
     1.0000   1.0000   1.0000   1.0000   1.0000   1.0000   1.0000   1.0000
     1.0000   1.0000   1.0000   1.0000   1.0000   1.0000   1.0000   1.0000
     1.0000   1.0000   1.0000   1.0000   1.0000   1.0000   1.0000   1.0000
     1.0000   1.0000   1.0000   1.0000   1.0000   1.0000   1.0000   1.0000
     1.0000   1.0000   1.0000   1.0000   1.0000   1.0000   1.0000   1.0000
     1.0000   1.0000   1.0000   1.0000   1.0000   1.0000   1.0000   1.0000
     1.0000   1.0000   1.0000   1.0000   1.0000   1.0000   1.0000   1.0000
     1.0000   1.0000   1.0000   1.0000   1.0000   1.0000   1.0000   1.0000
     1.0000   1.0000   1.0000   1.0000   1.0000   1.0000   1.0000   1.0000
     1.0000   1.0000   1.0000   1.0000   1.0000   1.0000   1.0000   1.0000
     1.0000   1.0000   1.0000   1.0000   1.0000   1.0000   1.0000   1.0000
     1.0000   1.0000   1.0000   1.0000   1.0000   1.0000   1.0000   1.0000
     1.0000   1.0000   1.0000   1.0000   1.0000   1.0000   1.0000   1.0000
     1.0000   1.0000   1.0000   1.0000   1.0000   1.0000   1.0000   1.0000
     1.0000   1.0000   1.0000   1.0000   1.0000   1.0000   1.0000   1.0000
     1.0000   1.0000   1.0000   1.0000   1.0000   1.0000   1.0000   1.0000
     1.0000   1.0000   1.0000   1.0000   1.0000   1.0000   1.0000   1.0000
     1.0000   1.0000   1.0000   1.0000   1.0000   1.0000   1.0000   1.0000
     1.0000   1.0000   1.0000   1.0000   1.0000   1.0000   1.0000   1.0000
     1.0000   1.0000   1.0000   1.0000   1.0000   1.0000   1.0000   1.0000
     1.0000   1.0000   1.0000   1.0000   1.0000   1.0000   1.0000   1.0000
     1.0000   1.0000   1.0000   1.0000   1.0000   1.0000   1.0000   1.0000
     1.0000   1.0000   1.0000   1.0000   1.0000   1.0000   1.0000   1.0000
     1.0000   1.0000   1.0000   1.0000   1.0000   1.0000   1.0000   1.0000
     1.0000   1.0000   1.0000   1.0000   1.0000   1.0000   1.0000   1.0000
     1.0000   1.0000   1.0000   1.0000   1.0000   1.0000   1.0000   1.0000
     1.0000   1.0000   1.0000   1.0000   1.0000   1.0000   1.0000   1.0000
     1.0000   1.0000   1.0000   1.0000   1.0000   1.0000   1.0000   1.0000
     1.0000   1.0000   1.0000   1.0000   1.0000   1.0000   1.0000   1.0000
     1.0000   1.0000   1.0000   1.0000   1.0000   1.0000   1.0000   1.0000
     1.0000   1.0000   1.0000   1.0000   1.0000   1.0000   1.0000   1.0000
     1.0000   1.0000   1.0000   1.0000   1.0000   1.0000   1.0000   1.0000
     1.0000   1.0000   1.0000   1.0000   1.0000   1.0000   1.0000   1.0000
     0.0000   0.0000   0.0000   0.0000   0.0000   0.0000   0.0000   0.0000
     0.0000   0.0000   0.0000   0.0000   0.0000   0.0000   0.0000   0.0000
     0.0000   0.0000   0.0000   0.0000   0.0000   0.0000   0.0000   0.0000
     0.0000   0.0000   0.0000   0.0000   0.0000   0.0000   0.0000   0.0000
     0.0000   0.0000   0.0000   0.0000   0.0000   0.0000   0.0000   0.0000
     0.0000   0.0000   0.0000   0.0000   0.0000   0.0000   0.0000   0.0000
     0.0000   0.0000   0.0000   0.0000   0.0000   0.0000   0.0000   0.0000

          k = 0.2500 0.2500-0.5000 (269988 PWs)   bands (ev):

   -90.0531 -53.4194 -53.4194 -53.1630  -7.3589  -7.3290  -7.1478  -7.1006
    -7.0990  -7.0632  -6.9425  -6.8888  -6.7881  -6.7635  -6.7503  -6.7102
    -6.6904  -6.6682  -6.6387  -6.6015  -6.5969  -6.5652  -6.5482  -6.5455
    -6.5291  -6.5207  -6.4902  -6.4849  -6.4560  -6.4435  -6.4392  -6.4071
    -6.4069  -6.3836  -6.3619  -0.9834  -0.9818  -0.9806  -0.9576  -0.9570
    -0.9470  -0.9425  -0.9075  -0.9032  -0.8887  -0.8710  -0.8652  -0.8540
    -0.8498  -0.8398  -0.7511  -0.7387  -0.7268  -0.7267  -0.7189  -0.7178
    -0.7152  -0.7115  -0.7042  -0.6976  -0.6927  -0.6907  -0.6893  -0.6809
    -0.6807  -0.6793  -0.6766  -0.6733  -0.6689  -0.6636  -0.6633  -0.6559
    -0.6552  -0.6513  -0.6495  -0.6441  -0.6420  -0.6357  -0.6352  -0.6326
    -0.6299  -0.6253  -0.6247  -0.6198  -0.6146  -0.6108  -0.6065  -0.6020
    -0.5986  -0.5892  -0.5870  -0.5795  -0.5768  -0.5711  -0.5681  -0.5674
    -0.5647  -0.5619  -0.5571  -0.5546  -0.5462  -0.5404  -0.5393  -0.5318
    -0.5304  -0.5250  -0.5247  -0.5211  -0.5148  -0.5077  -0.5053  -0.5012
    -0.4957  -0.4938  -0.4875  -0.4748  -0.4723  -0.4604  -0.4355  -0.4328
    -0.4099  -0.4087  -0.4018  -0.4015  -0.3958  -0.3889  -0.3767  -0.3707
    -0.3692  -0.3558  -0.3526  -0.3400  -0.3383  -0.3380  -0.3211  -0.3074
    -0.3037  -0.3009  -0.3001  -0.2963  -0.2948  -0.2916  -0.2879  -0.2852
    -0.2834  -0.2814  -0.2805  -0.2751  -0.2727  -0.2724  -0.2689  -0.2655
    -0.2630  -0.2592  -0.2568  -0.2539  -0.2518  -0.2495  -0.2478  -0.2454
    -0.2454  -0.2393  -0.2375  -0.2313  -0.2263  -0.2238  -0.2182  -0.2153
    -0.2043  -0.2020  -0.1994  -0.1909  -0.1838  -0.1762  -0.1750  -0.1696
    -0.1689  -0.1414  -0.1238  -0.1175  -0.1010  -0.0719  -0.0677  -0.0581
    -0.0544  -0.0383  -0.0172  -0.0079   0.0054   0.0245   0.5883   0.6312
     0.7812   0.8242   0.8500   0.8924   0.9076   0.9324   0.9686   0.9892
     1.0213   1.0439   1.0608   1.0772   1.1032   1.1202   1.2740   1.2965
     1.4331   1.4834   1.5742   1.6361   1.6377   1.6859   1.7470   1.9574
     2.2414   2.3295   2.5541   2.6010   2.6253   2.6356   2.6800   2.7078
     2.7574   2.7596   2.7958   2.8488   2.8803   2.9395   2.9644   3.0040
     3.0151   3.1293   3.2745   3.3128   3.3570   3.3744   3.4562   3.4577
     3.4819   3.5175   3.5469   3.5749   3.5947   3.6134   3.6478   3.6508
     3.6855   3.7067   3.7291   3.7432   3.7508   3.7598   3.7771   3.7822
     3.8153   3.8468   3.9079   3.9530   3.9838   4.0019   4.0399   4.0481
     4.0911   4.1854   4.1866   4.2418   4.2627   4.2947   4.3760   4.4192
     4.4353   4.4483   4.4557   4.6009   4.6692   4.6782   4.6909   4.8795
     4.9215   4.9423   4.9469   4.9597   5.0488   5.1241   5.2683   5.2768
     6.4858   8.1102   8.3182   8.5935   8.9726   9.0697   9.1283   9.1770
     9.3776   9.4160   9.4649   9.5139   9.6012   9.6221   9.6784   9.6927
     9.7278   9.7911   9.7934   9.8273   9.8393   9.8761   9.9450   9.9791
     9.9933  10.0254  10.0285  10.0642  10.1041  10.2000  10.2707  10.3204
    10.3918  10.4206  10.4399  10.5151  10.7228  10.7679  10.8246  10.8412
    10.8488  10.9786  11.0755  11.0798  11.2922  11.3364  11.3733  11.4622
    11.5149  11.5272  11.5555  11.5926  11.6089  11.6305  11.6525  11.6546

     occupation numbers 
     1.0000   1.0000   1.0000   1.0000   1.0000   1.0000   1.0000   1.0000
     1.0000   1.0000   1.0000   1.0000   1.0000   1.0000   1.0000   1.0000
     1.0000   1.0000   1.0000   1.0000   1.0000   1.0000   1.0000   1.0000
     1.0000   1.0000   1.0000   1.0000   1.0000   1.0000   1.0000   1.0000
     1.0000   1.0000   1.0000   1.0000   1.0000   1.0000   1.0000   1.0000
     1.0000   1.0000   1.0000   1.0000   1.0000   1.0000   1.0000   1.0000
     1.0000   1.0000   1.0000   1.0000   1.0000   1.0000   1.0000   1.0000
     1.0000   1.0000   1.0000   1.0000   1.0000   1.0000   1.0000   1.0000
     1.0000   1.0000   1.0000   1.0000   1.0000   1.0000   1.0000   1.0000
     1.0000   1.0000   1.0000   1.0000   1.0000   1.0000   1.0000   1.0000
     1.0000   1.0000   1.0000   1.0000   1.0000   1.0000   1.0000   1.0000
     1.0000   1.0000   1.0000   1.0000   1.0000   1.0000   1.0000   1.0000
     1.0000   1.0000   1.0000   1.0000   1.0000   1.0000   1.0000   1.0000
     1.0000   1.0000   1.0000   1.0000   1.0000   1.0000   1.0000   1.0000
     1.0000   1.0000   1.0000   1.0000   1.0000   1.0000   1.0000   1.0000
     1.0000   1.0000   1.0000   1.0000   1.0000   1.0000   1.0000   1.0000
     1.0000   1.0000   1.0000   1.0000   1.0000   1.0000   1.0000   1.0000
     1.0000   1.0000   1.0000   1.0000   1.0000   1.0000   1.0000   1.0000
     1.0000   1.0000   1.0000   1.0000   1.0000   1.0000   1.0000   1.0000
     1.0000   1.0000   1.0000   1.0000   1.0000   1.0000   1.0000   1.0000
     1.0000   1.0000   1.0000   1.0000   1.0000   1.0000   1.0000   1.0000
     1.0000   1.0000   1.0000   1.0000   1.0000   1.0000   1.0000   1.0000
     1.0000   1.0000   1.0000   1.0000   1.0000   1.0000   1.0000   1.0000
     1.0000   1.0000   1.0000   1.0000   1.0000   1.0000   1.0000   1.0000
     1.0000   1.0000   1.0000   1.0000   1.0000   1.0000   1.0000   1.0000
     1.0000   1.0000   1.0000   1.0000   1.0000   1.0000   1.0000   1.0000
     1.0000   1.0000   1.0000   1.0000   1.0000   1.0000   1.0000   1.0000
     1.0000   1.0000   1.0000   1.0000   1.0000   1.0000   1.0000   1.0000
     1.0000   1.0000   1.0000   1.0000   1.0000   1.0000   1.0000   1.0000
     1.0000   1.0000   1.0000   1.0000   1.0000   1.0000   1.0000   1.0000
     1.0000   1.0000   1.0000   1.0000   1.0000   1.0000   1.0000   1.0000
     1.0000   1.0000   1.0000   1.0000   1.0000   1.0000   1.0000   1.0000
     1.0000   1.0000   1.0000   1.0000   1.0000   1.0000   1.0000   1.0000
     1.0000   1.0000   1.0000   1.0000   1.0000   1.0000   1.0000   1.0000
     1.0000   1.0000   1.0000   1.0000   1.0000   1.0000   1.0000   1.0000
     1.0000   1.0000   1.0000   1.0000   1.0000   1.0000   1.0000   1.0000
     0.0000   0.0000   0.0000   0.0000   0.0000   0.0000   0.0000   0.0000
     0.0000   0.0000   0.0000   0.0000   0.0000   0.0000   0.0000   0.0000
     0.0000   0.0000   0.0000   0.0000   0.0000   0.0000   0.0000   0.0000
     0.0000   0.0000   0.0000   0.0000   0.0000   0.0000   0.0000   0.0000
     0.0000   0.0000   0.0000   0.0000   0.0000   0.0000   0.0000   0.0000
     0.0000   0.0000   0.0000   0.0000   0.0000   0.0000   0.0000   0.0000
     0.0000   0.0000   0.0000   0.0000   0.0000   0.0000   0.0000   0.0000

          k = 0.2500-0.5000-0.5000 (269956 PWs)   bands (ev):

   -90.0531 -53.4194 -53.4194 -53.1630  -7.2823  -7.2735  -7.2337  -7.2068
    -7.0714  -7.0493  -7.0027  -6.9724  -6.7602  -6.7444  -6.6996  -6.6844
    -6.6514  -6.6325  -6.6000  -6.5849  -6.5797  -6.5530  -6.5383  -6.5136
    -6.5135  -6.5080  -6.5039  -6.4890  -6.4819  -6.4779  -6.4664  -6.4474
    -6.4116  -6.4083  -6.3776  -0.9830  -0.9803  -0.9798  -0.9574  -0.9571
    -0.9445  -0.9439  -0.9051  -0.9040  -0.8841  -0.8674  -0.8647  -0.8534
    -0.8511  -0.8428  -0.7393  -0.7300  -0.7271  -0.7209  -0.7132  -0.7119
    -0.7073  -0.7017  -0.7007  -0.6988  -0.6982  -0.6928  -0.6914  -0.6900
    -0.6885  -0.6826  -0.6809  -0.6753  -0.6747  -0.6720  -0.6641  -0.6591
    -0.6566  -0.6558  -0.6489  -0.6438  -0.6426  -0.6404  -0.6383  -0.6357
    -0.6309  -0.6275  -0.6223  -0.6220  -0.6185  -0.6153  -0.6138  -0.6082
    -0.6047  -0.5848  -0.5822  -0.5765  -0.5725  -0.5708  -0.5694  -0.5626
    -0.5573  -0.5563  -0.5550  -0.5493  -0.5469  -0.5408  -0.5355  -0.5308
    -0.5285  -0.5271  -0.5208  -0.5203  -0.5118  -0.5055  -0.5044  -0.4994
    -0.4838  -0.4831  -0.4813  -0.4786  -0.4683  -0.4676  -0.4458  -0.4428
    -0.4380  -0.4379  -0.4271  -0.4031  -0.3958  -0.3943  -0.3869  -0.3861
    -0.3638  -0.3630  -0.3558  -0.3548  -0.3462  -0.3387  -0.3343  -0.3021
    -0.3013  -0.2988  -0.2987  -0.2945  -0.2914  -0.2861  -0.2850  -0.2838
    -0.2822  -0.2794  -0.2768  -0.2704  -0.2693  -0.2679  -0.2638  -0.2623
    -0.2594  -0.2558  -0.2489  -0.2482  -0.2470  -0.2469  -0.2425  -0.2405
    -0.2394  -0.2368  -0.2324  -0.2287  -0.2287  -0.2136  -0.2063  -0.2040
    -0.1916  -0.1872  -0.1863  -0.1792  -0.1772  -0.1744  -0.1742  -0.1650
    -0.1640  -0.1521  -0.1310  -0.1127  -0.0909  -0.0863  -0.0725  -0.0679
    -0.0613  -0.0483  -0.0452  -0.0182  -0.0161   0.0097   0.6982   0.7570
     0.7848   0.8070   0.8133   0.8171   0.8621   0.8708   0.9297   0.9748
     0.9968   1.0051   1.2107   1.2393   1.2576   1.2983   1.2990   1.3201
     1.3279   1.3281   1.3409   1.4151   1.4687   1.6514   2.0397   2.0863
     2.1457   2.1751   2.4844   2.4936   2.6112   2.6489   2.7146   2.7205
     2.9364   3.0166   3.0771   3.0833   3.0839   3.1045   3.1249   3.1336
     3.1415   3.1451   3.1528   3.1711   3.1743   3.1912   3.2248   3.3251
     3.3294   3.3532   3.3964   3.4087   3.5768   3.6300   3.6556   3.6727
     3.6928   3.6962   3.7149   3.7369   3.7502   3.7531   3.7677   3.7850
     3.8518   3.8588   3.8765   3.9024   3.9473   3.9824   4.0146   4.0213
     4.0339   4.0574   4.0813   4.1134   4.2209   4.2411   4.4822   4.5152
     4.5290   4.5727   4.5936   4.7448   4.7820   4.7867   4.8135   4.8227
     4.8658   4.8912   4.9264   5.0427   5.1079   5.1987   5.2162   5.3430
     6.4360   8.1938   8.2250   8.7019   8.9832   9.0542   9.0620   9.1134
     9.1578   9.2159   9.3231   9.4782   9.6387   9.6677   9.7247   9.7674
     9.7734   9.8050   9.8366   9.8400   9.8448   9.8487   9.8732   9.8837
     9.9043   9.9186   9.9602  10.0144  10.0345  10.0399  10.0773  10.1647
    10.2632  10.3869  10.4226  10.8118  10.8329  10.8444  10.8514  10.8789
    11.0211  11.0441  11.1165  11.3382  11.4052  11.4140  11.4234  11.4493
    11.4893  11.4981  11.5417  11.5605  11.5733  11.5778  11.6257  11.6771

     occupation numbers 
     1.0000   1.0000   1.0000   1.0000   1.0000   1.0000   1.0000   1.0000
     1.0000   1.0000   1.0000   1.0000   1.0000   1.0000   1.0000   1.0000
     1.0000   1.0000   1.0000   1.0000   1.0000   1.0000   1.0000   1.0000
     1.0000   1.0000   1.0000   1.0000   1.0000   1.0000   1.0000   1.0000
     1.0000   1.0000   1.0000   1.0000   1.0000   1.0000   1.0000   1.0000
     1.0000   1.0000   1.0000   1.0000   1.0000   1.0000   1.0000   1.0000
     1.0000   1.0000   1.0000   1.0000   1.0000   1.0000   1.0000   1.0000
     1.0000   1.0000   1.0000   1.0000   1.0000   1.0000   1.0000   1.0000
     1.0000   1.0000   1.0000   1.0000   1.0000   1.0000   1.0000   1.0000
     1.0000   1.0000   1.0000   1.0000   1.0000   1.0000   1.0000   1.0000
     1.0000   1.0000   1.0000   1.0000   1.0000   1.0000   1.0000   1.0000
     1.0000   1.0000   1.0000   1.0000   1.0000   1.0000   1.0000   1.0000
     1.0000   1.0000   1.0000   1.0000   1.0000   1.0000   1.0000   1.0000
     1.0000   1.0000   1.0000   1.0000   1.0000   1.0000   1.0000   1.0000
     1.0000   1.0000   1.0000   1.0000   1.0000   1.0000   1.0000   1.0000
     1.0000   1.0000   1.0000   1.0000   1.0000   1.0000   1.0000   1.0000
     1.0000   1.0000   1.0000   1.0000   1.0000   1.0000   1.0000   1.0000
     1.0000   1.0000   1.0000   1.0000   1.0000   1.0000   1.0000   1.0000
[...]
     4.5165   4.5742   4.6110   4.6170   4.6379   4.6426   4.7461   4.7776
     4.8921   5.1339   5.2874   5.6836   5.6936   5.8240   6.5913   6.9113
     6.9338   7.8845   8.1682   8.4680   8.9115   9.0554   9.0843   9.2542
     9.2838   9.3059   9.3561   9.5374   9.5975   9.6736   9.8051   9.8179
     9.8372   9.8389   9.8545   9.8842   9.8936   9.9286   9.9734  10.0335
    10.0632  10.1204  10.1500  10.1739  10.2334  10.2457  10.3019  10.3601
    10.4311  10.5834  10.6159  10.6466  10.6743  10.7763  10.7997  10.8112
    10.8474  10.9324  10.9501  11.0027  11.1928  11.2919  11.3742  11.4127
    11.4908  11.5029  11.5886  11.6498  11.7198  11.7463  11.7582  11.8065

     occupation numbers 
     1.0000   1.0000   1.0000   1.0000   1.0000   1.0000   1.0000   1.0000
     1.0000   1.0000   1.0000   1.0000   1.0000   1.0000   1.0000   1.0000
     1.0000   1.0000   1.0000   1.0000   1.0000   1.0000   1.0000   1.0000
     1.0000   1.0000   1.0000   1.0000   1.0000   1.0000   1.0000   1.0000
     1.0000   1.0000   1.0000   1.0000   1.0000   1.0000   1.0000   1.0000
     1.0000   1.0000   1.0000   1.0000   1.0000   1.0000   1.0000   1.0000
     1.0000   1.0000   1.0000   1.0000   1.0000   1.0000   1.0000   1.0000
     1.0000   1.0000   1.0000   1.0000   1.0000   1.0000   1.0000   1.0000
     1.0000   1.0000   1.0000   1.0000   1.0000   1.0000   1.0000   1.0000
     1.0000   1.0000   1.0000   1.0000   1.0000   1.0000   1.0000   1.0000
     1.0000   1.0000   1.0000   1.0000   1.0000   1.0000   1.0000   1.0000
     1.0000   1.0000   1.0000   1.0000   1.0000   1.0000   1.0000   1.0000
     1.0000   1.0000   1.0000   1.0000   1.0000   1.0000   1.0000   1.0000
     1.0000   1.0000   1.0000   1.0000   1.0000   1.0000   1.0000   1.0000
     1.0000   1.0000   1.0000   1.0000   1.0000   1.0000   1.0000   1.0000
     1.0000   1.0000   1.0000   1.0000   1.0000   1.0000   1.0000   1.0000
     1.0000   1.0000   1.0000   1.0000   1.0000   1.0000   1.0000   1.0000
     1.0000   1.0000   1.0000   1.0000   1.0000   1.0000   1.0000   1.0000
     1.0000   1.0000   1.0000   1.0000   1.0000   1.0000   1.0000   1.0000
     1.0000   1.0000   1.0000   1.0000   1.0000   1.0000   1.0000   1.0000
     1.0000   1.0000   1.0000   1.0000   1.0000   1.0000   1.0000   1.0000
     1.0000   1.0000   1.0000   1.0000   1.0000   1.0000   1.0000   1.0000
     1.0000   1.0000   1.0000   1.0000   1.0000   1.0000   1.0000   1.0000
     1.0000   1.0000   1.0000   1.0000   1.0000   1.0000   1.0000   1.0000
     1.0000   1.0000   1.0000   1.0000   1.0000   1.0000   1.0000   1.0000
     1.0000   1.0000   1.0000   1.0000   1.0000   1.0000   1.0000   1.0000
     1.0000   1.0000   1.0000   1.0000   1.0000   1.0000   1.0000   1.0000
     1.0000   1.0000   1.0000   1.0000   1.0000   1.0000   1.0000   1.0000
     1.0000   1.0000   1.0000   1.0000   1.0000   1.0000   1.0000   1.0000
     1.0000   1.0000   1.0000   1.0000   1.0000   1.0000   1.0000   1.0000
     1.0000   1.0000   1.0000   1.0000   1.0000   1.0000   1.0000   1.0000
     1.0000   1.0000   1.0000   1.0000   1.0000   1.0000   1.0000   1.0000
     1.0000   1.0000   1.0000   1.0000   1.0000   1.0000   1.0000   1.0000
     1.0000   1.0000   1.0000   1.0000   1.0000   1.0000   1.0000   1.0000
     1.0000   1.0000   1.0000   1.0000   1.0000   1.0000   1.0000   1.0000
     1.0000   1.0000   1.0000   1.0000   1.0000   1.0000   0.0000   0.0000
     0.0000   0.0000   0.0000   0.0000   0.0000   0.0000   0.0000   0.0000
     0.0000   0.0000   0.0000   0.0000   0.0000   0.0000   0.0000   0.0000
     0.0000   0.0000   0.0000   0.0000   0.0000   0.0000   0.0000   0.0000
     0.0000   0.0000   0.0000   0.0000   0.0000   0.0000   0.0000   0.0000
     0.0000   0.0000   0.0000   0.0000   0.0000   0.0000   0.0000   0.0000
     0.0000   0.0000   0.0000   0.0000   0.0000   0.0000   0.0000   0.0000
     0.0000   0.0000   0.0000   0.0000   0.0000   0.0000   0.0000   0.0000

          k = 0.2500-0.2500 0.2500 (269935 PWs)   bands (ev):

   -87.4685 -50.8115 -50.8098 -50.8097  -7.4466  -7.2122  -7.2002  -7.1460
    -7.0059  -6.9994  -6.9347  -6.8360  -6.8213  -6.8101  -6.7572  -6.7548
    -6.6824  -6.6791  -6.6380  -6.6333  -6.6033  -6.5986  -6.5935  -6.5561
    -6.5399  -6.5251  -6.4712  -6.4607  -6.4388  -6.4172  -6.3818  -6.3807
    -6.3657  -6.3648  -6.3552  -0.9913  -0.9898  -0.9897  -0.9649  -0.9642
    -0.9630  -0.9483  -0.9220  -0.9204  -0.9023  -0.8808  -0.8798  -0.8601
    -0.8591  -0.8454  -0.7602  -0.7499  -0.7485  -0.7393  -0.7231  -0.7218
    -0.7086  -0.7037  -0.7029  -0.6911  -0.6895  -0.6859  -0.6836  -0.6789
    -0.6757  -0.6718  -0.6715  -0.6663  -0.6654  -0.6594  -0.6560  -0.6549
    -0.6530  -0.6497  -0.6486  -0.6456  -0.6381  -0.6331  -0.6325  -0.6296
    -0.6284  -0.6282  -0.6187  -0.6176  -0.6125  -0.6123  -0.6032  -0.6021
    -0.5975  -0.5936  -0.5920  -0.5886  -0.5826  -0.5740  -0.5723  -0.5696
    -0.5642  -0.5591  -0.5524  -0.5519  -0.5500  -0.5458  -0.5434  -0.5420
    -0.5244  -0.5239  -0.5169  -0.5165  -0.5116  -0.5062  -0.4920  -0.4875
    -0.4839  -0.4829  -0.4621  -0.4603  -0.4603  -0.4543  -0.4531  -0.4408
    -0.4367  -0.4361  -0.4041  -0.3836  -0.3796  -0.3764  -0.3700  -0.3666
    -0.3666  -0.3414  -0.3370  -0.3364  -0.3264  -0.3260  -0.3143  -0.3104
    -0.3081  -0.3058  -0.3043  -0.2986  -0.2944  -0.2939  -0.2926  -0.2895
    -0.2863  -0.2857  -0.2838  -0.2833  -0.2779  -0.2765  -0.2731  -0.2685
    -0.2669  -0.2609  -0.2587  -0.2546  -0.2546  -0.2516  -0.2506  -0.2465
    -0.2447  -0.2416  -0.2387  -0.2286  -0.2271  -0.2269  -0.2218  -0.2195
    -0.2077  -0.2044  -0.1970  -0.1884  -0.1882  -0.1856  -0.1796  -0.1762
    -0.1488  -0.1448  -0.1269  -0.1268  -0.1221  -0.0879  -0.0817  -0.0792
    -0.0209  -0.0021  -0.0013   0.0062   0.0083   0.0117   0.5360   0.6105
     0.6161   0.8164   0.8534   0.8694   0.9503   0.9571   0.9655   1.0207
     1.0505   1.0598   1.0984   1.1402   1.1455   1.2110   1.2966   1.3206
     1.3350   1.3428   1.4480   1.6411   1.8989   1.9720   2.0013   2.1298
     2.1391   2.2970   2.6100   2.6353   2.6458   2.6945   2.6981   2.7127
     2.7673   2.8030   2.8112   2.9581   3.0119   3.0198   3.0339   3.1198
     3.1575   3.2365   3.2679   3.2750   3.3178   3.3428   3.3509   3.3988
     3.4155   3.4161   3.4578   3.4598   3.4723   3.5075   3.5781   3.5949
     3.7236   3.7784   3.8015   3.8457   3.9093   3.9359   3.9681   4.0281
     4.0331   4.0726   4.0844   4.1059   4.1281   4.1588   4.1594   4.1826
     4.1940   4.2004   4.2783   4.3002   4.3048   4.3166   4.4801   4.4886
     4.6083   4.6459   4.6703   4.6733   4.7071   4.7316   4.8519   4.8674
     4.9092   5.1989   5.2116   5.6844   5.6978   5.8146   6.5999   6.9011
     6.9415   7.8820   8.2091   8.5641   8.8898   8.9575   9.3305   9.3312
     9.3500   9.4122   9.4358   9.4936   9.5028   9.5739   9.6089   9.6149
     9.6616   9.8058   9.8644   9.8890   9.9523  10.0565  10.0609  10.1248
    10.1428  10.1607  10.2314  10.2466  10.2610  10.2900  10.3031  10.3162
    10.3347  10.3637  10.3684  10.3875  10.4461  10.5295  10.7207  10.8140
    11.0103  11.0761  11.0907  11.1728  11.3491  11.3534  11.3838  11.4136
    11.4370  11.4589  11.4801  11.5607  11.5662  11.6265  11.7584  11.7689

     occupation numbers 
     1.0000   1.0000   1.0000   1.0000   1.0000   1.0000   1.0000   1.0000
     1.0000   1.0000   1.0000   1.0000   1.0000   1.0000   1.0000   1.0000
     1.0000   1.0000   1.0000   1.0000   1.0000   1.0000   1.0000   1.0000
     1.0000   1.0000   1.0000   1.0000   1.0000   1.0000   1.0000   1.0000
     1.0000   1.0000   1.0000   1.0000   1.0000   1.0000   1.0000   1.0000
     1.0000   1.0000   1.0000   1.0000   1.0000   1.0000   1.0000   1.0000
     1.0000   1.0000   1.0000   1.0000   1.0000   1.0000   1.0000   1.0000
     1.0000   1.0000   1.0000   1.0000   1.0000   1.0000   1.0000   1.0000
     1.0000   1.0000   1.0000   1.0000   1.0000   1.0000   1.0000   1.0000
     1.0000   1.0000   1.0000   1.0000   1.0000   1.0000   1.0000   1.0000
     1.0000   1.0000   1.0000   1.0000   1.0000   1.0000   1.0000   1.0000
     1.0000   1.0000   1.0000   1.0000   1.0000   1.0000   1.0000   1.0000
     1.0000   1.0000   1.0000   1.0000   1.0000   1.0000   1.0000   1.0000
     1.0000   1.0000   1.0000   1.0000   1.0000   1.0000   1.0000   1.0000
     1.0000   1.0000   1.0000   1.0000   1.0000   1.0000   1.0000   1.0000
     1.0000   1.0000   1.0000   1.0000   1.0000   1.0000   1.0000   1.0000
     1.0000   1.0000   1.0000   1.0000   1.0000   1.0000   1.0000   1.0000
     1.0000   1.0000   1.0000   1.0000   1.0000   1.0000   1.0000   1.0000
     1.0000   1.0000   1.0000   1.0000   1.0000   1.0000   1.0000   1.0000
     1.0000   1.0000   1.0000   1.0000   1.0000   1.0000   1.0000   1.0000
     1.0000   1.0000   1.0000   1.0000   1.0000   1.0000   1.0000   1.0000
     1.0000   1.0000   1.0000   1.0000   1.0000   1.0000   1.0000   1.0000
     1.0000   1.0000   1.0000   1.0000   1.0000   1.0000   1.0000   1.0000
     1.0000   1.0000   1.0000   1.0000   1.0000   1.0000   1.0000   1.0000
     1.0000   1.0000   1.0000   1.0000   1.0000   1.0000   1.0000   1.0000
     1.0000   1.0000   1.0000   1.0000   1.0000   1.0000   1.0000   1.0000
     1.0000   1.0000   1.0000   1.0000   1.0000   1.0000   1.0000   1.0000
     1.0000   1.0000   1.0000   1.0000   1.0000   1.0000   1.0000   1.0000
     1.0000   1.0000   1.0000   1.0000   1.0000   1.0000   1.0000   1.0000
     1.0000   1.0000   1.0000   1.0000   1.0000   1.0000   1.0000   1.0000
     1.0000   1.0000   1.0000   1.0000   1.0000   1.0000   1.0000   1.0000
     1.0000   1.0000   1.0000   1.0000   1.0000   1.0000   1.0000   1.0000
     1.0000   1.0000   1.0000   1.0000   1.0000   1.0000   1.0000   1.0000
     1.0000   1.0000   1.0000   1.0000   1.0000   1.0000   1.0000   1.0000
     1.0000   1.0000   1.0000   1.0000   1.0000   1.0000   1.0000   1.0000
     1.0000   1.0000   1.0000   1.0000   1.0000   1.0000   0.0000   0.0000
     0.0000   0.0000   0.0000   0.0000   0.0000   0.0000   0.0000   0.0000
     0.0000   0.0000   0.0000   0.0000   0.0000   0.0000   0.0000   0.0000
     0.0000   0.0000   0.0000   0.0000   0.0000   0.0000   0.0000   0.0000
     0.0000   0.0000   0.0000   0.0000   0.0000   0.0000   0.0000   0.0000
     0.0000   0.0000   0.0000   0.0000   0.0000   0.0000   0.0000   0.0000
     0.0000   0.0000   0.0000   0.0000   0.0000   0.0000   0.0000   0.0000
     0.0000   0.0000   0.0000   0.0000   0.0000   0.0000   0.0000   0.0000

          k = 0.2500-0.2500-0.5000 (269988 PWs)   bands (ev):

   -87.4685 -50.8115 -50.8098 -50.8097  -7.3645  -7.3275  -7.1371  -7.1204
    -7.1045  -7.0477  -6.9398  -6.8873  -6.7978  -6.7795  -6.7464  -6.7256
    -6.6706  -6.6516  -6.6335  -6.6023  -6.5958  -6.5621  -6.5536  -6.5448
    -6.5316  -6.5166  -6.4709  -6.4626  -6.4549  -6.4315  -6.4168  -6.4070
    -6.3961  -6.3693  -6.3604  -0.9902  -0.9889  -0.9878  -0.9640  -0.9635
    -0.9621  -0.9497  -0.9214  -0.9192  -0.8981  -0.8801  -0.8752  -0.8612
    -0.8580  -0.8487  -0.7532  -0.7409  -0.7271  -0.7246  -0.7192  -0.7183
    -0.7073  -0.7066  -0.7041  -0.7004  -0.6971  -0.6932  -0.6909  -0.6860
    -0.6826  -0.6800  -0.6752  -0.6708  -0.6681  -0.6646  -0.6594  -0.6590
    -0.6549  -0.6534  -0.6505  -0.6472  -0.6383  -0.6368  -0.6337  -0.6319
    -0.6282  -0.6213  -0.6206  -0.6188  -0.6147  -0.6131  -0.6065  -0.6023
    -0.5921  -0.5885  -0.5848  -0.5794  -0.5779  -0.5760  -0.5708  -0.5688
    -0.5655  -0.5631  -0.5557  -0.5520  -0.5463  -0.5405  -0.5374  -0.5360
    -0.5269  -0.5248  -0.5230  -0.5193  -0.5142  -0.5076  -0.5074  -0.5019
    -0.4926  -0.4864  -0.4830  -0.4794  -0.4729  -0.4567  -0.4345  -0.4281
    -0.4154  -0.4111  -0.4049  -0.3990  -0.3923  -0.3884  -0.3804  -0.3730
    -0.3690  -0.3564  -0.3492  -0.3445  -0.3329  -0.3287  -0.3273  -0.3083
    -0.3046  -0.3020  -0.3007  -0.2984  -0.2921  -0.2907  -0.2868  -0.2853
    -0.2834  -0.2801  -0.2784  -0.2774  -0.2744  -0.2715  -0.2660  -0.2639
    -0.2620  -0.2583  -0.2563  -0.2547  -0.2514  -0.2500  -0.2466  -0.2439
    -0.2402  -0.2364  -0.2350  -0.2296  -0.2281  -0.2257  -0.2172  -0.2145
    -0.2054  -0.2001  -0.1983  -0.1886  -0.1865  -0.1783  -0.1747  -0.1710
    -0.1634  -0.1392  -0.1254  -0.1120  -0.1061  -0.0794  -0.0670  -0.0565
    -0.0479  -0.0438  -0.0179  -0.0105   0.0073   0.0217   0.5996   0.6454
     0.7482   0.8439   0.8748   0.8976   0.9337   0.9429   0.9654   0.9894
     1.0205   1.0542   1.0637   1.0682   1.0927   1.1045   1.1763   1.3629
     1.4294   1.5331   1.5839   1.6236   1.6718   1.7103   1.7891   2.0026
     2.4310   2.5788   2.6069   2.6154   2.6346   2.6562   2.6865   2.7467
     2.7741   2.8096   2.8360   2.8594   2.9268   2.9496   3.0001   3.0477
     3.2605   3.2855   3.3609   3.3939   3.4147   3.4509   3.4658   3.5030
     3.5263   3.5450   3.5666   3.5847   3.6093   3.6361   3.6540   3.6752
     3.7038   3.7221   3.7496   3.7562   3.7647   3.7677   3.7818   3.8114
     3.8239   3.9697   3.9900   4.0233   4.0365   4.0604   4.1155   4.1623
     4.2140   4.2332   4.2484   4.2829   4.3472   4.3773   4.4383   4.4445
     4.4875   4.5661   4.7737   4.8287   4.8428   4.8975   4.9100   4.9414
     5.0294   5.0509   5.0945   5.6835   5.6954   5.8116   6.6083   6.9064
     6.9300   8.0074   8.0984   8.7887   8.9482   9.0834   9.1393   9.1791
     9.3847   9.4158   9.4838   9.5525   9.5639   9.6373   9.6725   9.6847
     9.7053   9.7802   9.7930   9.8455   9.8533   9.8848   9.9150   9.9936
    10.0189  10.0318  10.0835  10.1123  10.1291  10.2081  10.2354  10.3270
    10.4066  10.4212  10.4560  10.5993  10.7103  10.7940  10.8204  10.8404
    10.8951  10.9951  11.0473  11.1671  11.2732  11.3369  11.3622  11.4342
    11.4857  11.5318  11.5430  11.5564  11.6254  11.6406  11.6488  11.6713

     occupation numbers 
     1.0000   1.0000   1.0000   1.0000   1.0000   1.0000   1.0000   1.0000
     1.0000   1.0000   1.0000   1.0000   1.0000   1.0000   1.0000   1.0000
     1.0000   1.0000   1.0000   1.0000   1.0000   1.0000   1.0000   1.0000
     1.0000   1.0000   1.0000   1.0000   1.0000   1.0000   1.0000   1.0000
     1.0000   1.0000   1.0000   1.0000   1.0000   1.0000   1.0000   1.0000
     1.0000   1.0000   1.0000   1.0000   1.0000   1.0000   1.0000   1.0000
     1.0000   1.0000   1.0000   1.0000   1.0000   1.0000   1.0000   1.0000
     1.0000   1.0000   1.0000   1.0000   1.0000   1.0000   1.0000   1.0000
     1.0000   1.0000   1.0000   1.0000   1.0000   1.0000   1.0000   1.0000
     1.0000   1.0000   1.0000   1.0000   1.0000   1.0000   1.0000   1.0000
     1.0000   1.0000   1.0000   1.0000   1.0000   1.0000   1.0000   1.0000
     1.0000   1.0000   1.0000   1.0000   1.0000   1.0000   1.0000   1.0000
     1.0000   1.0000   1.0000   1.0000   1.0000   1.0000   1.0000   1.0000
     1.0000   1.0000   1.0000   1.0000   1.0000   1.0000   1.0000   1.0000
     1.0000   1.0000   1.0000   1.0000   1.0000   1.0000   1.0000   1.0000
     1.0000   1.0000   1.0000   1.0000   1.0000   1.0000   1.0000   1.0000
     1.0000   1.0000   1.0000   1.0000   1.0000   1.0000   1.0000   1.0000
     1.0000   1.0000   1.0000   1.0000   1.0000   1.0000   1.0000   1.0000
     1.0000   1.0000   1.0000   1.0000   1.0000   1.0000   1.0000   1.0000
     1.0000   1.0000   1.0000   1.0000   1.0000   1.0000   1.0000   1.0000
     1.0000   1.0000   1.0000   1.0000   1.0000   1.0000   1.0000   1.0000
     1.0000   1.0000   1.0000   1.0000   1.0000   1.0000   1.0000   1.0000
     1.0000   1.0000   1.0000   1.0000   1.0000   1.0000   1.0000   1.0000
     1.0000   1.0000   1.0000   1.0000   1.0000   1.0000   1.0000   1.0000
     1.0000   1.0000   1.0000   1.0000   1.0000   1.0000   1.0000   1.0000
     1.0000   1.0000   1.0000   1.0000   1.0000   1.0000   1.0000   1.0000
     1.0000   1.0000   1.0000   1.0000   1.0000   1.0000   1.0000   1.0000
     1.0000   1.0000   1.0000   1.0000   1.0000   1.0000   1.0000   1.0000
     1.0000   1.0000   1.0000   1.0000   1.0000   1.0000   1.0000   1.0000
     1.0000   1.0000   1.0000   1.0000   1.0000   1.0000   1.0000   1.0000
     1.0000   1.0000   1.0000   1.0000   1.0000   1.0000   1.0000   1.0000
     1.0000   1.0000   1.0000   1.0000   1.0000   1.0000   1.0000   1.0000
     1.0000   1.0000   1.0000   1.0000   1.0000   1.0000   1.0000   1.0000
     1.0000   1.0000   1.0000   1.0000   1.0000   1.0000   1.0000   1.0000
     1.0000   1.0000   1.0000   1.0000   1.0000   1.0000   1.0000   1.0000
     1.0000   1.0000   1.0000   1.0000   1.0000   1.0000   0.0000   0.0000
     0.0000   0.0000   0.0000   0.0000   0.0000   0.0000   0.0000   0.0000
     0.0000   0.0000   0.0000   0.0000   0.0000   0.0000   0.0000   0.0000
     0.0000   0.0000   0.0000   0.0000   0.0000   0.0000   0.0000   0.0000
     0.0000   0.0000   0.0000   0.0000   0.0000   0.0000   0.0000   0.0000
     0.0000   0.0000   0.0000   0.0000   0.0000   0.0000   0.0000   0.0000
     0.0000   0.0000   0.0000   0.0000   0.0000   0.0000   0.0000   0.0000
     0.0000   0.0000   0.0000   0.0000   0.0000   0.0000   0.0000   0.0000

     the Fermi energy is     6.1112 ev
     (compare with:     6.0319 eV, computed in scf)

     Writing all to output data dir ./out/Co_vac_qp1_unrlxd.save/
 
     init_run     :      3.39s CPU      3.82s WALL (       1 calls)
     electrons    :    336.47s CPU    339.67s WALL (       1 calls)

     Called by init_run:
     wfcinit      :      0.00s CPU      0.02s WALL (       1 calls)
     wfcinit:atom :      0.06s CPU      0.07s WALL (       4 calls)
     wfcinit:wfcr :      4.91s CPU      5.08s WALL (       4 calls)
     potinit      :      1.26s CPU      1.40s WALL (       1 calls)
     hinit0       :      0.44s CPU      0.53s WALL (       1 calls)

     Called by electrons:
     c_bands      :    336.22s CPU    339.40s WALL (       1 calls)
     v_of_rho     :      0.30s CPU      0.36s WALL (       1 calls)
     v_h          :      0.01s CPU      0.01s WALL (       1 calls)
     v_xc         :      0.29s CPU      0.35s WALL (       1 calls)
     newd         :      0.07s CPU      0.08s WALL (       1 calls)
     PAW_pot      :      0.53s CPU      0.54s WALL (       1 calls)

     Called by c_bands:
     init_us_2    :      0.11s CPU      0.13s WALL (       4 calls)
     init_us_2:cp :      0.11s CPU      0.13s WALL (       4 calls)
     cegterg      :    261.66s CPU    264.27s WALL (      22 calls)

     Called by sum_band:

     Called by *egterg:
     cdiaghg      :     28.09s CPU     28.28s WALL (     439 calls)
     cegterg:over :     24.85s CPU     25.11s WALL (     435 calls)
     cegterg:upda :     22.62s CPU     22.82s WALL (     435 calls)
     cegterg:last :     43.06s CPU     43.35s WALL (     146 calls)
     cdiaghg:chol :      1.78s CPU      1.80s WALL (     439 calls)
     cdiaghg:inve :      2.65s CPU      2.67s WALL (     439 calls)
     cdiaghg:para :      4.29s CPU      4.32s WALL (     878 calls)
     h_psi        :    115.96s CPU    117.21s WALL (     461 calls)
     s_psi        :     26.06s CPU     26.24s WALL (     461 calls)
     g_psi        :      0.85s CPU      0.86s WALL (     435 calls)

     Called by h_psi:
     h_psi:calbec :     25.53s CPU     25.75s WALL (     461 calls)
     vloc_psi     :     62.17s CPU     62.77s WALL (     461 calls)
     add_vuspsi   :     26.98s CPU     27.18s WALL (     461 calls)

     General routines
     calbec       :     25.53s CPU     25.75s WALL (     461 calls)
     fft          :      0.48s CPU      0.63s WALL (      21 calls)
     fftw         :     57.74s CPU     58.29s WALL (  107190 calls)
 
     Parallel routines

     PAW routines
     PAW_pot      :      0.53s CPU      0.54s WALL (       1 calls)
 
     PWSCF        :   5m46.36s CPU   5m54.08s WALL

 
   This run was terminated on:   3:23:19   7Jul2024            

=------------------------------------------------------------------------------=
   JOB DONE.
=------------------------------------------------------------------------------=
