
     Program PWSCF v.7.2 starts on 22Mar2024 at  0:18:51 

     This program is part of the open-source Quantum ESPRESSO suite
     for quantum simulation of materials; please cite
         "P. Giannozzi et al., J. Phys.:Condens. Matter 21 395502 (2009);
         "P. Giannozzi et al., J. Phys.:Condens. Matter 29 465901 (2017);
         "P. Giannozzi et al., J. Chem. Phys. 152 154105 (2020);
          URL http://www.quantum-espresso.org", 
     in publications or presentations arising from this work. More details at
     http://www.quantum-espresso.org/quote

     Parallel version (MPI), running on    20 processors

     MPI processes distributed on     1 nodes
     281445 MiB available memory on the printing compute node when the environment starts
 
     Waiting for input...
     Reading input from standard input

     Current dimensions of program PWSCF are:
     Max number of different atomic species (ntypx) = 10
     Max number of k-points (npk) = 120000
     Max angular momentum in pseudopotentials (lmaxx) =  4
     file Ni.pbe-spn-kjpaw_psl.1.0.0.UPF: wavefunction(s)  3P 3D renormalized
     Found identity + (  0.0000 -0.5000 -0.5000) symmetry
     This is a supercell, fractional translations are disabled
     Message from routine setup:
     using ibrav=0 with symmetry is DISCOURAGED, use correct ibrav instead
 
     R & G space division:  proc/nbgrp/npool/nimage =      20
     Subspace diagonalization in iterative solution of the eigenvalue problem:
     a serial algorithm will be used

 
     Parallelization info
     --------------------
     sticks:   dense  smooth     PW     G-vecs:    dense   smooth      PW
     Min         137     103     29                 5407     3515     537
     Max         139     104     30                 5408     3518     540
     Sum        2749    2061    593               108143    70319   10779
 
     Using Slab Decomposition
 


     bravais-lattice index     =            0
     lattice parameter (alat)  =       6.5671  a.u.
     unit-cell volume          =     283.2147 (a.u.)^3
     number of atoms/cell      =            4
     number of atomic types    =            1
     number of electrons       =        72.00
     number of Kohn-Sham states=           43
     kinetic-energy cutoff     =     150.0000  Ry
     charge density cutoff     =     800.0000  Ry
     scf convergence threshold =      8.0E-08
     mixing beta               =       0.7000
     number of iterations used =            8  plain     mixing
     Exchange-correlation= SLA  PW   PBX  PBC
                           (   1   4   3   4   0   0   0)

     celldm(1)=   6.567074  celldm(2)=   0.000000  celldm(3)=   0.000000
     celldm(4)=   0.000000  celldm(5)=   0.000000  celldm(6)=   0.000000

     crystal axes: (cart. coord. in units of alat)
               a(1) = (   1.000000   0.000000   0.000000 )  
               a(2) = (   0.000000   1.000000   0.000000 )  
               a(3) = (   0.000000   0.000000   1.000000 )  

     reciprocal axes: (cart. coord. in units 2 pi/alat)
               b(1) = (  1.000000  0.000000  0.000000 )  
               b(2) = (  0.000000  1.000000  0.000000 )  
               b(3) = (  0.000000  0.000000  1.000000 )  


     PseudoPot. # 1 for Ni read from file:
     /truba/home/amuhaymin/ZnS/pseudo/QE/Ni.pbe-spn-kjpaw_psl.1.0.0.UPF
     MD5 check sum: 6e86b733589c3ad8389697b807d86aa7
     Pseudo is Projector augmented-wave + core cor, Zval = 18.0
     Generated using &quot;atomic&quot; code by A. Dal Corso  v.6.3
     Shape of augmentation charge: PSQ
     Using radial grid of 1195 points,  6 beta functions with: 
                l(1) =   0
                l(2) =   0
                l(3) =   1
                l(4) =   1
                l(5) =   2
                l(6) =   2
     Q(r) pseudized with 0 coefficients 


     atomic species   valence    mass     pseudopotential
        Ni            18.00    58.69340     Ni( 1.00)

     Starting magnetic structure 
     atomic species   magnetization
        Ni           0.278

     48 Sym. Ops., with inversion, found


                                    s                        frac. trans.

      isym =  1     identity                                     

 cryst.   s( 1) = (     1          0          0      )
                  (     0          1          0      )
                  (     0          0          1      )

 cart.    s( 1) = (  1.0000000  0.0000000  0.0000000 )
                  (  0.0000000  1.0000000  0.0000000 )
                  (  0.0000000  0.0000000  1.0000000 )


      isym =  2     180 deg rotation - cart. axis [0,0,1]        

 cryst.   s( 2) = (    -1          0          0      )
                  (     0         -1          0      )
                  (     0          0          1      )

 cart.    s( 2) = ( -1.0000000  0.0000000  0.0000000 )
                  (  0.0000000 -1.0000000  0.0000000 )
                  (  0.0000000  0.0000000  1.0000000 )


      isym =  3     180 deg rotation - cart. axis [0,1,0]        

 cryst.   s( 3) = (    -1          0          0      )
                  (     0          1          0      )
                  (     0          0         -1      )

 cart.    s( 3) = ( -1.0000000  0.0000000  0.0000000 )
                  (  0.0000000  1.0000000  0.0000000 )
                  (  0.0000000  0.0000000 -1.0000000 )


      isym =  4     180 deg rotation - cart. axis [1,0,0]        

 cryst.   s( 4) = (     1          0          0      )
                  (     0         -1          0      )
                  (     0          0         -1      )

 cart.    s( 4) = (  1.0000000  0.0000000  0.0000000 )
                  (  0.0000000 -1.0000000  0.0000000 )
                  (  0.0000000  0.0000000 -1.0000000 )


      isym =  5     180 deg rotation - cart. axis [1,1,0]        

 cryst.   s( 5) = (     0          1          0      )
                  (     1          0          0      )
                  (     0          0         -1      )

 cart.    s( 5) = (  0.0000000  1.0000000  0.0000000 )
                  (  1.0000000  0.0000000  0.0000000 )
                  (  0.0000000  0.0000000 -1.0000000 )


      isym =  6     180 deg rotation - cart. axis [1,-1,0]       

 cryst.   s( 6) = (     0         -1          0      )
                  (    -1          0          0      )
                  (     0          0         -1      )

 cart.    s( 6) = (  0.0000000 -1.0000000  0.0000000 )
                  ( -1.0000000  0.0000000  0.0000000 )
                  (  0.0000000  0.0000000 -1.0000000 )


      isym =  7      90 deg rotation - cart. axis [0,0,-1]       

 cryst.   s( 7) = (     0         -1          0      )
                  (     1          0          0      )
                  (     0          0          1      )

 cart.    s( 7) = (  0.0000000  1.0000000  0.0000000 )
                  ( -1.0000000  0.0000000  0.0000000 )
                  (  0.0000000  0.0000000  1.0000000 )


      isym =  8      90 deg rotation - cart. axis [0,0,1]        

 cryst.   s( 8) = (     0          1          0      )
                  (    -1          0          0      )
                  (     0          0          1      )

 cart.    s( 8) = (  0.0000000 -1.0000000  0.0000000 )
                  (  1.0000000  0.0000000  0.0000000 )
                  (  0.0000000  0.0000000  1.0000000 )


      isym =  9     180 deg rotation - cart. axis [1,0,1]        

 cryst.   s( 9) = (     0          0          1      )
                  (     0         -1          0      )
                  (     1          0          0      )

 cart.    s( 9) = (  0.0000000  0.0000000  1.0000000 )
                  (  0.0000000 -1.0000000  0.0000000 )
                  (  1.0000000  0.0000000  0.0000000 )


      isym = 10     180 deg rotation - cart. axis [-1,0,1]       

 cryst.   s(10) = (     0          0         -1      )
                  (     0         -1          0      )
                  (    -1          0          0      )

 cart.    s(10) = (  0.0000000  0.0000000 -1.0000000 )
                  (  0.0000000 -1.0000000  0.0000000 )
                  ( -1.0000000  0.0000000  0.0000000 )


      isym = 11      90 deg rotation - cart. axis [0,1,0]        

 cryst.   s(11) = (     0          0         -1      )
                  (     0          1          0      )
                  (     1          0          0      )

 cart.    s(11) = (  0.0000000  0.0000000  1.0000000 )
                  (  0.0000000  1.0000000  0.0000000 )
                  ( -1.0000000  0.0000000  0.0000000 )


      isym = 12      90 deg rotation - cart. axis [0,-1,0]       

 cryst.   s(12) = (     0          0          1      )
                  (     0          1          0      )
                  (    -1          0          0      )

 cart.    s(12) = (  0.0000000  0.0000000 -1.0000000 )
                  (  0.0000000  1.0000000  0.0000000 )
                  (  1.0000000  0.0000000  0.0000000 )


      isym = 13     180 deg rotation - cart. axis [0,1,1]        

 cryst.   s(13) = (    -1          0          0      )
                  (     0          0          1      )
                  (     0          1          0      )

 cart.    s(13) = ( -1.0000000  0.0000000  0.0000000 )
                  (  0.0000000  0.0000000  1.0000000 )
                  (  0.0000000  1.0000000  0.0000000 )


      isym = 14     180 deg rotation - cart. axis [0,1,-1]       

 cryst.   s(14) = (    -1          0          0      )
                  (     0          0         -1      )
                  (     0         -1          0      )

 cart.    s(14) = ( -1.0000000  0.0000000  0.0000000 )
                  (  0.0000000  0.0000000 -1.0000000 )
                  (  0.0000000 -1.0000000  0.0000000 )


      isym = 15      90 deg rotation - cart. axis [-1,0,0]       

 cryst.   s(15) = (     1          0          0      )
                  (     0          0         -1      )
                  (     0          1          0      )

 cart.    s(15) = (  1.0000000  0.0000000  0.0000000 )
                  (  0.0000000  0.0000000  1.0000000 )
                  (  0.0000000 -1.0000000  0.0000000 )


      isym = 16      90 deg rotation - cart. axis [1,0,0]        

 cryst.   s(16) = (     1          0          0      )
                  (     0          0          1      )
                  (     0         -1          0      )

 cart.    s(16) = (  1.0000000  0.0000000  0.0000000 )
                  (  0.0000000  0.0000000 -1.0000000 )
                  (  0.0000000  1.0000000  0.0000000 )


      isym = 17     120 deg rotation - cart. axis [-1,-1,-1]     

 cryst.   s(17) = (     0          0          1      )
                  (     1          0          0      )
                  (     0          1          0      )

 cart.    s(17) = (  0.0000000  1.0000000  0.0000000 )
                  (  0.0000000  0.0000000  1.0000000 )
                  (  1.0000000  0.0000000  0.0000000 )


      isym = 18     120 deg rotation - cart. axis [-1,1,1]       

 cryst.   s(18) = (     0          0         -1      )
                  (    -1          0          0      )
                  (     0          1          0      )

 cart.    s(18) = (  0.0000000 -1.0000000  0.0000000 )
                  (  0.0000000  0.0000000  1.0000000 )
                  ( -1.0000000  0.0000000  0.0000000 )


      isym = 19     120 deg rotation - cart. axis [1,1,-1]       

 cryst.   s(19) = (     0          0         -1      )
                  (     1          0          0      )
                  (     0         -1          0      )

 cart.    s(19) = (  0.0000000  1.0000000  0.0000000 )
                  (  0.0000000  0.0000000 -1.0000000 )
                  ( -1.0000000  0.0000000  0.0000000 )


      isym = 20     120 deg rotation - cart. axis [1,-1,1]       

 cryst.   s(20) = (     0          0          1      )
                  (    -1          0          0      )
                  (     0         -1          0      )

 cart.    s(20) = (  0.0000000 -1.0000000  0.0000000 )
                  (  0.0000000  0.0000000 -1.0000000 )
                  (  1.0000000  0.0000000  0.0000000 )


      isym = 21     120 deg rotation - cart. axis [1,1,1]        

 cryst.   s(21) = (     0          1          0      )
                  (     0          0          1      )
                  (     1          0          0      )

 cart.    s(21) = (  0.0000000  0.0000000  1.0000000 )
                  (  1.0000000  0.0000000  0.0000000 )
                  (  0.0000000  1.0000000  0.0000000 )


      isym = 22     120 deg rotation - cart. axis [-1,1,-1]      

 cryst.   s(22) = (     0         -1          0      )
                  (     0          0         -1      )
                  (     1          0          0      )

 cart.    s(22) = (  0.0000000  0.0000000  1.0000000 )
                  ( -1.0000000  0.0000000  0.0000000 )
                  (  0.0000000 -1.0000000  0.0000000 )


      isym = 23     120 deg rotation - cart. axis [1,-1,-1]      

 cryst.   s(23) = (     0         -1          0      )
                  (     0          0          1      )
                  (    -1          0          0      )

 cart.    s(23) = (  0.0000000  0.0000000 -1.0000000 )
                  ( -1.0000000  0.0000000  0.0000000 )
                  (  0.0000000  1.0000000  0.0000000 )


      isym = 24     120 deg rotation - cart. axis [-1,-1,1]      

 cryst.   s(24) = (     0          1          0      )
                  (     0          0         -1      )
                  (    -1          0          0      )

 cart.    s(24) = (  0.0000000  0.0000000 -1.0000000 )
                  (  1.0000000  0.0000000  0.0000000 )
                  (  0.0000000 -1.0000000  0.0000000 )


      isym = 25     inversion                                    

 cryst.   s(25) = (    -1          0          0      )
                  (     0         -1          0      )
                  (     0          0         -1      )

 cart.    s(25) = ( -1.0000000  0.0000000  0.0000000 )
                  (  0.0000000 -1.0000000  0.0000000 )
                  (  0.0000000  0.0000000 -1.0000000 )


      isym = 26     inv. 180 deg rotation - cart. axis [0,0,1]   

 cryst.   s(26) = (     1          0          0      )
                  (     0          1          0      )
                  (     0          0         -1      )

 cart.    s(26) = (  1.0000000  0.0000000  0.0000000 )
                  (  0.0000000  1.0000000  0.0000000 )
                  (  0.0000000  0.0000000 -1.0000000 )


      isym = 27     inv. 180 deg rotation - cart. axis [0,1,0]   

 cryst.   s(27) = (     1          0          0      )
                  (     0         -1          0      )
                  (     0          0          1      )

 cart.    s(27) = (  1.0000000  0.0000000  0.0000000 )
                  (  0.0000000 -1.0000000  0.0000000 )
                  (  0.0000000  0.0000000  1.0000000 )


      isym = 28     inv. 180 deg rotation - cart. axis [1,0,0]   

 cryst.   s(28) = (    -1          0          0      )
                  (     0          1          0      )
                  (     0          0          1      )

 cart.    s(28) = ( -1.0000000  0.0000000  0.0000000 )
                  (  0.0000000  1.0000000  0.0000000 )
                  (  0.0000000  0.0000000  1.0000000 )


      isym = 29     inv. 180 deg rotation - cart. axis [1,1,0]   

 cryst.   s(29) = (     0         -1          0      )
                  (    -1          0          0      )
                  (     0          0          1      )

 cart.    s(29) = (  0.0000000 -1.0000000  0.0000000 )
                  ( -1.0000000  0.0000000  0.0000000 )
                  (  0.0000000  0.0000000  1.0000000 )


      isym = 30     inv. 180 deg rotation - cart. axis [1,-1,0]  

 cryst.   s(30) = (     0          1          0      )
                  (     1          0          0      )
                  (     0          0          1      )

 cart.    s(30) = (  0.0000000  1.0000000  0.0000000 )
                  (  1.0000000  0.0000000  0.0000000 )
                  (  0.0000000  0.0000000  1.0000000 )


      isym = 31     inv.  90 deg rotation - cart. axis [0,0,-1]  

 cryst.   s(31) = (     0          1          0      )
                  (    -1          0          0      )
                  (     0          0         -1      )

 cart.    s(31) = (  0.0000000 -1.0000000  0.0000000 )
                  (  1.0000000  0.0000000  0.0000000 )
                  (  0.0000000  0.0000000 -1.0000000 )


      isym = 32     inv.  90 deg rotation - cart. axis [0,0,1]   

 cryst.   s(32) = (     0         -1          0      )
                  (     1          0          0      )
                  (     0          0         -1      )

 cart.    s(32) = (  0.0000000  1.0000000  0.0000000 )
                  ( -1.0000000  0.0000000  0.0000000 )
                  (  0.0000000  0.0000000 -1.0000000 )


      isym = 33     inv. 180 deg rotation - cart. axis [1,0,1]   

 cryst.   s(33) = (     0          0         -1      )
                  (     0          1          0      )
                  (    -1          0          0      )

 cart.    s(33) = (  0.0000000  0.0000000 -1.0000000 )
                  (  0.0000000  1.0000000  0.0000000 )
                  ( -1.0000000  0.0000000  0.0000000 )


      isym = 34     inv. 180 deg rotation - cart. axis [-1,0,1]  

 cryst.   s(34) = (     0          0          1      )
                  (     0          1          0      )
                  (     1          0          0      )

 cart.    s(34) = (  0.0000000  0.0000000  1.0000000 )
                  (  0.0000000  1.0000000  0.0000000 )
                  (  1.0000000  0.0000000  0.0000000 )


      isym = 35     inv.  90 deg rotation - cart. axis [0,1,0]   

 cryst.   s(35) = (     0          0          1      )
                  (     0         -1          0      )
                  (    -1          0          0      )

 cart.    s(35) = (  0.0000000  0.0000000 -1.0000000 )
                  (  0.0000000 -1.0000000  0.0000000 )
                  (  1.0000000  0.0000000  0.0000000 )


      isym = 36     inv.  90 deg rotation - cart. axis [0,-1,0]  

 cryst.   s(36) = (     0          0         -1      )
                  (     0         -1          0      )
                  (     1          0          0      )

 cart.    s(36) = (  0.0000000  0.0000000  1.0000000 )
                  (  0.0000000 -1.0000000  0.0000000 )
                  ( -1.0000000  0.0000000  0.0000000 )


      isym = 37     inv. 180 deg rotation - cart. axis [0,1,1]   

 cryst.   s(37) = (     1          0          0      )
                  (     0          0         -1      )
                  (     0         -1          0      )

 cart.    s(37) = (  1.0000000  0.0000000  0.0000000 )
                  (  0.0000000  0.0000000 -1.0000000 )
                  (  0.0000000 -1.0000000  0.0000000 )


      isym = 38     inv. 180 deg rotation - cart. axis [0,1,-1]  

 cryst.   s(38) = (     1          0          0      )
                  (     0          0          1      )
                  (     0          1          0      )

 cart.    s(38) = (  1.0000000  0.0000000  0.0000000 )
                  (  0.0000000  0.0000000  1.0000000 )
                  (  0.0000000  1.0000000  0.0000000 )


      isym = 39     inv.  90 deg rotation - cart. axis [-1,0,0]  

 cryst.   s(39) = (    -1          0          0      )
                  (     0          0          1      )
                  (     0         -1          0      )

 cart.    s(39) = ( -1.0000000  0.0000000  0.0000000 )
                  (  0.0000000  0.0000000 -1.0000000 )
                  (  0.0000000  1.0000000  0.0000000 )


      isym = 40     inv.  90 deg rotation - cart. axis [1,0,0]   

 cryst.   s(40) = (    -1          0          0      )
                  (     0          0         -1      )
                  (     0          1          0      )

 cart.    s(40) = ( -1.0000000  0.0000000  0.0000000 )
                  (  0.0000000  0.0000000  1.0000000 )
                  (  0.0000000 -1.0000000  0.0000000 )


      isym = 41     inv. 120 deg rotation - cart. axis [-1,-1,-1]

 cryst.   s(41) = (     0          0         -1      )
                  (    -1          0          0      )
                  (     0         -1          0      )

 cart.    s(41) = (  0.0000000 -1.0000000  0.0000000 )
                  (  0.0000000  0.0000000 -1.0000000 )
                  ( -1.0000000  0.0000000  0.0000000 )


      isym = 42     inv. 120 deg rotation - cart. axis [-1,1,1]  

 cryst.   s(42) = (     0          0          1      )
                  (     1          0          0      )
                  (     0         -1          0      )

 cart.    s(42) = (  0.0000000  1.0000000  0.0000000 )
                  (  0.0000000  0.0000000 -1.0000000 )
                  (  1.0000000  0.0000000  0.0000000 )


      isym = 43     inv. 120 deg rotation - cart. axis [1,1,-1]  

 cryst.   s(43) = (     0          0          1      )
                  (    -1          0          0      )
                  (     0          1          0      )

 cart.    s(43) = (  0.0000000 -1.0000000  0.0000000 )
                  (  0.0000000  0.0000000  1.0000000 )
                  (  1.0000000  0.0000000  0.0000000 )


      isym = 44     inv. 120 deg rotation - cart. axis [1,-1,1]  

 cryst.   s(44) = (     0          0         -1      )
                  (     1          0          0      )
                  (     0          1          0      )

 cart.    s(44) = (  0.0000000  1.0000000  0.0000000 )
                  (  0.0000000  0.0000000  1.0000000 )
                  ( -1.0000000  0.0000000  0.0000000 )


      isym = 45     inv. 120 deg rotation - cart. axis [1,1,1]   

 cryst.   s(45) = (     0         -1          0      )
                  (     0          0         -1      )
                  (    -1          0          0      )

 cart.    s(45) = (  0.0000000  0.0000000 -1.0000000 )
                  ( -1.0000000  0.0000000  0.0000000 )
                  (  0.0000000 -1.0000000  0.0000000 )


      isym = 46     inv. 120 deg rotation - cart. axis [-1,1,-1] 

 cryst.   s(46) = (     0          1          0      )
                  (     0          0          1      )
                  (    -1          0          0      )

 cart.    s(46) = (  0.0000000  0.0000000 -1.0000000 )
                  (  1.0000000  0.0000000  0.0000000 )
                  (  0.0000000  1.0000000  0.0000000 )


      isym = 47     inv. 120 deg rotation - cart. axis [1,-1,-1] 

 cryst.   s(47) = (     0          1          0      )
                  (     0          0         -1      )
                  (     1          0          0      )

 cart.    s(47) = (  0.0000000  0.0000000  1.0000000 )
                  (  1.0000000  0.0000000  0.0000000 )
                  (  0.0000000 -1.0000000  0.0000000 )


      isym = 48     inv. 120 deg rotation - cart. axis [-1,-1,1] 

 cryst.   s(48) = (     0         -1          0      )
                  (     0          0          1      )
                  (     1          0          0      )

 cart.    s(48) = (  0.0000000  0.0000000  1.0000000 )
                  ( -1.0000000  0.0000000  0.0000000 )
                  (  0.0000000  1.0000000  0.0000000 )


   Cartesian axes

     site n.     atom                  positions (alat units)
         1           Ni  tau(   1) = (   0.0000000   0.0000000   0.0000000  )
         2           Ni  tau(   2) = (   0.0000000   0.5000000   0.5000000  )
         3           Ni  tau(   3) = (   0.5000000   0.0000000   0.5000000  )
         4           Ni  tau(   4) = (   0.5000000   0.5000000   0.0000000  )

   Crystallographic axes

     site n.     atom                  positions (cryst. coord.)
         1           Ni  tau(   1) = (  0.0000000  0.0000000  0.0000000  )
         2           Ni  tau(   2) = (  0.0000000  0.5000000  0.5000000  )
         3           Ni  tau(   3) = (  0.5000000  0.0000000  0.5000000  )
         4           Ni  tau(   4) = (  0.5000000  0.5000000  0.0000000  )

     number of k points=    84  Methfessel-Paxton smearing, width (Ry)=  0.0220
                       cart. coord. in units 2pi/alat
        k(    1) = (   0.0000000   0.0000000   0.0000000), wk =   0.0005787
        k(    2) = (   0.0000000   0.0000000   0.0833333), wk =   0.0034722
        k(    3) = (   0.0000000   0.0000000   0.1666667), wk =   0.0034722
        k(    4) = (   0.0000000   0.0000000   0.2500000), wk =   0.0034722
        k(    5) = (   0.0000000   0.0000000   0.3333333), wk =   0.0034722
        k(    6) = (   0.0000000   0.0000000   0.4166667), wk =   0.0034722
        k(    7) = (   0.0000000   0.0000000  -0.5000000), wk =   0.0017361
        k(    8) = (   0.0000000   0.0833333   0.0833333), wk =   0.0069444
        k(    9) = (   0.0000000   0.0833333   0.1666667), wk =   0.0138889
        k(   10) = (   0.0000000   0.0833333   0.2500000), wk =   0.0138889
        k(   11) = (   0.0000000   0.0833333   0.3333333), wk =   0.0138889
        k(   12) = (   0.0000000   0.0833333   0.4166667), wk =   0.0138889
        k(   13) = (   0.0000000   0.0833333  -0.5000000), wk =   0.0069444
        k(   14) = (   0.0000000   0.1666667   0.1666667), wk =   0.0069444
        k(   15) = (   0.0000000   0.1666667   0.2500000), wk =   0.0138889
        k(   16) = (   0.0000000   0.1666667   0.3333333), wk =   0.0138889
        k(   17) = (   0.0000000   0.1666667   0.4166667), wk =   0.0138889
        k(   18) = (   0.0000000   0.1666667  -0.5000000), wk =   0.0069444
        k(   19) = (   0.0000000   0.2500000   0.2500000), wk =   0.0069444
        k(   20) = (   0.0000000   0.2500000   0.3333333), wk =   0.0138889
        k(   21) = (   0.0000000   0.2500000   0.4166667), wk =   0.0138889
        k(   22) = (   0.0000000   0.2500000  -0.5000000), wk =   0.0069444
        k(   23) = (   0.0000000   0.3333333   0.3333333), wk =   0.0069444
        k(   24) = (   0.0000000   0.3333333   0.4166667), wk =   0.0138889
        k(   25) = (   0.0000000   0.3333333  -0.5000000), wk =   0.0069444
        k(   26) = (   0.0000000   0.4166667   0.4166667), wk =   0.0069444
        k(   27) = (   0.0000000   0.4166667  -0.5000000), wk =   0.0069444
        k(   28) = (   0.0000000  -0.5000000  -0.5000000), wk =   0.0017361
        k(   29) = (   0.0833333   0.0833333   0.0833333), wk =   0.0046296
        k(   30) = (   0.0833333   0.0833333   0.1666667), wk =   0.0138889
        k(   31) = (   0.0833333   0.0833333   0.2500000), wk =   0.0138889
        k(   32) = (   0.0833333   0.0833333   0.3333333), wk =   0.0138889
        k(   33) = (   0.0833333   0.0833333   0.4166667), wk =   0.0138889
        k(   34) = (   0.0833333   0.0833333  -0.5000000), wk =   0.0069444
        k(   35) = (   0.0833333   0.1666667   0.1666667), wk =   0.0138889
        k(   36) = (   0.0833333   0.1666667   0.2500000), wk =   0.0277778
        k(   37) = (   0.0833333   0.1666667   0.3333333), wk =   0.0277778
        k(   38) = (   0.0833333   0.1666667   0.4166667), wk =   0.0277778
        k(   39) = (   0.0833333   0.1666667  -0.5000000), wk =   0.0138889
        k(   40) = (   0.0833333   0.2500000   0.2500000), wk =   0.0138889
        k(   41) = (   0.0833333   0.2500000   0.3333333), wk =   0.0277778
        k(   42) = (   0.0833333   0.2500000   0.4166667), wk =   0.0277778
        k(   43) = (   0.0833333   0.2500000  -0.5000000), wk =   0.0138889
        k(   44) = (   0.0833333   0.3333333   0.3333333), wk =   0.0138889
        k(   45) = (   0.0833333   0.3333333   0.4166667), wk =   0.0277778
        k(   46) = (   0.0833333   0.3333333  -0.5000000), wk =   0.0138889
        k(   47) = (   0.0833333   0.4166667   0.4166667), wk =   0.0138889
        k(   48) = (   0.0833333   0.4166667  -0.5000000), wk =   0.0138889
        k(   49) = (   0.0833333  -0.5000000  -0.5000000), wk =   0.0034722
        k(   50) = (   0.1666667   0.1666667   0.1666667), wk =   0.0046296
        k(   51) = (   0.1666667   0.1666667   0.2500000), wk =   0.0138889
        k(   52) = (   0.1666667   0.1666667   0.3333333), wk =   0.0138889
        k(   53) = (   0.1666667   0.1666667   0.4166667), wk =   0.0138889
        k(   54) = (   0.1666667   0.1666667  -0.5000000), wk =   0.0069444
        k(   55) = (   0.1666667   0.2500000   0.2500000), wk =   0.0138889
        k(   56) = (   0.1666667   0.2500000   0.3333333), wk =   0.0277778
        k(   57) = (   0.1666667   0.2500000   0.4166667), wk =   0.0277778
        k(   58) = (   0.1666667   0.2500000  -0.5000000), wk =   0.0138889
        k(   59) = (   0.1666667   0.3333333   0.3333333), wk =   0.0138889
        k(   60) = (   0.1666667   0.3333333   0.4166667), wk =   0.0277778
        k(   61) = (   0.1666667   0.3333333  -0.5000000), wk =   0.0138889
        k(   62) = (   0.1666667   0.4166667   0.4166667), wk =   0.0138889
        k(   63) = (   0.1666667   0.4166667  -0.5000000), wk =   0.0138889
        k(   64) = (   0.1666667  -0.5000000  -0.5000000), wk =   0.0034722
        k(   65) = (   0.2500000   0.2500000   0.2500000), wk =   0.0046296
        k(   66) = (   0.2500000   0.2500000   0.3333333), wk =   0.0138889
        k(   67) = (   0.2500000   0.2500000   0.4166667), wk =   0.0138889
        k(   68) = (   0.2500000   0.2500000  -0.5000000), wk =   0.0069444
        k(   69) = (   0.2500000   0.3333333   0.3333333), wk =   0.0138889
        k(   70) = (   0.2500000   0.3333333   0.4166667), wk =   0.0277778
        k(   71) = (   0.2500000   0.3333333  -0.5000000), wk =   0.0138889
        k(   72) = (   0.2500000   0.4166667   0.4166667), wk =   0.0138889
        k(   73) = (   0.2500000   0.4166667  -0.5000000), wk =   0.0138889
        k(   74) = (   0.2500000  -0.5000000  -0.5000000), wk =   0.0034722
        k(   75) = (   0.3333333   0.3333333   0.3333333), wk =   0.0046296
        k(   76) = (   0.3333333   0.3333333   0.4166667), wk =   0.0138889
        k(   77) = (   0.3333333   0.3333333  -0.5000000), wk =   0.0069444
        k(   78) = (   0.3333333   0.4166667   0.4166667), wk =   0.0138889
        k(   79) = (   0.3333333   0.4166667  -0.5000000), wk =   0.0138889
        k(   80) = (   0.3333333  -0.5000000  -0.5000000), wk =   0.0034722
        k(   81) = (   0.4166667   0.4166667   0.4166667), wk =   0.0046296
        k(   82) = (   0.4166667   0.4166667  -0.5000000), wk =   0.0069444
        k(   83) = (   0.4166667  -0.5000000  -0.5000000), wk =   0.0034722
        k(   84) = (  -0.5000000  -0.5000000  -0.5000000), wk =   0.0005787

                       cryst. coord.
        k(    1) = (   0.0000000   0.0000000   0.0000000), wk =   0.0005787
        k(    2) = (   0.0000000   0.0000000   0.0833333), wk =   0.0034722
        k(    3) = (   0.0000000   0.0000000   0.1666667), wk =   0.0034722
        k(    4) = (   0.0000000   0.0000000   0.2500000), wk =   0.0034722
        k(    5) = (   0.0000000   0.0000000   0.3333333), wk =   0.0034722
        k(    6) = (   0.0000000   0.0000000   0.4166667), wk =   0.0034722
        k(    7) = (   0.0000000   0.0000000  -0.5000000), wk =   0.0017361
        k(    8) = (   0.0000000   0.0833333   0.0833333), wk =   0.0069444
        k(    9) = (   0.0000000   0.0833333   0.1666667), wk =   0.0138889
        k(   10) = (   0.0000000   0.0833333   0.2500000), wk =   0.0138889
        k(   11) = (   0.0000000   0.0833333   0.3333333), wk =   0.0138889
        k(   12) = (   0.0000000   0.0833333   0.4166667), wk =   0.0138889
        k(   13) = (   0.0000000   0.0833333  -0.5000000), wk =   0.0069444
        k(   14) = (   0.0000000   0.1666667   0.1666667), wk =   0.0069444
        k(   15) = (   0.0000000   0.1666667   0.2500000), wk =   0.0138889
        k(   16) = (   0.0000000   0.1666667   0.3333333), wk =   0.0138889
        k(   17) = (   0.0000000   0.1666667   0.4166667), wk =   0.0138889
        k(   18) = (   0.0000000   0.1666667  -0.5000000), wk =   0.0069444
        k(   19) = (   0.0000000   0.2500000   0.2500000), wk =   0.0069444
        k(   20) = (   0.0000000   0.2500000   0.3333333), wk =   0.0138889
        k(   21) = (   0.0000000   0.2500000   0.4166667), wk =   0.0138889
        k(   22) = (   0.0000000   0.2500000  -0.5000000), wk =   0.0069444
        k(   23) = (   0.0000000   0.3333333   0.3333333), wk =   0.0069444
        k(   24) = (   0.0000000   0.3333333   0.4166667), wk =   0.0138889
        k(   25) = (   0.0000000   0.3333333  -0.5000000), wk =   0.0069444
        k(   26) = (   0.0000000   0.4166667   0.4166667), wk =   0.0069444
        k(   27) = (   0.0000000   0.4166667  -0.5000000), wk =   0.0069444
        k(   28) = (   0.0000000  -0.5000000  -0.5000000), wk =   0.0017361
        k(   29) = (   0.0833333   0.0833333   0.0833333), wk =   0.0046296
        k(   30) = (   0.0833333   0.0833333   0.1666667), wk =   0.0138889
        k(   31) = (   0.0833333   0.0833333   0.2500000), wk =   0.0138889
        k(   32) = (   0.0833333   0.0833333   0.3333333), wk =   0.0138889
        k(   33) = (   0.0833333   0.0833333   0.4166667), wk =   0.0138889
        k(   34) = (   0.0833333   0.0833333  -0.5000000), wk =   0.0069444
        k(   35) = (   0.0833333   0.1666667   0.1666667), wk =   0.0138889
        k(   36) = (   0.0833333   0.1666667   0.2500000), wk =   0.0277778
        k(   37) = (   0.0833333   0.1666667   0.3333333), wk =   0.0277778
        k(   38) = (   0.0833333   0.1666667   0.4166667), wk =   0.0277778
        k(   39) = (   0.0833333   0.1666667  -0.5000000), wk =   0.0138889
        k(   40) = (   0.0833333   0.2500000   0.2500000), wk =   0.0138889
        k(   41) = (   0.0833333   0.2500000   0.3333333), wk =   0.0277778
        k(   42) = (   0.0833333   0.2500000   0.4166667), wk =   0.0277778
        k(   43) = (   0.0833333   0.2500000  -0.5000000), wk =   0.0138889
        k(   44) = (   0.0833333   0.3333333   0.3333333), wk =   0.0138889
        k(   45) = (   0.0833333   0.3333333   0.4166667), wk =   0.0277778
        k(   46) = (   0.0833333   0.3333333  -0.5000000), wk =   0.0138889
        k(   47) = (   0.0833333   0.4166667   0.4166667), wk =   0.0138889
        k(   48) = (   0.0833333   0.4166667  -0.5000000), wk =   0.0138889
        k(   49) = (   0.0833333  -0.5000000  -0.5000000), wk =   0.0034722
        k(   50) = (   0.1666667   0.1666667   0.1666667), wk =   0.0046296
        k(   51) = (   0.1666667   0.1666667   0.2500000), wk =   0.0138889
        k(   52) = (   0.1666667   0.1666667   0.3333333), wk =   0.0138889
        k(   53) = (   0.1666667   0.1666667   0.4166667), wk =   0.0138889
        k(   54) = (   0.1666667   0.1666667  -0.5000000), wk =   0.0069444
        k(   55) = (   0.1666667   0.2500000   0.2500000), wk =   0.0138889
        k(   56) = (   0.1666667   0.2500000   0.3333333), wk =   0.0277778
        k(   57) = (   0.1666667   0.2500000   0.4166667), wk =   0.0277778
        k(   58) = (   0.1666667   0.2500000  -0.5000000), wk =   0.0138889
        k(   59) = (   0.1666667   0.3333333   0.3333333), wk =   0.0138889
        k(   60) = (   0.1666667   0.3333333   0.4166667), wk =   0.0277778
        k(   61) = (   0.1666667   0.3333333  -0.5000000), wk =   0.0138889
        k(   62) = (   0.1666667   0.4166667   0.4166667), wk =   0.0138889
        k(   63) = (   0.1666667   0.4166667  -0.5000000), wk =   0.0138889
        k(   64) = (   0.1666667  -0.5000000  -0.5000000), wk =   0.0034722
        k(   65) = (   0.2500000   0.2500000   0.2500000), wk =   0.0046296
        k(   66) = (   0.2500000   0.2500000   0.3333333), wk =   0.0138889
        k(   67) = (   0.2500000   0.2500000   0.4166667), wk =   0.0138889
        k(   68) = (   0.2500000   0.2500000  -0.5000000), wk =   0.0069444
        k(   69) = (   0.2500000   0.3333333   0.3333333), wk =   0.0138889
        k(   70) = (   0.2500000   0.3333333   0.4166667), wk =   0.0277778
        k(   71) = (   0.2500000   0.3333333  -0.5000000), wk =   0.0138889
        k(   72) = (   0.2500000   0.4166667   0.4166667), wk =   0.0138889
        k(   73) = (   0.2500000   0.4166667  -0.5000000), wk =   0.0138889
        k(   74) = (   0.2500000  -0.5000000  -0.5000000), wk =   0.0034722
        k(   75) = (   0.3333333   0.3333333   0.3333333), wk =   0.0046296
        k(   76) = (   0.3333333   0.3333333   0.4166667), wk =   0.0138889
        k(   77) = (   0.3333333   0.3333333  -0.5000000), wk =   0.0069444
        k(   78) = (   0.3333333   0.4166667   0.4166667), wk =   0.0138889
        k(   79) = (   0.3333333   0.4166667  -0.5000000), wk =   0.0138889
        k(   80) = (   0.3333333  -0.5000000  -0.5000000), wk =   0.0034722
        k(   81) = (   0.4166667   0.4166667   0.4166667), wk =   0.0046296
        k(   82) = (   0.4166667   0.4166667  -0.5000000), wk =   0.0069444
        k(   83) = (   0.4166667  -0.5000000  -0.5000000), wk =   0.0034722
        k(   84) = (  -0.5000000  -0.5000000  -0.5000000), wk =   0.0005787

     Dense  grid:   108143 G-vectors     FFT dimensions: (  60,  60,  60)

     Smooth grid:    70319 G-vectors     FFT dimensions: (  54,  54,  54)

     Dynamical RAM for                 wfc:       0.29 MB

     Dynamical RAM for     wfc (w. buffer):      48.68 MB

     Dynamical RAM for           str. fact:       0.08 MB

     Dynamical RAM for           local pot:       0.00 MB

     Dynamical RAM for          nlocal pot:       0.48 MB

     Dynamical RAM for                qrad:       2.27 MB

     Dynamical RAM for          rho,v,vnew:       0.99 MB

     Dynamical RAM for               rhoin:       0.33 MB

     Dynamical RAM for            rho*nmix:       2.64 MB

     Dynamical RAM for           G-vectors:       0.34 MB

     Dynamical RAM for          h,s,v(r/c):       0.34 MB

     Dynamical RAM for          <psi|beta>:       0.05 MB

     Dynamical RAM for                 psi:       0.58 MB

     Dynamical RAM for                hpsi:       0.58 MB

     Dynamical RAM for                spsi:       0.58 MB

     Dynamical RAM for      wfcinit/wfcrot:       0.62 MB

     Dynamical RAM for           addusdens:      15.76 MB

     Estimated static dynamical RAM per process >      53.83 MB

     Estimated max dynamical RAM per process >      72.23 MB

     Estimated total dynamical RAM >       1.41 GB
     Generating pointlists ...
     new r_m :   0.2917 (alat units)  1.9155 (a.u.) for type    1

     The initial density is read from file :
     out/Ni.save/charge-density

     Starting wfcs from file
     Checking if some PAW data can be deallocated... 

     total cpu time spent up to now is        2.2 secs

     Self-consistent Calculation

     iteration #  1     ecut=   150.00 Ry     beta= 0.70
     Davidson diagonalization with overlap

---- Real-time Memory Report at c_bands before calling an iterative solver
            95 MiB given to the printing process from OS
             0 MiB allocation reported by mallinfo(arena+hblkhd)
        279939 MiB available memory on the node where the printing process lives
------------------
     ethr =  1.00E-05,  avg # of iterations =  1.2

     Threshold (ethr) on eigenvalues was too large:
     Diagonalizing with lowered threshold

     Davidson diagonalization with overlap

---- Real-time Memory Report at c_bands before calling an iterative solver
           124 MiB given to the printing process from OS
             0 MiB allocation reported by mallinfo(arena+hblkhd)
        279223 MiB available memory on the node where the printing process lives
------------------
     ethr =  1.68E-09,  avg # of iterations =  1.0

     total cpu time spent up to now is       28.4 secs

     total energy              =   -1716.65454066 Ry
     estimated scf accuracy    <       0.00000127 Ry

     total magnetization       =     2.55 Bohr mag/cell
     absolute magnetization    =     2.90 Bohr mag/cell

     iteration #  2     ecut=   150.00 Ry     beta= 0.70
     Davidson diagonalization with overlap

---- Real-time Memory Report at c_bands before calling an iterative solver
           125 MiB given to the printing process from OS
             0 MiB allocation reported by mallinfo(arena+hblkhd)
        286306 MiB available memory on the node where the printing process lives
------------------
     ethr =  1.76E-09,  avg # of iterations =  3.2

     total cpu time spent up to now is       48.6 secs

     total energy              =   -1716.65453529 Ry
     estimated scf accuracy    <       0.00011229 Ry

     total magnetization       =     2.55 Bohr mag/cell
     absolute magnetization    =     2.90 Bohr mag/cell

     iteration #  3     ecut=   150.00 Ry     beta= 0.70
     Davidson diagonalization with overlap

---- Real-time Memory Report at c_bands before calling an iterative solver
           128 MiB given to the printing process from OS
             0 MiB allocation reported by mallinfo(arena+hblkhd)
        300477 MiB available memory on the node where the printing process lives
------------------
     ethr =  1.76E-09,  avg # of iterations =  3.3

     total cpu time spent up to now is       67.7 secs

     total energy              =   -1716.65454134 Ry
     estimated scf accuracy    <       0.00000242 Ry

     total magnetization       =     2.55 Bohr mag/cell
     absolute magnetization    =     2.90 Bohr mag/cell

     iteration #  4     ecut=   150.00 Ry     beta= 0.70
     Davidson diagonalization with overlap

---- Real-time Memory Report at c_bands before calling an iterative solver
           128 MiB given to the printing process from OS
             0 MiB allocation reported by mallinfo(arena+hblkhd)
        301298 MiB available memory on the node where the printing process lives
------------------
     ethr =  1.76E-09,  avg # of iterations =  2.0
 
     Magnetic moment per site  (integrated on atomic sphere of radius R)
     atom   1 (R=0.292)  charge= 16.6728  magn=  0.6748
     atom   2 (R=0.292)  charge= 16.6728  magn=  0.6748
     atom   3 (R=0.292)  charge= 16.6728  magn=  0.6748
     atom   4 (R=0.292)  charge= 16.6728  magn=  0.6748

     total cpu time spent up to now is       83.0 secs

     End of self-consistent calculation

 ------ SPIN UP ------------


          k = 0.0000 0.0000 0.0000 (  8733 PWs)   bands (ev):

   -84.9438 -84.8912 -84.8912 -84.8912 -45.4177 -45.4177 -45.4177 -45.2751
   -45.2751 -45.2751 -45.2751 -45.2751 -45.2751 -45.1820 -45.1820 -45.1820
     9.4382  13.8982  13.8982  13.8982  14.3852  14.3852  14.3852  16.2663
    16.2663  16.2663  17.5206  17.5206  18.2775  18.2775  18.2775  18.3603
    18.3603  18.3603  18.3603  18.3603  18.3603  21.2015  21.2015  21.2015
    28.3072  28.3072  28.3072

     occupation numbers 
     1.0000   1.0000   1.0000   1.0000   1.0000   1.0000   1.0000   1.0000
     1.0000   1.0000   1.0000   1.0000   1.0000   1.0000   1.0000   1.0000
     1.0000   1.0000   1.0000   1.0000   1.0000   1.0000   1.0000   1.0000
     1.0000   1.0000   1.0000   1.0000   1.0138   1.0138   1.0138   1.0258
     1.0258   1.0258   1.0258   1.0258   1.0258  -0.0000  -0.0000  -0.0000
    -0.0000  -0.0000  -0.0000

          k = 0.0000 0.0000 0.0833 (  8797 PWs)   bands (ev):

   -84.9429 -84.8921 -84.8912 -84.8912 -45.4153 -45.4153 -45.4139 -45.2776
   -45.2776 -45.2753 -45.2753 -45.2736 -45.2736 -45.1862 -45.1837 -45.1837
     9.5317  13.9056  13.9478  13.9478  14.4146  14.4176  14.4176  16.2313
    16.2932  16.2932  17.4883  17.5331  18.1336  18.1336  18.2354  18.2354
    18.2642  18.3116  18.3116  18.3603  18.3603  20.7223  21.5054  21.5054
    28.3277  28.3277  28.9457

     occupation numbers 
     1.0000   1.0000   1.0000   1.0000   1.0000   1.0000   1.0000   1.0000
     1.0000   1.0000   1.0000   1.0000   1.0000   1.0000   1.0000   1.0000
     1.0000   1.0000   1.0000   1.0000   1.0000   1.0000   1.0000   1.0000
     1.0000   1.0000   1.0000   1.0000   1.0027   1.0027   1.0091   1.0091
     1.0122   1.0184   1.0184   1.0258   1.0258  -0.0000  -0.0000  -0.0000
    -0.0000  -0.0000  -0.0000

          k = 0.0000 0.0000 0.1667 (  8777 PWs)   bands (ev):

   -84.9402 -84.8947 -84.8912 -84.8912 -45.4082 -45.4082 -45.4025 -45.2848
   -45.2848 -45.2756 -45.2756 -45.2689 -45.2689 -45.1984 -45.1883 -45.1883
     9.8095  13.9108  14.0900  14.0900  14.5014  14.5152  14.5152  16.1293
    16.3732  16.3732  17.3950  17.5698  17.6314  17.6314  18.1133  18.1133
    18.1727  18.1727  18.2252  18.3605  18.3606  19.6513  22.2385  22.2385
    28.3915  28.3915  30.5041

     occupation numbers 
     1.0000   1.0000   1.0000   1.0000   1.0000   1.0000   1.0000   1.0000
     1.0000   1.0000   1.0000   1.0000   1.0000   1.0000   1.0000   1.0000
     1.0000   1.0000   1.0000   1.0000   1.0000   1.0000   1.0000   1.0000
     1.0000   1.0000   1.0000   1.0000   1.0000   1.0000   1.0021   1.0021
     1.0045   1.0045   1.0082   1.0258   1.0258  -0.0003  -0.0000  -0.0000
    -0.0000  -0.0000  -0.0000

          k = 0.0000 0.0000 0.2500 (  8778 PWs)   bands (ev):

   -84.9361 -84.8989 -84.8912 -84.8912 -45.3969 -45.3969 -45.3843 -45.2961
   -45.2961 -45.2760 -45.2760 -45.2615 -45.2615 -45.2177 -45.1957 -45.1957
    10.2627  13.8559  14.3028  14.3028  14.6408  14.6788  14.6788  15.9691
    16.5045  16.5045  17.0623  17.0623  17.2529  17.6284  17.9266  17.9266
    17.9628  17.9628  18.1635  18.3608  18.3608  18.4929  23.1905  23.1905
    28.5043  28.5043  30.7806

     occupation numbers 
     1.0000   1.0000   1.0000   1.0000   1.0000   1.0000   1.0000   1.0000
     1.0000   1.0000   1.0000   1.0000   1.0000   1.0000   1.0000   1.0000
     1.0000   1.0000   1.0000   1.0000   1.0000   1.0000   1.0000   1.0000
     1.0000   1.0000   1.0000   1.0000   1.0000   1.0000   1.0001   1.0001
     1.0002   1.0002   1.0040   1.0259   1.0259   1.0326  -0.0000  -0.0000
    -0.0000  -0.0000  -0.0000

          k = 0.0000 0.0000 0.3333 (  8770 PWs)   bands (ev):

   -84.9306 -84.9043 -84.8912 -84.8912 -45.3822 -45.3822 -45.3605 -45.3109
   -45.3109 -45.2764 -45.2764 -45.2519 -45.2519 -45.2427 -45.2054 -45.2054
    10.8734  13.6299  14.5451  14.5451  14.8252  14.9098  14.9098  15.7638
    16.5125  16.5125  16.6835  16.6835  17.0853  17.5589  17.7052  17.7072
    17.7072  17.7091  17.7091  18.0835  18.3611  18.3611  24.2722  24.2722
    28.6702  28.6702  29.3838

     occupation numbers 
     1.0000   1.0000   1.0000   1.0000   1.0000   1.0000   1.0000   1.0000
     1.0000   1.0000   1.0000   1.0000   1.0000   1.0000   1.0000   1.0000
     1.0000   1.0000   1.0000   1.0000   1.0000   1.0000   1.0000   1.0000
     1.0000   1.0000   1.0000   1.0000   1.0000   1.0000   1.0000   1.0000
     1.0000   1.0000   1.0000   1.0014   1.0259   1.0259  -0.0000  -0.0000
    -0.0000  -0.0000  -0.0000

          k = 0.0000 0.0000 0.4167 (  8782 PWs)   bands (ev):

   -84.9243 -84.9107 -84.8912 -84.8912 -45.3650 -45.3650 -45.3325 -45.3281
   -45.3281 -45.2768 -45.2768 -45.2716 -45.2407 -45.2407 -45.2166 -45.2166
    11.6079  13.1282  14.7497  14.7497  15.0441  15.2092  15.2092  15.5297
    16.0135  16.0135  16.9043  16.9043  16.9336  17.0272  17.4315  17.4315
    17.5216  17.5216  17.7953  17.9911  18.3613  18.3613  25.4481  25.4481
    28.0165  28.0165  28.8688

     occupation numbers 
     1.0000   1.0000   1.0000   1.0000   1.0000   1.0000   1.0000   1.0000
     1.0000   1.0000   1.0000   1.0000   1.0000   1.0000   1.0000   1.0000
     1.0000   1.0000   1.0000   1.0000   1.0000   1.0000   1.0000   1.0000
     1.0000   1.0000   1.0000   1.0000   1.0000   1.0000   1.0000   1.0000
     1.0000   1.0000   1.0000   1.0003   1.0259   1.0259  -0.0000  -0.0000
    -0.0000  -0.0000  -0.0000

          k = 0.0000 0.0000-0.5000 (  8778 PWs)   bands (ev):

   -84.9175 -84.9175 -84.8911 -84.8911 -45.3466 -45.3466 -45.3466 -45.3466
   -45.3022 -45.3022 -45.2769 -45.2769 -45.2286 -45.2286 -45.2286 -45.2286
    12.4006  12.4006  14.8327  14.8327  15.2841  15.2841  15.5775  15.5775
    15.5775  15.5775  16.8714  16.8714  17.1580  17.1580  17.1580  17.1580
    17.4447  17.4447  17.8927  17.8928  18.3614  18.3614  26.7003  26.7003
    26.7003  26.7003  28.9827

     occupation numbers 
     1.0000   1.0000   1.0000   1.0000   1.0000   1.0000   1.0000   1.0000
     1.0000   1.0000   1.0000   1.0000   1.0000   1.0000   1.0000   1.0000
     1.0000   1.0000   1.0000   1.0000   1.0000   1.0000   1.0000   1.0000
     1.0000   1.0000   1.0000   1.0000   1.0000   1.0000   1.0000   1.0000
     1.0000   1.0000   1.0001   1.0001   1.0259   1.0259  -0.0000  -0.0000
    -0.0000  -0.0000  -0.0000

          k = 0.0000 0.0833 0.0833 (  8804 PWs)   bands (ev):

   -84.9420 -84.8921 -84.8921 -84.8912 -45.4129 -45.4117 -45.4117 -45.2824
   -45.2760 -45.2760 -45.2736 -45.2736 -45.2729 -45.1926 -45.1853 -45.1829
     9.6247  13.9561  13.9561  13.9962  14.4465  14.4465  14.4492  16.2113
    16.3058  16.3176  17.4791  17.5250  17.9712  18.0561  18.0561  18.1952
    18.2395  18.2395  18.3115  18.3115  18.3294  21.0273  21.0273  21.7761
    28.3461  28.9767  28.9767

     occupation numbers 
     1.0000   1.0000   1.0000   1.0000   1.0000   1.0000   1.0000   1.0000
     1.0000   1.0000   1.0000   1.0000   1.0000   1.0000   1.0000   1.0000
     1.0000   1.0000   1.0000   1.0000   1.0000   1.0000   1.0000   1.0000
     1.0000   1.0000   1.0000   1.0000   1.0002   1.0009   1.0009   1.0059
     1.0095   1.0095   1.0184   1.0184   1.0210  -0.0000  -0.0000  -0.0000
    -0.0000  -0.0000  -0.0000

          k = 0.0000 0.0833 0.1667 (  8769 PWs)   bands (ev):

   -84.9394 -84.8947 -84.8920 -84.8912 -45.4059 -45.4053 -45.4010 -45.2910
   -45.2831 -45.2736 -45.2713 -45.2713 -45.2687 -45.2060 -45.1899 -45.1859
     9.9008  13.9641  14.1010  14.1345  14.5315  14.5423  14.5442  16.1194
    16.3781  16.3897  17.3981  17.5375  17.5468  17.5576  17.8606  18.0784
    18.1177  18.1724  18.2138  18.3114  18.3126  19.9869  21.7355  22.4582
    28.3977  29.0726  30.5477

     occupation numbers 
     1.0000   1.0000   1.0000   1.0000   1.0000   1.0000   1.0000   1.0000
     1.0000   1.0000   1.0000   1.0000   1.0000   1.0000   1.0000   1.0000
     1.0000   1.0000   1.0000   1.0000   1.0000   1.0000   1.0000   1.0000
     1.0000   1.0000   1.0000   1.0000   1.0000   1.0000   1.0000   1.0013
     1.0022   1.0045   1.0072   1.0183   1.0185  -0.0000  -0.0000  -0.0000
    -0.0000  -0.0000  -0.0000

          k = 0.0000 0.0833 0.2500 (  8773 PWs)   bands (ev):

   -84.9353 -84.8988 -84.8919 -84.8913 -45.3950 -45.3946 -45.3839 -45.3025
   -45.2944 -45.2736 -45.2710 -45.2639 -45.2608 -45.2253 -45.1974 -45.1926
    10.3513  13.9136  14.3187  14.3426  14.6680  14.7020  14.7028  15.9651
    16.5047  16.5071  16.9819  17.0105  17.2666  17.5488  17.6222  17.8992
    17.9332  17.9622  18.1424  18.3086  18.3111  18.9341  22.6247  23.3733
    28.4362  29.2391  29.6182

     occupation numbers 
     1.0000   1.0000   1.0000   1.0000   1.0000   1.0000   1.0000   1.0000
     1.0000   1.0000   1.0000   1.0000   1.0000   1.0000   1.0000   1.0000
     1.0000   1.0000   1.0000   1.0000   1.0000   1.0000   1.0000   1.0000
     1.0000   1.0000   1.0000   1.0000   1.0000   1.0000   1.0000   1.0001
     1.0001   1.0002   1.0031   1.0180   1.0183   0.2086  -0.0000  -0.0000
    -0.0000  -0.0000  -0.0000

          k = 0.0000 0.0833 0.3333 (  8781 PWs)   bands (ev):

   -84.9299 -84.9041 -84.8918 -84.8914 -45.3817 -45.3800 -45.3614 -45.3166
   -45.3091 -45.2735 -45.2713 -45.2541 -45.2507 -45.2496 -45.2072 -45.2022
    10.9580  13.6925  14.5681  14.5832  14.8486  14.9196  14.9292  15.7656
    16.4427  16.4871  16.6441  16.6848  17.1300  17.1353  17.6901  17.7065
    17.7081  17.7168  17.9643  18.2554  18.3080  18.3106  23.6088  24.4307
    27.9594  29.0110  29.4690

     occupation numbers 
     1.0000   1.0000   1.0000   1.0000   1.0000   1.0000   1.0000   1.0000
     1.0000   1.0000   1.0000   1.0000   1.0000   1.0000   1.0000   1.0000
     1.0000   1.0000   1.0000   1.0000   1.0000   1.0000   1.0000   1.0000
     1.0000   1.0000   1.0000   1.0000   1.0000   1.0000   1.0000   1.0000
     1.0000   1.0000   1.0002   1.0112   1.0179   1.0182  -0.0000  -0.0000
    -0.0000  -0.0000  -0.0000

          k = 0.0000 0.0833 0.4167 (  8804 PWs)   bands (ev):

   -84.9237 -84.9103 -84.8917 -84.8915 -45.3661 -45.3629 -45.3350 -45.3325
   -45.3262 -45.2772 -45.2731 -45.2719 -45.2428 -45.2389 -45.2185 -45.2137
    11.6873  13.1957  14.7820  14.7915  15.0628  15.1951  15.2223  15.5373
    15.9576  16.0056  16.7259  16.8107  16.9048  17.1061  17.4309  17.5114
    17.5272  17.6015  17.8095  18.0445  18.3084  18.3100  24.6535  25.5903
    26.8664  28.1405  29.1742

     occupation numbers 
     1.0000   1.0000   1.0000   1.0000   1.0000   1.0000   1.0000   1.0000
     1.0000   1.0000   1.0000   1.0000   1.0000   1.0000   1.0000   1.0000
     1.0000   1.0000   1.0000   1.0000   1.0000   1.0000   1.0000   1.0000
     1.0000   1.0000   1.0000   1.0000   1.0000   1.0000   1.0000   1.0000
     1.0000   1.0000   1.0000   1.0008   1.0179   1.0181  -0.0000  -0.0000
    -0.0000  -0.0000  -0.0000

          k = 0.0000 0.0833-0.5000 (  8802 PWs)   bands (ev):

   -84.9170 -84.9170 -84.8916 -84.8916 -45.3494 -45.3494 -45.3446 -45.3446
   -45.3063 -45.3063 -45.2726 -45.2726 -45.2307 -45.2307 -45.2262 -45.2262
    12.4738  12.4738  14.8735  14.8735  15.2975  15.2975  15.5394  15.5394
    15.5818  15.5818  16.7135  16.7135  17.1578  17.1578  17.2954  17.2954
    17.4435  17.4435  17.9214  17.9214  18.3092  18.3092  25.7428  25.7428
    26.8315  26.8315  29.4846

     occupation numbers 
     1.0000   1.0000   1.0000   1.0000   1.0000   1.0000   1.0000   1.0000
     1.0000   1.0000   1.0000   1.0000   1.0000   1.0000   1.0000   1.0000
     1.0000   1.0000   1.0000   1.0000   1.0000   1.0000   1.0000   1.0000
     1.0000   1.0000   1.0000   1.0000   1.0000   1.0000   1.0000   1.0000
     1.0000   1.0000   1.0001   1.0001   1.0180   1.0180  -0.0000  -0.0000
    -0.0000  -0.0000  -0.0000

          k = 0.0000 0.1667 0.1667 (  8758 PWs)   bands (ev):

   -84.9369 -84.8945 -84.8945 -84.8914 -45.3989 -45.3965 -45.3965 -45.3019
   -45.2783 -45.2783 -45.2679 -45.2679 -45.2663 -45.2215 -45.1948 -45.1856
    10.1721  14.1174  14.1174  14.2620  14.6220  14.6220  14.6311  16.0635
    16.4211  16.4377  17.2571  17.3221  17.3221  17.3687  17.5635  17.9761
    18.1040  18.1040  18.1714  18.1714  18.2379  20.6737  20.6737  23.0465
    28.3402  29.4980  30.6768

     occupation numbers 
     1.0000   1.0000   1.0000   1.0000   1.0000   1.0000   1.0000   1.0000
     1.0000   1.0000   1.0000   1.0000   1.0000   1.0000   1.0000   1.0000
     1.0000   1.0000   1.0000   1.0000   1.0000   1.0000   1.0000   1.0000
     1.0000   1.0000   1.0000   1.0000   1.0000   1.0000   1.0000   1.0002
     1.0018   1.0018   1.0044   1.0044   1.0094  -0.0000  -0.0000  -0.0000
    -0.0000  -0.0000  -0.0000

          k = 0.0000 0.1667 0.2500 (  8774 PWs)   bands (ev):

   -84.9330 -84.8984 -84.8942 -84.8917 -45.3893 -45.3879 -45.3824 -45.3145
   -45.2894 -45.2706 -45.2667 -45.2629 -45.2589 -45.2417 -45.2024 -45.1896
    10.6140  14.0800  14.3495  14.4547  14.7499  14.7730  14.7734  15.9399
    16.5091  16.5297  16.7715  16.8515  17.0048  17.2750  17.6349  17.8175
    17.9285  17.9605  18.0381  18.1699  18.1945  19.6043  21.4769  23.8820
    27.6174  28.9496  30.8679

     occupation numbers 
     1.0000   1.0000   1.0000   1.0000   1.0000   1.0000   1.0000   1.0000
     1.0000   1.0000   1.0000   1.0000   1.0000   1.0000   1.0000   1.0000
     1.0000   1.0000   1.0000   1.0000   1.0000   1.0000   1.0000   1.0000
     1.0000   1.0000   1.0000   1.0000   1.0000   1.0000   1.0000   1.0000
     1.0001   1.0002   1.0007   1.0043   1.0058  -0.0007  -0.0000  -0.0000
    -0.0000  -0.0000  -0.0000

          k = 0.0000 0.1667 0.3333 (  8791 PWs)   bands (ev):

   -84.9280 -84.9034 -84.8938 -84.8920 -45.3798 -45.3735 -45.3637 -45.3280
   -45.3038 -45.2652 -45.2652 -45.2613 -45.2607 -45.2474 -45.2124 -45.1974
    11.2083  13.8736  14.6204  14.6871  14.9187  14.9547  14.9862  15.7642
    16.2627  16.4079  16.5728  16.6821  16.6967  17.1862  17.6312  17.7048
    17.7182  17.7498  17.8938  18.1681  18.1752  18.7995  22.3411  24.8815
    26.4254  29.0824  29.8545

     occupation numbers 
     1.0000   1.0000   1.0000   1.0000   1.0000   1.0000   1.0000   1.0000
     1.0000   1.0000   1.0000   1.0000   1.0000   1.0000   1.0000   1.0000
     1.0000   1.0000   1.0000   1.0000   1.0000   1.0000   1.0000   1.0000
     1.0000   1.0000   1.0000   1.0000   1.0000   1.0000   1.0000   1.0000
     1.0000   1.0000   1.0001   1.0042   1.0046   0.5654  -0.0000  -0.0000
    -0.0000  -0.0000  -0.0000

          k = 0.0000 0.1667 0.4167 (  8789 PWs)   bands (ev):

   -84.9220 -84.9093 -84.8934 -84.8924 -45.3683 -45.3567 -45.3419 -45.3413
   -45.3206 -45.2906 -45.2635 -45.2612 -45.2490 -45.2344 -45.2241 -45.2082
    11.9210  13.3914  14.8641  14.9104  15.1182  15.1577  15.2601  15.5567
    15.8134  15.9798  16.4987  16.5621  16.9104  17.2131  17.4302  17.4755
    17.5265  17.6549  17.8942  18.1665  18.1678  18.3290  23.2560  25.2819
    26.0000  28.5019  29.3958

     occupation numbers 
     1.0000   1.0000   1.0000   1.0000   1.0000   1.0000   1.0000   1.0000
     1.0000   1.0000   1.0000   1.0000   1.0000   1.0000   1.0000   1.0000
     1.0000   1.0000   1.0000   1.0000   1.0000   1.0000   1.0000   1.0000
     1.0000   1.0000   1.0000   1.0000   1.0000   1.0000   1.0000   1.0000
     1.0000   1.0000   1.0001   1.0042   1.0042   1.0210  -0.0000  -0.0000
    -0.0000  -0.0000  -0.0000

          k = 0.0000 0.1667-0.5000 (  8786 PWs)   bands (ev):

   -84.9157 -84.9157 -84.8929 -84.8929 -45.3555 -45.3555 -45.3387 -45.3387
   -45.3164 -45.3164 -45.2621 -45.2621 -45.2366 -45.2366 -45.2209 -45.2209
    12.6880  12.6880  14.9881  14.9881  15.3359  15.3359  15.4361  15.4361
    15.5931  15.5931  16.4939  16.4939  17.1595  17.1595  17.3926  17.3926
    17.4290  17.4290  18.0722  18.0722  18.1658  18.1658  24.2302  24.2302
    27.2123  27.2123  29.8436

     occupation numbers 
     1.0000   1.0000   1.0000   1.0000   1.0000   1.0000   1.0000   1.0000
     1.0000   1.0000   1.0000   1.0000   1.0000   1.0000   1.0000   1.0000
     1.0000   1.0000   1.0000   1.0000   1.0000   1.0000   1.0000   1.0000
     1.0000   1.0000   1.0000   1.0000   1.0000   1.0000   1.0000   1.0000
     1.0000   1.0000   1.0011   1.0011   1.0041   1.0041  -0.0000  -0.0000
    -0.0000  -0.0000  -0.0000

          k = 0.0000 0.2500 0.2500 (  8790 PWs)   bands (ev):

   -84.9295 -84.8977 -84.8977 -84.8923 -45.3797 -45.3797 -45.3772 -45.3275
   -45.2814 -45.2814 -45.2620 -45.2562 -45.2562 -45.2561 -45.2104 -45.1903
    11.0410  14.3344  14.3344  14.6198  14.8862  14.8862  14.8914  15.8681
    16.5004  16.5004  16.5191  16.5927  16.6027  17.2262  17.6875  17.7246
    17.8733  17.8733  17.9584  17.9584  18.0888  20.3254  20.3254  24.6369
    26.2434  29.0373  31.8045

     occupation numbers 
     1.0000   1.0000   1.0000   1.0000   1.0000   1.0000   1.0000   1.0000
     1.0000   1.0000   1.0000   1.0000   1.0000   1.0000   1.0000   1.0000
     1.0000   1.0000   1.0000   1.0000   1.0000   1.0000   1.0000   1.0000
     1.0000   1.0000   1.0000   1.0000   1.0000   1.0000   1.0000   1.0000
     1.0000   1.0000   1.0002   1.0002   1.0015  -0.0000  -0.0000  -0.0000
    -0.0000  -0.0000  -0.0000

          k = 0.0000 0.2500 0.3333 (  8796 PWs)   bands (ev):

   -84.9248 -84.9024 -84.8969 -84.8931 -45.3755 -45.3662 -45.3631 -45.3401
   -45.2955 -45.2844 -45.2710 -45.2532 -45.2516 -45.2432 -45.2208 -45.1954
    11.6130  14.1510  14.6376  14.8197  15.0343  15.0359  15.0764  15.7426
    16.0513  16.2706  16.2798  16.5114  16.7398  17.1640  17.5314  17.6735
    17.7038  17.7440  17.8868  17.9568  18.0199  19.4038  21.0887  24.9533
    25.5701  29.2936  30.4111

     occupation numbers 
     1.0000   1.0000   1.0000   1.0000   1.0000   1.0000   1.0000   1.0000
     1.0000   1.0000   1.0000   1.0000   1.0000   1.0000   1.0000   1.0000
     1.0000   1.0000   1.0000   1.0000   1.0000   1.0000   1.0000   1.0000
     1.0000   1.0000   1.0000   1.0000   1.0000   1.0000   1.0000   1.0000
     1.0000   1.0000   1.0000   1.0002   1.0005  -0.0097  -0.0000  -0.0000
    -0.0000  -0.0000  -0.0000

          k = 0.0000 0.2500 0.4167 (  8789 PWs)   bands (ev):

   -84.9194 -84.9078 -84.8960 -84.8940 -45.3694 -45.3516 -45.3492 -45.3468
   -45.3118 -45.3072 -45.2589 -45.2506 -45.2494 -45.2329 -45.2293 -45.2041
    12.2953  13.6934  14.9259  15.0531  15.1404  15.2076  15.3182  15.5781
    15.6616  15.9306  16.2227  16.4379  16.9336  17.1886  17.4027  17.4332
    17.4851  17.5455  17.9578  17.9824  18.1004  18.7761  21.9061  23.8089
    26.6373  29.0740  29.6775

     occupation numbers 
     1.0000   1.0000   1.0000   1.0000   1.0000   1.0000   1.0000   1.0000
     1.0000   1.0000   1.0000   1.0000   1.0000   1.0000   1.0000   1.0000
     1.0000   1.0000   1.0000   1.0000   1.0000   1.0000   1.0000   1.0000
     1.0000   1.0000   1.0000   1.0000   1.0000   1.0000   1.0000   1.0000
     1.0000   1.0000   1.0002   1.0003   1.0017   0.6299  -0.0000  -0.0000
    -0.0000  -0.0000  -0.0000

          k = 0.0000 0.2500-0.5000 (  8810 PWs)   bands (ev):

   -84.9136 -84.9136 -84.8950 -84.8950 -45.3614 -45.3614 -45.3293 -45.3293
   -45.3292 -45.3292 -45.2492 -45.2492 -45.2460 -45.2459 -45.2159 -45.2159
    13.0252  13.0252  15.1140  15.1140  15.3306  15.3306  15.3939  15.3939
    15.6065  15.6065  16.3106  16.3106  17.1700  17.1700  17.3335  17.3335
    17.3776  17.3776  17.9646  17.9646  18.3768  18.3768  22.8023  22.8023
    27.8112  27.8113  30.1983

     occupation numbers 
     1.0000   1.0000   1.0000   1.0000   1.0000   1.0000   1.0000   1.0000
     1.0000   1.0000   1.0000   1.0000   1.0000   1.0000   1.0000   1.0000
     1.0000   1.0000   1.0000   1.0000   1.0000   1.0000   1.0000   1.0000
     1.0000   1.0000   1.0000   1.0000   1.0000   1.0000   1.0000   1.0000
     1.0000   1.0000   1.0002   1.0002   1.0283   1.0283  -0.0000  -0.0000
    -0.0000  -0.0000  -0.0000

          k = 0.0000 0.3333 0.3333 (  8780 PWs)   bands (ev):

   -84.9207 -84.9010 -84.9010 -84.8944 -45.3679 -45.3679 -45.3508 -45.3497
   -45.3046 -45.2845 -45.2845 -45.2439 -45.2393 -45.2393 -45.2318 -45.1973
    12.1506  14.4820  14.4820  14.9310  15.1775  15.1929  15.1929  15.6845
    15.9383  15.9383  16.0791  16.4507  16.8356  17.0988  17.4032  17.5580
    17.5580  17.7064  17.7064  17.8884  18.1106  20.0527  20.0527  23.6472
    26.4425  29.6188  31.1428

     occupation numbers 
     1.0000   1.0000   1.0000   1.0000   1.0000   1.0000   1.0000   1.0000
     1.0000   1.0000   1.0000   1.0000   1.0000   1.0000   1.0000   1.0000
     1.0000   1.0000   1.0000   1.0000   1.0000   1.0000   1.0000   1.0000
     1.0000   1.0000   1.0000   1.0000   1.0000   1.0000   1.0000   1.0000
     1.0000   1.0000   1.0000   1.0000   1.0020  -0.0000  -0.0000  -0.0000
    -0.0000  -0.0000  -0.0000

          k = 0.0000 0.3333 0.4167 (  8796 PWs)   bands (ev):

   -84.9159 -84.9057 -84.8994 -84.8960 -45.3676 -45.3592 -45.3567 -45.3340
   -45.3242 -45.3003 -45.2718 -45.2445 -45.2388 -45.2368 -45.2255 -45.2034
    12.7839  14.0595  14.7944  15.0062  15.3257  15.3290  15.3894  15.5873
    15.6659  15.8519  16.0039  16.3429  16.9919  17.0934  17.2928  17.3798
    17.3816  17.4460  17.7176  17.7980  18.3993  19.2934  20.7650  22.5252
    27.4587  29.8245  30.0700

     occupation numbers 
     1.0000   1.0000   1.0000   1.0000   1.0000   1.0000   1.0000   1.0000
     1.0000   1.0000   1.0000   1.0000   1.0000   1.0000   1.0000   1.0000
     1.0000   1.0000   1.0000   1.0000   1.0000   1.0000   1.0000   1.0000
     1.0000   1.0000   1.0000   1.0000   1.0000   1.0000   1.0000   1.0000
     1.0000   1.0000   1.0000   1.0000   1.0313  -0.0245  -0.0000  -0.0000
    -0.0000  -0.0000  -0.0000

          k = 0.0000 0.3333-0.5000 (  8792 PWs)   bands (ev):

   -84.9108 -84.9108 -84.8977 -84.8977 -45.3648 -45.3648 -45.3419 -45.3419
   -45.3171 -45.3171 -45.2582 -45.2582 -45.2365 -45.2365 -45.2131 -45.2131
    13.4516  13.4516  14.9871  14.9871  15.4623  15.4623  15.4705  15.4705
    15.6143  15.6143  16.1729  16.1729  17.2008  17.2008  17.2011  17.2011
    17.2748  17.2748  17.7448  17.7448  18.7718  18.7718  21.5755  21.5755
    28.5920  28.5920  30.6627

     occupation numbers 
     1.0000   1.0000   1.0000   1.0000   1.0000   1.0000   1.0000   1.0000
     1.0000   1.0000   1.0000   1.0000   1.0000   1.0000   1.0000   1.0000
     1.0000   1.0000   1.0000   1.0000   1.0000   1.0000   1.0000   1.0000
     1.0000   1.0000   1.0000   1.0000   1.0000   1.0000   1.0000   1.0000
     1.0000   1.0000   1.0000   1.0000   0.6415   0.6415  -0.0000  -0.0000
    -0.0000  -0.0000  -0.0000

          k = 0.0000 0.4167 0.4167 (  8794 PWs)   bands (ev):

   -84.9119 -84.9034 -84.9034 -84.8983 -45.3637 -45.3621 -45.3621 -45.3398
   -45.3190 -45.2868 -45.2868 -45.2580 -45.2307 -45.2241 -45.2241 -45.2066
    13.3442  14.4241  14.4241  14.8973  15.4635  15.4635  15.5384  15.5718
    15.7419  15.8418  15.8418  16.2328  17.0306  17.1011  17.1807  17.2238
    17.2238  17.4780  17.4781  17.6467  18.7711  19.8847  19.8847  21.4549
    28.4290  30.5932  30.7237

     occupation numbers 
     1.0000   1.0000   1.0000   1.0000   1.0000   1.0000   1.0000   1.0000
     1.0000   1.0000   1.0000   1.0000   1.0000   1.0000   1.0000   1.0000
     1.0000   1.0000   1.0000   1.0000   1.0000   1.0000   1.0000   1.0000
     1.0000   1.0000   1.0000   1.0000   1.0000   1.0000   1.0000   1.0000
     1.0000   1.0000   1.0000   1.0000   0.6433  -0.0000  -0.0000  -0.0000
    -0.0000  -0.0000  -0.0000

          k = 0.0000 0.4167-0.5000 (  8792 PWs)   bands (ev):

   -84.9077 -84.9077 -84.9009 -84.9008 -45.3647 -45.3647 -45.3527 -45.3527
   -45.3029 -45.3029 -45.2724 -45.2724 -45.2258 -45.2258 -45.2137 -45.2137
    13.9149  13.9149  14.7134  14.7134  15.5283  15.5283  15.6077  15.6077
    15.7050  15.7050  16.0586  16.0586  17.0801  17.0801  17.1425  17.1425
    17.2660  17.2660  17.5413  17.5413  19.2439  19.2439  20.5881  20.5881
    29.5229  29.5229  31.2614

     occupation numbers 
     1.0000   1.0000   1.0000   1.0000   1.0000   1.0000   1.0000   1.0000
     1.0000   1.0000   1.0000   1.0000   1.0000   1.0000   1.0000   1.0000
     1.0000   1.0000   1.0000   1.0000   1.0000   1.0000   1.0000   1.0000
     1.0000   1.0000   1.0000   1.0000   1.0000   1.0000   1.0000   1.0000
     1.0000   1.0000   1.0000   1.0000  -0.0316  -0.0316  -0.0000  -0.0000
    -0.0000  -0.0000  -0.0000

          k = 0.0000-0.5000-0.5000 (  8836 PWs)   bands (ev):

   -84.9043 -84.9043 -84.9043 -84.9043 -45.3606 -45.3606 -45.3606 -45.3606
   -45.2877 -45.2877 -45.2877 -45.2877 -45.2180 -45.2180 -45.2180 -45.2180
    14.3515  14.3515  14.3515  14.3515  15.5793  15.5793  15.5793  15.5793
    15.9131  15.9131  15.9131  15.9131  17.0535  17.0535  17.0535  17.0536
    17.3783  17.3783  17.3783  17.3783  19.8287  19.8287  19.8288  19.8288
    30.5804  30.5804  30.5804

     occupation numbers 
     1.0000   1.0000   1.0000   1.0000   1.0000   1.0000   1.0000   1.0000
     1.0000   1.0000   1.0000   1.0000   1.0000   1.0000   1.0000   1.0000
     1.0000   1.0000   1.0000   1.0000   1.0000   1.0000   1.0000   1.0000
     1.0000   1.0000   1.0000   1.0000   1.0000   1.0000   1.0000   1.0000
     1.0000   1.0000   1.0000   1.0000  -0.0000  -0.0000  -0.0000  -0.0000
    -0.0000  -0.0000  -0.0000

          k = 0.0833 0.0833 0.0833 (  8784 PWs)   bands (ev):

   -84.9411 -84.8921 -84.8921 -84.8921 -45.4095 -45.4095 -45.4095 -45.2805
   -45.2805 -45.2805 -45.2713 -45.2713 -45.2713 -45.1989 -45.1845 -45.1845
     9.7171  14.0052  14.0052  14.0052  14.4776  14.4776  14.4776  16.1927
    16.3287  16.3287  17.4947  17.4947  17.9031  17.9031  17.9031  18.1403
    18.1403  18.1403  18.3259  18.3259  18.3259  21.2916  21.2916  21.2916
    29.0055  29.0055  29.0055

     occupation numbers 
     1.0000   1.0000   1.0000   1.0000   1.0000   1.0000   1.0000   1.0000
     1.0000   1.0000   1.0000   1.0000   1.0000   1.0000   1.0000   1.0000
     1.0000   1.0000   1.0000   1.0000   1.0000   1.0000   1.0000   1.0000
     1.0000   1.0000   1.0000   1.0000   1.0001   1.0001   1.0001   1.0030
     1.0030   1.0030   1.0205   1.0205   1.0205  -0.0000  -0.0000  -0.0000
    -0.0000  -0.0000  -0.0000

          k = 0.0833 0.0833 0.1667 (  8759 PWs)   bands (ev):

   -84.9386 -84.8946 -84.8921 -84.8921 -45.4032 -45.4032 -45.3996 -45.2888
   -45.2888 -45.2750 -45.2697 -45.2697 -45.2668 -45.2130 -45.1890 -45.1866
     9.9915  14.0153  14.1457  14.1457  14.5611  14.5710  14.5710  16.1094
    16.3907  16.3970  17.4090  17.4600  17.4600  17.5403  17.6996  18.0005
    18.0373  18.0373  18.2979  18.3046  18.3046  20.2489  21.9408  21.9408
    29.0855  29.0855  30.5852

     occupation numbers 
     1.0000   1.0000   1.0000   1.0000   1.0000   1.0000   1.0000   1.0000
     1.0000   1.0000   1.0000   1.0000   1.0000   1.0000   1.0000   1.0000
     1.0000   1.0000   1.0000   1.0000   1.0000   1.0000   1.0000   1.0000
     1.0000   1.0000   1.0000   1.0000   1.0000   1.0000   1.0000   1.0004
     1.0007   1.0007   1.0164   1.0174   1.0174  -0.0000  -0.0000  -0.0000
    -0.0000  -0.0000  -0.0000

          k = 0.0833 0.0833 0.2500 (  8777 PWs)   bands (ev):

   -84.9345 -84.8986 -84.8921 -84.8920 -45.3932 -45.3932 -45.3836 -45.2999
   -45.2999 -45.2691 -45.2691 -45.2663 -45.2597 -45.2326 -45.1961 -45.1929
    10.4389  13.9681  14.3573  14.3573  14.6955  14.7261  14.7261  15.9620
    16.5026  16.5097  16.9357  16.9357  17.2862  17.3669  17.6126  17.8032
    17.8802  17.8802  18.2378  18.2844  18.2844  19.1872  22.7877  22.7877
    29.0891  29.0891  29.8395

     occupation numbers 
     1.0000   1.0000   1.0000   1.0000   1.0000   1.0000   1.0000   1.0000
     1.0000   1.0000   1.0000   1.0000   1.0000   1.0000   1.0000   1.0000
     1.0000   1.0000   1.0000   1.0000   1.0000   1.0000   1.0000   1.0000
     1.0000   1.0000   1.0000   1.0000   1.0000   1.0000   1.0000   1.0000
     1.0000   1.0000   1.0094   1.0146   1.0147  -0.0354  -0.0000  -0.0000
    -0.0000  -0.0000  -0.0000

          k = 0.0833 0.0833 0.3333 (  8778 PWs)   bands (ev):

   -84.9293 -84.9039 -84.8920 -84.8920 -45.3804 -45.3804 -45.3626 -45.3134
   -45.3134 -45.2690 -45.2689 -45.2564 -45.2550 -45.2504 -45.2054 -45.2025
    11.0412  13.7512  14.6038  14.6038  14.8730  14.9383  14.9383  15.7689
    16.4240  16.4240  16.6267  16.6645  16.9714  17.1785  17.5703  17.6827
    17.6827  17.7065  18.1512  18.2741  18.2741  18.3755  23.7398  23.7398
    28.2107  28.2107  29.7238

     occupation numbers 
     1.0000   1.0000   1.0000   1.0000   1.0000   1.0000   1.0000   1.0000
     1.0000   1.0000   1.0000   1.0000   1.0000   1.0000   1.0000   1.0000
     1.0000   1.0000   1.0000   1.0000   1.0000   1.0000   1.0000   1.0000
     1.0000   1.0000   1.0000   1.0000   1.0000   1.0000   1.0000   1.0000
     1.0000   1.0000   1.0034   1.0134   1.0134   1.0281  -0.0000  -0.0000
    -0.0000  -0.0000  -0.0000

          k = 0.0833 0.0833 0.4167 (  8811 PWs)   bands (ev):

   -84.9231 -84.9100 -84.8920 -84.8920 -45.3660 -45.3660 -45.3378 -45.3281
   -45.3281 -45.2829 -45.2690 -45.2690 -45.2420 -45.2395 -45.2163 -45.2147
    11.7646  13.2593  14.8226  14.8226  15.0831  15.1995  15.1995  15.5468
    15.9630  15.9630  16.6682  16.6975  16.8571  17.2145  17.3230  17.5063
    17.5063  17.8153  17.8292  18.0461  18.2696  18.2696  24.7453  24.7453
    27.0685  27.0685  30.0575

     occupation numbers 
     1.0000   1.0000   1.0000   1.0000   1.0000   1.0000   1.0000   1.0000
     1.0000   1.0000   1.0000   1.0000   1.0000   1.0000   1.0000   1.0000
     1.0000   1.0000   1.0000   1.0000   1.0000   1.0000   1.0000   1.0000
     1.0000   1.0000   1.0000   1.0000   1.0000   1.0000   1.0000   1.0000
     1.0000   1.0000   1.0000   1.0008   1.0128   1.0128  -0.0000  -0.0000
    -0.0000  -0.0000  -0.0000

          k = 0.0833 0.0833-0.5000 (  8792 PWs)   bands (ev):

   -84.9166 -84.9166 -84.8920 -84.8920 -45.3561 -45.3561 -45.3380 -45.3380
   -45.3106 -45.3106 -45.2691 -45.2690 -45.2282 -45.2282 -45.2279 -45.2279
    12.5442  12.5442  14.9151  14.9151  15.3127  15.3127  15.4440  15.4440
    15.6462  15.6462  16.6333  16.6333  17.0802  17.0802  17.4328  17.4328
    17.4518  17.4518  17.9313  17.9313  18.2684  18.2684  25.5368  25.5368
    26.2286  26.2286  30.3262

     occupation numbers 
     1.0000   1.0000   1.0000   1.0000   1.0000   1.0000   1.0000   1.0000
     1.0000   1.0000   1.0000   1.0000   1.0000   1.0000   1.0000   1.0000
     1.0000   1.0000   1.0000   1.0000   1.0000   1.0000   1.0000   1.0000
     1.0000   1.0000   1.0000   1.0000   1.0000   1.0000   1.0000   1.0000
     1.0000   1.0000   1.0001   1.0001   1.0127   1.0127  -0.0000  -0.0000
    -0.0000  -0.0000  -0.0000

          k = 0.0833 0.1667 0.1667 (  8753 PWs)   bands (ev):

   -84.9362 -84.8945 -84.8945 -84.8922 -45.3973 -45.3954 -45.3954 -45.2988
   -45.2823 -45.2823 -45.2650 -45.2650 -45.2649 -45.2286 -45.1927 -45.1870
    10.2605  14.1620  14.1620  14.2731  14.6503  14.6503  14.6573  16.0570
    16.4301  16.4398  17.1882  17.2445  17.2445  17.3954  17.5385  17.8965
    17.9128  17.9128  18.2688  18.2772  18.2772  20.8550  20.8550  22.4828
    28.9450  29.7480  30.6383

     occupation numbers 
     1.0000   1.0000   1.0000   1.0000   1.0000   1.0000   1.0000   1.0000
     1.0000   1.0000   1.0000   1.0000   1.0000   1.0000   1.0000   1.0000
     1.0000   1.0000   1.0000   1.0000   1.0000   1.0000   1.0000   1.0000
     1.0000   1.0000   1.0000   1.0000   1.0000   1.0000   1.0000   1.0001
     1.0001   1.0001   1.0127   1.0137   1.0137  -0.0000  -0.0000  -0.0000
    -0.0000  -0.0000  -0.0000

          k = 0.0833 0.1667 0.2500 (  8768 PWs)   bands (ev):

   -84.9323 -84.8983 -84.8942 -84.8924 -45.3889 -45.3881 -45.3827 -45.3101
   -45.2925 -45.2724 -45.2636 -45.2616 -45.2575 -45.2489 -45.1999 -45.1908
    10.6986  14.1244  14.3835  14.4650  14.7782  14.7980  14.7983  15.9408
    16.5074  16.5237  16.7372  16.7908  16.9345  17.3110  17.6166  17.7210
    17.7502  17.8010  18.2174  18.2205  18.2244  19.7489  21.6095  23.2330
    27.8807  29.6141  29.8533

     occupation numbers 
     1.0000   1.0000   1.0000   1.0000   1.0000   1.0000   1.0000   1.0000
     1.0000   1.0000   1.0000   1.0000   1.0000   1.0000   1.0000   1.0000
     1.0000   1.0000   1.0000   1.0000   1.0000   1.0000   1.0000   1.0000
     1.0000   1.0000   1.0000   1.0000   1.0000   1.0000   1.0000   1.0000
     1.0000   1.0000   1.0075   1.0078   1.0081  -0.0001  -0.0000  -0.0000
    -0.0000  -0.0000  -0.0000

          k = 0.0833 0.1667 0.3333 (  8794 PWs)   bands (ev):

   -84.9273 -84.9033 -84.8940 -84.8926 -45.3805 -45.3769 -45.3656 -45.3214
   -45.3049 -45.2721 -45.2622 -45.2601 -45.2598 -45.2474 -45.2094 -45.1986
    11.2872  13.9190  14.6447  14.6971  14.9467  14.9746  14.9974  15.7729
    16.2616  16.3641  16.5665  16.6257  16.6606  17.2502  17.4920  17.5863
    17.6390  17.7362  18.1068  18.1836  18.1850  18.8697  22.4392  24.0858
    26.6743  28.6156  29.8941

     occupation numbers 
     1.0000   1.0000   1.0000   1.0000   1.0000   1.0000   1.0000   1.0000
     1.0000   1.0000   1.0000   1.0000   1.0000   1.0000   1.0000   1.0000
     1.0000   1.0000   1.0000   1.0000   1.0000   1.0000   1.0000   1.0000
     1.0000   1.0000   1.0000   1.0000   1.0000   1.0000   1.0000   1.0000
     1.0000   1.0000   1.0019   1.0051   1.0052   0.3694  -0.0000  -0.0000
    -0.0000  -0.0000  -0.0000

          k = 0.0833 0.1667 0.4167 (  8798 PWs)   bands (ev):

   -84.9215 -84.9091 -84.8936 -84.8929 -45.3713 -45.3665 -45.3449 -45.3300
   -45.3182 -45.2968 -45.2609 -45.2594 -45.2467 -45.2354 -45.2207 -45.2095
    11.9920  13.4424  14.8931  14.9331  15.1444  15.1454  15.2163  15.5727
    15.8600  15.9717  16.4601  16.5455  16.8298  17.2545  17.3327  17.4413
    17.4749  17.8796  17.8966  18.1641  18.1649  18.3144  23.3192  24.7677
    25.8271  27.4413  30.3332

     occupation numbers 
     1.0000   1.0000   1.0000   1.0000   1.0000   1.0000   1.0000   1.0000
     1.0000   1.0000   1.0000   1.0000   1.0000   1.0000   1.0000   1.0000
     1.0000   1.0000   1.0000   1.0000   1.0000   1.0000   1.0000   1.0000
     1.0000   1.0000   1.0000   1.0000   1.0000   1.0000   1.0000   1.0000
     1.0000   1.0000   1.0001   1.0040   1.0041   1.0188  -0.0000  -0.0000
    -0.0000  -0.0000  -0.0000

          k = 0.0833 0.1667-0.5000 (  8798 PWs)   bands (ev):

   -84.9153 -84.9153 -84.8933 -84.8933 -45.3643 -45.3643 -45.3291 -45.3291
   -45.3215 -45.3215 -45.2599 -45.2599 -45.2333 -45.2333 -45.2223 -45.2223
    12.7490  12.7490  15.0312  15.0312  15.3013  15.3013  15.3578  15.3579
    15.7046  15.7046  16.4679  16.4679  17.0295  17.0295  17.3916  17.3916
    17.5813  17.5813  18.0493  18.0493  18.1586  18.1586  24.2221  24.2221
    26.3805  26.3805  30.9103

     occupation numbers 
     1.0000   1.0000   1.0000   1.0000   1.0000   1.0000   1.0000   1.0000
     1.0000   1.0000   1.0000   1.0000   1.0000   1.0000   1.0000   1.0000
     1.0000   1.0000   1.0000   1.0000   1.0000   1.0000   1.0000   1.0000
     1.0000   1.0000   1.0000   1.0000   1.0000   1.0000   1.0000   1.0000
     1.0000   1.0000   1.0008   1.0008   1.0038   1.0038  -0.0000  -0.0000
    -0.0000  -0.0000  -0.0000

          k = 0.0833 0.2500 0.2500 (  8773 PWs)   bands (ev):

   -84.9288 -84.8977 -84.8977 -84.8929 -45.3810 -45.3810 -45.3806 -45.3201
   -45.2817 -45.2816 -45.2693 -45.2551 -45.2547 -45.2547 -45.2072 -45.1915
    11.1203  14.3595  14.3595  14.6202  14.9164  14.9164  14.9191  15.8769
    16.4802  16.4802  16.5170  16.5510  16.5794  17.2804  17.5979  17.6430
    17.6430  17.7031  18.1379  18.1379  18.1429  20.4213  20.4213  23.8538
    26.5070  29.8207  30.4379

     occupation numbers 
     1.0000   1.0000   1.0000   1.0000   1.0000   1.0000   1.0000   1.0000
     1.0000   1.0000   1.0000   1.0000   1.0000   1.0000   1.0000   1.0000
     1.0000   1.0000   1.0000   1.0000   1.0000   1.0000   1.0000   1.0000
     1.0000   1.0000   1.0000   1.0000   1.0000   1.0000   1.0000   1.0000
     1.0000   1.0000   1.0029   1.0029   1.0031  -0.0000  -0.0000  -0.0000
    -0.0000  -0.0000  -0.0000

          k = 0.0833 0.2500 0.3333 (  8799 PWs)   bands (ev):

   -84.9243 -84.9023 -84.8970 -84.8936 -45.3783 -45.3730 -45.3694 -45.3271
   -45.2934 -45.2916 -45.2689 -45.2518 -45.2506 -45.2431 -45.2171 -45.1964
    11.6840  14.1699  14.6341  14.8020  15.0667  15.0714  15.1034  15.7616
    16.0729  16.2568  16.2726  16.5095  16.6824  17.2500  17.4310  17.4497
    17.5253  17.8648  18.0048  18.0620  18.0722  19.4487  21.1544  24.3332
    25.5571  29.1599  30.1739

     occupation numbers 
     1.0000   1.0000   1.0000   1.0000   1.0000   1.0000   1.0000   1.0000
     1.0000   1.0000   1.0000   1.0000   1.0000   1.0000   1.0000   1.0000
     1.0000   1.0000   1.0000   1.0000   1.0000   1.0000   1.0000   1.0000
     1.0000   1.0000   1.0000   1.0000   1.0000   1.0000   1.0000   1.0000
     1.0000   1.0000   1.0004   1.0010   1.0011  -0.0060  -0.0000  -0.0000
    -0.0000  -0.0000  -0.0000

          k = 0.0833 0.2500 0.4167 (  8793 PWs)   bands (ev):

   -84.9190 -84.9076 -84.8962 -84.8944 -45.3746 -45.3691 -45.3539 -45.3270
   -45.3140 -45.3064 -45.2553 -45.2493 -45.2483 -45.2299 -45.2288 -45.2051
    12.3544  13.7200  14.8966  14.9978  15.1743  15.2475  15.2883  15.6069
    15.7641  15.9675  16.2212  16.4357  16.8213  17.2049  17.3322  17.3330
    17.3880  17.8000  18.0180  18.0249  18.0753  18.7704  21.9460  23.7294
    25.9532  27.9770  30.6725

     occupation numbers 
     1.0000   1.0000   1.0000   1.0000   1.0000   1.0000   1.0000   1.0000
     1.0000   1.0000   1.0000   1.0000   1.0000   1.0000   1.0000   1.0000
     1.0000   1.0000   1.0000   1.0000   1.0000   1.0000   1.0000   1.0000
[...]
    -0.0000  -0.0000  -0.0000

          k = 0.2500 0.2500-0.5000 (  8778 PWs)   bands (ev):

   -84.0617 -84.0616 -84.0481 -84.0481 -44.5749 -44.5749 -44.5426 -44.5426
   -44.4555 -44.4554 -44.4102 -44.4102 -44.3948 -44.3948 -44.3942 -44.3942
    13.4922  13.4922  15.1362  15.1362  15.9301  15.9301  16.2958  16.2958
    16.7664  16.7664  16.9132  16.9132  17.3500  17.3500  17.5694  17.5694
    18.8341  18.8341  18.8972  18.8972  18.9334  18.9334  22.4977  22.4977
    25.4488  25.4488  30.1424

     occupation numbers 
     1.0000   1.0000   1.0000   1.0000   1.0000   1.0000   1.0000   1.0000
     1.0000   1.0000   1.0000   1.0000   1.0000   1.0000   1.0000   1.0000
     1.0000   1.0000   1.0000   1.0000   1.0000   1.0000   1.0000   1.0000
     1.0000   1.0000   1.0000   1.0000   1.0000   1.0000   1.0000   1.0000
     0.4679   0.4679   0.2969   0.2969   0.2101   0.2101  -0.0000  -0.0000
    -0.0000  -0.0000  -0.0000

          k = 0.2500 0.3333 0.3333 (  8782 PWs)   bands (ev):

   -84.0678 -84.0515 -84.0515 -84.0487 -44.5777 -44.5730 -44.5730 -44.5253
   -44.4496 -44.4332 -44.4332 -44.4084 -44.4071 -44.4071 -44.3821 -44.3744
    12.6971  14.7039  14.7039  14.9939  15.9393  16.0258  16.0258  16.5707
    16.8083  16.8083  16.8819  17.1225  17.1578  17.5292  17.5292  17.5476
    18.3723  18.6318  18.9934  19.0070  19.0070  20.7586  20.7586  22.0621
    25.6821  27.1990  27.1990

     occupation numbers 
     1.0000   1.0000   1.0000   1.0000   1.0000   1.0000   1.0000   1.0000
     1.0000   1.0000   1.0000   1.0000   1.0000   1.0000   1.0000   1.0000
     1.0000   1.0000   1.0000   1.0000   1.0000   1.0000   1.0000   1.0000
     1.0000   1.0000   1.0000   1.0000   1.0000   1.0000   1.0000   1.0000
     1.0276   0.9357   0.0945   0.0737   0.0737  -0.0000  -0.0000  -0.0000
    -0.0000  -0.0000  -0.0000

          k = 0.2500 0.3333 0.4167 (  8803 PWs)   bands (ev):

   -84.0639 -84.0554 -84.0508 -84.0493 -44.5821 -44.5796 -44.5691 -44.5443
   -44.4443 -44.4357 -44.4144 -44.4043 -44.4037 -44.3983 -44.3901 -44.3793
    13.2229  14.2754  14.7950  14.9360  16.0934  16.1517  16.2810  16.5750
    16.8333  16.8468  16.9226  17.0185  17.1700  17.3661  17.4371  17.4383
    18.5042  18.8732  18.9208  18.9350  18.9376  19.8335  21.1872  21.9654
    25.3538  26.2527  27.9746

     occupation numbers 
     1.0000   1.0000   1.0000   1.0000   1.0000   1.0000   1.0000   1.0000
     1.0000   1.0000   1.0000   1.0000   1.0000   1.0000   1.0000   1.0000
     1.0000   1.0000   1.0000   1.0000   1.0000   1.0000   1.0000   1.0000
     1.0000   1.0000   1.0000   1.0000   1.0000   1.0000   1.0000   1.0000
     1.0304   0.3600   0.2390   0.2065   0.2009  -0.0000  -0.0000  -0.0000
    -0.0000  -0.0000  -0.0000

          k = 0.2500 0.3333-0.5000 (  8784 PWs)   bands (ev):

   -84.0597 -84.0596 -84.0501 -84.0500 -44.5828 -44.5828 -44.5593 -44.5593
   -44.4395 -44.4395 -44.4026 -44.4026 -44.4004 -44.4004 -44.3882 -44.3882
    13.7670  13.7670  14.8693  14.8693  16.1761  16.1761  16.4860  16.4860
    16.9009  16.9009  16.9115  16.9115  17.2426  17.2426  17.3974  17.3974
    18.7382  18.7382  18.9044  18.9044  19.2159  19.2159  21.6249  21.6249
    25.5969  25.5969  28.8809

     occupation numbers 
     1.0000   1.0000   1.0000   1.0000   1.0000   1.0000   1.0000   1.0000
     1.0000   1.0000   1.0000   1.0000   1.0000   1.0000   1.0000   1.0000
     1.0000   1.0000   1.0000   1.0000   1.0000   1.0000   1.0000   1.0000
     1.0000   1.0000   1.0000   1.0000   1.0000   1.0000   1.0000   1.0000
     0.7283   0.7283   0.2788   0.2788  -0.0345  -0.0345  -0.0000  -0.0000
    -0.0000  -0.0000  -0.0000

          k = 0.2500 0.4167 0.4167 (  8787 PWs)   bands (ev):

   -84.0607 -84.0539 -84.0539 -84.0508 -44.5861 -44.5793 -44.5793 -44.5608
   -44.4348 -44.4198 -44.4198 -44.3982 -44.3980 -44.3947 -44.3947 -44.3806
    13.6379  14.4423  14.4423  14.7645  16.2968  16.4270  16.4270  16.6983
    16.8946  16.8946  16.9593  17.0093  17.1266  17.2860  17.2860  17.3102
    18.5300  18.8374  18.8374  18.8661  19.1802  20.2504  20.2504  21.3662
    25.5472  26.9422  26.9422

     occupation numbers 
     1.0000   1.0000   1.0000   1.0000   1.0000   1.0000   1.0000   1.0000
     1.0000   1.0000   1.0000   1.0000   1.0000   1.0000   1.0000   1.0000
     1.0000   1.0000   1.0000   1.0000   1.0000   1.0000   1.0000   1.0000
     1.0000   1.0000   1.0000   1.0000   1.0000   1.0000   1.0000   1.0000
     1.0224   0.4588   0.4588   0.3792  -0.0353  -0.0000  -0.0000  -0.0000
    -0.0000  -0.0000  -0.0000

          k = 0.2500 0.4167-0.5000 (  8784 PWs)   bands (ev):

   -84.0573 -84.0573 -84.0524 -84.0523 -44.5851 -44.5851 -44.5728 -44.5728
   -44.4267 -44.4267 -44.4076 -44.4076 -44.3947 -44.3947 -44.3862 -44.3862
    14.0531  14.0531  14.6020  14.6020  16.4278  16.4278  16.6564  16.6564
    16.9088  16.9088  16.9938  16.9938  17.1728  17.1728  17.2565  17.2566
    18.6697  18.6697  18.8131  18.8131  19.5974  19.5974  20.7607  20.7607
    26.1189  26.1189  27.7871

     occupation numbers 
     1.0000   1.0000   1.0000   1.0000   1.0000   1.0000   1.0000   1.0000
     1.0000   1.0000   1.0000   1.0000   1.0000   1.0000   1.0000   1.0000
     1.0000   1.0000   1.0000   1.0000   1.0000   1.0000   1.0000   1.0000
     1.0000   1.0000   1.0000   1.0000   1.0000   1.0000   1.0000   1.0000
     0.8756   0.8756   0.5273   0.5273  -0.0008  -0.0008  -0.0000  -0.0000
    -0.0000  -0.0000  -0.0000

          k = 0.2500-0.5000-0.5000 (  8804 PWs)   bands (ev):

   -84.0548 -84.0548 -84.0548 -84.0548 -44.5817 -44.5817 -44.5817 -44.5817
   -44.4163 -44.4163 -44.4163 -44.4163 -44.3887 -44.3887 -44.3886 -44.3886
    14.3319  14.3319  14.3319  14.3319  16.6218  16.6218  16.6218  16.6218
    16.9847  16.9847  16.9847  16.9847  17.1698  17.1698  17.1698  17.1698
    18.7039  18.7039  18.7039  18.7039  20.0851  20.0851  20.0851  20.0851
    26.8634  26.8634  26.8634

     occupation numbers 
     1.0000   1.0000   1.0000   1.0000   1.0000   1.0000   1.0000   1.0000
     1.0000   1.0000   1.0000   1.0000   1.0000   1.0000   1.0000   1.0000
     1.0000   1.0000   1.0000   1.0000   1.0000   1.0000   1.0000   1.0000
     1.0000   1.0000   1.0000   1.0000   1.0000   1.0000   1.0000   1.0000
     0.8079   0.8078   0.8078   0.8078  -0.0000  -0.0000  -0.0000  -0.0000
    -0.0000  -0.0000  -0.0000

          k = 0.3333 0.3333 0.3333 (  8802 PWs)   bands (ev):

   -84.0650 -84.0515 -84.0515 -84.0514 -44.5838 -44.5838 -44.5838 -44.5458
   -44.4263 -44.4263 -44.4263 -44.4035 -44.4034 -44.4034 -44.3794 -44.3794
    13.0738  14.6765  14.6765  14.6765  16.2026  16.2026  16.2026  16.7187
    16.9563  16.9563  16.9563  17.0885  17.0885  17.3674  17.3674  17.3674
    18.5945  18.5945  19.0319  19.0319  19.0319  20.8905  20.8905  20.8905
    26.1620  26.1620  26.1620

     occupation numbers 
     1.0000   1.0000   1.0000   1.0000   1.0000   1.0000   1.0000   1.0000
     1.0000   1.0000   1.0000   1.0000   1.0000   1.0000   1.0000   1.0000
     1.0000   1.0000   1.0000   1.0000   1.0000   1.0000   1.0000   1.0000
     1.0000   1.0000   1.0000   1.0000   1.0000   1.0000   1.0000   1.0000
     0.9793   0.9793   0.0411   0.0411   0.0411  -0.0000  -0.0000  -0.0000
    -0.0000  -0.0000  -0.0000

          k = 0.3333 0.3333 0.4167 (  8776 PWs)   bands (ev):

   -84.0617 -84.0547 -84.0515 -84.0514 -44.5909 -44.5909 -44.5833 -44.5634
   -44.4230 -44.4230 -44.4066 -44.3998 -44.3998 -44.3976 -44.3852 -44.3825
    13.4922  14.3142  14.6493  14.6493  16.3499  16.3499  16.4837  16.8343
    17.0051  17.0174  17.0762  17.0897  17.0897  17.2210  17.2674  17.2674
    18.7208  18.7833  18.9895  18.9895  19.0098  19.8836  21.0125  21.0125
    25.4861  25.4861  26.8406

     occupation numbers 
     1.0000   1.0000   1.0000   1.0000   1.0000   1.0000   1.0000   1.0000
     1.0000   1.0000   1.0000   1.0000   1.0000   1.0000   1.0000   1.0000
     1.0000   1.0000   1.0000   1.0000   1.0000   1.0000   1.0000   1.0000
     1.0000   1.0000   1.0000   1.0000   1.0000   1.0000   1.0000   1.0000
     0.7700   0.6102   0.1007   0.1007   0.0697  -0.0000  -0.0000  -0.0000
    -0.0000  -0.0000  -0.0000

          k = 0.3333 0.3333-0.5000 (  8796 PWs)   bands (ev):

   -84.0582 -84.0582 -84.0515 -84.0514 -44.5934 -44.5934 -44.5763 -44.5763
   -44.4221 -44.4220 -44.3984 -44.3984 -44.3917 -44.3917 -44.3914 -44.3914
    13.9148  13.9148  14.6384  14.6384  16.4047  16.4047  16.7321  16.7321
    17.0114  17.0114  17.1215  17.1215  17.1554  17.1554  17.2280  17.2280
    18.9252  18.9252  18.9590  18.9590  19.1405  19.1405  21.0636  21.0636
    25.2487  25.2487  27.6774

     occupation numbers 
     1.0000   1.0000   1.0000   1.0000   1.0000   1.0000   1.0000   1.0000
     1.0000   1.0000   1.0000   1.0000   1.0000   1.0000   1.0000   1.0000
     1.0000   1.0000   1.0000   1.0000   1.0000   1.0000   1.0000   1.0000
     1.0000   1.0000   1.0000   1.0000   1.0000   1.0000   1.0000   1.0000
     0.2289   0.2289   0.1561   0.1561  -0.0302  -0.0302  -0.0000  -0.0000
    -0.0000  -0.0000  -0.0000

          k = 0.3333 0.4167 0.4167 (  8788 PWs)   bands (ev):

   -84.0592 -84.0539 -84.0539 -84.0522 -44.5974 -44.5934 -44.5934 -44.5789
   -44.4146 -44.4065 -44.4065 -44.3956 -44.3942 -44.3942 -44.3892 -44.3831
    13.7804  14.3602  14.3602  14.5230  16.5267  16.6115  16.6116  16.9607
    17.0162  17.1251  17.1251  17.1331  17.1491  17.2259  17.2259  17.2890
    18.7321  18.9681  18.9719  18.9719  18.9961  20.0696  20.0696  20.7072
    25.2163  25.9711  25.9711

     occupation numbers 
     1.0000   1.0000   1.0000   1.0000   1.0000   1.0000   1.0000   1.0000
     1.0000   1.0000   1.0000   1.0000   1.0000   1.0000   1.0000   1.0000
     1.0000   1.0000   1.0000   1.0000   1.0000   1.0000   1.0000   1.0000
     1.0000   1.0000   1.0000   1.0000   1.0000   1.0000   1.0000   1.0000
     0.7431   0.1384   0.1314   0.1314   0.0902  -0.0000  -0.0000  -0.0000
    -0.0000  -0.0000  -0.0000

          k = 0.3333 0.4167-0.5000 (  8776 PWs)   bands (ev):

   -84.0566 -84.0566 -84.0531 -84.0531 -44.5983 -44.5983 -44.5892 -44.5892
   -44.4095 -44.4095 -44.3959 -44.3959 -44.3931 -44.3931 -44.3876 -44.3876
    14.0710  14.0710  14.4268  14.4268  16.6238  16.6238  16.8284  16.8284
    17.0428  17.0428  17.1004  17.1004  17.2634  17.2634  17.3547  17.3547
    18.8637  18.8637  18.9362  18.9362  19.3676  19.3676  20.3606  20.3606
    25.4078  25.4078  26.6836

     occupation numbers 
     1.0000   1.0000   1.0000   1.0000   1.0000   1.0000   1.0000   1.0000
     1.0000   1.0000   1.0000   1.0000   1.0000   1.0000   1.0000   1.0000
     1.0000   1.0000   1.0000   1.0000   1.0000   1.0000   1.0000   1.0000
     1.0000   1.0000   1.0000   1.0000   1.0000   1.0000   1.0000   1.0000
     0.3856   0.3856   0.2039   0.2039  -0.0138  -0.0138  -0.0000  -0.0000
    -0.0000  -0.0000  -0.0000

          k = 0.3333-0.5000-0.5000 (  8784 PWs)   bands (ev):

   -84.0548 -84.0548 -84.0548 -84.0548 -44.5968 -44.5968 -44.5968 -44.5968
   -44.4014 -44.4014 -44.4014 -44.4014 -44.3886 -44.3886 -44.3886 -44.3886
    14.2391  14.2391  14.2391  14.2391  16.7801  16.7801  16.7802  16.7802
    17.0310  17.0310  17.0310  17.0310  17.4263  17.4263  17.4263  17.4263
    18.8629  18.8629  18.8629  18.8629  19.7626  19.7626  19.7626  19.7626
    25.9157  25.9157  25.9157

     occupation numbers 
     1.0000   1.0000   1.0000   1.0000   1.0000   1.0000   1.0000   1.0000
     1.0000   1.0000   1.0000   1.0000   1.0000   1.0000   1.0000   1.0000
     1.0000   1.0000   1.0000   1.0000   1.0000   1.0000   1.0000   1.0000
     1.0000   1.0000   1.0000   1.0000   1.0000   1.0000   1.0000   1.0000
     0.3878   0.3878   0.3878   0.3878  -0.0000  -0.0000  -0.0000  -0.0000
    -0.0000  -0.0000  -0.0000

          k = 0.4167 0.4167 0.4167 (  8786 PWs)   bands (ev):

   -84.0575 -84.0539 -84.0539 -84.0539 -44.6025 -44.6025 -44.6025 -44.5928
   -44.3991 -44.3991 -44.3991 -44.3926 -44.3926 -44.3926 -44.3861 -44.3861
    13.9358  14.3023  14.3023  14.3023  16.7378  16.7378  16.7378  16.9620
    16.9620  17.0313  17.0313  17.0313  17.5575  17.5575  17.5575  17.5633
    18.8871  18.8871  19.0092  19.0092  19.0092  19.8881  19.8881  19.8881
    25.3663  25.3663  25.3663

     occupation numbers 
     1.0000   1.0000   1.0000   1.0000   1.0000   1.0000   1.0000   1.0000
     1.0000   1.0000   1.0000   1.0000   1.0000   1.0000   1.0000   1.0000
     1.0000   1.0000   1.0000   1.0000   1.0000   1.0000   1.0000   1.0000
     1.0000   1.0000   1.0000   1.0000   1.0000   1.0000   1.0000   1.0000
     0.3231   0.3231   0.0706   0.0705   0.0705  -0.0000  -0.0000  -0.0000
    -0.0000  -0.0000  -0.0000

          k = 0.4167 0.4167-0.5000 (  8786 PWs)   bands (ev):

   -84.0557 -84.0557 -84.0539 -84.0539 -44.6056 -44.6056 -44.6009 -44.6009
   -44.3976 -44.3976 -44.3910 -44.3910 -44.3894 -44.3894 -44.3893 -44.3893
    14.1076  14.1076  14.2816  14.2816  16.7839  16.7839  16.8873  16.8873
    16.9673  16.9673  16.9941  16.9941  17.7230  17.7231  17.7308  17.7308
    18.9819  18.9819  18.9895  18.9895  19.1700  19.1700  19.8119  19.8119
    25.1618  25.1618  25.8549

     occupation numbers 
     1.0000   1.0000   1.0000   1.0000   1.0000   1.0000   1.0000   1.0000
     1.0000   1.0000   1.0000   1.0000   1.0000   1.0000   1.0000   1.0000
     1.0000   1.0000   1.0000   1.0000   1.0000   1.0000   1.0000   1.0000
     1.0000   1.0000   1.0000   1.0000   1.0000   1.0000   1.0000   1.0000
     0.1136   0.1136   0.1008   0.1007  -0.0347  -0.0347  -0.0000  -0.0000
    -0.0000  -0.0000  -0.0000

          k = 0.4167-0.5000-0.5000 (  8776 PWs)   bands (ev):

   -84.0548 -84.0548 -84.0548 -84.0548 -44.6065 -44.6065 -44.6065 -44.6065
   -44.3919 -44.3919 -44.3919 -44.3919 -44.3886 -44.3886 -44.3886 -44.3886
    14.1752  14.1752  14.1752  14.1752  16.8791  16.8791  16.8792  16.8792
    16.9430  16.9430  16.9430  16.9430  17.9516  17.9516  17.9516  17.9516
    18.9657  18.9657  18.9657  18.9657  19.3281  19.3281  19.3281  19.3281
    25.3332  25.3332  25.3332

     occupation numbers 
     1.0000   1.0000   1.0000   1.0000   1.0000   1.0000   1.0000   1.0000
     1.0000   1.0000   1.0000   1.0000   1.0000   1.0000   1.0000   1.0000
     1.0000   1.0000   1.0000   1.0000   1.0000   1.0000   1.0000   1.0000
     1.0000   1.0000   1.0000   1.0000   1.0002   1.0002   1.0002   1.0002
     0.1430   0.1430   0.1430   0.1430  -0.0192  -0.0192  -0.0192  -0.0192
    -0.0000  -0.0000  -0.0000

          k =-0.5000-0.5000-0.5000 (  8744 PWs)   bands (ev):

   -84.0548 -84.0548 -84.0548 -84.0548 -44.6099 -44.6099 -44.6099 -44.6099
   -44.3886 -44.3886 -44.3886 -44.3886 -44.3886 -44.3886 -44.3886 -44.3886
    14.1526  14.1526  14.1526  14.1526  16.9129  16.9129  16.9129  16.9129
    16.9129  16.9129  16.9129  16.9129  18.3105  18.3105  18.3105  18.3105
    19.0012  19.0012  19.0012  19.0012  19.0012  19.0012  19.0012  19.0012
    25.1382  25.1382  25.1382

     occupation numbers 
     1.0000   1.0000   1.0000   1.0000   1.0000   1.0000   1.0000   1.0000
     1.0000   1.0000   1.0000   1.0000   1.0000   1.0000   1.0000   1.0000
     1.0000   1.0000   1.0000   1.0000   1.0000   1.0000   1.0000   1.0000
     1.0000   1.0000   1.0000   1.0000   1.0182   1.0182   1.0182   1.0182
     0.0823   0.0823   0.0823   0.0823   0.0823   0.0823   0.0823   0.0823
    -0.0000  -0.0000  -0.0000

     the Fermi energy is    18.8227 ev

!    total energy              =   -1716.65454159 Ry
     total all-electron energy =    -12166.382972 Ry
     estimated scf accuracy    <          1.9E-09 Ry
     smearing contrib. (-TS)   =      -0.00142263 Ry
     internal energy E=F+TS    =   -1716.65311897 Ry

     The total energy is F=E-TS. E is the sum of the following terms:
     one-electron contribution =    -721.93916291 Ry
     hartree contribution      =     411.92810285 Ry
     xc contribution           =    -137.44724896 Ry
     ewald contribution        =    -904.81412341 Ry
     one-center paw contrib.   =    -364.38068654 Ry
      -> PAW hartree energy AE =     268.05794937 Ry
      -> PAW hartree energy PS =    -266.36467609 Ry
      -> PAW xc energy AE      =    -125.61263110 Ry
      -> PAW xc energy PS      =      32.82418984 Ry
      -> total E_H with PAW    =     413.62137613 Ry
      -> total E_XC with PAW   =    -230.23569022 Ry

     total magnetization       =     2.55 Bohr mag/cell
     absolute magnetization    =     2.90 Bohr mag/cell

     convergence has been achieved in   4 iterations

     Writing all to output data dir out/Ni.save/
 
     init_run     :      1.38s CPU      1.89s WALL (       1 calls)
     electrons    :     79.82s CPU     80.92s WALL (       1 calls)

     Called by init_run:
     wfcinit      :      0.87s CPU      1.31s WALL (       1 calls)
     potinit      :      0.27s CPU      0.31s WALL (       1 calls)
     hinit0       :      0.10s CPU      0.10s WALL (       1 calls)

     Called by electrons:
     c_bands      :     66.89s CPU     67.73s WALL (       5 calls)
     sum_band     :     11.67s CPU     11.84s WALL (       5 calls)
     v_of_rho     :      0.11s CPU      0.11s WALL (       5 calls)
     v_h          :      0.00s CPU      0.00s WALL (       5 calls)
     v_xc         :      0.11s CPU      0.11s WALL (       5 calls)
     newd         :      0.18s CPU      0.19s WALL (       5 calls)
     PAW_pot      :      1.22s CPU      1.27s WALL (       5 calls)
     mix_rho      :      0.01s CPU      0.01s WALL (       5 calls)

     Called by c_bands:
     init_us_2    :      0.54s CPU      0.59s WALL (    1680 calls)
     init_us_2:cp :      0.53s CPU      0.59s WALL (    1680 calls)
     cegterg      :     63.12s CPU     63.74s WALL (     840 calls)

     Called by sum_band:
     sum_band:wei :      0.16s CPU      0.16s WALL (       5 calls)
     sum_band:loo :     11.18s CPU     11.34s WALL (       5 calls)
     sum_band:buf :      0.14s CPU      0.14s WALL (     840 calls)
     sum_band:ini :      0.26s CPU      0.27s WALL (     840 calls)
     sum_band:cal :      0.62s CPU      0.63s WALL (     840 calls)
     sum_band:bec :      0.04s CPU      0.04s WALL (     840 calls)
     addusdens    :      0.28s CPU      0.29s WALL (       5 calls)
                                        0.00s GPU  (       5 calls)
     addusd:skk   :      0.00s CPU      0.00s WALL (       5 calls)
                                        0.00s GPU  (       5 calls)

     Called by *egterg:
     cdiaghg      :      5.70s CPU      5.70s WALL (    2305 calls)
     cegterg:over :      2.57s CPU      2.58s WALL (    1801 calls)
     cegterg:upda :      1.07s CPU      1.07s WALL (    1801 calls)
     cegterg:last :      2.08s CPU      2.09s WALL (    1547 calls)
     h_psi        :     48.90s CPU     49.42s WALL (    2641 calls)
     s_psi        :      1.14s CPU      1.14s WALL (    2641 calls)
     g_psi        :      0.15s CPU      0.15s WALL (    1801 calls)

     Called by h_psi:
     h_psi:calbec :      1.74s CPU      1.75s WALL (    2641 calls)
     vloc_psi     :     45.53s CPU     46.03s WALL (    2641 calls)
     add_vuspsi   :      1.40s CPU      1.41s WALL (    2641 calls)

     General routines
     calbec       :      2.36s CPU      2.36s WALL (    3481 calls)
     fft          :      0.07s CPU      0.07s WALL (     121 calls)
     ffts         :      0.01s CPU      0.01s WALL (      20 calls)
     fftw         :     52.18s CPU     52.20s WALL (  214210 calls)
     interpolate  :      0.01s CPU      0.01s WALL (      10 calls)
 
     Parallel routines

     PAW routines
     PAW_pot      :      1.22s CPU      1.27s WALL (       5 calls)
     PAW_symme    :      0.02s CPU      0.02s WALL (       9 calls)
 
     PWSCF        :   1m22.28s CPU   1m27.30s WALL

 
   This run was terminated on:   0:20:19  22Mar2024            

=------------------------------------------------------------------------------=
   JOB DONE.
=------------------------------------------------------------------------------=
