
     Program PWSCF v.7.2 starts on  1Jul2024 at  4:29:26 

     This program is part of the open-source Quantum ESPRESSO suite
     for quantum simulation of materials; please cite
         "P. Giannozzi et al., J. Phys.:Condens. Matter 21 395502 (2009);
         "P. Giannozzi et al., J. Phys.:Condens. Matter 29 465901 (2017);
         "P. Giannozzi et al., J. Chem. Phys. 152 154105 (2020);
          URL http://www.quantum-espresso.org", 
     in publications or presentations arising from this work. More details at
     http://www.quantum-espresso.org/quote

     Parallel version (MPI), running on  1120 processors

     MPI processes distributed on    10 nodes
     227811 MiB available memory on the printing compute node when the environment starts
 
     Waiting for input...
     Reading input from standard input

     Current dimensions of program PWSCF are:
     Max number of different atomic species (ntypx) = 10
     Max number of k-points (npk) =  40000
     Max angular momentum in pseudopotentials (lmaxx) =  4

     Atomic positions and unit cell read from directory:
     ./out/ZnS_hub.save/
 
     file S.pbe-n-kjpaw_psl.1.0.0.UPF: wavefunction(s)  3S 3P renormalized
     file Zn.pbe-dnl-kjpaw_psl.1.0.0.UPF: wavefunction(s)  4S 3D renormalized
     Found identity + (  0.0000  0.2500  0.2500) symmetry
     This is a supercell, fractional translations are disabled
     [opt_tetra]  Optimized tetrahedron method is used.
 
     K-points division:     npool     =      10
     R & G space division:  proc/nbgrp/npool/nimage =     112
     Subspace diagonalization in iterative solution of the eigenvalue problem:
     one sub-group per band group will be used
     scalapack distributed-memory algorithm (size of sub-group:  3*  3 procs)

 
     Parallelization info
     --------------------
     sticks:   dense  smooth     PW     G-vecs:    dense   smooth      PW
     Min         126     126     33                11287    11287    1523
     Max         128     128     34                11292    11292    1528
     Sum       14137   14137   3721              1264415  1264415  170709
 
     Using Slab Decomposition
 


     bravais-lattice index     =            1
     lattice parameter (alat)  =      20.5686  a.u.
     unit-cell volume          =    8701.8437 (a.u.)^3
     number of atoms/cell      =           64
     number of atomic types    =            2
     number of electrons       =       576.00
     number of Kohn-Sham states=          345
     kinetic-energy cutoff     =     105.0000  Ry
     charge density cutoff     =     420.0000  Ry
     Exchange-correlation= SLA  PW   PBX  PBC
                           (   1   4   3   4   0   0   0)
     Hubbard projectors: ortho-atomic
     Hubbard parameters of DFT+U (Dudarev formulation) in eV:
     U(S-3p) =  1.0000
     U(Zn-3d) =  1.0000

     Internal variables: lda_plus_u = T, lda_plus_u_kind = 0

     celldm(1)=  20.568554  celldm(2)=   0.000000  celldm(3)=   0.000000
     celldm(4)=   0.000000  celldm(5)=   0.000000  celldm(6)=   0.000000

     crystal axes: (cart. coord. in units of alat)
               a(1) = (   1.000000   0.000000   0.000000 )  
               a(2) = (   0.000000   1.000000   0.000000 )  
               a(3) = (   0.000000   0.000000   1.000000 )  

     reciprocal axes: (cart. coord. in units 2 pi/alat)
               b(1) = (  1.000000  0.000000  0.000000 )  
               b(2) = (  0.000000  1.000000  0.000000 )  
               b(3) = (  0.000000  0.000000  1.000000 )  


     PseudoPot. # 1 for S  read from file:
     /arf/home/amuhaymin/pseudo/S.pbe-n-kjpaw_psl.1.0.0.UPF
     MD5 check sum: fb45dfebcf3e72a4e1bd4a866ec2e262
     Pseudo is Projector augmented-wave + core cor, Zval =  6.0
     Generated using &quot;atomic&quot; code by A. Dal Corso  v.6.3
     Shape of augmentation charge: PSQ
     Using radial grid of 1151 points,  6 beta functions with: 
                l(1) =   0
                l(2) =   0
                l(3) =   1
                l(4) =   1
                l(5) =   2
                l(6) =   2
     Q(r) pseudized with 0 coefficients 


     PseudoPot. # 2 for Zn read from file:
     /arf/home/amuhaymin/pseudo/Zn.pbe-dnl-kjpaw_psl.1.0.0.UPF
     MD5 check sum: c608214d9520ac179f507641260889e3
     Pseudo is Projector augmented-wave + core cor, Zval = 12.0
     Generated using &quot;atomic&quot; code by A. Dal Corso  v.6.2.2
     Shape of augmentation charge: PSQ
     Using radial grid of 1201 points,  6 beta functions with: 
                l(1) =   0
                l(2) =   0
                l(3) =   1
                l(4) =   1
                l(5) =   2
                l(6) =   2
     Q(r) pseudized with 0 coefficients 


     atomic species   valence    mass     pseudopotential
        S              6.00    32.06500     S ( 1.00)
        Zn            12.00    65.38000     Zn( 1.00)

     24 Sym. Ops. (no inversion) found


                                    s                        frac. trans.

      isym =  1     identity                                     

 cryst.   s( 1) = (     1          0          0      )
                  (     0          1          0      )
                  (     0          0          1      )

 cart.    s( 1) = (  1.0000000  0.0000000  0.0000000 )
                  (  0.0000000  1.0000000  0.0000000 )
                  (  0.0000000  0.0000000  1.0000000 )


      isym =  2     180 deg rotation - cart. axis [0,0,1]        

 cryst.   s( 2) = (    -1          0          0      )
                  (     0         -1          0      )
                  (     0          0          1      )

 cart.    s( 2) = ( -1.0000000  0.0000000  0.0000000 )
                  (  0.0000000 -1.0000000  0.0000000 )
                  (  0.0000000  0.0000000  1.0000000 )


      isym =  3     180 deg rotation - cart. axis [0,1,0]        

 cryst.   s( 3) = (    -1          0          0      )
                  (     0          1          0      )
                  (     0          0         -1      )

 cart.    s( 3) = ( -1.0000000  0.0000000  0.0000000 )
                  (  0.0000000  1.0000000  0.0000000 )
                  (  0.0000000  0.0000000 -1.0000000 )


      isym =  4     180 deg rotation - cart. axis [1,0,0]        

 cryst.   s( 4) = (     1          0          0      )
                  (     0         -1          0      )
                  (     0          0         -1      )

 cart.    s( 4) = (  1.0000000  0.0000000  0.0000000 )
                  (  0.0000000 -1.0000000  0.0000000 )
                  (  0.0000000  0.0000000 -1.0000000 )


      isym =  5     120 deg rotation - cart. axis [-1,-1,-1]     

 cryst.   s( 5) = (     0          0          1      )
                  (     1          0          0      )
                  (     0          1          0      )

 cart.    s( 5) = (  0.0000000  1.0000000  0.0000000 )
                  (  0.0000000  0.0000000  1.0000000 )
                  (  1.0000000  0.0000000  0.0000000 )


      isym =  6     120 deg rotation - cart. axis [-1,1,1]       

 cryst.   s( 6) = (     0          0         -1      )
                  (    -1          0          0      )
                  (     0          1          0      )

 cart.    s( 6) = (  0.0000000 -1.0000000  0.0000000 )
                  (  0.0000000  0.0000000  1.0000000 )
                  ( -1.0000000  0.0000000  0.0000000 )


      isym =  7     120 deg rotation - cart. axis [1,1,-1]       

 cryst.   s( 7) = (     0          0         -1      )
                  (     1          0          0      )
                  (     0         -1          0      )

 cart.    s( 7) = (  0.0000000  1.0000000  0.0000000 )
                  (  0.0000000  0.0000000 -1.0000000 )
                  ( -1.0000000  0.0000000  0.0000000 )


      isym =  8     120 deg rotation - cart. axis [1,-1,1]       

 cryst.   s( 8) = (     0          0          1      )
                  (    -1          0          0      )
                  (     0         -1          0      )

 cart.    s( 8) = (  0.0000000 -1.0000000  0.0000000 )
                  (  0.0000000  0.0000000 -1.0000000 )
                  (  1.0000000  0.0000000  0.0000000 )


      isym =  9     120 deg rotation - cart. axis [1,1,1]        

 cryst.   s( 9) = (     0          1          0      )
                  (     0          0          1      )
                  (     1          0          0      )

 cart.    s( 9) = (  0.0000000  0.0000000  1.0000000 )
                  (  1.0000000  0.0000000  0.0000000 )
                  (  0.0000000  1.0000000  0.0000000 )


      isym = 10     120 deg rotation - cart. axis [-1,1,-1]      

 cryst.   s(10) = (     0         -1          0      )
                  (     0          0         -1      )
                  (     1          0          0      )

 cart.    s(10) = (  0.0000000  0.0000000  1.0000000 )
                  ( -1.0000000  0.0000000  0.0000000 )
                  (  0.0000000 -1.0000000  0.0000000 )


      isym = 11     120 deg rotation - cart. axis [1,-1,-1]      

 cryst.   s(11) = (     0         -1          0      )
                  (     0          0          1      )
                  (    -1          0          0      )

 cart.    s(11) = (  0.0000000  0.0000000 -1.0000000 )
                  ( -1.0000000  0.0000000  0.0000000 )
                  (  0.0000000  1.0000000  0.0000000 )


      isym = 12     120 deg rotation - cart. axis [-1,-1,1]      

 cryst.   s(12) = (     0          1          0      )
                  (     0          0         -1      )
                  (    -1          0          0      )

 cart.    s(12) = (  0.0000000  0.0000000 -1.0000000 )
                  (  1.0000000  0.0000000  0.0000000 )
                  (  0.0000000 -1.0000000  0.0000000 )


      isym = 13     inv. 180 deg rotation - cart. axis [1,1,0]   

 cryst.   s(13) = (     0         -1          0      )
                  (    -1          0          0      )
                  (     0          0          1      )

 cart.    s(13) = (  0.0000000 -1.0000000  0.0000000 )
                  ( -1.0000000  0.0000000  0.0000000 )
                  (  0.0000000  0.0000000  1.0000000 )


      isym = 14     inv. 180 deg rotation - cart. axis [1,-1,0]  

 cryst.   s(14) = (     0          1          0      )
                  (     1          0          0      )
                  (     0          0          1      )

 cart.    s(14) = (  0.0000000  1.0000000  0.0000000 )
                  (  1.0000000  0.0000000  0.0000000 )
                  (  0.0000000  0.0000000  1.0000000 )


      isym = 15     inv.  90 deg rotation - cart. axis [0,0,-1]  

 cryst.   s(15) = (     0          1          0      )
                  (    -1          0          0      )
                  (     0          0         -1      )

 cart.    s(15) = (  0.0000000 -1.0000000  0.0000000 )
                  (  1.0000000  0.0000000  0.0000000 )
                  (  0.0000000  0.0000000 -1.0000000 )


      isym = 16     inv.  90 deg rotation - cart. axis [0,0,1]   

 cryst.   s(16) = (     0         -1          0      )
                  (     1          0          0      )
                  (     0          0         -1      )

 cart.    s(16) = (  0.0000000  1.0000000  0.0000000 )
                  ( -1.0000000  0.0000000  0.0000000 )
                  (  0.0000000  0.0000000 -1.0000000 )


      isym = 17     inv. 180 deg rotation - cart. axis [1,0,1]   

 cryst.   s(17) = (     0          0         -1      )
                  (     0          1          0      )
                  (    -1          0          0      )

 cart.    s(17) = (  0.0000000  0.0000000 -1.0000000 )
                  (  0.0000000  1.0000000  0.0000000 )
                  ( -1.0000000  0.0000000  0.0000000 )


      isym = 18     inv. 180 deg rotation - cart. axis [-1,0,1]  

 cryst.   s(18) = (     0          0          1      )
                  (     0          1          0      )
                  (     1          0          0      )

 cart.    s(18) = (  0.0000000  0.0000000  1.0000000 )
                  (  0.0000000  1.0000000  0.0000000 )
                  (  1.0000000  0.0000000  0.0000000 )


      isym = 19     inv.  90 deg rotation - cart. axis [0,1,0]   

 cryst.   s(19) = (     0          0          1      )
                  (     0         -1          0      )
                  (    -1          0          0      )

 cart.    s(19) = (  0.0000000  0.0000000 -1.0000000 )
                  (  0.0000000 -1.0000000  0.0000000 )
                  (  1.0000000  0.0000000  0.0000000 )


      isym = 20     inv.  90 deg rotation - cart. axis [0,-1,0]  

 cryst.   s(20) = (     0          0         -1      )
                  (     0         -1          0      )
                  (     1          0          0      )

 cart.    s(20) = (  0.0000000  0.0000000  1.0000000 )
                  (  0.0000000 -1.0000000  0.0000000 )
                  ( -1.0000000  0.0000000  0.0000000 )


      isym = 21     inv. 180 deg rotation - cart. axis [0,1,1]   

 cryst.   s(21) = (     1          0          0      )
                  (     0          0         -1      )
                  (     0         -1          0      )

 cart.    s(21) = (  1.0000000  0.0000000  0.0000000 )
                  (  0.0000000  0.0000000 -1.0000000 )
                  (  0.0000000 -1.0000000  0.0000000 )


      isym = 22     inv. 180 deg rotation - cart. axis [0,1,-1]  

 cryst.   s(22) = (     1          0          0      )
                  (     0          0          1      )
                  (     0          1          0      )

 cart.    s(22) = (  1.0000000  0.0000000  0.0000000 )
                  (  0.0000000  0.0000000  1.0000000 )
                  (  0.0000000  1.0000000  0.0000000 )


      isym = 23     inv.  90 deg rotation - cart. axis [-1,0,0]  

 cryst.   s(23) = (    -1          0          0      )
                  (     0          0          1      )
                  (     0         -1          0      )

 cart.    s(23) = ( -1.0000000  0.0000000  0.0000000 )
                  (  0.0000000  0.0000000 -1.0000000 )
                  (  0.0000000  1.0000000  0.0000000 )


      isym = 24     inv.  90 deg rotation - cart. axis [1,0,0]   

 cryst.   s(24) = (    -1          0          0      )
                  (     0          0         -1      )
                  (     0          1          0      )

 cart.    s(24) = ( -1.0000000  0.0000000  0.0000000 )
                  (  0.0000000  0.0000000  1.0000000 )
                  (  0.0000000 -1.0000000  0.0000000 )


     point group T_d (-43m) 
     there are  5 classes
     the character table:

       E     8C3   3C2   6S4   6s_d 
A_1    1.00  1.00  1.00  1.00  1.00
A_2    1.00  1.00  1.00 -1.00 -1.00
E      2.00 -1.00  2.00  0.00  0.00
T_1    3.00  0.00 -1.00  1.00 -1.00
T_2    3.00  0.00 -1.00 -1.00  1.00

     the symmetry operations in each class and the name of the first element:

     E        1
          identity                                               
     8C3      5    7    8    6   12    9   10   11
          120 deg rotation - cart. axis [-1,-1,-1]               
     3C2      2    3    4
          180 deg rotation - cart. axis [0,0,1]                  
     6S4     15   16   20   19   23   24
          inv.  90 deg rotation - cart. axis [0,0,-1]            
     6s_d    13   14   17   18   21   22
          inv. 180 deg rotation - cart. axis [1,1,0]             

   Cartesian axes

     site n.     atom                  positions (alat units)
         1           Zn  tau(   1) = (   0.0000000   0.0000000   0.0000000  )
         2           Zn  tau(   2) = (   0.0000000   0.2500000   0.2500000  )
         3           Zn  tau(   3) = (   0.2500000   0.0000000   0.2500000  )
         4           Zn  tau(   4) = (   0.2500000   0.2500000   0.0000000  )
         5           S   tau(   5) = (   0.1250000   0.3750000   0.3750000  )
         6           S   tau(   6) = (   0.1250000   0.1250000   0.1250000  )
         7           S   tau(   7) = (   0.3750000   0.3750000   0.1250000  )
         8           S   tau(   8) = (   0.3750000   0.1250000   0.3750000  )
         9           Zn  tau(   9) = (   0.0000000   0.0000000   0.5000000  )
        10           Zn  tau(  10) = (   0.0000000   0.2500000   0.7500000  )
        11           Zn  tau(  11) = (   0.2500000   0.0000000   0.7500000  )
        12           Zn  tau(  12) = (   0.2500000   0.2500000   0.5000000  )
        13           S   tau(  13) = (   0.1250000   0.3750000   0.8750000  )
        14           S   tau(  14) = (   0.1250000   0.1250000   0.6250000  )
        15           S   tau(  15) = (   0.3750000   0.3750000   0.6250000  )
        16           S   tau(  16) = (   0.3750000   0.1250000   0.8750000  )
        17           Zn  tau(  17) = (   0.0000000   0.5000000   0.0000000  )
        18           Zn  tau(  18) = (   0.0000000   0.7500000   0.2500000  )
        19           Zn  tau(  19) = (   0.2500000   0.5000000   0.2500000  )
        20           Zn  tau(  20) = (   0.2500000   0.7500000   0.0000000  )
        21           S   tau(  21) = (   0.1250000   0.8750000   0.3750000  )
        22           S   tau(  22) = (   0.1250000   0.6250000   0.1250000  )
        23           S   tau(  23) = (   0.3750000   0.8750000   0.1250000  )
        24           S   tau(  24) = (   0.3750000   0.6250000   0.3750000  )
        25           Zn  tau(  25) = (   0.0000000   0.5000000   0.5000000  )
        26           Zn  tau(  26) = (   0.0000000   0.7500000   0.7500000  )
        27           Zn  tau(  27) = (   0.2500000   0.5000000   0.7500000  )
        28           Zn  tau(  28) = (   0.2500000   0.7500000   0.5000000  )
        29           S   tau(  29) = (   0.1250000   0.8750000   0.8750000  )
        30           S   tau(  30) = (   0.1250000   0.6250000   0.6250000  )
        31           S   tau(  31) = (   0.3750000   0.8750000   0.6250000  )
        32           S   tau(  32) = (   0.3750000   0.6250000   0.8750000  )
        33           Zn  tau(  33) = (   0.5000000   0.0000000   0.0000000  )
        34           Zn  tau(  34) = (   0.5000000   0.2500000   0.2500000  )
        35           Zn  tau(  35) = (   0.7500000   0.0000000   0.2500000  )
        36           Zn  tau(  36) = (   0.7500000   0.2500000   0.0000000  )
        37           S   tau(  37) = (   0.6250000   0.3750000   0.3750000  )
        38           S   tau(  38) = (   0.6250000   0.1250000   0.1250000  )
        39           S   tau(  39) = (   0.8750000   0.3750000   0.1250000  )
        40           S   tau(  40) = (   0.8750000   0.1250000   0.3750000  )
        41           Zn  tau(  41) = (   0.5000000   0.0000000   0.5000000  )
        42           Zn  tau(  42) = (   0.5000000   0.2500000   0.7500000  )
        43           Zn  tau(  43) = (   0.7500000   0.0000000   0.7500000  )
        44           Zn  tau(  44) = (   0.7500000   0.2500000   0.5000000  )
        45           S   tau(  45) = (   0.6250000   0.3750000   0.8750000  )
        46           S   tau(  46) = (   0.6250000   0.1250000   0.6250000  )
        47           S   tau(  47) = (   0.8750000   0.3750000   0.6250000  )
        48           S   tau(  48) = (   0.8750000   0.1250000   0.8750000  )
        49           Zn  tau(  49) = (   0.5000000   0.5000000   0.0000000  )
        50           Zn  tau(  50) = (   0.5000000   0.7500000   0.2500000  )
        51           Zn  tau(  51) = (   0.7500000   0.5000000   0.2500000  )
        52           Zn  tau(  52) = (   0.7500000   0.7500000   0.0000000  )
        53           S   tau(  53) = (   0.6250000   0.8750000   0.3750000  )
        54           S   tau(  54) = (   0.6250000   0.6250000   0.1250000  )
        55           S   tau(  55) = (   0.8750000   0.8750000   0.1250000  )
        56           S   tau(  56) = (   0.8750000   0.6250000   0.3750000  )
        57           Zn  tau(  57) = (   0.5000000   0.5000000   0.5000000  )
        58           Zn  tau(  58) = (   0.5000000   0.7500000   0.7500000  )
        59           Zn  tau(  59) = (   0.7500000   0.5000000   0.7500000  )
        60           Zn  tau(  60) = (   0.7500000   0.7500000   0.5000000  )
        61           S   tau(  61) = (   0.6250000   0.8750000   0.8750000  )
        62           S   tau(  62) = (   0.6250000   0.6250000   0.6250000  )
        63           S   tau(  63) = (   0.8750000   0.8750000   0.6250000  )
        64           S   tau(  64) = (   0.8750000   0.6250000   0.8750000  )

   Crystallographic axes

     site n.     atom                  positions (cryst. coord.)
         1           Zn  tau(   1) = (  0.0000000  0.0000000  0.0000000  )
         2           Zn  tau(   2) = (  0.0000000  0.2500000  0.2500000  )
         3           Zn  tau(   3) = (  0.2500000  0.0000000  0.2500000  )
         4           Zn  tau(   4) = (  0.2500000  0.2500000  0.0000000  )
         5           S   tau(   5) = (  0.1250000  0.3750000  0.3750000  )
         6           S   tau(   6) = (  0.1250000  0.1250000  0.1250000  )
         7           S   tau(   7) = (  0.3750000  0.3750000  0.1250000  )
         8           S   tau(   8) = (  0.3750000  0.1250000  0.3750000  )
         9           Zn  tau(   9) = (  0.0000000  0.0000000  0.5000000  )
        10           Zn  tau(  10) = (  0.0000000  0.2500000  0.7500000  )
        11           Zn  tau(  11) = (  0.2500000  0.0000000  0.7500000  )
        12           Zn  tau(  12) = (  0.2500000  0.2500000  0.5000000  )
        13           S   tau(  13) = (  0.1250000  0.3750000  0.8750000  )
        14           S   tau(  14) = (  0.1250000  0.1250000  0.6250000  )
        15           S   tau(  15) = (  0.3750000  0.3750000  0.6250000  )
        16           S   tau(  16) = (  0.3750000  0.1250000  0.8750000  )
        17           Zn  tau(  17) = (  0.0000000  0.5000000  0.0000000  )
        18           Zn  tau(  18) = (  0.0000000  0.7500000  0.2500000  )
        19           Zn  tau(  19) = (  0.2500000  0.5000000  0.2500000  )
        20           Zn  tau(  20) = (  0.2500000  0.7500000  0.0000000  )
        21           S   tau(  21) = (  0.1250000  0.8750000  0.3750000  )
        22           S   tau(  22) = (  0.1250000  0.6250000  0.1250000  )
        23           S   tau(  23) = (  0.3750000  0.8750000  0.1250000  )
        24           S   tau(  24) = (  0.3750000  0.6250000  0.3750000  )
        25           Zn  tau(  25) = (  0.0000000  0.5000000  0.5000000  )
        26           Zn  tau(  26) = (  0.0000000  0.7500000  0.7500000  )
        27           Zn  tau(  27) = (  0.2500000  0.5000000  0.7500000  )
        28           Zn  tau(  28) = (  0.2500000  0.7500000  0.5000000  )
        29           S   tau(  29) = (  0.1250000  0.8750000  0.8750000  )
        30           S   tau(  30) = (  0.1250000  0.6250000  0.6250000  )
        31           S   tau(  31) = (  0.3750000  0.8750000  0.6250000  )
        32           S   tau(  32) = (  0.3750000  0.6250000  0.8750000  )
        33           Zn  tau(  33) = (  0.5000000  0.0000000  0.0000000  )
        34           Zn  tau(  34) = (  0.5000000  0.2500000  0.2500000  )
        35           Zn  tau(  35) = (  0.7500000  0.0000000  0.2500000  )
        36           Zn  tau(  36) = (  0.7500000  0.2500000  0.0000000  )
        37           S   tau(  37) = (  0.6250000  0.3750000  0.3750000  )
        38           S   tau(  38) = (  0.6250000  0.1250000  0.1250000  )
        39           S   tau(  39) = (  0.8750000  0.3750000  0.1250000  )
        40           S   tau(  40) = (  0.8750000  0.1250000  0.3750000  )
        41           Zn  tau(  41) = (  0.5000000  0.0000000  0.5000000  )
        42           Zn  tau(  42) = (  0.5000000  0.2500000  0.7500000  )
        43           Zn  tau(  43) = (  0.7500000  0.0000000  0.7500000  )
        44           Zn  tau(  44) = (  0.7500000  0.2500000  0.5000000  )
        45           S   tau(  45) = (  0.6250000  0.3750000  0.8750000  )
        46           S   tau(  46) = (  0.6250000  0.1250000  0.6250000  )
        47           S   tau(  47) = (  0.8750000  0.3750000  0.6250000  )
        48           S   tau(  48) = (  0.8750000  0.1250000  0.8750000  )
        49           Zn  tau(  49) = (  0.5000000  0.5000000  0.0000000  )
        50           Zn  tau(  50) = (  0.5000000  0.7500000  0.2500000  )
        51           Zn  tau(  51) = (  0.7500000  0.5000000  0.2500000  )
        52           Zn  tau(  52) = (  0.7500000  0.7500000  0.0000000  )
        53           S   tau(  53) = (  0.6250000  0.8750000  0.3750000  )
        54           S   tau(  54) = (  0.6250000  0.6250000  0.1250000  )
        55           S   tau(  55) = (  0.8750000  0.8750000  0.1250000  )
        56           S   tau(  56) = (  0.8750000  0.6250000  0.3750000  )
        57           Zn  tau(  57) = (  0.5000000  0.5000000  0.5000000  )
        58           Zn  tau(  58) = (  0.5000000  0.7500000  0.7500000  )
        59           Zn  tau(  59) = (  0.7500000  0.5000000  0.7500000  )
        60           Zn  tau(  60) = (  0.7500000  0.7500000  0.5000000  )
        61           S   tau(  61) = (  0.6250000  0.8750000  0.8750000  )
        62           S   tau(  62) = (  0.6250000  0.6250000  0.6250000  )
        63           S   tau(  63) = (  0.8750000  0.8750000  0.6250000  )
        64           S   tau(  64) = (  0.8750000  0.6250000  0.8750000  )

     number of k points=    10 (tetrahedron method)
                       cart. coord. in units 2pi/alat
        k(    1) = (   0.0000000   0.0000000   0.0000000), wk =   0.0312500
        k(    2) = (   0.0000000   0.0000000   0.2500000), wk =   0.1875000
        k(    3) = (   0.0000000   0.0000000  -0.5000000), wk =   0.0937500
        k(    4) = (   0.0000000   0.2500000   0.2500000), wk =   0.3750000
        k(    5) = (   0.0000000   0.2500000  -0.5000000), wk =   0.3750000
        k(    6) = (   0.0000000  -0.5000000  -0.5000000), wk =   0.0937500
        k(    7) = (   0.2500000   0.2500000   0.2500000), wk =   0.2500000
        k(    8) = (   0.2500000   0.2500000  -0.5000000), wk =   0.3750000
        k(    9) = (   0.2500000  -0.5000000  -0.5000000), wk =   0.1875000
        k(   10) = (  -0.5000000  -0.5000000  -0.5000000), wk =   0.0312500

                       cryst. coord.
        k(    1) = (   0.0000000   0.0000000   0.0000000), wk =   0.0312500
        k(    2) = (   0.0000000   0.0000000   0.2500000), wk =   0.1875000
        k(    3) = (   0.0000000   0.0000000  -0.5000000), wk =   0.0937500
        k(    4) = (   0.0000000   0.2500000   0.2500000), wk =   0.3750000
        k(    5) = (   0.0000000   0.2500000  -0.5000000), wk =   0.3750000
        k(    6) = (   0.0000000  -0.5000000  -0.5000000), wk =   0.0937500
        k(    7) = (   0.2500000   0.2500000   0.2500000), wk =   0.2500000
        k(    8) = (   0.2500000   0.2500000  -0.5000000), wk =   0.3750000
        k(    9) = (   0.2500000  -0.5000000  -0.5000000), wk =   0.1875000
        k(   10) = (  -0.5000000  -0.5000000  -0.5000000), wk =   0.0312500

     Dense  grid:  1264415 G-vectors     FFT dimensions: ( 135, 135, 135)

     Dynamical RAM for                 wfc:       7.43 MB

     Dynamical RAM for     wfc (w. buffer):       7.43 MB

     Dynamical RAM for             U proj.:       5.51 MB

     Dynamical RAM for  U proj. (w. buff.):       5.51 MB

     Dynamical RAM for           str. fact:       0.34 MB

     Dynamical RAM for           local pot:       0.00 MB

     Dynamical RAM for          nlocal pot:      24.80 MB

     Dynamical RAM for                qrad:       3.29 MB

     Dynamical RAM for          rho,v,vnew:       1.35 MB

     Dynamical RAM for           G-vectors:       0.73 MB

     Dynamical RAM for          h,s,v(r/c):       2.42 MB

     Dynamical RAM for          <psi|beta>:       6.06 MB

     Dynamical RAM for                 psi:      14.86 MB

     Dynamical RAM for                hpsi:      14.86 MB

     Dynamical RAM for                spsi:      14.86 MB

     Dynamical RAM for      wfcinit/wfcrot:      17.58 MB

     Dynamical RAM for           addusdens:       3.91 MB

     Estimated static dynamical RAM per process >      45.37 MB

     Estimated max dynamical RAM per process >      98.42 MB

     Estimated total dynamical RAM >     107.65 GB

     The potential is recalculated from file :
     ./out/ZnS_hub.save/charge-density


     HUBBARD ENERGY =    1.3401  (Ry)

     STARTING HUBBARD OCCUPATIONS:

     =================== HUBBARD OCCUPATIONS ===================
     ------------------------ ATOM    1 ------------------------
     Tr[ns(  1)] =   9.95687
     eigenvalues:
       0.995  0.995  0.995  0.997  0.997
     eigenvectors (columns):
       0.000  0.000 -0.000 -0.004 -1.000
       0.340 -0.048 -0.939  0.000  0.000
       0.620 -0.740  0.262  0.000  0.000
      -0.000 -0.000  0.000  1.000 -0.004
      -0.707 -0.671 -0.222 -0.000 -0.000
     occupation matrix ns (before diag.):
       0.997 -0.000 -0.000  0.000  0.000
      -0.000  0.995 -0.000  0.000  0.000
      -0.000 -0.000  0.995  0.000  0.000
       0.000  0.000  0.000  0.997 -0.000
       0.000  0.000  0.000 -0.000  0.995
     ------------------------ ATOM    2 ------------------------
     Tr[ns(  2)] =   9.95686
     eigenvalues:
       0.995  0.995  0.995  0.997  0.997
     eigenvectors (columns):
      -0.000  0.000 -0.000 -0.500 -0.866
       0.578  0.707  0.407 -0.000  0.000
       0.576  0.000 -0.817 -0.000  0.000
       0.000  0.000  0.000  0.866 -0.500
      -0.578  0.707 -0.407  0.000  0.000
     occupation matrix ns (before diag.):
       0.997 -0.000  0.000  0.000 -0.000
      -0.000  0.995 -0.000 -0.000  0.000
       0.000 -0.000  0.995 -0.000  0.000
       0.000 -0.000 -0.000  0.997  0.000
      -0.000  0.000  0.000  0.000  0.995
     ------------------------ ATOM    3 ------------------------
     Tr[ns(  3)] =   9.95686
     eigenvalues:
       0.995  0.995  0.995  0.997  0.997
     eigenvectors (columns):
      -0.000  0.000 -0.000 -0.500 -0.866
       0.576  0.000 -0.817 -0.000  0.000
       0.578  0.707  0.407 -0.000  0.000
      -0.000 -0.000 -0.000 -0.866  0.500
      -0.578  0.707 -0.407  0.000  0.000
     occupation matrix ns (before diag.):
       0.997  0.000 -0.000 -0.000 -0.000
       0.000  0.995 -0.000  0.000  0.000
      -0.000 -0.000  0.995  0.000  0.000
      -0.000  0.000  0.000  0.997 -0.000
      -0.000  0.000  0.000 -0.000  0.995
     ------------------------ ATOM    4 ------------------------
     Tr[ns(  4)] =   9.95686
     eigenvalues:
       0.995  0.995  0.995  0.997  0.997
     eigenvectors (columns):
      -0.000 -0.000 -0.000  1.000 -0.000
      -0.578 -0.707 -0.407 -0.000  0.000
      -0.578  0.707 -0.407 -0.000 -0.000
       0.000 -0.000 -0.000 -0.000 -1.000
       0.576  0.000 -0.817  0.000  0.000
     occupation matrix ns (before diag.):
       0.997 -0.000 -0.000  0.000  0.000
      -0.000  0.995 -0.000 -0.000  0.000
      -0.000 -0.000  0.995  0.000  0.000
       0.000 -0.000  0.000  0.997 -0.000
       0.000  0.000  0.000 -0.000  0.995
     ------------------------ ATOM    5 ------------------------
     Tr[ns(  5)] =   4.55565
     eigenvalues:
       0.759  0.759  0.759
     eigenvectors (columns):
       0.485  0.707 -0.514
      -0.727 -0.000 -0.686
      -0.485  0.707  0.514
     occupation matrix ns (before diag.):
       0.759  0.000 -0.000
       0.000  0.759 -0.000
      -0.000 -0.000  0.759
     ------------------------ ATOM    6 ------------------------
     Tr[ns(  6)] =   4.55566
     eigenvalues:
       0.759  0.759  0.759
     eigenvectors (columns):
      -0.577 -0.813  0.077
       0.577 -0.473 -0.665
       0.577 -0.339  0.743
     occupation matrix ns (before diag.):
       0.759  0.000  0.000
       0.000  0.759 -0.000
       0.000 -0.000  0.759
     ------------------------ ATOM    7 ------------------------
     Tr[ns(  7)] =   4.55565
     eigenvalues:
       0.759  0.759  0.759
     eigenvectors (columns):
      -0.727  0.000  0.686
       0.485 -0.707  0.514
       0.485  0.707  0.514
     occupation matrix ns (before diag.):
       0.759  0.000  0.000
       0.000  0.759  0.000
       0.000  0.000  0.759
     ------------------------ ATOM    8 ------------------------
     Tr[ns(  8)] =   4.55565
     eigenvalues:
       0.759  0.759  0.759
     eigenvectors (columns):
      -0.485  0.707  0.514
       0.485  0.707 -0.514
       0.727 -0.000  0.686
     occupation matrix ns (before diag.):
       0.759 -0.000  0.000
      -0.000  0.759 -0.000
       0.000 -0.000  0.759
     ------------------------ ATOM    9 ------------------------
     Tr[ns(  9)] =   9.95686
     eigenvalues:
       0.995  0.995  0.995  0.997  0.997
     eigenvectors (columns):
      -0.000  0.000 -0.000 -1.000 -0.000
      -0.000  0.413 -0.911  0.000  0.000
      -0.000  0.911  0.413  0.000  0.000
       0.000 -0.000  0.000 -0.000  1.000
       1.000  0.000 -0.000 -0.000 -0.000
     occupation matrix ns (before diag.):
       0.997 -0.000 -0.000  0.000  0.000
      -0.000  0.995 -0.000  0.000  0.000
      -0.000 -0.000  0.995  0.000  0.000
       0.000  0.000  0.000  0.997 -0.000
       0.000  0.000  0.000 -0.000  0.995
     ------------------------ ATOM   10 ------------------------
     Tr[ns( 10)] =   9.95686
     eigenvalues:
       0.995  0.995  0.995  0.997  0.997
     eigenvectors (columns):
      -0.000  0.000 -0.000 -0.500 -0.866
       0.578  0.707  0.407 -0.000  0.000
      -0.576  0.000  0.817  0.000  0.000
       0.000  0.000  0.000  0.866 -0.500
       0.578 -0.707  0.407 -0.000 -0.000
     occupation matrix ns (before diag.):
       0.997 -0.000 -0.000  0.000  0.000
      -0.000  0.995  0.000 -0.000 -0.000
      -0.000  0.000  0.995  0.000  0.000
       0.000 -0.000  0.000  0.997 -0.000
       0.000 -0.000  0.000 -0.000  0.995
     ------------------------ ATOM   11 ------------------------
     Tr[ns( 11)] =   9.95686
     eigenvalues:
       0.995  0.995  0.995  0.997  0.997
     eigenvectors (columns):
      -0.000  0.000 -0.000 -0.500 -0.866
      -0.576  0.000  0.817  0.000  0.000
       0.578  0.707  0.407 -0.000  0.000
      -0.000 -0.000 -0.000 -0.866  0.500
       0.578 -0.707  0.407 -0.000 -0.000
     occupation matrix ns (before diag.):
       0.997 -0.000 -0.000 -0.000  0.000
      -0.000  0.995  0.000 -0.000  0.000
      -0.000  0.000  0.995  0.000 -0.000
      -0.000 -0.000  0.000  0.997  0.000
       0.000  0.000 -0.000  0.000  0.995
     ------------------------ ATOM   12 ------------------------
     Tr[ns( 12)] =   9.95686
     eigenvalues:
       0.995  0.995  0.995  0.997  0.997
     eigenvectors (columns):
       0.000 -0.000  0.000 -0.000  1.000
      -0.707 -0.044 -0.706 -0.000  0.000
       0.707 -0.044 -0.706  0.000  0.000
       0.000  0.000  0.000 -1.000 -0.000
      -0.000  0.998 -0.062  0.000  0.000
     occupation matrix ns (before diag.):
       0.997  0.000  0.000  0.000  0.000
       0.000  0.995  0.000  0.000  0.000
       0.000  0.000  0.995 -0.000  0.000
       0.000  0.000 -0.000  0.997 -0.000
       0.000  0.000  0.000 -0.000  0.995
     ------------------------ ATOM   13 ------------------------
     Tr[ns( 13)] =   4.55565
     eigenvalues:
       0.759  0.759  0.759
     eigenvectors (columns):
       0.707 -0.190  0.681
      -0.707 -0.190  0.681
      -0.000 -0.963 -0.268
     occupation matrix ns (before diag.):
       0.759  0.000 -0.000
       0.000  0.759 -0.000
      -0.000 -0.000  0.759
     ------------------------ ATOM   14 ------------------------
     Tr[ns( 14)] =   4.55565
     eigenvalues:
       0.759  0.759  0.759
     eigenvectors (columns):
       0.000  0.963 -0.268
       0.707  0.190  0.681
      -0.707  0.190  0.681
     occupation matrix ns (before diag.):
       0.759 -0.000 -0.000
      -0.000  0.759  0.000
      -0.000  0.000  0.759
     ------------------------ ATOM   15 ------------------------
     Tr[ns( 15)] =   4.55567
     eigenvalues:
       0.759  0.759  0.759
     eigenvectors (columns):
       0.345  0.740  0.577
       0.468 -0.669  0.577
      -0.813 -0.071  0.577
     occupation matrix ns (before diag.):
       0.759  0.000  0.000
       0.000  0.759  0.000
       0.000  0.000  0.759
     ------------------------ ATOM   16 ------------------------
     Tr[ns( 16)] =   4.55565
     eigenvalues:
       0.759  0.759  0.759
     eigenvectors (columns):
      -0.707  0.190  0.681
      -0.000  0.963 -0.268
       0.707  0.190  0.681
     occupation matrix ns (before diag.):
       0.759 -0.000  0.000
      -0.000  0.759 -0.000
       0.000 -0.000  0.759
     ------------------------ ATOM   17 ------------------------
     Tr[ns( 17)] =   9.95686
     eigenvalues:
       0.995  0.995  0.995  0.997  0.997
     eigenvectors (columns):
       0.000 -0.000 -0.000 -0.500  0.866
       1.000  0.000  0.000 -0.000 -0.000
       0.000 -0.672  0.741 -0.000 -0.000
      -0.000  0.000  0.000 -0.866 -0.500
      -0.000  0.741  0.672  0.000  0.000
     occupation matrix ns (before diag.):
       0.997 -0.000 -0.000 -0.000  0.000
      -0.000  0.995 -0.000  0.000  0.000
      -0.000 -0.000  0.995  0.000  0.000
      -0.000  0.000  0.000  0.997 -0.000
       0.000  0.000  0.000 -0.000  0.995
     ------------------------ ATOM   18 ------------------------
     Tr[ns( 18)] =   9.95686
     eigenvalues:
       0.995  0.995  0.995  0.997  0.997
     eigenvectors (columns):
      -0.000  0.000 -0.000 -0.500 -0.866
      -0.578 -0.707 -0.407  0.000 -0.000
      -0.576 -0.000  0.817  0.000  0.000
       0.000  0.000  0.000  0.866 -0.500
      -0.578  0.707 -0.407  0.000  0.000
     occupation matrix ns (before diag.):
       0.997  0.000 -0.000  0.000 -0.000
       0.000  0.995 -0.000  0.000 -0.000
      -0.000 -0.000  0.995  0.000 -0.000
       0.000  0.000  0.000  0.997  0.000
      -0.000 -0.000 -0.000  0.000  0.995
     ------------------------ ATOM   19 ------------------------
     Tr[ns( 19)] =   9.95686
     eigenvalues:
       0.995  0.995  0.995  0.997  0.997
     eigenvectors (columns):
       0.000  0.000  0.000 -0.866 -0.500
       0.000 -0.998 -0.062  0.000 -0.000
      -0.707 -0.044  0.706 -0.000  0.000
      -0.000  0.000  0.000  0.500 -0.866
      -0.707  0.044 -0.706 -0.000 -0.000
     occupation matrix ns (before diag.):
       0.997  0.000  0.000  0.000  0.000
       0.000  0.995 -0.000  0.000  0.000
       0.000 -0.000  0.995 -0.000 -0.000
       0.000  0.000 -0.000  0.997 -0.000
       0.000  0.000 -0.000 -0.000  0.995
     ------------------------ ATOM   20 ------------------------
     Tr[ns( 20)] =   9.95686
     eigenvalues:
       0.995  0.995  0.995  0.997  0.997
     eigenvectors (columns):
      -0.000 -0.000 -0.000  1.000 -0.000
       0.578 -0.707  0.407  0.000  0.000
      -0.578 -0.707 -0.407 -0.000  0.000
      -0.000  0.000  0.000  0.000  1.000
      -0.576  0.000  0.817 -0.000 -0.000
     occupation matrix ns (before diag.):
       0.997  0.000 -0.000  0.000 -0.000
       0.000  0.995  0.000  0.000  0.000
      -0.000  0.000  0.995  0.000 -0.000
       0.000  0.000  0.000  0.997 -0.000
      -0.000  0.000 -0.000 -0.000  0.995
     ------------------------ ATOM   21 ------------------------
     Tr[ns( 21)] =   4.55565
     eigenvalues:
       0.759  0.759  0.759
     eigenvectors (columns):
       0.000  0.963 -0.268
       0.707 -0.190 -0.681
       0.707  0.190  0.681
     occupation matrix ns (before diag.):
       0.759  0.000 -0.000
       0.000  0.759 -0.000
      -0.000 -0.000  0.759
     ------------------------ ATOM   22 ------------------------
     Tr[ns( 22)] =   4.55565
     eigenvalues:
       0.759  0.759  0.759
     eigenvectors (columns):
       0.707 -0.190 -0.681
       0.707  0.190  0.681
       0.000 -0.963  0.268
     occupation matrix ns (before diag.):
       0.759 -0.000 -0.000
      -0.000  0.759  0.000
      -0.000  0.000  0.759
     ------------------------ ATOM   23 ------------------------
     Tr[ns( 23)] =   4.55565
     eigenvalues:
       0.759  0.759  0.759
     eigenvectors (columns):
       0.707  0.190  0.681
       0.000 -0.963  0.268
      -0.707  0.190  0.681
     occupation matrix ns (before diag.):
       0.759  0.000  0.000
       0.000  0.759  0.000
       0.000  0.000  0.759
     ------------------------ ATOM   24 ------------------------
     Tr[ns( 24)] =   4.55567
     eigenvalues:
       0.759  0.759  0.759
     eigenvectors (columns):
       0.327  0.748  0.577
       0.811  0.091 -0.577
       0.485 -0.657  0.577
     occupation matrix ns (before diag.):
       0.759 -0.000  0.000
      -0.000  0.759 -0.000
       0.000 -0.000  0.759
     ------------------------ ATOM   25 ------------------------
     Tr[ns( 25)] =   9.95686
     eigenvalues:
       0.995  0.995  0.995  0.997  0.997
     eigenvectors (columns):
      -0.000 -0.000 -0.000  0.500 -0.866
      -0.000 -0.359 -0.933 -0.000  0.000
      -1.000  0.000  0.000 -0.000  0.000
       0.000  0.000  0.000 -0.866 -0.500
       0.000  0.933 -0.359  0.000  0.000
     occupation matrix ns (before diag.):
       0.997 -0.000 -0.000  0.000  0.000
      -0.000  0.995 -0.000  0.000  0.000
      -0.000 -0.000  0.995  0.000  0.000
       0.000  0.000  0.000  0.997 -0.000
       0.000  0.000  0.000 -0.000  0.995
     ------------------------ ATOM   26 ------------------------
     Tr[ns( 26)] =   9.95686
     eigenvalues:
       0.995  0.995  0.995  0.997  0.997
     eigenvectors (columns):
      -0.000  0.000 -0.000 -0.500 -0.866
      -0.578 -0.707 -0.407  0.000 -0.000
       0.576  0.000 -0.817 -0.000 -0.000
       0.000  0.000  0.000  0.866 -0.500
       0.578 -0.707  0.407 -0.000 -0.000
     occupation matrix ns (before diag.):
       0.997  0.000  0.000  0.000  0.000
       0.000  0.995  0.000  0.000  0.000
       0.000  0.000  0.995 -0.000 -0.000
       0.000  0.000 -0.000  0.997 -0.000
       0.000  0.000 -0.000 -0.000  0.995
     ------------------------ ATOM   27 ------------------------
     Tr[ns( 27)] =   9.95686
     eigenvalues:
       0.995  0.995  0.995  0.997  0.997
     eigenvectors (columns):
      -0.000 -0.000  0.000 -0.866 -0.500
       0.000 -0.998  0.062  0.000  0.000
       0.707  0.044  0.706 -0.000  0.000
       0.000 -0.000  0.000  0.500 -0.866
      -0.707  0.044  0.706  0.000  0.000
     occupation matrix ns (before diag.):
       0.997 -0.000  0.000  0.000 -0.000
      -0.000  0.995  0.000 -0.000  0.000
       0.000  0.000  0.995 -0.000  0.000
       0.000 -0.000 -0.000  0.997  0.000
      -0.000  0.000  0.000  0.000  0.995
     ------------------------ ATOM   28 ------------------------
     Tr[ns( 28)] =   9.95686
     eigenvalues:
       0.995  0.995  0.995  0.997  0.997
     eigenvectors (columns):
       0.000  0.000 -0.000 -0.000  1.000
      -0.707 -0.044 -0.706 -0.000 -0.000
      -0.707  0.044  0.706 -0.000  0.000
      -0.000  0.000  0.000  1.000  0.000
       0.000  0.998 -0.062 -0.000 -0.000
     occupation matrix ns (before diag.):
       0.997 -0.000  0.000  0.000 -0.000
      -0.000  0.995 -0.000 -0.000  0.000
       0.000 -0.000  0.995 -0.000 -0.000
       0.000 -0.000 -0.000  0.997 -0.000
      -0.000  0.000 -0.000 -0.000  0.995
     ------------------------ ATOM   29 ------------------------
     Tr[ns( 29)] =   4.55566
     eigenvalues:
       0.759  0.759  0.759
     eigenvectors (columns):
       0.577  0.217 -0.787
       0.577  0.573  0.582
      -0.577  0.790 -0.205
     occupation matrix ns (before diag.):
       0.759 -0.000  0.000
      -0.000  0.759  0.000
       0.000  0.000  0.759
     ------------------------ ATOM   30 ------------------------
     Tr[ns( 30)] =   4.55565
     eigenvalues:
       0.759  0.759  0.759
     eigenvectors (columns):
      -0.485  0.707 -0.514
      -0.727 -0.000  0.686
       0.485  0.707  0.514
     occupation matrix ns (before diag.):
       0.759 -0.000 -0.000
      -0.000  0.759  0.000
      -0.000  0.000  0.759
     ------------------------ ATOM   31 ------------------------
     Tr[ns( 31)] =   4.55565
     eigenvalues:
       0.759  0.759  0.759
     eigenvectors (columns):
       0.485  0.707  0.514
       0.485 -0.707  0.514
      -0.727 -0.000  0.686
     occupation matrix ns (before diag.):
       0.759  0.000  0.000
       0.000  0.759  0.000
       0.000  0.000  0.759
     ------------------------ ATOM   32 ------------------------
     Tr[ns( 32)] =   4.55565
     eigenvalues:
       0.759  0.759  0.759
     eigenvectors (columns):
       0.727 -0.000  0.686
       0.485  0.707 -0.514
      -0.485  0.707  0.514
     occupation matrix ns (before diag.):
       0.759 -0.000  0.000
      -0.000  0.759 -0.000
       0.000 -0.000  0.759
     ------------------------ ATOM   33 ------------------------
     Tr[ns( 33)] =   9.95686
     eigenvalues:
       0.995  0.995  0.995  0.997  0.997
     eigenvectors (columns):
      -0.000 -0.000 -0.000  0.500 -0.866
      -0.000 -0.369 -0.929 -0.000  0.000
      -1.000  0.000  0.000 -0.000  0.000
       0.000  0.000  0.000 -0.866 -0.500
       0.000  0.929 -0.369  0.000  0.000
     occupation matrix ns (before diag.):
       0.997 -0.000 -0.000  0.000  0.000
      -0.000  0.995 -0.000  0.000  0.000
      -0.000 -0.000  0.995  0.000  0.000
       0.000  0.000  0.000  0.997 -0.000
       0.000  0.000  0.000 -0.000  0.995
     ------------------------ ATOM   34 ------------------------
     Tr[ns( 34)] =   9.95686
     eigenvalues:
       0.995  0.995  0.995  0.997  0.997
     eigenvectors (columns):
       0.000 -0.000 -0.000 -0.866 -0.500
      -0.707  0.044 -0.706 -0.000  0.000
       0.000  0.998  0.062  0.000 -0.000
       0.000  0.000  0.000 -0.500  0.866
      -0.707 -0.044  0.706 -0.000 -0.000
     occupation matrix ns (before diag.):
       0.997  0.000  0.000 -0.000  0.000
       0.000  0.995 -0.000  0.000 -0.000
       0.000 -0.000  0.995 -0.000  0.000
      -0.000  0.000 -0.000  0.997  0.000
       0.000 -0.000  0.000  0.000  0.995
     ------------------------ ATOM   35 ------------------------
     Tr[ns( 35)] =   9.95686
     eigenvalues:
       0.995  0.995  0.995  0.997  0.997
     eigenvectors (columns):
      -0.000  0.000 -0.000 -0.500 -0.866
      -0.576 -0.000  0.817  0.000  0.000
      -0.578 -0.707 -0.407  0.000 -0.000
      -0.000 -0.000 -0.000 -0.866  0.500
      -0.578  0.707 -0.407  0.000  0.000
     occupation matrix ns (before diag.):
       0.997 -0.000  0.000 -0.000 -0.000
      -0.000  0.995 -0.000 -0.000 -0.000
       0.000 -0.000  0.995 -0.000 -0.000
      -0.000 -0.000 -0.000  0.997 -0.000
      -0.000 -0.000 -0.000 -0.000  0.995
     ------------------------ ATOM   36 ------------------------
     Tr[ns( 36)] =   9.95686
     eigenvalues:
       0.995  0.995  0.995  0.997  0.997
     eigenvectors (columns):
       0.000  0.000  0.000  1.000  0.000
       0.578  0.707  0.407 -0.000 -0.000
      -0.578  0.707 -0.407  0.000 -0.000
       0.000  0.000 -0.000 -0.000  1.000
       0.576 -0.000 -0.817 -0.000 -0.000
     occupation matrix ns (before diag.):
       0.997 -0.000  0.000  0.000 -0.000
      -0.000  0.995  0.000 -0.000 -0.000
       0.000  0.000  0.995 -0.000  0.000
       0.000 -0.000 -0.000  0.997 -0.000
      -0.000 -0.000  0.000 -0.000  0.995
     ------------------------ ATOM   37 ------------------------
     Tr[ns( 37)] =   4.55567
     eigenvalues:
       0.759  0.759  0.759
     eigenvectors (columns):
       0.183  0.796 -0.577
       0.597 -0.557 -0.577
       0.781  0.239  0.577
     occupation matrix ns (before diag.):
       0.759  0.000 -0.000
       0.000  0.759 -0.000
      -0.000 -0.000  0.759
     ------------------------ ATOM   38 ------------------------
     Tr[ns( 38)] =   4.55565
     eigenvalues:
       0.759  0.759  0.759
     eigenvectors (columns):
      -0.707  0.190 -0.681
      -0.000  0.963  0.268
      -0.707 -0.190  0.681
     occupation matrix ns (before diag.):
       0.759 -0.000 -0.000
      -0.000  0.759  0.000
      -0.000  0.000  0.759
     ------------------------ ATOM   39 ------------------------
     Tr[ns( 39)] =   4.55565
     eigenvalues:
       0.759  0.759  0.759
     eigenvectors (columns):
       0.707  0.190  0.681
      -0.707  0.190  0.681
      -0.000 -0.963  0.268
     occupation matrix ns (before diag.):
       0.759  0.000  0.000
       0.000  0.759  0.000
       0.000  0.000  0.759
     ------------------------ ATOM   40 ------------------------
     Tr[ns( 40)] =   4.55565
     eigenvalues:
       0.759  0.759  0.759
     eigenvectors (columns):
       0.000  0.963  0.268
       0.707  0.190 -0.681
       0.707 -0.190  0.681
     occupation matrix ns (before diag.):
       0.759 -0.000  0.000
      -0.000  0.759 -0.000
       0.000 -0.000  0.759
     ------------------------ ATOM   41 ------------------------
     Tr[ns( 41)] =   9.95686
     eigenvalues:
       0.995  0.995  0.995  0.997  0.997
     eigenvectors (columns):
       0.000 -0.000 -0.000 -0.500  0.866
       1.000  0.000  0.000 -0.000 -0.000
       0.000 -0.650  0.760 -0.000 -0.000
      -0.000  0.000  0.000 -0.866 -0.500
      -0.000  0.760  0.650  0.000  0.000
     occupation matrix ns (before diag.):
       0.997 -0.000 -0.000 -0.000  0.000
      -0.000  0.995 -0.000  0.000  0.000
      -0.000 -0.000  0.995  0.000  0.000
      -0.000  0.000  0.000  0.997 -0.000
       0.000  0.000  0.000 -0.000  0.995
     ------------------------ ATOM   42 ------------------------
     Tr[ns( 42)] =   9.95686
     eigenvalues:
       0.995  0.995  0.995  0.997  0.997
     eigenvectors (columns):
       0.000  0.000  0.000 -0.866 -0.500
      -0.707 -0.044  0.706 -0.000  0.000
      -0.000  0.998  0.062  0.000  0.000
       0.000 -0.000 -0.000 -0.500  0.866
       0.707 -0.044  0.706  0.000  0.000
     occupation matrix ns (before diag.):
       0.997  0.000 -0.000 -0.000 -0.000
       0.000  0.995  0.000  0.000  0.000
      -0.000  0.000  0.995  0.000  0.000
      -0.000  0.000  0.000  0.997 -0.000
      -0.000  0.000  0.000 -0.000  0.995
     ------------------------ ATOM   43 ------------------------
     Tr[ns( 43)] =   9.95686
     eigenvalues:
       0.995  0.995  0.995  0.997  0.997
     eigenvectors (columns):
      -0.000  0.000 -0.000 -0.500 -0.866
       0.576  0.000 -0.817 -0.000  0.000
      -0.578 -0.707 -0.407  0.000 -0.000
      -0.000 -0.000 -0.000 -0.866  0.500
       0.578 -0.707  0.407 -0.000 -0.000
     occupation matrix ns (before diag.):
       0.997  0.000  0.000 -0.000  0.000
       0.000  0.995  0.000  0.000 -0.000
       0.000  0.000  0.995 -0.000  0.000
      -0.000  0.000 -0.000  0.997  0.000
       0.000 -0.000  0.000  0.000  0.995
     ------------------------ ATOM   44 ------------------------
     Tr[ns( 44)] =   9.95686
     eigenvalues:
       0.995  0.995  0.995  0.997  0.997
     eigenvectors (columns):
       0.000  0.000  0.000  0.000  1.000
      -0.707  0.044 -0.706  0.000  0.000
      -0.707 -0.044  0.706  0.000 -0.000
       0.000 -0.000  0.000  1.000 -0.000
       0.000  0.998  0.062 -0.000 -0.000
     occupation matrix ns (before diag.):
       0.997  0.000 -0.000  0.000 -0.000
       0.000  0.995 -0.000  0.000 -0.000
      -0.000 -0.000  0.995  0.000  0.000
       0.000  0.000  0.000  0.997 -0.000
      -0.000 -0.000  0.000 -0.000  0.995
     ------------------------ ATOM   45 ------------------------
     Tr[ns( 45)] =   4.55565
     eigenvalues:
       0.759  0.759  0.759
     eigenvectors (columns):
       0.727 -0.000 -0.686
      -0.485  0.707 -0.514
       0.485  0.707  0.514
     occupation matrix ns (before diag.):
       0.759  0.000 -0.000
       0.000  0.759 -0.000
      -0.000 -0.000  0.759
     ------------------------ ATOM   46 ------------------------
     Tr[ns( 46)] =   4.55565
     eigenvalues:
       0.759  0.759  0.759
     eigenvectors (columns):
      -0.485  0.707 -0.514
       0.485  0.707  0.514
      -0.727  0.000  0.686
     occupation matrix ns (before diag.):
       0.759 -0.000 -0.000
      -0.000  0.759  0.000
      -0.000  0.000  0.759
     ------------------------ ATOM   47 ------------------------
     Tr[ns( 47)] =   4.55565
     eigenvalues:
       0.759  0.759  0.759
     eigenvectors (columns):
      -0.485 -0.707  0.514
       0.727  0.000  0.686
      -0.485  0.707  0.514
     occupation matrix ns (before diag.):
       0.759  0.000  0.000
       0.000  0.759  0.000
       0.000  0.000  0.759
     ------------------------ ATOM   48 ------------------------
     Tr[ns( 48)] =   4.55566
     eigenvalues:
       0.759  0.759  0.759
     eigenvectors (columns):
      -0.577 -0.397 -0.713
       0.577 -0.816 -0.013
      -0.577 -0.419  0.701
     occupation matrix ns (before diag.):
       0.759  0.000 -0.000
       0.000  0.759  0.000
      -0.000  0.000  0.759
     ------------------------ ATOM   49 ------------------------
     Tr[ns( 49)] =   9.95686
     eigenvalues:
       0.995  0.995  0.995  0.997  0.997
     eigenvectors (columns):
      -0.000  0.000 -0.000 -1.000  0.000
      -0.000  0.403 -0.915  0.000  0.000
      -0.000  0.915  0.403  0.000  0.000
       0.000 -0.000  0.000  0.000  1.000
       1.000  0.000 -0.000 -0.000 -0.000
     occupation matrix ns (before diag.):
       0.997 -0.000 -0.000  0.000  0.000
      -0.000  0.995 -0.000  0.000  0.000
      -0.000 -0.000  0.995  0.000  0.000
       0.000  0.000  0.000  0.997 -0.000
       0.000  0.000  0.000 -0.000  0.995
     ------------------------ ATOM   50 ------------------------
     Tr[ns( 50)] =   9.95686
     eigenvalues:
       0.995  0.995  0.995  0.997  0.997
     eigenvectors (columns):
      -0.000 -0.000  0.000 -0.866 -0.500
      -0.707 -0.044 -0.706  0.000 -0.000
      -0.000 -0.998  0.062  0.000  0.000
      -0.000  0.000 -0.000 -0.500  0.866
       0.707 -0.044 -0.706 -0.000 -0.000
     occupation matrix ns (before diag.):
       0.997 -0.000 -0.000 -0.000  0.000
      -0.000  0.995 -0.000 -0.000  0.000
      -0.000 -0.000  0.995  0.000 -0.000
      -0.000 -0.000  0.000  0.997  0.000
       0.000  0.000 -0.000  0.000  0.995
     ------------------------ ATOM   51 ------------------------
     Tr[ns( 51)] =   9.95686
     eigenvalues:
       0.995  0.995  0.995  0.997  0.997
     eigenvectors (columns):
      -0.000  0.000 -0.000 -0.866 -0.500
      -0.000  0.998 -0.062  0.000  0.000
      -0.707  0.044  0.706  0.000 -0.000
       0.000  0.000 -0.000  0.500 -0.866
       0.707  0.044  0.706 -0.000 -0.000
     occupation matrix ns (before diag.):
       0.997 -0.000 -0.000  0.000  0.000
      -0.000  0.995 -0.000 -0.000 -0.000
      -0.000 -0.000  0.995  0.000  0.000
       0.000 -0.000  0.000  0.997 -0.000
       0.000 -0.000  0.000 -0.000  0.995
     ------------------------ ATOM   52 ------------------------
     Tr[ns( 52)] =   9.95686
     eigenvalues:
       0.995  0.995  0.995  0.997  0.997
     eigenvectors (columns):
       0.000  0.000  0.000  1.000 -0.000
      -0.578  0.707 -0.407  0.000 -0.000
      -0.578 -0.707 -0.407  0.000  0.000
       0.000 -0.000  0.000 -0.000 -1.000
      -0.576  0.000  0.817  0.000  0.000
     occupation matrix ns (before diag.):
       0.997  0.000  0.000  0.000  0.000
       0.000  0.995 -0.000  0.000 -0.000
       0.000 -0.000  0.995 -0.000 -0.000
       0.000  0.000 -0.000  0.997 -0.000
       0.000 -0.000 -0.000 -0.000  0.995
     ------------------------ ATOM   53 ------------------------
     Tr[ns( 53)] =   4.55565
     eigenvalues:
       0.759  0.759  0.759
     eigenvectors (columns):
       0.485  0.707 -0.514
       0.485 -0.707 -0.514
       0.727  0.000  0.686
     occupation matrix ns (before diag.):
       0.759  0.000 -0.000
       0.000  0.759 -0.000
      -0.000 -0.000  0.759
     ------------------------ ATOM   54 ------------------------
     Tr[ns( 54)] =   4.55565
     eigenvalues:
       0.759  0.759  0.759
     eigenvectors (columns):
      -0.727  0.000 -0.686
      -0.485 -0.707  0.514
      -0.485  0.707  0.514
     occupation matrix ns (before diag.):
       0.759 -0.000 -0.000
      -0.000  0.759  0.000
      -0.000  0.000  0.759
     ------------------------ ATOM   55 ------------------------
     Tr[ns( 55)] =   4.55566
     eigenvalues:
       0.759  0.759  0.759
     eigenvectors (columns):
       0.577 -0.408  0.707
       0.577 -0.408 -0.707
       0.577  0.816  0.000
     occupation matrix ns (before diag.):
       0.759 -0.000 -0.000
      -0.000  0.759 -0.000
      -0.000 -0.000  0.759
     ------------------------ ATOM   56 ------------------------
     Tr[ns( 56)] =   4.55565
     eigenvalues:
       0.759  0.759  0.759
     eigenvectors (columns):
       0.485 -0.707  0.514
       0.727 -0.000 -0.686
       0.485  0.707  0.514
     occupation matrix ns (before diag.):
       0.759 -0.000  0.000
      -0.000  0.759 -0.000
       0.000 -0.000  0.759
     ------------------------ ATOM   57 ------------------------
     Tr[ns( 57)] =   9.95685
     eigenvalues:
       0.995  0.995  0.995  0.997  0.997
     eigenvectors (columns):
       0.000  0.000 -0.000 -0.133 -0.991
       0.338 -0.046 -0.940  0.000  0.000
       0.661 -0.699  0.272  0.000  0.000
      -0.000 -0.000  0.000  0.991 -0.133
      -0.670 -0.714 -0.206 -0.000 -0.000
     occupation matrix ns (before diag.):
       0.997 -0.000 -0.000  0.000  0.000
      -0.000  0.995 -0.000  0.000  0.000
      -0.000 -0.000  0.995  0.000  0.000
       0.000  0.000  0.000  0.997 -0.000
       0.000  0.000  0.000 -0.000  0.995
     ------------------------ ATOM   58 ------------------------
     Tr[ns( 58)] =   9.95686
     eigenvalues:
       0.995  0.995  0.995  0.997  0.997
     eigenvectors (columns):
      -0.000  0.000 -0.000 -0.866 -0.500
      -0.707  0.044  0.706  0.000 -0.000
       0.000 -0.998  0.062  0.000 -0.000
      -0.000 -0.000  0.000 -0.500  0.866
      -0.707 -0.044 -0.706  0.000  0.000
     occupation matrix ns (before diag.):
       0.997 -0.000  0.000 -0.000 -0.000
      -0.000  0.995  0.000 -0.000 -0.000
       0.000  0.000  0.995 -0.000 -0.000
      -0.000 -0.000 -0.000  0.997 -0.000
      -0.000 -0.000 -0.000 -0.000  0.995
     ------------------------ ATOM   59 ------------------------
     Tr[ns( 59)] =   9.95686
     eigenvalues:
       0.995  0.995  0.995  0.997  0.997
     eigenvectors (columns):
       0.000 -0.000 -0.000 -0.866 -0.500
      -0.000  0.998  0.062  0.000 -0.000
       0.707 -0.044  0.706  0.000 -0.000
      -0.000 -0.000 -0.000  0.500 -0.866
       0.707  0.044 -0.706  0.000  0.000
     occupation matrix ns (before diag.):
       0.997  0.000 -0.000  0.000 -0.000
       0.000  0.995  0.000  0.000 -0.000
      -0.000  0.000  0.995  0.000 -0.000
       0.000  0.000  0.000  0.997  0.000
      -0.000 -0.000 -0.000  0.000  0.995
     ------------------------ ATOM   60 ------------------------
     Tr[ns( 60)] =   9.95686
     eigenvalues:
       0.995  0.995  0.995  0.997  0.997
     eigenvectors (columns):
       0.000 -0.000 -0.000 -0.000  1.000
      -0.707  0.044 -0.706  0.000 -0.000
       0.707  0.044 -0.706 -0.000 -0.000
      -0.000  0.000  0.000 -1.000 -0.000
      -0.000  0.998  0.062  0.000  0.000
     occupation matrix ns (before diag.):
       0.997 -0.000 -0.000  0.000  0.000
      -0.000  0.995  0.000 -0.000 -0.000
      -0.000  0.000  0.995  0.000 -0.000
       0.000 -0.000  0.000  0.997 -0.000
       0.000 -0.000 -0.000 -0.000  0.995
     ------------------------ ATOM   61 ------------------------
     Tr[ns( 61)] =   4.55565
     eigenvalues:
       0.759  0.759  0.759
     eigenvectors (columns):
       0.707  0.190 -0.681
       0.000 -0.963 -0.268
       0.707 -0.190  0.681
     occupation matrix ns (before diag.):
       0.759  0.000 -0.000
       0.000  0.759 -0.000
      -0.000 -0.000  0.759
     ------------------------ ATOM   62 ------------------------
     Tr[ns( 62)] =   4.55567
     eigenvalues:
       0.759  0.759  0.759
     eigenvectors (columns):
       0.627 -0.523 -0.577
       0.766  0.282  0.577
      -0.139 -0.805  0.577
     occupation matrix ns (before diag.):
       0.759 -0.000 -0.000
      -0.000  0.759  0.000
      -0.000  0.000  0.759
     ------------------------ ATOM   63 ------------------------
     Tr[ns( 63)] =   4.55565
     eigenvalues:
       0.759  0.759  0.759
     eigenvectors (columns):
       0.000  0.963  0.268
       0.707 -0.190  0.681
      -0.707 -0.190  0.681
     occupation matrix ns (before diag.):
       0.759  0.000  0.000
       0.000  0.759  0.000
       0.000  0.000  0.759
     ------------------------ ATOM   64 ------------------------
     Tr[ns( 64)] =   4.55565
     eigenvalues:
       0.759  0.759  0.759
     eigenvectors (columns):
       0.707  0.190 -0.681
       0.707 -0.190  0.681
       0.000 -0.963 -0.268
     occupation matrix ns (before diag.):
       0.759 -0.000  0.000
      -0.000  0.759 -0.000
       0.000 -0.000  0.759

     Number of occupied Hubbard levels =  464.4005

     Atomic wfc used for Hubbard projectors are orthogonalized

     Starting wfcs from file
     Checking if some PAW data can be deallocated... 
       PAW data deallocated on  560 nodes for type:  1
       PAW data deallocated on  560 nodes for type:  2

     Band Structure Calculation
     Davidson diagonalization with overlap

     Computing kpt #:     1  of     1 on this pool
     total cpu time spent up to now is       44.2 secs

     ethr =  1.74E-10,  avg # of iterations = 63.7

     total cpu time spent up to now is       44.2 secs

     End of band structure calculation

          k = 0.0000 0.0000 0.0000 (158355 PWs)   bands (ev):

    -7.3988  -6.8617  -6.8617  -6.8617  -6.8617  -6.8617  -6.8616  -6.5421
    -6.5421  -6.5421  -6.5421  -6.5421  -6.5421  -6.5421  -6.5421  -6.5420
    -6.5420  -6.5420  -6.5420  -6.5197  -6.5197  -6.5197  -6.5197  -6.2246
    -6.2246  -6.2246  -6.2185  -6.2185  -6.2185  -6.2184  -6.2184  -6.2184
    -1.1508  -1.1508  -1.1508  -1.1508  -1.1508  -1.1508  -1.1406  -1.1406
    -1.1406  -1.1122  -1.1122  -1.1122  -1.0340  -1.0340  -1.0340  -1.0340
    -1.0340  -1.0340  -1.0340  -1.0340  -1.0211  -1.0211  -1.0211  -1.0211
    -1.0211  -1.0211  -1.0211  -1.0211  -1.0211  -1.0210  -1.0210  -1.0210
    -1.0023  -1.0023  -1.0023  -1.0023  -1.0023  -1.0023  -1.0023  -1.0023
    -1.0023  -1.0022  -1.0022  -1.0022  -0.9995  -0.9995  -0.9995  -0.9995
    -0.9994  -0.9994  -0.9936  -0.9936  -0.9936  -0.9936  -0.9936  -0.9936
    -0.9936  -0.9936  -0.9936  -0.9935  -0.9935  -0.9935  -0.8850  -0.8850
    -0.8850  -0.8849  -0.8849  -0.8849  -0.8266  -0.8266  -0.8266  -0.8266
    -0.8266  -0.8266  -0.8266  -0.8266  -0.8266  -0.8265  -0.8265  -0.8265
    -0.8222  -0.8222  -0.8222  -0.8222  -0.8222  -0.8222  -0.7244  -0.7244
    -0.7244  -0.7244  -0.7243  -0.7243  -0.7234  -0.7234  -0.7234  -0.7234
    -0.7233  -0.7233  -0.7220  -0.7220  -0.7220  -0.7220  -0.7220  -0.7220
    -0.7030  -0.7029  -0.7029  -0.7029  -0.7029  -0.7029  -0.7029  -0.7028
    -0.7028  -0.7028  -0.7027  -0.7027  -0.6898  -0.6898  -0.6602  -0.6602
    -0.6602  -0.6602  -0.6602  -0.6602  -0.6601  -0.6601  -0.6543  -0.6542
    -0.6542  -0.6542  -0.6541  -0.6541  -0.6186  -0.6186  -0.6186  -0.6151
    -0.6151  -0.6151  -0.6151  -0.6150  -0.6150  -0.6150  -0.6150  -0.6150
    -0.6150  -0.6150  -0.6150  -0.4659  -0.4659  -0.4659  -0.4659  -0.4429
    -0.4429  -0.4429  -0.2764  -0.2764  -0.2764  -0.2763  -0.2763  -0.2763
     0.2589   0.2589   0.2589   0.2589   0.8636   0.8636   0.8636   0.9021
     0.9021   0.9022   0.9022   0.9022   0.9023   1.4842   1.4842   1.4842
     1.4842   1.4842   1.4842   1.4842   1.4842   1.4842   1.4842   1.4842
     1.4843   2.7198   2.7199   2.7199   2.7199   2.7199   2.7199   2.7523
     2.7523   2.7523   2.7524   2.7524   2.7524   2.8254   2.8254   2.8254
     2.8254   2.8254   2.8254   2.9424   2.9424   2.9424   2.9424   2.9424
     2.9424   2.9424   2.9424   2.9424   2.9425   2.9425   2.9425   3.2231
     3.2231   3.2231   3.2231   3.2231   3.2231   4.1620   4.1620   4.1620
     4.1621   4.1621   4.1621   4.1621   4.1621   4.1621   4.1621   4.1621
     4.1621   4.4774   4.4774   4.4774   4.4774   4.4774   4.4774   4.4774
     4.4774   4.4774   4.4774   4.4774   4.4774   4.5142   4.5142   4.5142
     4.5142   4.5142   4.5142   4.5142   4.5142   5.3331   5.3331   5.3331
     7.5796   8.8028   8.8028   8.8028   8.8028   8.9950   8.9950   8.9950
     9.5495   9.5495   9.5495   9.9362   9.9362   9.9362   9.9362   9.9362
     9.9363  10.1024  10.1024  10.1024  10.1024  10.1024  10.1024  10.2837
    10.2837  10.2837  10.2837  10.2837  10.2837  10.2837  10.2837  10.2837
    10.2837  10.2837  10.2838  11.1931  11.1931  11.1931  11.1932  11.1932
    11.1932  11.4060  11.4060  11.4061  11.4061  11.4061  11.4061  11.9269
    11.9269  11.9269  12.1429  12.1429  12.1429  12.1429  12.1429  12.1429
    12.1429

     occupation numbers 
     1.0000   1.0000   1.0000   1.0000   1.0000   1.0000   1.0000   1.0000
     1.0000   1.0000   1.0000   1.0000   1.0000   1.0000   1.0000   1.0000
     1.0000   1.0000   1.0000   1.0000   1.0000   1.0000   1.0000   1.0000
     1.0000   1.0000   1.0000   1.0000   1.0000   1.0000   1.0000   1.0000
     1.0000   1.0000   1.0000   1.0000   1.0000   1.0000   1.0000   1.0000
     1.0000   1.0000   1.0000   1.0000   1.0000   1.0000   1.0000   1.0000
     1.0000   1.0000   1.0000   1.0000   1.0000   1.0000   1.0000   1.0000
     1.0000   1.0000   1.0000   1.0000   1.0000   1.0000   1.0000   1.0000
     1.0000   1.0000   1.0000   1.0000   1.0000   1.0000   1.0000   1.0000
     1.0000   1.0000   1.0000   1.0000   1.0000   1.0000   1.0000   1.0000
     1.0000   1.0000   1.0000   1.0000   1.0000   1.0000   1.0000   1.0000
     1.0000   1.0000   1.0000   1.0000   1.0000   1.0000   1.0000   1.0000
     1.0000   1.0000   1.0000   1.0000   1.0000   1.0000   1.0000   1.0000
     1.0000   1.0000   1.0000   1.0000   1.0000   1.0000   1.0000   1.0000
     1.0000   1.0000   1.0000   1.0000   1.0000   1.0000   1.0000   1.0000
     1.0000   1.0000   1.0000   1.0000   1.0000   1.0000   1.0000   1.0000
     1.0000   1.0000   1.0000   1.0000   1.0000   1.0000   1.0000   1.0000
     1.0000   1.0000   1.0000   1.0000   1.0000   1.0000   1.0000   1.0000
     1.0000   1.0000   1.0000   1.0000   1.0000   1.0000   1.0000   1.0000
     1.0000   1.0000   1.0000   1.0000   1.0000   1.0000   1.0000   1.0000
     1.0000   1.0000   1.0000   1.0000   1.0000   1.0000   1.0000   1.0000
     1.0000   1.0000   1.0000   1.0000   1.0000   1.0000   1.0000   1.0000
     1.0000   1.0000   1.0000   1.0000   1.0000   1.0000   1.0000   1.0000
     1.0000   1.0000   1.0000   1.0000   1.0000   1.0000   1.0000   1.0000
     1.0000   1.0000   1.0000   1.0000   1.0000   1.0000   1.0000   1.0000
     1.0000   1.0000   1.0000   1.0000   1.0000   1.0000   1.0000   1.0000
     1.0000   1.0000   1.0000   1.0000   1.0000   1.0000   1.0000   1.0000
     1.0000   1.0000   1.0000   1.0000   1.0000   1.0000   1.0000   1.0000
     1.0000   1.0000   1.0000   1.0000   1.0000   1.0000   1.0000   1.0000
     1.0000   1.0000   1.0000   1.0000   1.0000   1.0000   1.0000   1.0000
     1.0000   1.0000   1.0000   1.0000   1.0000   1.0000   1.0000   1.0000
     1.0000   1.0000   1.0000   1.0000   1.0000   1.0000   1.0000   1.0000
     1.0000   1.0000   1.0000   1.0000   1.0000   1.0000   1.0000   1.0000
     1.0000   1.0000   1.0000   1.0000   1.0000   1.0000   1.0000   1.0000
     1.0000   1.0000   1.0000   1.0000   1.0000   1.0000   1.0000   1.0000
     1.0000   1.0000   1.0000   1.0000   1.0000   1.0000   1.0000   1.0000
     0.0000   0.0000   0.0000   0.0000   0.0000   0.0000   0.0000   0.0000
     0.0000   0.0000   0.0000   0.0000   0.0000   0.0000   0.0000   0.0000
     0.0000   0.0000   0.0000   0.0000   0.0000   0.0000   0.0000   0.0000
     0.0000   0.0000   0.0000   0.0000   0.0000   0.0000   0.0000   0.0000
     0.0000   0.0000   0.0000   0.0000   0.0000   0.0000   0.0000   0.0000
     0.0000   0.0000   0.0000   0.0000   0.0000   0.0000   0.0000   0.0000
     0.0000   0.0000   0.0000   0.0000   0.0000   0.0000   0.0000   0.0000
     0.0000

          k = 0.0000 0.0000 0.2500 (158119 PWs)   bands (ev):

    -7.3608  -7.0774  -6.8377  -6.8376  -6.8376  -6.8376  -6.6652  -6.6652
    -6.6652  -6.6651  -6.6316  -6.5388  -6.5388  -6.5388  -6.5388  -6.5230
    -6.5230  -6.5230  -6.5230  -6.4184  -6.4184  -6.4184  -6.4183  -6.2775
    -6.2431  -6.2430  -6.2430  -6.2430  -6.2237  -6.2237  -6.2193  -6.2193
    -1.1547  -1.1436  -1.1368  -1.1337  -1.1337  -1.1337  -1.1337  -1.1312
    -1.1312  -1.1136  -1.0953  -1.0953  -1.0592  -1.0592  -1.0329  -1.0329
    -1.0329  -1.0329  -1.0299  -1.0299  -1.0299  -1.0299  -1.0287  -1.0287
    -1.0286  -1.0286  -1.0242  -1.0242  -1.0242  -1.0242  -1.0215  -1.0215
    -1.0215  -1.0215  -1.0150  -1.0150  -1.0132  -1.0132  -1.0132  -1.0132
    -1.0063  -1.0063  -1.0063  -1.0063  -1.0003  -1.0003  -1.0003  -1.0002
    -1.0000  -1.0000  -0.9999  -0.9999  -0.9975  -0.9974  -0.9974  -0.9974
    -0.9659  -0.9658  -0.9658  -0.9658  -0.9394  -0.9394  -0.9265  -0.9265
    -0.9265  -0.9264  -0.9025  -0.9024  -0.9024  -0.9024  -0.8776  -0.8776
    -0.8379  -0.8379  -0.8338  -0.8338  -0.8178  -0.8178  -0.7990  -0.7990
    -0.7990  -0.7990  -0.7697  -0.7697  -0.7567  -0.7567  -0.7567  -0.7567
    -0.7273  -0.7273  -0.7273  -0.7272  -0.7181  -0.7176  -0.7176  -0.7176
    -0.7176  -0.7105  -0.7105  -0.7105  -0.7104  -0.7037  -0.7037  -0.7037
    -0.7036  -0.7021  -0.6959  -0.6959  -0.6959  -0.6958  -0.6939  -0.6877
    -0.6877  -0.6877  -0.6877  -0.6870  -0.6774  -0.6774  -0.6734  -0.6734
    -0.6734  -0.6734  -0.6678  -0.6658  -0.6658  -0.6658  -0.6658  -0.6547
    -0.6546  -0.6546  -0.6546  -0.6407  -0.6403  -0.6403  -0.6403  -0.6402
    -0.6247  -0.6247  -0.6213  -0.6113  -0.6113  -0.6112  -0.6112  -0.5424
    -0.5423  -0.5423  -0.5423  -0.5272  -0.5271  -0.5271  -0.5271  -0.5139
    -0.4172  -0.4172  -0.3096  -0.3095  -0.3095  -0.3095  -0.3001  -0.3001
     0.4227   0.4227   0.4227   0.4227   0.8683   0.8683   0.8954   0.8954
     0.9158   0.9158   0.9158   0.9159   1.0563   1.1860   1.1860   1.1860
     1.1861   1.2366   1.2366   1.2366   1.2366   1.8610   1.8610   1.8610
     1.8610   2.1364   2.5003   2.5003   2.5003   2.5003   2.6457   2.6457
     2.6457   2.6457   2.6512   2.6513   2.6513   2.6513   2.7905   2.7905
     2.8170   2.8170   3.1454   3.1454   3.1489   3.1489   3.1597   3.1598
     3.1598   3.1598   3.2402   3.2402   3.2402   3.2402   3.2907   3.2907
     3.3213   3.3213   3.3213   3.3214   3.5586   3.7869   3.7869   4.0362
     4.0362   4.0362   4.0362   4.1537   4.1537   4.1537   4.1537   4.2799
     4.2800   4.2800   4.2800   4.3067   4.3067   4.3067   4.3067   4.4827
     4.4827   4.4827   4.4827   4.5087   4.5087   4.5087   4.5087   4.5685
     4.5685   4.5789   4.5790   4.5790   4.5790   4.9922   5.2284   5.2284
     7.9547   9.0158   9.0158   9.0158   9.0158   9.0699   9.2190   9.2190
     9.4660   9.6179   9.6390   9.7543   9.7543   9.9844  10.0063  10.0063
    10.0063  10.0063  10.0548  10.0548  10.0548  10.0548  10.2504  10.2504
    10.2504  10.2505  10.3255  10.3255  10.3255  10.3255  10.4023  10.4024
    10.4024  10.4024  10.6491  10.6571  10.6571  11.0012  11.0013  11.0013
    11.0013  11.0028  11.0028  11.5310  11.5310  11.5310  11.5310  11.7199
    11.8080  11.8080  11.8080  11.8080  11.9770  11.9770  11.9770  11.9771
    11.9972

     occupation numbers 
     1.0000   1.0000   1.0000   1.0000   1.0000   1.0000   1.0000   1.0000
     1.0000   1.0000   1.0000   1.0000   1.0000   1.0000   1.0000   1.0000
     1.0000   1.0000   1.0000   1.0000   1.0000   1.0000   1.0000   1.0000
     1.0000   1.0000   1.0000   1.0000   1.0000   1.0000   1.0000   1.0000
     1.0000   1.0000   1.0000   1.0000   1.0000   1.0000   1.0000   1.0000
     1.0000   1.0000   1.0000   1.0000   1.0000   1.0000   1.0000   1.0000
     1.0000   1.0000   1.0000   1.0000   1.0000   1.0000   1.0000   1.0000
     1.0000   1.0000   1.0000   1.0000   1.0000   1.0000   1.0000   1.0000
     1.0000   1.0000   1.0000   1.0000   1.0000   1.0000   1.0000   1.0000
     1.0000   1.0000   1.0000   1.0000   1.0000   1.0000   1.0000   1.0000
     1.0000   1.0000   1.0000   1.0000   1.0000   1.0000   1.0000   1.0000
     1.0000   1.0000   1.0000   1.0000   1.0000   1.0000   1.0000   1.0000
     1.0000   1.0000   1.0000   1.0000   1.0000   1.0000   1.0000   1.0000
     1.0000   1.0000   1.0000   1.0000   1.0000   1.0000   1.0000   1.0000
     1.0000   1.0000   1.0000   1.0000   1.0000   1.0000   1.0000   1.0000
     1.0000   1.0000   1.0000   1.0000   1.0000   1.0000   1.0000   1.0000
     1.0000   1.0000   1.0000   1.0000   1.0000   1.0000   1.0000   1.0000
     1.0000   1.0000   1.0000   1.0000   1.0000   1.0000   1.0000   1.0000
     1.0000   1.0000   1.0000   1.0000   1.0000   1.0000   1.0000   1.0000
     1.0000   1.0000   1.0000   1.0000   1.0000   1.0000   1.0000   1.0000
     1.0000   1.0000   1.0000   1.0000   1.0000   1.0000   1.0000   1.0000
     1.0000   1.0000   1.0000   1.0000   1.0000   1.0000   1.0000   1.0000
     1.0000   1.0000   1.0000   1.0000   1.0000   1.0000   1.0000   1.0000
     1.0000   1.0000   1.0000   1.0000   1.0000   1.0000   1.0000   1.0000
     1.0000   1.0000   1.0000   1.0000   1.0000   1.0000   1.0000   1.0000
     1.0000   1.0000   1.0000   1.0000   1.0000   1.0000   1.0000   1.0000
     1.0000   1.0000   1.0000   1.0000   1.0000   1.0000   1.0000   1.0000
     1.0000   1.0000   1.0000   1.0000   1.0000   1.0000   1.0000   1.0000
     1.0000   1.0000   1.0000   1.0000   1.0000   1.0000   1.0000   1.0000
     1.0000   1.0000   1.0000   1.0000   1.0000   1.0000   1.0000   1.0000
     1.0000   1.0000   1.0000   1.0000   1.0000   1.0000   1.0000   1.0000
     1.0000   1.0000   1.0000   1.0000   1.0000   1.0000   1.0000   1.0000
     1.0000   1.0000   1.0000   1.0000   1.0000   1.0000   1.0000   1.0000
     1.0000   1.0000   1.0000   1.0000   1.0000   1.0000   1.0000   1.0000
     1.0000   1.0000   1.0000   1.0000   1.0000   1.0000   1.0000   1.0000
     1.0000   1.0000   1.0000   1.0000   1.0000   1.0000   1.0000   1.0000
     0.0000   0.0000   0.0000   0.0000   0.0000   0.0000   0.0000   0.0000
     0.0000   0.0000   0.0000   0.0000   0.0000   0.0000   0.0000   0.0000
     0.0000   0.0000   0.0000   0.0000   0.0000   0.0000   0.0000   0.0000
     0.0000   0.0000   0.0000   0.0000   0.0000   0.0000   0.0000   0.0000
     0.0000   0.0000   0.0000   0.0000   0.0000   0.0000   0.0000   0.0000
     0.0000   0.0000   0.0000   0.0000   0.0000   0.0000   0.0000   0.0000
     0.0000   0.0000   0.0000   0.0000   0.0000   0.0000   0.0000   0.0000
     0.0000

          k = 0.0000 0.0000-0.5000 (157924 PWs)   bands (ev):

    -7.2502  -7.2501  -6.7689  -6.7688  -6.7688  -6.7688  -6.7688  -6.7688
    -6.7688  -6.7687  -6.5309  -6.5309  -6.5309  -6.5309  -6.5308  -6.5308
    -6.5308  -6.5308  -6.4238  -6.4237  -6.3133  -6.3133  -6.3133  -6.3133
    -6.3132  -6.3132  -6.3132  -6.3132  -6.2216  -6.2216  -6.2215  -6.2215
    -1.1503  -1.1500  -1.1214  -1.1213  -1.1036  -1.1036  -1.1033  -1.1033
    -1.0862  -1.0862  -1.0861  -1.0861  -1.0860  -1.0860  -1.0858  -1.0858
    -1.0547  -1.0546  -1.0545  -1.0544  -1.0298  -1.0297  -1.0296  -1.0296
    -1.0295  -1.0295  -1.0294  -1.0292  -1.0154  -1.0154  -1.0152  -1.0151
    -1.0151  -1.0151  -1.0151  -1.0151  -1.0150  -1.0150  -1.0150  -1.0149
    -1.0149  -1.0148  -1.0145  -1.0145  -1.0042  -1.0042  -1.0042  -1.0042
    -1.0040  -1.0040  -1.0040  -1.0040  -0.9793  -0.9792  -0.9792  -0.9792
    -0.9791  -0.9790  -0.9790  -0.9787  -0.9357  -0.9357  -0.9357  -0.9357
    -0.9356  -0.9355  -0.9355  -0.9354  -0.8807  -0.8807  -0.8804  -0.8804
    -0.8579  -0.8579  -0.8576  -0.8576  -0.8022  -0.8021  -0.8021  -0.8018
    -0.7387  -0.7387  -0.7387  -0.7386  -0.7385  -0.7384  -0.7384  -0.7383
    -0.7303  -0.7302  -0.7302  -0.7301  -0.7300  -0.7299  -0.7299  -0.7298
    -0.7072  -0.7071  -0.7070  -0.7070  -0.7069  -0.7069  -0.7067  -0.7067
    -0.7050  -0.7047  -0.6897  -0.6895  -0.6894  -0.6894  -0.6894  -0.6894
    -0.6893  -0.6890  -0.6806  -0.6803  -0.6803  -0.6803  -0.6802  -0.6802
    -0.6802  -0.6798  -0.6795  -0.6791  -0.6528  -0.6528  -0.6526  -0.6526
    -0.6525  -0.6525  -0.6523  -0.6523  -0.6440  -0.6439  -0.6438  -0.6437
    -0.6308  -0.6308  -0.6292  -0.6289  -0.5929  -0.5928  -0.5927  -0.5927
    -0.5926  -0.5926  -0.5924  -0.5924  -0.4108  -0.4108  -0.4108  -0.4108
    -0.4107  -0.4106  -0.4106  -0.4105  -0.3579  -0.3579  -0.3576  -0.3576
     0.7976   0.7976   0.7977   0.7977   0.7977   0.7977   0.7977   0.7977
     0.8807   0.8807   0.8808   0.8808   0.9951   0.9952   0.9952   0.9952
     0.9952   0.9952   0.9952   0.9953   1.5249   1.5250   2.2751   2.2751
     2.2751   2.2751   2.2751   2.2752   2.2752   2.2752   2.4817   2.4817
     2.4817   2.4817   2.4818   2.4818   2.4818   2.4818   2.9644   2.9644
     2.9645   2.9645   2.9783   2.9783   2.9783   2.9783   3.4857   3.4857
     3.4858   3.4858   3.6741   3.6741   3.6741   3.6741   3.6741   3.6741
     3.6742   3.6742   3.7176   3.7176   3.7176   3.7176   3.7177   3.7177
     3.7177   3.7177   3.8051   3.8051   3.8051   3.8051   3.8052   3.8052
     3.8052   3.8052   4.3065   4.3066   4.4804   4.4804   4.4805   4.4805
     4.4805   4.4805   4.4805   4.4805   4.4956   4.4956   4.4956   4.4956
     4.4957   4.4957   4.4957   4.4957   4.9486   4.9486   4.9486   4.9486
     8.7130   8.7131   9.2891   9.2892   9.5245   9.5245   9.5246   9.5246
     9.5246   9.5246   9.5246   9.5247   9.7982   9.7983   9.8298   9.8298
     9.8299   9.8299  10.1535  10.1535  10.1535  10.1535  10.1535  10.1535
    10.1535  10.1536  10.3021  10.3022  10.3022  10.3023  10.6723  10.6723
    10.6723  10.6723  10.6724  10.6724  10.6724  10.6724  10.9406  10.9406
    10.9407  10.9407  10.9407  10.9407  10.9407  10.9407  11.2274  11.2275
    11.7418  11.7419  11.7419  11.7419  11.7419  11.7419  11.7419  11.7419
    12.0595

     occupation numbers 
     1.0000   1.0000   1.0000   1.0000   1.0000   1.0000   1.0000   1.0000
     1.0000   1.0000   1.0000   1.0000   1.0000   1.0000   1.0000   1.0000
     1.0000   1.0000   1.0000   1.0000   1.0000   1.0000   1.0000   1.0000
     1.0000   1.0000   1.0000   1.0000   1.0000   1.0000   1.0000   1.0000
     1.0000   1.0000   1.0000   1.0000   1.0000   1.0000   1.0000   1.0000
     1.0000   1.0000   1.0000   1.0000   1.0000   1.0000   1.0000   1.0000
     1.0000   1.0000   1.0000   1.0000   1.0000   1.0000   1.0000   1.0000
     1.0000   1.0000   1.0000   1.0000   1.0000   1.0000   1.0000   1.0000
     1.0000   1.0000   1.0000   1.0000   1.0000   1.0000   1.0000   1.0000
     1.0000   1.0000   1.0000   1.0000   1.0000   1.0000   1.0000   1.0000
     1.0000   1.0000   1.0000   1.0000   1.0000   1.0000   1.0000   1.0000
     1.0000   1.0000   1.0000   1.0000   1.0000   1.0000   1.0000   1.0000
     1.0000   1.0000   1.0000   1.0000   1.0000   1.0000   1.0000   1.0000
     1.0000   1.0000   1.0000   1.0000   1.0000   1.0000   1.0000   1.0000
     1.0000   1.0000   1.0000   1.0000   1.0000   1.0000   1.0000   1.0000
     1.0000   1.0000   1.0000   1.0000   1.0000   1.0000   1.0000   1.0000
     1.0000   1.0000   1.0000   1.0000   1.0000   1.0000   1.0000   1.0000
     1.0000   1.0000   1.0000   1.0000   1.0000   1.0000   1.0000   1.0000
     1.0000   1.0000   1.0000   1.0000   1.0000   1.0000   1.0000   1.0000
     1.0000   1.0000   1.0000   1.0000   1.0000   1.0000   1.0000   1.0000
     1.0000   1.0000   1.0000   1.0000   1.0000   1.0000   1.0000   1.0000
     1.0000   1.0000   1.0000   1.0000   1.0000   1.0000   1.0000   1.0000
     1.0000   1.0000   1.0000   1.0000   1.0000   1.0000   1.0000   1.0000
     1.0000   1.0000   1.0000   1.0000   1.0000   1.0000   1.0000   1.0000
     1.0000   1.0000   1.0000   1.0000   1.0000   1.0000   1.0000   1.0000
     1.0000   1.0000   1.0000   1.0000   1.0000   1.0000   1.0000   1.0000
     1.0000   1.0000   1.0000   1.0000   1.0000   1.0000   1.0000   1.0000
     1.0000   1.0000   1.0000   1.0000   1.0000   1.0000   1.0000   1.0000
[...]
     4.8494   4.8494   4.8494   4.8494   4.9398   4.9399   5.0521   5.0521
     8.8424   8.8424   9.1191   9.1192   9.4319   9.4319   9.4319   9.4320
     9.5699   9.5700   9.7129   9.7129   9.7130   9.7130   9.8249   9.8250
     9.8250   9.8250   9.8914   9.8915  10.0368  10.0368  10.0368  10.0368
    10.0807  10.0807  10.0807  10.0807  10.2665  10.2666  10.4522  10.4522
    10.4523  10.4524  10.7720  10.7721  10.7721  10.7721  11.0273  11.0273
    11.0273  11.0273  11.3687  11.3687  11.3688  11.3688  11.5591  11.5592
    11.6701  11.6701  11.6702  11.6702  11.7011  11.7012  11.7012  11.7012
    11.7371

     occupation numbers 
     1.0000   1.0000   1.0000   1.0000   1.0000   1.0000   1.0000   1.0000
     1.0000   1.0000   1.0000   1.0000   1.0000   1.0000   1.0000   1.0000
     1.0000   1.0000   1.0000   1.0000   1.0000   1.0000   1.0000   1.0000
     1.0000   1.0000   1.0000   1.0000   1.0000   1.0000   1.0000   1.0000
     1.0000   1.0000   1.0000   1.0000   1.0000   1.0000   1.0000   1.0000
     1.0000   1.0000   1.0000   1.0000   1.0000   1.0000   1.0000   1.0000
     1.0000   1.0000   1.0000   1.0000   1.0000   1.0000   1.0000   1.0000
     1.0000   1.0000   1.0000   1.0000   1.0000   1.0000   1.0000   1.0000
     1.0000   1.0000   1.0000   1.0000   1.0000   1.0000   1.0000   1.0000
     1.0000   1.0000   1.0000   1.0000   1.0000   1.0000   1.0000   1.0000
     1.0000   1.0000   1.0000   1.0000   1.0000   1.0000   1.0000   1.0000
     1.0000   1.0000   1.0000   1.0000   1.0000   1.0000   1.0000   1.0000
     1.0000   1.0000   1.0000   1.0000   1.0000   1.0000   1.0000   1.0000
     1.0000   1.0000   1.0000   1.0000   1.0000   1.0000   1.0000   1.0000
     1.0000   1.0000   1.0000   1.0000   1.0000   1.0000   1.0000   1.0000
     1.0000   1.0000   1.0000   1.0000   1.0000   1.0000   1.0000   1.0000
     1.0000   1.0000   1.0000   1.0000   1.0000   1.0000   1.0000   1.0000
     1.0000   1.0000   1.0000   1.0000   1.0000   1.0000   1.0000   1.0000
     1.0000   1.0000   1.0000   1.0000   1.0000   1.0000   1.0000   1.0000
     1.0000   1.0000   1.0000   1.0000   1.0000   1.0000   1.0000   1.0000
     1.0000   1.0000   1.0000   1.0000   1.0000   1.0000   1.0000   1.0000
     1.0000   1.0000   1.0000   1.0000   1.0000   1.0000   1.0000   1.0000
     1.0000   1.0000   1.0000   1.0000   1.0000   1.0000   1.0000   1.0000
     1.0000   1.0000   1.0000   1.0000   1.0000   1.0000   1.0000   1.0000
     1.0000   1.0000   1.0000   1.0000   1.0000   1.0000   1.0000   1.0000
     1.0000   1.0000   1.0000   1.0000   1.0000   1.0000   1.0000   1.0000
     1.0000   1.0000   1.0000   1.0000   1.0000   1.0000   1.0000   1.0000
     1.0000   1.0000   1.0000   1.0000   1.0000   1.0000   1.0000   1.0000
     1.0000   1.0000   1.0000   1.0000   1.0000   1.0000   1.0000   1.0000
     1.0000   1.0000   1.0000   1.0000   1.0000   1.0000   1.0000   1.0000
     1.0000   1.0000   1.0000   1.0000   1.0000   1.0000   1.0000   1.0000
     1.0000   1.0000   1.0000   1.0000   1.0000   1.0000   1.0000   1.0000
     1.0000   1.0000   1.0000   1.0000   1.0000   1.0000   1.0000   1.0000
     1.0000   1.0000   1.0000   1.0000   1.0000   1.0000   1.0000   1.0000
     1.0000   1.0000   1.0000   1.0000   1.0000   1.0000   1.0000   1.0000
     1.0000   1.0000   1.0000   1.0000   1.0000   1.0000   1.0000   1.0000
     0.0000   0.0000   0.0000   0.0000   0.0000   0.0000   0.0000   0.0000
     0.0000   0.0000   0.0000   0.0000   0.0000   0.0000   0.0000   0.0000
     0.0000   0.0000   0.0000   0.0000   0.0000   0.0000   0.0000   0.0000
     0.0000   0.0000   0.0000   0.0000   0.0000   0.0000   0.0000   0.0000
     0.0000   0.0000   0.0000   0.0000   0.0000   0.0000   0.0000   0.0000
     0.0000   0.0000   0.0000   0.0000   0.0000   0.0000   0.0000   0.0000
     0.0000   0.0000   0.0000   0.0000   0.0000   0.0000   0.0000   0.0000
     0.0000

          k = 0.2500-0.5000-0.5000 (158052 PWs)   bands (ev):

    -7.0846  -7.0846  -7.0846  -7.0845  -6.8614  -6.8614  -6.8614  -6.8612
    -6.5288  -6.5288  -6.5288  -6.5287  -6.3873  -6.3873  -6.3873  -6.3873
    -6.3873  -6.3873  -6.3872  -6.3872  -6.3765  -6.3765  -6.3765  -6.3765
    -6.3765  -6.3765  -6.3764  -6.3764  -6.2819  -6.2819  -6.2819  -6.2818
    -1.1024  -1.1024  -1.1024  -1.1024  -1.0921  -1.0921  -1.0920  -1.0920
    -1.0781  -1.0779  -1.0779  -1.0775  -1.0704  -1.0702  -1.0702  -1.0700
    -1.0530  -1.0530  -1.0529  -1.0529  -1.0514  -1.0514  -1.0513  -1.0513
    -1.0512  -1.0512  -1.0511  -1.0510  -1.0478  -1.0477  -1.0477  -1.0475
    -1.0374  -1.0373  -1.0373  -1.0371  -1.0248  -1.0248  -1.0248  -1.0248
    -1.0246  -1.0246  -1.0246  -1.0245  -1.0023  -1.0022  -1.0022  -1.0022
    -0.9745  -0.9745  -0.9744  -0.9744  -0.9528  -0.9528  -0.9528  -0.9527
    -0.9527  -0.9525  -0.9525  -0.9525  -0.9188  -0.9187  -0.9187  -0.9186
    -0.9186  -0.9185  -0.9185  -0.9182  -0.8925  -0.8925  -0.8924  -0.8924
    -0.8523  -0.8522  -0.8522  -0.8522  -0.8442  -0.8442  -0.8441  -0.8441
    -0.8440  -0.8440  -0.8438  -0.8438  -0.7888  -0.7888  -0.7888  -0.7887
    -0.7599  -0.7599  -0.7598  -0.7598  -0.7596  -0.7596  -0.7595  -0.7594
    -0.6998  -0.6996  -0.6996  -0.6992  -0.6936  -0.6934  -0.6934  -0.6930
    -0.6812  -0.6810  -0.6810  -0.6806  -0.6725  -0.6723  -0.6723  -0.6719
    -0.6612  -0.6610  -0.6609  -0.6609  -0.6608  -0.6608  -0.6607  -0.6604
    -0.6528  -0.6526  -0.6526  -0.6523  -0.6493  -0.6491  -0.6491  -0.6488
    -0.6443  -0.6442  -0.6441  -0.6441  -0.6440  -0.6440  -0.6438  -0.6436
    -0.6185  -0.6183  -0.6183  -0.6181  -0.5421  -0.5421  -0.5420  -0.5420
    -0.5419  -0.5419  -0.5418  -0.5418  -0.4306  -0.4306  -0.4305  -0.4305
    -0.4305  -0.4304  -0.4302  -0.4302  -0.3725  -0.3723  -0.3723  -0.3721
     0.7398   0.7398   0.7399   0.7399   0.7399   0.7399   0.7399   0.7400
     0.8802   0.8802   0.8802   0.8803   1.2285   1.2286   1.2286   1.2287
     1.2368   1.2368   1.2368   1.2368   1.2369   1.2369   1.2369   1.2369
     2.0549   2.0550   2.0550   2.0550   2.5647   2.5647   2.5647   2.5647
     3.0571   3.0572   3.0572   3.0572   3.0572   3.0572   3.0572   3.0572
     3.0775   3.0775   3.0776   3.0776   3.0776   3.0776   3.0776   3.0776
     3.1192   3.1192   3.1192   3.1192   3.6373   3.6373   3.6373   3.6373
     3.6374   3.6374   3.6374   3.6374   3.6557   3.6557   3.6557   3.6558
     3.6701   3.6701   3.6701   3.6701   3.9241   3.9241   3.9241   3.9241
     3.9241   3.9241   3.9241   3.9242   4.0496   4.0496   4.0497   4.0497
     4.6271   4.6271   4.6272   4.6272   4.7196   4.7197   4.7197   4.7198
     4.7256   4.7256   4.7256   4.7257   5.0754   5.0754   5.0755   5.0755
     9.0279   9.0279   9.0279   9.0280   9.1416   9.1416   9.1416   9.1417
     9.7169   9.7169   9.7170   9.7170   9.8364   9.8364   9.8364   9.8365
     9.8909   9.8909   9.8909   9.8909   9.8910   9.8910   9.8910   9.8910
    10.0733  10.0733  10.0733  10.0733  10.0733  10.0733  10.0733  10.0734
    10.8756  10.8756  10.8756  10.8756  10.8757  10.8757  10.8757  10.8757
    11.4049  11.4049  11.4049  11.4049  11.5044  11.5045  11.5045  11.5045
    11.6125  11.6125  11.6125  11.6125  11.6125  11.6126  11.6126  11.6126
    11.8727

     occupation numbers 
     1.0000   1.0000   1.0000   1.0000   1.0000   1.0000   1.0000   1.0000
     1.0000   1.0000   1.0000   1.0000   1.0000   1.0000   1.0000   1.0000
     1.0000   1.0000   1.0000   1.0000   1.0000   1.0000   1.0000   1.0000
     1.0000   1.0000   1.0000   1.0000   1.0000   1.0000   1.0000   1.0000
     1.0000   1.0000   1.0000   1.0000   1.0000   1.0000   1.0000   1.0000
     1.0000   1.0000   1.0000   1.0000   1.0000   1.0000   1.0000   1.0000
     1.0000   1.0000   1.0000   1.0000   1.0000   1.0000   1.0000   1.0000
     1.0000   1.0000   1.0000   1.0000   1.0000   1.0000   1.0000   1.0000
     1.0000   1.0000   1.0000   1.0000   1.0000   1.0000   1.0000   1.0000
     1.0000   1.0000   1.0000   1.0000   1.0000   1.0000   1.0000   1.0000
     1.0000   1.0000   1.0000   1.0000   1.0000   1.0000   1.0000   1.0000
     1.0000   1.0000   1.0000   1.0000   1.0000   1.0000   1.0000   1.0000
     1.0000   1.0000   1.0000   1.0000   1.0000   1.0000   1.0000   1.0000
     1.0000   1.0000   1.0000   1.0000   1.0000   1.0000   1.0000   1.0000
     1.0000   1.0000   1.0000   1.0000   1.0000   1.0000   1.0000   1.0000
     1.0000   1.0000   1.0000   1.0000   1.0000   1.0000   1.0000   1.0000
     1.0000   1.0000   1.0000   1.0000   1.0000   1.0000   1.0000   1.0000
     1.0000   1.0000   1.0000   1.0000   1.0000   1.0000   1.0000   1.0000
     1.0000   1.0000   1.0000   1.0000   1.0000   1.0000   1.0000   1.0000
     1.0000   1.0000   1.0000   1.0000   1.0000   1.0000   1.0000   1.0000
     1.0000   1.0000   1.0000   1.0000   1.0000   1.0000   1.0000   1.0000
     1.0000   1.0000   1.0000   1.0000   1.0000   1.0000   1.0000   1.0000
     1.0000   1.0000   1.0000   1.0000   1.0000   1.0000   1.0000   1.0000
     1.0000   1.0000   1.0000   1.0000   1.0000   1.0000   1.0000   1.0000
     1.0000   1.0000   1.0000   1.0000   1.0000   1.0000   1.0000   1.0000
     1.0000   1.0000   1.0000   1.0000   1.0000   1.0000   1.0000   1.0000
     1.0000   1.0000   1.0000   1.0000   1.0000   1.0000   1.0000   1.0000
     1.0000   1.0000   1.0000   1.0000   1.0000   1.0000   1.0000   1.0000
     1.0000   1.0000   1.0000   1.0000   1.0000   1.0000   1.0000   1.0000
     1.0000   1.0000   1.0000   1.0000   1.0000   1.0000   1.0000   1.0000
     1.0000   1.0000   1.0000   1.0000   1.0000   1.0000   1.0000   1.0000
     1.0000   1.0000   1.0000   1.0000   1.0000   1.0000   1.0000   1.0000
     1.0000   1.0000   1.0000   1.0000   1.0000   1.0000   1.0000   1.0000
     1.0000   1.0000   1.0000   1.0000   1.0000   1.0000   1.0000   1.0000
     1.0000   1.0000   1.0000   1.0000   1.0000   1.0000   1.0000   1.0000
     1.0000   1.0000   1.0000   1.0000   1.0000   1.0000   1.0000   1.0000
     0.0000   0.0000   0.0000   0.0000   0.0000   0.0000   0.0000   0.0000
     0.0000   0.0000   0.0000   0.0000   0.0000   0.0000   0.0000   0.0000
     0.0000   0.0000   0.0000   0.0000   0.0000   0.0000   0.0000   0.0000
     0.0000   0.0000   0.0000   0.0000   0.0000   0.0000   0.0000   0.0000
     0.0000   0.0000   0.0000   0.0000   0.0000   0.0000   0.0000   0.0000
     0.0000   0.0000   0.0000   0.0000   0.0000   0.0000   0.0000   0.0000
     0.0000   0.0000   0.0000   0.0000   0.0000   0.0000   0.0000   0.0000
     0.0000

          k =-0.5000-0.5000-0.5000 (158408 PWs)   bands (ev):

    -6.9963  -6.9963  -6.9963  -6.9963  -6.9963  -6.9963  -6.9963  -6.9961
    -6.3820  -6.3820  -6.3820  -6.3820  -6.3820  -6.3819  -6.3819  -6.3819
    -6.3819  -6.3819  -6.3819  -6.3819  -6.3819  -6.3819  -6.3819  -6.3819
    -6.3819  -6.3819  -6.3819  -6.3819  -6.3818  -6.3816  -6.3816  -6.3816
    -1.0780  -1.0780  -1.0780  -1.0779  -1.0779  -1.0779  -1.0779  -1.0779
    -1.0778  -1.0778  -1.0778  -1.0778  -1.0778  -1.0774  -1.0774  -1.0774
    -1.0631  -1.0631  -1.0631  -1.0631  -1.0629  -1.0628  -1.0628  -1.0628
    -1.0397  -1.0397  -1.0397  -1.0397  -1.0397  -1.0396  -1.0396  -1.0396
    -1.0396  -1.0395  -1.0395  -1.0395  -1.0395  -1.0395  -1.0395  -1.0394
    -1.0394  -1.0394  -1.0394  -1.0392  -1.0392  -1.0392  -1.0391  -1.0391
    -0.9295  -0.9295  -0.9295  -0.9294  -0.9294  -0.9294  -0.9293  -0.9293
    -0.9293  -0.9293  -0.9293  -0.9293  -0.9292  -0.9292  -0.9292  -0.9292
    -0.9292  -0.9292  -0.9292  -0.9292  -0.9292  -0.9288  -0.9288  -0.9288
    -0.8136  -0.8136  -0.8136  -0.8136  -0.8136  -0.8135  -0.8135  -0.8135
    -0.8134  -0.8134  -0.8134  -0.8134  -0.8134  -0.8134  -0.8134  -0.8134
    -0.8134  -0.8134  -0.8133  -0.8130  -0.8130  -0.8130  -0.8130  -0.8130
    -0.6881  -0.6881  -0.6878  -0.6878  -0.6878  -0.6878  -0.6878  -0.6878
    -0.6877  -0.6877  -0.6877  -0.6877  -0.6877  -0.6877  -0.6871  -0.6871
    -0.6485  -0.6485  -0.6481  -0.6481  -0.6481  -0.6481  -0.6481  -0.6481
    -0.6481  -0.6480  -0.6480  -0.6480  -0.6480  -0.6480  -0.6480  -0.6480
    -0.6480  -0.6480  -0.6479  -0.6479  -0.6479  -0.6479  -0.6471  -0.6471
    -0.4932  -0.4932  -0.4932  -0.4930  -0.4930  -0.4930  -0.4930  -0.4930
    -0.4929  -0.4929  -0.4929  -0.4929  -0.4929  -0.4929  -0.4929  -0.4929
    -0.4929  -0.4929  -0.4928  -0.4927  -0.4927  -0.4924  -0.4924  -0.4924
     0.9862   0.9862   0.9862   0.9862   0.9862   0.9862   0.9863   0.9863
     0.9863   0.9863   0.9863   0.9863   0.9863   0.9863   0.9863   0.9863
     0.9863   0.9863   0.9863   0.9863   0.9864   0.9864   0.9864   0.9866
     2.5862   2.5863   2.5863   2.5863   2.5863   2.5863   2.5863   2.5863
     3.0477   3.0477   3.0477   3.0477   3.0477   3.0477   3.0477   3.0477
     3.0477   3.0477   3.0477   3.0477   3.0477   3.0477   3.0477   3.0478
     3.0478   3.0478   3.0478   3.0479   3.0479   3.0479   3.0479   3.0479
     3.8197   3.8197   3.8197   3.8197   3.8197   3.8197   3.8198   3.8198
     3.8198   3.8198   3.8198   3.8198   3.8198   3.8198   3.8198   3.8198
     3.8198   3.8198   3.8199   3.8199   3.8199   3.8199   3.8199   3.8199
     4.8910   4.8910   4.8910   4.8910   4.8910   4.8911   4.8911   4.8911
     4.8911   4.8911   4.8911   4.8911   4.8911   4.8912   4.8912   4.8912
     8.9407   8.9407   8.9407   8.9407   8.9408   8.9408   8.9408   8.9409
     9.8364   9.8364   9.8364   9.8364   9.8364   9.8364   9.8364   9.8364
     9.8364   9.8364   9.8364   9.8364   9.8365   9.8365   9.8365   9.8365
     9.8365   9.8365   9.8365   9.8365   9.8365   9.8365   9.8365   9.8366
    11.4233  11.4233  11.4233  11.4234  11.4234  11.4234  11.4234  11.4234
    11.4234  11.4234  11.4234  11.4234  11.4234  11.4234  11.4234  11.4234
    11.4234  11.4234  11.4234  11.4234  11.4235  11.4235  11.4235  11.4236
    12.3893

     occupation numbers 
     1.0000   1.0000   1.0000   1.0000   1.0000   1.0000   1.0000   1.0000
     1.0000   1.0000   1.0000   1.0000   1.0000   1.0000   1.0000   1.0000
     1.0000   1.0000   1.0000   1.0000   1.0000   1.0000   1.0000   1.0000
     1.0000   1.0000   1.0000   1.0000   1.0000   1.0000   1.0000   1.0000
     1.0000   1.0000   1.0000   1.0000   1.0000   1.0000   1.0000   1.0000
     1.0000   1.0000   1.0000   1.0000   1.0000   1.0000   1.0000   1.0000
     1.0000   1.0000   1.0000   1.0000   1.0000   1.0000   1.0000   1.0000
     1.0000   1.0000   1.0000   1.0000   1.0000   1.0000   1.0000   1.0000
     1.0000   1.0000   1.0000   1.0000   1.0000   1.0000   1.0000   1.0000
     1.0000   1.0000   1.0000   1.0000   1.0000   1.0000   1.0000   1.0000
     1.0000   1.0000   1.0000   1.0000   1.0000   1.0000   1.0000   1.0000
     1.0000   1.0000   1.0000   1.0000   1.0000   1.0000   1.0000   1.0000
     1.0000   1.0000   1.0000   1.0000   1.0000   1.0000   1.0000   1.0000
     1.0000   1.0000   1.0000   1.0000   1.0000   1.0000   1.0000   1.0000
     1.0000   1.0000   1.0000   1.0000   1.0000   1.0000   1.0000   1.0000
     1.0000   1.0000   1.0000   1.0000   1.0000   1.0000   1.0000   1.0000
     1.0000   1.0000   1.0000   1.0000   1.0000   1.0000   1.0000   1.0000
     1.0000   1.0000   1.0000   1.0000   1.0000   1.0000   1.0000   1.0000
     1.0000   1.0000   1.0000   1.0000   1.0000   1.0000   1.0000   1.0000
     1.0000   1.0000   1.0000   1.0000   1.0000   1.0000   1.0000   1.0000
     1.0000   1.0000   1.0000   1.0000   1.0000   1.0000   1.0000   1.0000
     1.0000   1.0000   1.0000   1.0000   1.0000   1.0000   1.0000   1.0000
     1.0000   1.0000   1.0000   1.0000   1.0000   1.0000   1.0000   1.0000
     1.0000   1.0000   1.0000   1.0000   1.0000   1.0000   1.0000   1.0000
     1.0000   1.0000   1.0000   1.0000   1.0000   1.0000   1.0000   1.0000
     1.0000   1.0000   1.0000   1.0000   1.0000   1.0000   1.0000   1.0000
     1.0000   1.0000   1.0000   1.0000   1.0000   1.0000   1.0000   1.0000
     1.0000   1.0000   1.0000   1.0000   1.0000   1.0000   1.0000   1.0000
     1.0000   1.0000   1.0000   1.0000   1.0000   1.0000   1.0000   1.0000
     1.0000   1.0000   1.0000   1.0000   1.0000   1.0000   1.0000   1.0000
     1.0000   1.0000   1.0000   1.0000   1.0000   1.0000   1.0000   1.0000
     1.0000   1.0000   1.0000   1.0000   1.0000   1.0000   1.0000   1.0000
     1.0000   1.0000   1.0000   1.0000   1.0000   1.0000   1.0000   1.0000
     1.0000   1.0000   1.0000   1.0000   1.0000   1.0000   1.0000   1.0000
     1.0000   1.0000   1.0000   1.0000   1.0000   1.0000   1.0000   1.0000
     1.0000   1.0000   1.0000   1.0000   1.0000   1.0000   1.0000   1.0000
     0.0000   0.0000   0.0000   0.0000   0.0000   0.0000   0.0000   0.0000
     0.0000   0.0000   0.0000   0.0000   0.0000   0.0000   0.0000   0.0000
     0.0000   0.0000   0.0000   0.0000   0.0000   0.0000   0.0000   0.0000
     0.0000   0.0000   0.0000   0.0000   0.0000   0.0000   0.0000   0.0000
     0.0000   0.0000   0.0000   0.0000   0.0000   0.0000   0.0000   0.0000
     0.0000   0.0000   0.0000   0.0000   0.0000   0.0000   0.0000   0.0000
     0.0000   0.0000   0.0000   0.0000   0.0000   0.0000   0.0000   0.0000
     0.0000

     the Fermi energy is     7.4423 ev
     (compare with:     5.3327 eV, computed in scf)

     Writing all to output data dir ./out/ZnS_hub.save/
 
     init_run     :      4.91s CPU      5.81s WALL (       1 calls)
     electrons    :     37.06s CPU     37.35s WALL (       1 calls)

     Called by init_run:
     wfcinit      :      2.97s CPU      3.29s WALL (       1 calls)
     potinit      :      0.38s CPU      0.60s WALL (       1 calls)
     hinit0       :      0.21s CPU      0.35s WALL (       1 calls)

     Called by electrons:
     c_bands      :     37.02s CPU     37.30s WALL (       1 calls)
     v_of_rho     :      0.13s CPU      0.25s WALL (       1 calls)
     v_h          :      0.01s CPU      0.02s WALL (       1 calls)
     v_xc         :      0.12s CPU      0.23s WALL (       1 calls)
     newd         :      0.07s CPU      0.09s WALL (       1 calls)
     PAW_pot      :      0.09s CPU      0.10s WALL (       1 calls)

     Called by c_bands:
     init_us_2    :      0.03s CPU      0.04s WALL (       2 calls)
     init_us_2:cp :      0.03s CPU      0.04s WALL (       2 calls)
     cegterg      :     14.34s CPU     14.52s WALL (       3 calls)

     Called by sum_band:

     Called by *egterg:
     cdiaghg      :      2.89s CPU      2.92s WALL (      56 calls)
     cegterg:over :      1.03s CPU      1.04s WALL (      56 calls)
     cegterg:upda :      0.80s CPU      0.82s WALL (      56 calls)
     cegterg:last :      1.15s CPU      1.16s WALL (       8 calls)
     cdiaghg:chol :      0.18s CPU      0.18s WALL (      56 calls)
     cdiaghg:inve :      0.24s CPU      0.25s WALL (      56 calls)
     cdiaghg:para :      0.42s CPU      0.42s WALL (     112 calls)
     h_psi        :      6.81s CPU      6.89s WALL (      59 calls)
     s_psi        :      1.39s CPU      1.40s WALL (      60 calls)
     g_psi        :      0.02s CPU      0.02s WALL (      56 calls)

     Called by h_psi:
     h_psi:calbec :      1.11s CPU      1.12s WALL (      59 calls)
     vloc_psi     :      2.82s CPU      2.86s WALL (      59 calls)
     add_vuspsi   :      1.18s CPU      1.19s WALL (      59 calls)
     vhpsi        :      1.66s CPU      1.68s WALL (      59 calls)

     General routines
     calbec       :      1.55s CPU      1.56s WALL (     119 calls)
     fft          :      0.23s CPU      0.52s WALL (      12 calls)
     fftw         :      2.65s CPU      2.68s WALL (    6330 calls)
 
     Parallel routines

     Hubbard U routines
     vhpsi        :      1.66s CPU      1.68s WALL (      59 calls)

     PAW routines
     PAW_pot      :      0.09s CPU      0.10s WALL (       1 calls)
 
     PWSCF        :     43.62s CPU     53.10s WALL

 
   This run was terminated on:   4:30:19   1Jul2024            

=------------------------------------------------------------------------------=
   JOB DONE.
=------------------------------------------------------------------------------=
