# E (eV) pdosup(E)  pdosdw(E) 
  0.000  0.282E+01  0.282E+01
  0.010  0.327E+01  0.327E+01
  0.020  0.385E+01  0.385E+01
  0.030  0.334E+01  0.334E+01
  0.040  0.331E+01  0.331E+01
  0.050  0.294E+01  0.294E+01
  0.060  0.258E+01  0.258E+01
  0.070  0.294E+01  0.294E+01
  0.080  0.281E+01  0.281E+01
  0.090  0.293E+01  0.293E+01
  0.100  0.295E+01  0.295E+01
  0.110  0.284E+01  0.284E+01
  0.120  0.260E+01  0.260E+01
  0.130  0.209E+01  0.209E+01
  0.140  0.142E+01  0.142E+01
  0.150  0.976E+00  0.976E+00
  0.160  0.696E+00  0.696E+00
  0.170  0.492E+00  0.492E+00
  0.180  0.227E+00  0.227E+00
  0.190  0.332E-02  0.332E-02
  0.200  0.000E+00  0.000E+00
  0.210  0.000E+00  0.000E+00
  0.220  0.000E+00  0.000E+00
  0.230  0.000E+00  0.000E+00
  0.240  0.000E+00  0.000E+00
  0.250  0.000E+00  0.000E+00
  0.260  0.000E+00  0.000E+00
  0.270  0.000E+00  0.000E+00
  0.280  0.000E+00  0.000E+00
  0.290  0.000E+00  0.000E+00
  0.300  0.000E+00  0.000E+00
  0.310  0.000E+00  0.000E+00
  0.320  0.000E+00  0.000E+00
  0.330  0.000E+00  0.000E+00
  0.340  0.245E-04  0.245E-04
  0.350  0.496E-03  0.496E-03
  0.360  0.558E-02  0.558E-02
  0.370  0.258E-01  0.258E-01
  0.380  0.643E-01  0.643E-01
  0.390  0.122E+00  0.122E+00
  0.400  0.235E+00  0.235E+00
  0.410  0.433E+00  0.433E+00
  0.420  0.691E+00  0.691E+00
  0.430  0.102E+01  0.102E+01
  0.440  0.122E+01  0.122E+01
  0.450  0.132E+01  0.132E+01
  0.460  0.131E+01  0.131E+01
  0.470  0.125E+01  0.125E+01
  0.480  0.131E+01  0.131E+01
  0.490  0.142E+01  0.142E+01
  0.500  0.158E+01  0.158E+01
  0.510  0.187E+01  0.187E+01
  0.520  0.213E+01  0.213E+01
  0.530  0.233E+01  0.233E+01
  0.540  0.230E+01  0.230E+01
  0.550  0.216E+01  0.216E+01
  0.560  0.210E+01  0.210E+01
  0.570  0.218E+01  0.218E+01
  0.580  0.228E+01  0.228E+01
  0.590  0.239E+01  0.239E+01
  0.600  0.251E+01  0.251E+01
  0.610  0.265E+01  0.265E+01
  0.620  0.280E+01  0.280E+01
  0.630  0.297E+01  0.297E+01
  0.640  0.317E+01  0.317E+01
  0.650  0.343E+01  0.343E+01
  0.660  0.370E+01  0.370E+01
  0.670  0.415E+01  0.415E+01
  0.680  0.497E+01  0.497E+01
  0.690  0.532E+01  0.532E+01
  0.700  0.526E+01  0.526E+01
  0.710  0.531E+01  0.531E+01
  0.720  0.523E+01  0.523E+01
  0.730  0.506E+01  0.506E+01
  0.740  0.492E+01  0.492E+01
  0.750  0.476E+01  0.476E+01
  0.760  0.448E+01  0.448E+01
  0.770  0.431E+01  0.431E+01
  0.780  0.432E+01  0.432E+01
  0.790  0.441E+01  0.441E+01
  0.800  0.459E+01  0.459E+01
  0.810  0.478E+01  0.478E+01
  0.820  0.504E+01  0.504E+01
  0.830  0.546E+01  0.546E+01
  0.840  0.609E+01  0.609E+01
  0.850  0.682E+01  0.683E+01
  0.860  0.771E+01  0.771E+01
  0.870  0.885E+01  0.886E+01
  0.880  0.946E+01  0.946E+01
  0.890  0.993E+01  0.993E+01
  0.900  0.103E+02  0.103E+02
  0.910  0.107E+02  0.107E+02
  0.920  0.108E+02  0.108E+02
  0.930  0.107E+02  0.107E+02
  0.940  0.104E+02  0.104E+02
  0.950  0.100E+02  0.100E+02
  0.960  0.977E+01  0.977E+01
  0.970  0.939E+01  0.939E+01
  0.980  0.916E+01  0.916E+01
  0.990  0.943E+01  0.943E+01
  1.000  0.121E+02  0.121E+02
  1.010  0.151E+02  0.151E+02
  1.020  0.324E+02  0.324E+02
  1.030  0.279E+02  0.279E+02
  1.040  0.300E+02  0.300E+02
  1.050  0.457E+02  0.457E+02
  1.060  0.392E+02  0.391E+02
  1.070  0.302E+02  0.302E+02
  1.080  0.316E+02  0.316E+02
  1.090  0.187E+02  0.187E+02
  1.100  0.160E+02  0.160E+02
  1.110  0.138E+02  0.138E+02
  1.120  0.117E+02  0.117E+02
  1.130  0.120E+02  0.120E+02
  1.140  0.159E+02  0.159E+02
  1.150  0.152E+02  0.152E+02
  1.160  0.127E+02  0.127E+02
  1.170  0.113E+02  0.113E+02
  1.180  0.124E+02  0.124E+02
  1.190  0.133E+02  0.133E+02
  1.200  0.132E+02  0.132E+02
  1.210  0.128E+02  0.128E+02
  1.220  0.124E+02  0.124E+02
  1.230  0.120E+02  0.120E+02
  1.240  0.116E+02  0.116E+02
  1.250  0.111E+02  0.111E+02
  1.260  0.106E+02  0.106E+02
  1.270  0.102E+02  0.101E+02
  1.280  0.982E+01  0.982E+01
  1.290  0.969E+01  0.969E+01
  1.300  0.960E+01  0.959E+01
  1.310  0.979E+01  0.979E+01
  1.320  0.974E+01  0.975E+01
  1.330  0.950E+01  0.950E+01
  1.340  0.835E+01  0.835E+01
  1.350  0.792E+01  0.794E+01
  1.360  0.846E+01  0.846E+01
  1.370  0.884E+01  0.884E+01
  1.380  0.894E+01  0.896E+01
  1.390  0.878E+01  0.878E+01
  1.400  0.853E+01  0.853E+01
  1.410  0.812E+01  0.813E+01
  1.420  0.777E+01  0.776E+01
  1.430  0.740E+01  0.741E+01
  1.440  0.713E+01  0.712E+01
  1.450  0.699E+01  0.698E+01
  1.460  0.688E+01  0.687E+01
  1.470  0.678E+01  0.677E+01
  1.480  0.675E+01  0.675E+01
  1.490  0.686E+01  0.686E+01
  1.500  0.693E+01  0.693E+01
  1.510  0.693E+01  0.694E+01
  1.520  0.683E+01  0.681E+01
  1.530  0.669E+01  0.669E+01
  1.540  0.663E+01  0.663E+01
  1.550  0.655E+01  0.655E+01
  1.560  0.632E+01  0.632E+01
  1.570  0.614E+01  0.614E+01
  1.580  0.596E+01  0.596E+01
  1.590  0.579E+01  0.579E+01
  1.600  0.565E+01  0.565E+01
  1.610  0.552E+01  0.552E+01
  1.620  0.535E+01  0.535E+01
  1.630  0.524E+01  0.524E+01
  1.640  0.521E+01  0.522E+01
  1.650  0.524E+01  0.523E+01
  1.660  0.532E+01  0.532E+01
  1.670  0.543E+01  0.544E+01
  1.680  0.556E+01  0.556E+01
  1.690  0.570E+01  0.569E+01
  1.700  0.570E+01  0.570E+01
  1.710  0.561E+01  0.561E+01
  1.720  0.539E+01  0.539E+01
  1.730  0.498E+01  0.499E+01
  1.740  0.450E+01  0.451E+01
  1.750  0.408E+01  0.409E+01
  1.760  0.393E+01  0.394E+01
  1.770  0.447E+01  0.447E+01
  1.780  0.452E+01  0.452E+01
  1.790  0.429E+01  0.432E+01
  1.800  0.421E+01  0.421E+01
  1.810  0.430E+01  0.430E+01
  1.820  0.439E+01  0.440E+01
  1.830  0.444E+01  0.446E+01
  1.840  0.450E+01  0.450E+01
  1.850  0.453E+01  0.453E+01
  1.860  0.453E+01  0.453E+01
  1.870  0.453E+01  0.453E+01
  1.880  0.449E+01  0.449E+01
  1.890  0.445E+01  0.445E+01
  1.900  0.439E+01  0.439E+01
  1.910  0.434E+01  0.434E+01
  1.920  0.434E+01  0.434E+01
  1.930  0.437E+01  0.437E+01
  1.940  0.441E+01  0.441E+01
  1.950  0.445E+01  0.445E+01
  1.960  0.449E+01  0.449E+01
  1.970  0.451E+01  0.451E+01
  1.980  0.452E+01  0.452E+01
  1.990  0.451E+01  0.451E+01
  2.000  0.450E+01  0.450E+01
  2.010  0.449E+01  0.450E+01
  2.020  0.449E+01  0.449E+01
  2.030  0.448E+01  0.448E+01
  2.040  0.441E+01  0.441E+01
  2.050  0.448E+01  0.449E+01
  2.060  0.440E+01  0.440E+01
  2.070  0.422E+01  0.422E+01
  2.080  0.416E+01  0.417E+01
  2.090  0.413E+01  0.414E+01
  2.100  0.412E+01  0.413E+01
  2.110  0.412E+01  0.411E+01
  2.120  0.409E+01  0.410E+01
  2.130  0.405E+01  0.405E+01
  2.140  0.399E+01  0.399E+01
  2.150  0.388E+01  0.389E+01
  2.160  0.375E+01  0.374E+01
  2.170  0.362E+01  0.362E+01
  2.180  0.348E+01  0.348E+01
  2.190  0.333E+01  0.333E+01
  2.200  0.323E+01  0.323E+01
  2.210  0.316E+01  0.316E+01
  2.220  0.308E+01  0.308E+01
  2.230  0.301E+01  0.301E+01
  2.240  0.295E+01  0.295E+01
  2.250  0.290E+01  0.290E+01
  2.260  0.285E+01  0.285E+01
  2.270  0.283E+01  0.283E+01
  2.280  0.283E+01  0.283E+01
  2.290  0.284E+01  0.284E+01
  2.300  0.286E+01  0.286E+01
  2.310  0.289E+01  0.289E+01
  2.320  0.292E+01  0.292E+01
  2.330  0.296E+01  0.296E+01
  2.340  0.303E+01  0.302E+01
  2.350  0.311E+01  0.311E+01
  2.360  0.306E+01  0.306E+01
  2.370  0.313E+01  0.312E+01
  2.380  0.328E+01  0.328E+01
  2.390  0.349E+01  0.349E+01
  2.400  0.360E+01  0.360E+01
  2.410  0.364E+01  0.364E+01
  2.420  0.368E+01  0.368E+01
  2.430  0.374E+01  0.375E+01
  2.440  0.379E+01  0.379E+01
  2.450  0.382E+01  0.383E+01
  2.460  0.388E+01  0.387E+01
  2.470  0.395E+01  0.395E+01
  2.480  0.437E+01  0.437E+01
  2.490  0.477E+01  0.478E+01
  2.500  0.509E+01  0.511E+01
  2.510  0.561E+01  0.560E+01
  2.520  0.616E+01  0.617E+01
  2.530  0.672E+01  0.671E+01
  2.540  0.712E+01  0.713E+01
  2.550  0.741E+01  0.743E+01
  2.560  0.759E+01  0.760E+01
  2.570  0.774E+01  0.774E+01
  2.580  0.799E+01  0.798E+01
  2.590  0.829E+01  0.829E+01
  2.600  0.875E+01  0.875E+01
  2.610  0.951E+01  0.950E+01
  2.620  0.101E+02  0.101E+02
  2.630  0.105E+02  0.105E+02
  2.640  0.106E+02  0.106E+02
  2.650  0.105E+02  0.105E+02
  2.660  0.112E+02  0.112E+02
  2.670  0.110E+02  0.110E+02
  2.680  0.122E+02  0.122E+02
  2.690  0.156E+02  0.156E+02
  2.700  0.188E+02  0.188E+02
  2.710  0.216E+02  0.216E+02
  2.720  0.212E+02  0.212E+02
  2.730  0.170E+02  0.170E+02
  2.740  0.138E+02  0.138E+02
  2.750  0.135E+02  0.135E+02
  2.760  0.137E+02  0.137E+02
  2.770  0.145E+02  0.146E+02
  2.780  0.153E+02  0.153E+02
  2.790  0.147E+02  0.147E+02
  2.800  0.143E+02  0.143E+02
  2.810  0.141E+02  0.141E+02
  2.820  0.141E+02  0.141E+02
  2.830  0.141E+02  0.141E+02
  2.840  0.143E+02  0.142E+02
  2.850  0.141E+02  0.141E+02
  2.860  0.136E+02  0.136E+02
  2.870  0.139E+02  0.139E+02
  2.880  0.132E+02  0.132E+02
  2.890  0.131E+02  0.131E+02
  2.900  0.110E+02  0.110E+02
  2.910  0.112E+02  0.112E+02
  2.920  0.120E+02  0.120E+02
  2.930  0.129E+02  0.129E+02
  2.940  0.133E+02  0.133E+02
  2.950  0.134E+02  0.134E+02
  2.960  0.136E+02  0.136E+02
  2.970  0.139E+02  0.139E+02
  2.980  0.142E+02  0.142E+02
  2.990  0.144E+02  0.144E+02
  3.000  0.145E+02  0.145E+02
  3.010  0.145E+02  0.145E+02
  3.020  0.148E+02  0.148E+02
  3.030  0.158E+02  0.158E+02
  3.040  0.167E+02  0.167E+02
  3.050  0.156E+02  0.156E+02
  3.060  0.144E+02  0.144E+02
  3.070  0.145E+02  0.145E+02
  3.080  0.148E+02  0.148E+02
  3.090  0.154E+02  0.154E+02
  3.100  0.165E+02  0.165E+02
  3.110  0.177E+02  0.177E+02
  3.120  0.181E+02  0.181E+02
  3.130  0.175E+02  0.175E+02
  3.140  0.176E+02  0.176E+02
  3.150  0.181E+02  0.181E+02
  3.160  0.176E+02  0.176E+02
  3.170  0.169E+02  0.169E+02
  3.180  0.165E+02  0.165E+02
  3.190  0.164E+02  0.164E+02
  3.200  0.157E+02  0.157E+02
  3.210  0.158E+02  0.158E+02
  3.220  0.158E+02  0.158E+02
  3.230  0.148E+02  0.148E+02
  3.240  0.134E+02  0.134E+02
  3.250  0.136E+02  0.136E+02
  3.260  0.128E+02  0.128E+02
  3.270  0.120E+02  0.120E+02
  3.280  0.118E+02  0.118E+02
  3.290  0.126E+02  0.126E+02
  3.300  0.136E+02  0.136E+02
  3.310  0.151E+02  0.151E+02
  3.320  0.172E+02  0.172E+02
  3.330  0.190E+02  0.190E+02
  3.340  0.207E+02  0.207E+02
  3.350  0.222E+02  0.222E+02
  3.360  0.218E+02  0.218E+02
  3.370  0.210E+02  0.210E+02
  3.380  0.219E+02  0.219E+02
  3.390  0.230E+02  0.230E+02
  3.400  0.240E+02  0.240E+02
  3.410  0.246E+02  0.246E+02
  3.420  0.248E+02  0.248E+02
  3.430  0.244E+02  0.244E+02
  3.440  0.233E+02  0.233E+02
  3.450  0.202E+02  0.202E+02
  3.460  0.173E+02  0.172E+02
  3.470  0.185E+02  0.186E+02
  3.480  0.185E+02  0.185E+02
  3.490  0.197E+02  0.197E+02
  3.500  0.206E+02  0.206E+02
  3.510  0.211E+02  0.211E+02
  3.520  0.215E+02  0.215E+02
  3.530  0.215E+02  0.215E+02
  3.540  0.231E+02  0.231E+02
  3.550  0.242E+02  0.242E+02
  3.560  0.242E+02  0.242E+02
  3.570  0.247E+02  0.247E+02
  3.580  0.236E+02  0.236E+02
  3.590  0.231E+02  0.231E+02
  3.600  0.221E+02  0.221E+02
  3.610  0.201E+02  0.201E+02
  3.620  0.194E+02  0.194E+02
  3.630  0.214E+02  0.214E+02
  3.640  0.234E+02  0.234E+02
  3.650  0.259E+02  0.259E+02
  3.660  0.254E+02  0.254E+02
  3.670  0.233E+02  0.233E+02
  3.680  0.219E+02  0.219E+02
  3.690  0.207E+02  0.207E+02
  3.700  0.193E+02  0.193E+02
  3.710  0.184E+02  0.184E+02
  3.720  0.184E+02  0.184E+02
  3.730  0.192E+02  0.192E+02
  3.740  0.214E+02  0.214E+02
  3.750  0.272E+02  0.272E+02
  3.760  0.265E+02  0.265E+02
  3.770  0.238E+02  0.238E+02
  3.780  0.212E+02  0.212E+02
  3.790  0.193E+02  0.193E+02
  3.800  0.186E+02  0.186E+02
  3.810  0.181E+02  0.181E+02
  3.820  0.176E+02  0.176E+02
  3.830  0.174E+02  0.174E+02
  3.840  0.175E+02  0.175E+02
  3.850  0.182E+02  0.182E+02
  3.860  0.200E+02  0.200E+02
  3.870  0.229E+02  0.229E+02
  3.880  0.272E+02  0.272E+02
  3.890  0.298E+02  0.298E+02
  3.900  0.271E+02  0.271E+02
  3.910  0.261E+02  0.261E+02
  3.920  0.250E+02  0.250E+02
  3.930  0.220E+02  0.220E+02
  3.940  0.205E+02  0.205E+02
  3.950  0.199E+02  0.199E+02
  3.960  0.203E+02  0.203E+02
  3.970  0.208E+02  0.208E+02
  3.980  0.223E+02  0.223E+02
  3.990  0.229E+02  0.229E+02
  4.000  0.232E+02  0.232E+02
  4.010  0.225E+02  0.225E+02
  4.020  0.220E+02  0.220E+02
  4.030  0.217E+02  0.217E+02
  4.040  0.218E+02  0.218E+02
  4.050  0.218E+02  0.218E+02
  4.060  0.211E+02  0.211E+02
  4.070  0.209E+02  0.209E+02
  4.080  0.213E+02  0.213E+02
  4.090  0.208E+02  0.208E+02
  4.100  0.196E+02  0.196E+02
  4.110  0.193E+02  0.193E+02
  4.120  0.191E+02  0.191E+02
  4.130  0.194E+02  0.194E+02
  4.140  0.210E+02  0.210E+02
  4.150  0.212E+02  0.212E+02
  4.160  0.217E+02  0.217E+02
  4.170  0.230E+02  0.230E+02
  4.180  0.257E+02  0.257E+02
  4.190  0.269E+02  0.269E+02
  4.200  0.292E+02  0.292E+02
  4.210  0.275E+02  0.275E+02
  4.220  0.290E+02  0.290E+02
  4.230  0.279E+02  0.279E+02
  4.240  0.253E+02  0.253E+02
  4.250  0.227E+02  0.227E+02
  4.260  0.214E+02  0.214E+02
  4.270  0.205E+02  0.205E+02
  4.280  0.200E+02  0.200E+02
  4.290  0.198E+02  0.198E+02
  4.300  0.212E+02  0.212E+02
  4.310  0.226E+02  0.226E+02
  4.320  0.246E+02  0.246E+02
  4.330  0.258E+02  0.258E+02
  4.340  0.253E+02  0.253E+02
  4.350  0.223E+02  0.223E+02
  4.360  0.206E+02  0.206E+02
  4.370  0.196E+02  0.196E+02
  4.380  0.195E+02  0.195E+02
  4.390  0.199E+02  0.199E+02
  4.400  0.212E+02  0.212E+02
  4.410  0.210E+02  0.211E+02
  4.420  0.206E+02  0.206E+02
  4.430  0.189E+02  0.189E+02
  4.440  0.189E+02  0.189E+02
  4.450  0.216E+02  0.216E+02
  4.460  0.235E+02  0.235E+02
  4.470  0.251E+02  0.251E+02
  4.480  0.267E+02  0.267E+02
  4.490  0.280E+02  0.280E+02
  4.500  0.256E+02  0.256E+02
  4.510  0.255E+02  0.255E+02
  4.520  0.229E+02  0.229E+02
  4.530  0.205E+02  0.205E+02
  4.540  0.201E+02  0.201E+02
  4.550  0.207E+02  0.207E+02
  4.560  0.217E+02  0.217E+02
  4.570  0.228E+02  0.228E+02
  4.580  0.226E+02  0.226E+02
  4.590  0.225E+02  0.225E+02
  4.600  0.221E+02  0.221E+02
  4.610  0.217E+02  0.217E+02
  4.620  0.213E+02  0.213E+02
  4.630  0.212E+02  0.212E+02
  4.640  0.211E+02  0.211E+02
  4.650  0.213E+02  0.213E+02
  4.660  0.217E+02  0.217E+02
  4.670  0.296E+02  0.296E+02
  4.680  0.263E+02  0.263E+02
  4.690  0.239E+02  0.239E+02
  4.700  0.254E+02  0.254E+02
  4.710  0.210E+02  0.210E+02
  4.720  0.201E+02  0.201E+02
  4.730  0.215E+02  0.215E+02
  4.740  0.244E+02  0.244E+02
  4.750  0.321E+02  0.321E+02
  4.760  0.261E+02  0.261E+02
  4.770  0.209E+02  0.209E+02
  4.780  0.191E+02  0.191E+02
  4.790  0.179E+02  0.179E+02
  4.800  0.174E+02  0.174E+02
  4.810  0.168E+02  0.168E+02
  4.820  0.162E+02  0.162E+02
  4.830  0.150E+02  0.150E+02
  4.840  0.142E+02  0.142E+02
  4.850  0.138E+02  0.138E+02
  4.860  0.133E+02  0.133E+02
  4.870  0.129E+02  0.129E+02
  4.880  0.126E+02  0.126E+02
  4.890  0.124E+02  0.124E+02
  4.900  0.122E+02  0.122E+02
  4.910  0.120E+02  0.120E+02
  4.920  0.118E+02  0.118E+02
  4.930  0.119E+02  0.119E+02
  4.940  0.124E+02  0.124E+02
  4.950  0.131E+02  0.132E+02
  4.960  0.138E+02  0.138E+02
  4.970  0.137E+02  0.137E+02
  4.980  0.125E+02  0.125E+02
  4.990  0.117E+02  0.117E+02
  5.000  0.119E+02  0.119E+02
  5.010  0.118E+02  0.117E+02
  5.020  0.123E+02  0.123E+02
  5.030  0.128E+02  0.128E+02
  5.040  0.117E+02  0.117E+02
  5.050  0.119E+02  0.119E+02
  5.060  0.121E+02  0.121E+02
  5.070  0.122E+02  0.122E+02
  5.080  0.121E+02  0.121E+02
  5.090  0.119E+02  0.119E+02
  5.100  0.113E+02  0.113E+02
  5.110  0.101E+02  0.101E+02
  5.120  0.845E+01  0.845E+01
  5.130  0.849E+01  0.849E+01
  5.140  0.854E+01  0.854E+01
  5.150  0.830E+01  0.830E+01
  5.160  0.795E+01  0.795E+01
  5.170  0.787E+01  0.787E+01
  5.180  0.603E+01  0.603E+01
  5.190  0.565E+01  0.565E+01
  5.200  0.546E+01  0.546E+01
  5.210  0.551E+01  0.552E+01
  5.220  0.653E+01  0.654E+01
  5.230  0.754E+01  0.754E+01
  5.240  0.838E+01  0.838E+01
  5.250  0.899E+01  0.899E+01
  5.260  0.951E+01  0.951E+01
  5.270  0.984E+01  0.984E+01
  5.280  0.100E+02  0.100E+02
  5.290  0.100E+02  0.100E+02
  5.300  0.978E+01  0.978E+01
  5.310  0.936E+01  0.936E+01
  5.320  0.827E+01  0.827E+01
  5.330  0.779E+01  0.779E+01
  5.340  0.770E+01  0.770E+01
  5.350  0.674E+01  0.674E+01
  5.360  0.546E+01  0.546E+01
  5.370  0.464E+01  0.464E+01
  5.380  0.433E+01  0.433E+01
  5.390  0.407E+01  0.407E+01
  5.400  0.387E+01  0.387E+01
  5.410  0.368E+01  0.368E+01
  5.420  0.356E+01  0.356E+01
  5.430  0.410E+01  0.410E+01
  5.440  0.444E+01  0.444E+01
  5.450  0.412E+01  0.412E+01
  5.460  0.386E+01  0.386E+01
  5.470  0.333E+01  0.333E+01
  5.480  0.291E+01  0.291E+01
  5.490  0.256E+01  0.256E+01
  5.500  0.220E+01  0.220E+01
  5.510  0.223E+01  0.223E+01
  5.520  0.204E+01  0.204E+01
  5.530  0.132E+01  0.132E+01
  5.540  0.336E+00  0.336E+00
  5.550  0.758E-01  0.758E-01
  5.560  0.656E-02  0.656E-02
  5.570  0.115E-02  0.115E-02
  5.580  0.348E-03  0.348E-03
  5.590  0.145E-04  0.145E-04
  5.600  0.000E+00  0.000E+00
  5.610  0.000E+00  0.000E+00
  5.620  0.000E+00  0.000E+00
  5.630  0.000E+00  0.000E+00
  5.640  0.000E+00  0.000E+00
  5.650  0.000E+00  0.000E+00
  5.660  0.000E+00  0.000E+00
  5.670  0.000E+00  0.000E+00
  5.680  0.000E+00  0.000E+00
  5.690  0.000E+00  0.000E+00
  5.700  0.000E+00  0.000E+00
  5.710  0.000E+00  0.000E+00
  5.720  0.000E+00  0.000E+00
  5.730  0.000E+00  0.000E+00
  5.740  0.000E+00  0.000E+00
  5.750  0.000E+00  0.000E+00
  5.760  0.000E+00  0.000E+00
  5.770  0.000E+00  0.000E+00
  5.780  0.000E+00  0.000E+00
  5.790  0.000E+00  0.000E+00
  5.800  0.000E+00  0.000E+00
  5.810  0.000E+00  0.000E+00
  5.820  0.000E+00  0.000E+00
  5.830  0.000E+00  0.000E+00
  5.840  0.000E+00  0.000E+00
  5.850  0.000E+00  0.000E+00
  5.860  0.000E+00  0.000E+00
  5.870  0.000E+00  0.000E+00
  5.880  0.000E+00  0.000E+00
  5.890  0.000E+00  0.000E+00
  5.900  0.000E+00  0.000E+00
  5.910  0.000E+00  0.000E+00
  5.920  0.000E+00  0.000E+00
  5.930  0.000E+00  0.000E+00
  5.940  0.000E+00  0.000E+00
  5.950  0.000E+00  0.000E+00
  5.960  0.000E+00  0.000E+00
  5.970  0.000E+00  0.000E+00
  5.980  0.000E+00  0.000E+00
  5.990  0.000E+00  0.000E+00
  6.000  0.000E+00  0.000E+00
  6.010  0.000E+00  0.000E+00
  6.020  0.000E+00  0.000E+00
  6.030  0.000E+00  0.000E+00
  6.040  0.000E+00  0.000E+00
  6.050  0.000E+00  0.000E+00
  6.060  0.000E+00  0.000E+00
  6.070  0.000E+00  0.000E+00
  6.080  0.000E+00  0.000E+00
  6.090  0.000E+00  0.000E+00
  6.100  0.000E+00  0.000E+00
  6.110  0.000E+00  0.000E+00
  6.120  0.000E+00  0.000E+00
  6.130  0.000E+00  0.000E+00
  6.140  0.000E+00  0.000E+00
  6.150  0.000E+00  0.000E+00
  6.160  0.000E+00  0.000E+00
  6.170  0.000E+00  0.000E+00
  6.180  0.000E+00  0.000E+00
  6.190  0.000E+00  0.000E+00
  6.200  0.000E+00  0.000E+00
  6.210  0.000E+00  0.000E+00
  6.220  0.000E+00  0.000E+00
  6.230  0.000E+00  0.000E+00
  6.240  0.000E+00  0.000E+00
  6.250  0.000E+00  0.000E+00
  6.260  0.000E+00  0.000E+00
  6.270  0.000E+00  0.000E+00
  6.280  0.000E+00  0.000E+00
  6.290  0.000E+00  0.000E+00
  6.300  0.000E+00  0.000E+00
  6.310  0.000E+00  0.000E+00
  6.320  0.000E+00  0.000E+00
  6.330  0.000E+00  0.000E+00
  6.340  0.000E+00  0.000E+00
  6.350  0.000E+00  0.000E+00
  6.360  0.000E+00  0.000E+00
  6.370  0.000E+00  0.000E+00
  6.380  0.000E+00  0.000E+00
  6.390  0.000E+00  0.000E+00
  6.400  0.000E+00  0.000E+00
  6.410  0.000E+00  0.000E+00
  6.420  0.000E+00  0.000E+00
  6.430  0.000E+00  0.000E+00
  6.440  0.000E+00  0.000E+00
  6.450  0.000E+00  0.000E+00
  6.460  0.000E+00  0.000E+00
  6.470  0.000E+00  0.000E+00
  6.480  0.000E+00  0.000E+00
  6.490  0.000E+00  0.000E+00
  6.500  0.000E+00  0.000E+00
  6.510  0.000E+00  0.000E+00
  6.520  0.000E+00  0.000E+00
  6.530  0.000E+00  0.000E+00
  6.540  0.000E+00  0.000E+00
  6.550  0.000E+00  0.000E+00
  6.560  0.000E+00  0.000E+00
  6.570  0.000E+00  0.000E+00
  6.580  0.000E+00  0.000E+00
  6.590  0.000E+00  0.000E+00
  6.600  0.000E+00  0.000E+00
  6.610  0.000E+00  0.000E+00
  6.620  0.000E+00  0.000E+00
  6.630  0.000E+00  0.000E+00
  6.640  0.000E+00  0.000E+00
  6.650  0.000E+00  0.000E+00
  6.660  0.000E+00  0.000E+00
  6.670  0.000E+00  0.000E+00
  6.680  0.000E+00  0.000E+00
  6.690  0.000E+00  0.000E+00
  6.700  0.000E+00  0.000E+00
  6.710  0.000E+00  0.000E+00
  6.720  0.000E+00  0.000E+00
  6.730  0.000E+00  0.000E+00
  6.740  0.000E+00  0.000E+00
  6.750  0.000E+00  0.000E+00
  6.760  0.000E+00  0.000E+00
  6.770  0.000E+00  0.000E+00
  6.780  0.000E+00  0.000E+00
  6.790  0.000E+00  0.000E+00
  6.800  0.000E+00  0.000E+00
  6.810  0.000E+00  0.000E+00
  6.820  0.000E+00  0.000E+00
  6.830  0.000E+00  0.000E+00
  6.840  0.000E+00  0.000E+00
  6.850  0.000E+00  0.000E+00
  6.860  0.000E+00  0.000E+00
  6.870  0.000E+00  0.000E+00
  6.880  0.000E+00  0.000E+00
  6.890  0.000E+00  0.000E+00
  6.900  0.000E+00  0.000E+00
  6.910  0.000E+00  0.000E+00
  6.920  0.000E+00  0.000E+00
  6.930  0.000E+00  0.000E+00
  6.940  0.000E+00  0.000E+00
  6.950  0.000E+00  0.000E+00
  6.960  0.000E+00  0.000E+00
  6.970  0.000E+00  0.000E+00
  6.980  0.000E+00  0.000E+00
  6.990  0.000E+00  0.000E+00
  7.000  0.000E+00  0.000E+00
  7.010  0.000E+00  0.000E+00
  7.020  0.000E+00  0.000E+00
  7.030  0.000E+00  0.000E+00
  7.040  0.000E+00  0.000E+00
  7.050  0.000E+00  0.000E+00
  7.060  0.000E+00  0.000E+00
  7.070  0.000E+00  0.000E+00
  7.080  0.000E+00  0.000E+00
  7.090  0.000E+00  0.000E+00
  7.100  0.000E+00  0.000E+00
  7.110  0.000E+00  0.000E+00
  7.120  0.000E+00  0.000E+00
  7.130  0.000E+00  0.000E+00
  7.140  0.000E+00  0.000E+00
  7.150  0.000E+00  0.000E+00
  7.160  0.000E+00  0.000E+00
  7.170  0.000E+00  0.000E+00
  7.180  0.000E+00  0.000E+00
  7.190  0.000E+00  0.000E+00
  7.200  0.000E+00  0.000E+00
  7.210  0.000E+00  0.000E+00
  7.220  0.000E+00  0.000E+00
  7.230  0.000E+00  0.000E+00
  7.240  0.000E+00  0.000E+00
  7.250  0.000E+00  0.000E+00
  7.260  0.000E+00  0.000E+00
  7.270  0.000E+00  0.000E+00
  7.280  0.000E+00  0.000E+00
  7.290  0.000E+00  0.000E+00
  7.300  0.000E+00  0.000E+00
  7.310  0.000E+00  0.000E+00
  7.320  0.000E+00  0.000E+00
  7.330  0.000E+00  0.000E+00
  7.340  0.000E+00  0.000E+00
  7.350  0.000E+00  0.000E+00
  7.360  0.000E+00  0.000E+00
  7.370  0.000E+00  0.000E+00
  7.380  0.000E+00  0.000E+00
  7.390  0.000E+00  0.000E+00
  7.400  0.000E+00  0.000E+00
  7.410  0.000E+00  0.000E+00
  7.420  0.000E+00  0.000E+00
  7.430  0.000E+00  0.000E+00
  7.440  0.000E+00  0.000E+00
  7.450  0.000E+00  0.000E+00
  7.460  0.000E+00  0.000E+00
  7.470  0.249E-06  0.249E-06
  7.480  0.250E-04  0.250E-04
  7.490  0.905E-04  0.905E-04
  7.500  0.203E-03  0.203E-03
  7.510  0.480E-03  0.480E-03
  7.520  0.971E-03  0.971E-03
  7.530  0.168E-02  0.168E-02
  7.540  0.261E-02  0.261E-02
  7.550  0.377E-02  0.377E-02
  7.560  0.515E-02  0.515E-02
  7.570  0.679E-02  0.679E-02
  7.580  0.863E-02  0.863E-02
  7.590  0.107E-01  0.107E-01
  7.600  0.131E-01  0.131E-01
  7.610  0.157E-01  0.157E-01
  7.620  0.186E-01  0.186E-01
  7.630  0.217E-01  0.217E-01
  7.640  0.250E-01  0.250E-01
  7.650  0.287E-01  0.287E-01
  7.660  0.326E-01  0.326E-01
  7.670  0.364E-01  0.364E-01
  7.680  0.403E-01  0.403E-01
  7.690  0.444E-01  0.444E-01
  7.700  0.489E-01  0.489E-01
  7.710  0.531E-01  0.531E-01
  7.720  0.572E-01  0.572E-01
  7.730  0.612E-01  0.612E-01
  7.740  0.650E-01  0.650E-01
  7.750  0.688E-01  0.688E-01
  7.760  0.723E-01  0.723E-01
  7.770  0.757E-01  0.757E-01
  7.780  0.790E-01  0.790E-01
  7.790  0.822E-01  0.822E-01
  7.800  0.852E-01  0.852E-01
  7.810  0.880E-01  0.880E-01
  7.820  0.907E-01  0.907E-01
  7.830  0.931E-01  0.931E-01
  7.840  0.953E-01  0.953E-01
  7.850  0.968E-01  0.968E-01
  7.860  0.984E-01  0.984E-01
  7.870  0.100E+00  0.100E+00
  7.880  0.102E+00  0.102E+00
  7.890  0.105E+00  0.105E+00
  7.900  0.107E+00  0.107E+00
  7.910  0.109E+00  0.109E+00
  7.920  0.112E+00  0.112E+00
  7.930  0.115E+00  0.115E+00
  7.940  0.118E+00  0.118E+00
  7.950  0.121E+00  0.121E+00
  7.960  0.125E+00  0.125E+00
  7.970  0.129E+00  0.129E+00
  7.980  0.133E+00  0.133E+00
  7.990  0.137E+00  0.137E+00
  8.000  0.141E+00  0.141E+00
  8.010  0.145E+00  0.145E+00
  8.020  0.149E+00  0.149E+00
  8.030  0.153E+00  0.153E+00
  8.040  0.157E+00  0.157E+00
  8.050  0.161E+00  0.161E+00
  8.060  0.166E+00  0.166E+00
  8.070  0.170E+00  0.170E+00
  8.080  0.175E+00  0.175E+00
  8.090  0.180E+00  0.180E+00
  8.100  0.184E+00  0.184E+00
  8.110  0.189E+00  0.189E+00
  8.120  0.194E+00  0.194E+00
  8.130  0.199E+00  0.199E+00
  8.140  0.204E+00  0.204E+00
  8.150  0.209E+00  0.209E+00
  8.160  0.214E+00  0.214E+00
  8.170  0.219E+00  0.219E+00
  8.180  0.222E+00  0.222E+00
  8.190  0.225E+00  0.225E+00
  8.200  0.227E+00  0.227E+00
  8.210  0.229E+00  0.229E+00
  8.220  0.231E+00  0.231E+00
  8.230  0.233E+00  0.233E+00
  8.240  0.235E+00  0.235E+00
  8.250  0.238E+00  0.238E+00
  8.260  0.241E+00  0.241E+00
  8.270  0.246E+00  0.246E+00
  8.280  0.252E+00  0.252E+00
  8.290  0.257E+00  0.257E+00
  8.300  0.260E+00  0.260E+00
  8.310  0.262E+00  0.262E+00
  8.320  0.264E+00  0.264E+00
  8.330  0.268E+00  0.268E+00
  8.340  0.272E+00  0.272E+00
  8.350  0.277E+00  0.277E+00
  8.360  0.282E+00  0.282E+00
  8.370  0.287E+00  0.287E+00
  8.380  0.291E+00  0.291E+00
  8.390  0.296E+00  0.296E+00
  8.400  0.301E+00  0.301E+00
  8.410  0.306E+00  0.306E+00
  8.420  0.311E+00  0.311E+00
  8.430  0.316E+00  0.316E+00
  8.440  0.322E+00  0.322E+00
  8.450  0.328E+00  0.328E+00
  8.460  0.333E+00  0.333E+00
  8.470  0.339E+00  0.339E+00
  8.480  0.346E+00  0.346E+00
  8.490  0.352E+00  0.352E+00
  8.500  0.359E+00  0.359E+00
  8.510  0.365E+00  0.365E+00
  8.520  0.370E+00  0.370E+00
  8.530  0.373E+00  0.373E+00
  8.540  0.375E+00  0.375E+00
  8.550  0.379E+00  0.379E+00
  8.560  0.385E+00  0.385E+00
  8.570  0.393E+00  0.393E+00
  8.580  0.401E+00  0.401E+00
  8.590  0.409E+00  0.409E+00
  8.600  0.418E+00  0.418E+00
  8.610  0.428E+00  0.428E+00
  8.620  0.438E+00  0.438E+00
  8.630  0.450E+00  0.450E+00
  8.640  0.462E+00  0.462E+00
  8.650  0.475E+00  0.475E+00
  8.660  0.489E+00  0.489E+00
  8.670  0.505E+00  0.505E+00
  8.680  0.520E+00  0.520E+00
  8.690  0.535E+00  0.535E+00
  8.700  0.552E+00  0.552E+00
  8.710  0.569E+00  0.569E+00
  8.720  0.593E+00  0.593E+00
  8.730  0.627E+00  0.627E+00
  8.740  0.668E+00  0.668E+00
  8.750  0.715E+00  0.715E+00
  8.760  0.764E+00  0.764E+00
  8.770  0.805E+00  0.805E+00
  8.780  0.842E+00  0.842E+00
  8.790  0.882E+00  0.882E+00
  8.800  0.924E+00  0.924E+00
  8.810  0.979E+00  0.979E+00
  8.820  0.104E+01  0.104E+01
  8.830  0.112E+01  0.112E+01
  8.840  0.122E+01  0.122E+01
  8.850  0.131E+01  0.131E+01
  8.860  0.145E+01  0.145E+01
  8.870  0.168E+01  0.168E+01
  8.880  0.182E+01  0.182E+01
  8.890  0.239E+01  0.239E+01
  8.900  0.235E+01  0.235E+01
  8.910  0.236E+01  0.236E+01
  8.920  0.243E+01  0.243E+01
  8.930  0.244E+01  0.244E+01
  8.940  0.249E+01  0.249E+01
  8.950  0.252E+01  0.252E+01
  8.960  0.250E+01  0.250E+01
  8.970  0.248E+01  0.248E+01
  8.980  0.243E+01  0.243E+01
  8.990  0.207E+01  0.207E+01
  9.000  0.196E+01  0.196E+01
  9.010  0.193E+01  0.193E+01
  9.020  0.193E+01  0.193E+01
  9.030  0.193E+01  0.193E+01
  9.040  0.194E+01  0.194E+01
  9.050  0.195E+01  0.195E+01
  9.060  0.197E+01  0.197E+01
  9.070  0.203E+01  0.203E+01
  9.080  0.205E+01  0.205E+01
  9.090  0.204E+01  0.204E+01
  9.100  0.205E+01  0.205E+01
  9.110  0.209E+01  0.209E+01
  9.120  0.215E+01  0.215E+01
  9.130  0.219E+01  0.219E+01
  9.140  0.230E+01  0.230E+01
  9.150  0.243E+01  0.243E+01
  9.160  0.256E+01  0.256E+01
  9.170  0.265E+01  0.265E+01
  9.180  0.279E+01  0.279E+01
  9.190  0.294E+01  0.294E+01
  9.200  0.310E+01  0.310E+01
  9.210  0.328E+01  0.328E+01
  9.220  0.348E+01  0.348E+01
  9.230  0.369E+01  0.369E+01
  9.240  0.388E+01  0.388E+01
  9.250  0.405E+01  0.405E+01
  9.260  0.421E+01  0.421E+01
  9.270  0.435E+01  0.435E+01
  9.280  0.447E+01  0.447E+01
  9.290  0.460E+01  0.460E+01
  9.300  0.501E+01  0.501E+01
  9.310  0.368E+01  0.367E+01
  9.320  0.356E+01  0.355E+01
  9.330  0.351E+01  0.352E+01
  9.340  0.352E+01  0.352E+01
  9.350  0.357E+01  0.357E+01
  9.360  0.365E+01  0.365E+01
  9.370  0.380E+01  0.380E+01
  9.380  0.402E+01  0.402E+01
  9.390  0.424E+01  0.424E+01
  9.400  0.468E+01  0.468E+01
  9.410  0.539E+01  0.539E+01
  9.420  0.589E+01  0.587E+01
  9.430  0.596E+01  0.597E+01
  9.440  0.567E+01  0.567E+01
  9.450  0.453E+01  0.453E+01
  9.460  0.394E+01  0.394E+01
  9.470  0.378E+01  0.378E+01
  9.480  0.370E+01  0.370E+01
  9.490  0.365E+01  0.365E+01
  9.500  0.452E+01  0.452E+01
  9.510  0.311E+01  0.311E+01
  9.520  0.269E+01  0.269E+01
  9.530  0.243E+01  0.243E+01
  9.540  0.241E+01  0.241E+01
  9.550  0.248E+01  0.248E+01
  9.560  0.263E+01  0.263E+01
  9.570  0.285E+01  0.285E+01
  9.580  0.310E+01  0.310E+01
  9.590  0.339E+01  0.339E+01
  9.600  0.367E+01  0.367E+01
  9.610  0.407E+01  0.407E+01
  9.620  0.459E+01  0.459E+01
  9.630  0.490E+01  0.490E+01
  9.640  0.519E+01  0.518E+01
  9.650  0.544E+01  0.544E+01
  9.660  0.572E+01  0.572E+01
  9.670  0.584E+01  0.584E+01
  9.680  0.600E+01  0.600E+01
  9.690  0.709E+01  0.710E+01
  9.700  0.756E+01  0.756E+01
  9.710  0.980E+01  0.981E+01
  9.720  0.116E+02  0.116E+02
  9.730  0.102E+02  0.102E+02
  9.740  0.998E+01  0.998E+01
  9.750  0.954E+01  0.953E+01
  9.760  0.873E+01  0.873E+01
  9.770  0.747E+01  0.747E+01
  9.780  0.652E+01  0.652E+01
  9.790  0.582E+01  0.580E+01
  9.800  0.555E+01  0.555E+01
  9.810  0.566E+01  0.566E+01
  9.820  0.601E+01  0.601E+01
  9.830  0.633E+01  0.633E+01
  9.840  0.644E+01  0.644E+01
  9.850  0.672E+01  0.672E+01
  9.860  0.675E+01  0.675E+01
  9.870  0.684E+01  0.684E+01
  9.880  0.684E+01  0.684E+01
  9.890  0.696E+01  0.696E+01
  9.900  0.732E+01  0.732E+01
  9.910  0.786E+01  0.786E+01
  9.920  0.835E+01  0.835E+01
  9.930  0.836E+01  0.836E+01
  9.940  0.914E+01  0.914E+01
  9.950  0.958E+01  0.958E+01
  9.960  0.105E+02  0.105E+02
  9.970  0.113E+02  0.113E+02