# E (eV) pdosup(E)  pdosdw(E) 
  0.000  0.206E+01  0.206E+01
  0.010  0.232E+01  0.232E+01
  0.020  0.251E+01  0.251E+01
  0.030  0.204E+01  0.204E+01
  0.040  0.203E+01  0.203E+01
  0.050  0.172E+01  0.172E+01
  0.060  0.140E+01  0.140E+01
  0.070  0.157E+01  0.157E+01
  0.080  0.159E+01  0.159E+01
  0.090  0.155E+01  0.155E+01
  0.100  0.144E+01  0.144E+01
  0.110  0.119E+01  0.119E+01
  0.120  0.955E+00  0.955E+00
  0.130  0.706E+00  0.706E+00
  0.140  0.426E+00  0.426E+00
  0.150  0.232E+00  0.232E+00
  0.160  0.131E+00  0.131E+00
  0.170  0.650E-01  0.650E-01
  0.180  0.107E-01  0.107E-01
  0.190 -0.973E-04 -0.973E-04
  0.200  0.000E+00  0.000E+00
  0.210  0.000E+00  0.000E+00
  0.220  0.000E+00  0.000E+00
  0.230  0.000E+00  0.000E+00
  0.240  0.000E+00  0.000E+00
  0.250  0.000E+00  0.000E+00
  0.260  0.000E+00  0.000E+00
  0.270  0.000E+00  0.000E+00
  0.280  0.000E+00  0.000E+00
  0.290  0.000E+00  0.000E+00
  0.300  0.000E+00  0.000E+00
  0.310  0.000E+00  0.000E+00
  0.320  0.000E+00  0.000E+00
  0.330  0.000E+00  0.000E+00
  0.340  0.245E-04  0.245E-04
  0.350  0.496E-03  0.496E-03
  0.360  0.558E-02  0.558E-02
  0.370  0.257E-01  0.257E-01
  0.380  0.642E-01  0.642E-01
  0.390  0.122E+00  0.122E+00
  0.400  0.234E+00  0.234E+00
  0.410  0.431E+00  0.431E+00
  0.420  0.688E+00  0.688E+00
  0.430  0.101E+01  0.101E+01
  0.440  0.121E+01  0.121E+01
  0.450  0.131E+01  0.131E+01
  0.460  0.130E+01  0.130E+01
  0.470  0.124E+01  0.124E+01
  0.480  0.130E+01  0.130E+01
  0.490  0.140E+01  0.140E+01
  0.500  0.156E+01  0.156E+01
  0.510  0.186E+01  0.186E+01
  0.520  0.211E+01  0.211E+01
  0.530  0.231E+01  0.231E+01
  0.540  0.227E+01  0.227E+01
  0.550  0.213E+01  0.213E+01
  0.560  0.207E+01  0.207E+01
  0.570  0.215E+01  0.215E+01
  0.580  0.224E+01  0.224E+01
  0.590  0.235E+01  0.235E+01
  0.600  0.247E+01  0.247E+01
  0.610  0.260E+01  0.260E+01
  0.620  0.275E+01  0.275E+01
  0.630  0.292E+01  0.292E+01
  0.640  0.311E+01  0.311E+01
  0.650  0.337E+01  0.337E+01
  0.660  0.364E+01  0.364E+01
  0.670  0.407E+01  0.407E+01
  0.680  0.488E+01  0.488E+01
  0.690  0.522E+01  0.522E+01
  0.700  0.516E+01  0.516E+01
  0.710  0.520E+01  0.520E+01
  0.720  0.512E+01  0.512E+01
  0.730  0.495E+01  0.495E+01
  0.740  0.481E+01  0.481E+01
  0.750  0.465E+01  0.465E+01
  0.760  0.438E+01  0.438E+01
  0.770  0.420E+01  0.420E+01
  0.780  0.421E+01  0.421E+01
  0.790  0.429E+01  0.429E+01
  0.800  0.447E+01  0.447E+01
  0.810  0.464E+01  0.464E+01
  0.820  0.489E+01  0.489E+01
  0.830  0.530E+01  0.530E+01
  0.840  0.592E+01  0.592E+01
  0.850  0.662E+01  0.664E+01
  0.860  0.749E+01  0.749E+01
  0.870  0.860E+01  0.861E+01
  0.880  0.919E+01  0.919E+01
  0.890  0.965E+01  0.965E+01
  0.900  0.997E+01  0.997E+01
  0.910  0.104E+02  0.104E+02
  0.920  0.105E+02  0.105E+02
  0.930  0.104E+02  0.104E+02
  0.940  0.101E+02  0.101E+02
  0.950  0.972E+01  0.972E+01
  0.960  0.950E+01  0.950E+01
  0.970  0.914E+01  0.914E+01
  0.980  0.891E+01  0.891E+01
  0.990  0.918E+01  0.918E+01
  1.000  0.118E+02  0.118E+02
  1.010  0.148E+02  0.148E+02
  1.020  0.318E+02  0.318E+02
  1.030  0.273E+02  0.273E+02
  1.040  0.295E+02  0.295E+02
  1.050  0.450E+02  0.450E+02
  1.060  0.386E+02  0.385E+02
  1.070  0.296E+02  0.296E+02
  1.080  0.307E+02  0.307E+02
  1.090  0.182E+02  0.181E+02
  1.100  0.156E+02  0.156E+02
  1.110  0.134E+02  0.134E+02
  1.120  0.114E+02  0.114E+02
  1.130  0.116E+02  0.116E+02
  1.140  0.154E+02  0.154E+02
  1.150  0.146E+02  0.146E+02
  1.160  0.121E+02  0.121E+02
  1.170  0.107E+02  0.107E+02
  1.180  0.117E+02  0.117E+02
  1.190  0.125E+02  0.125E+02
  1.200  0.124E+02  0.124E+02
  1.210  0.121E+02  0.121E+02
  1.220  0.116E+02  0.116E+02
  1.230  0.113E+02  0.113E+02
  1.240  0.109E+02  0.109E+02
  1.250  0.104E+02  0.104E+02
  1.260  0.994E+01  0.996E+01
  1.270  0.950E+01  0.950E+01
  1.280  0.918E+01  0.918E+01
  1.290  0.905E+01  0.905E+01
  1.300  0.895E+01  0.895E+01
  1.310  0.912E+01  0.912E+01
  1.320  0.906E+01  0.908E+01
  1.330  0.884E+01  0.884E+01
  1.340  0.775E+01  0.775E+01
  1.350  0.734E+01  0.735E+01
  1.360  0.783E+01  0.783E+01
  1.370  0.817E+01  0.817E+01
  1.380  0.825E+01  0.826E+01
  1.390  0.809E+01  0.809E+01
  1.400  0.784E+01  0.784E+01
  1.410  0.745E+01  0.746E+01
  1.420  0.712E+01  0.711E+01
  1.430  0.678E+01  0.678E+01
  1.440  0.652E+01  0.651E+01
  1.450  0.639E+01  0.638E+01
  1.460  0.628E+01  0.627E+01
  1.470  0.618E+01  0.617E+01
  1.480  0.615E+01  0.614E+01
  1.490  0.623E+01  0.623E+01
  1.500  0.629E+01  0.629E+01
  1.510  0.629E+01  0.629E+01
  1.520  0.618E+01  0.617E+01
  1.530  0.605E+01  0.605E+01
  1.540  0.600E+01  0.600E+01
  1.550  0.591E+01  0.591E+01
  1.560  0.570E+01  0.570E+01
  1.570  0.553E+01  0.553E+01
  1.580  0.536E+01  0.536E+01
  1.590  0.520E+01  0.520E+01
  1.600  0.507E+01  0.507E+01
  1.610  0.495E+01  0.495E+01
  1.620  0.479E+01  0.480E+01
  1.630  0.469E+01  0.469E+01
  1.640  0.466E+01  0.467E+01
  1.650  0.469E+01  0.468E+01
  1.660  0.476E+01  0.476E+01
  1.670  0.486E+01  0.486E+01
  1.680  0.496E+01  0.496E+01
  1.690  0.509E+01  0.508E+01
  1.700  0.508E+01  0.509E+01
  1.710  0.500E+01  0.500E+01
  1.720  0.480E+01  0.480E+01
  1.730  0.443E+01  0.444E+01
  1.740  0.400E+01  0.400E+01
  1.750  0.362E+01  0.363E+01
  1.760  0.348E+01  0.349E+01
  1.770  0.396E+01  0.396E+01
  1.780  0.400E+01  0.400E+01
  1.790  0.379E+01  0.382E+01
  1.800  0.372E+01  0.372E+01
  1.810  0.379E+01  0.379E+01
  1.820  0.386E+01  0.388E+01
  1.830  0.391E+01  0.392E+01
  1.840  0.396E+01  0.396E+01
  1.850  0.398E+01  0.398E+01
  1.860  0.398E+01  0.398E+01
  1.870  0.398E+01  0.398E+01
  1.880  0.394E+01  0.394E+01
  1.890  0.390E+01  0.390E+01
  1.900  0.385E+01  0.385E+01
  1.910  0.381E+01  0.381E+01
  1.920  0.380E+01  0.380E+01
  1.930  0.383E+01  0.382E+01
  1.940  0.386E+01  0.386E+01
  1.950  0.389E+01  0.389E+01
  1.960  0.392E+01  0.392E+01
  1.970  0.394E+01  0.394E+01
  1.980  0.395E+01  0.395E+01
  1.990  0.394E+01  0.394E+01
  2.000  0.393E+01  0.393E+01
  2.010  0.392E+01  0.392E+01
  2.020  0.391E+01  0.391E+01
  2.030  0.390E+01  0.390E+01
  2.040  0.383E+01  0.383E+01
  2.050  0.390E+01  0.390E+01
  2.060  0.382E+01  0.382E+01
  2.070  0.366E+01  0.366E+01
  2.080  0.361E+01  0.362E+01
  2.090  0.358E+01  0.359E+01
  2.100  0.357E+01  0.358E+01
  2.110  0.357E+01  0.356E+01
  2.120  0.354E+01  0.355E+01
  2.130  0.351E+01  0.350E+01
  2.140  0.345E+01  0.345E+01
  2.150  0.336E+01  0.336E+01
  2.160  0.324E+01  0.324E+01
  2.170  0.313E+01  0.313E+01
  2.180  0.301E+01  0.301E+01
  2.190  0.288E+01  0.288E+01
  2.200  0.279E+01  0.279E+01
  2.210  0.273E+01  0.273E+01
  2.220  0.266E+01  0.266E+01
  2.230  0.260E+01  0.260E+01
  2.240  0.255E+01  0.255E+01
  2.250  0.250E+01  0.250E+01
  2.260  0.246E+01  0.246E+01
  2.270  0.245E+01  0.245E+01
  2.280  0.244E+01  0.244E+01
  2.290  0.245E+01  0.245E+01
  2.300  0.247E+01  0.247E+01
  2.310  0.249E+01  0.249E+01
  2.320  0.252E+01  0.252E+01
  2.330  0.256E+01  0.256E+01
  2.340  0.261E+01  0.261E+01
  2.350  0.268E+01  0.268E+01
  2.360  0.264E+01  0.264E+01
  2.370  0.270E+01  0.270E+01
  2.380  0.284E+01  0.284E+01
  2.390  0.302E+01  0.302E+01
  2.400  0.312E+01  0.312E+01
  2.410  0.316E+01  0.316E+01
  2.420  0.321E+01  0.321E+01
  2.430  0.327E+01  0.328E+01
  2.440  0.332E+01  0.332E+01
  2.450  0.336E+01  0.336E+01
  2.460  0.342E+01  0.341E+01
  2.470  0.350E+01  0.350E+01
  2.480  0.393E+01  0.393E+01
  2.490  0.434E+01  0.435E+01
  2.500  0.471E+01  0.472E+01
  2.510  0.524E+01  0.524E+01
  2.520  0.581E+01  0.582E+01
  2.530  0.638E+01  0.637E+01
  2.540  0.680E+01  0.681E+01
  2.550  0.711E+01  0.713E+01
  2.560  0.732E+01  0.733E+01
  2.570  0.749E+01  0.748E+01
  2.580  0.774E+01  0.774E+01
  2.590  0.804E+01  0.804E+01
  2.600  0.848E+01  0.848E+01
  2.610  0.919E+01  0.918E+01
  2.620  0.978E+01  0.979E+01
  2.630  0.101E+02  0.101E+02
  2.640  0.102E+02  0.102E+02
  2.650  0.102E+02  0.102E+02
  2.660  0.108E+02  0.108E+02
  2.670  0.106E+02  0.106E+02
  2.680  0.117E+02  0.117E+02
  2.690  0.150E+02  0.150E+02
  2.700  0.180E+02  0.180E+02
  2.710  0.207E+02  0.207E+02
  2.720  0.203E+02  0.203E+02
  2.730  0.163E+02  0.163E+02
  2.740  0.133E+02  0.133E+02
  2.750  0.131E+02  0.131E+02
  2.760  0.133E+02  0.133E+02
  2.770  0.142E+02  0.142E+02
  2.780  0.149E+02  0.149E+02
  2.790  0.143E+02  0.143E+02
  2.800  0.139E+02  0.139E+02
  2.810  0.136E+02  0.136E+02
  2.820  0.136E+02  0.136E+02
  2.830  0.136E+02  0.136E+02
  2.840  0.138E+02  0.137E+02
  2.850  0.136E+02  0.136E+02
  2.860  0.132E+02  0.132E+02
  2.870  0.136E+02  0.136E+02
  2.880  0.129E+02  0.129E+02
  2.890  0.128E+02  0.128E+02
  2.900  0.107E+02  0.107E+02
  2.910  0.110E+02  0.110E+02
  2.920  0.117E+02  0.117E+02
  2.930  0.125E+02  0.125E+02
  2.940  0.128E+02  0.128E+02
  2.950  0.130E+02  0.130E+02
  2.960  0.131E+02  0.131E+02
  2.970  0.134E+02  0.134E+02
  2.980  0.136E+02  0.136E+02
  2.990  0.138E+02  0.138E+02
  3.000  0.139E+02  0.139E+02
  3.010  0.140E+02  0.140E+02
  3.020  0.142E+02  0.142E+02
  3.030  0.153E+02  0.153E+02
  3.040  0.162E+02  0.162E+02
  3.050  0.151E+02  0.151E+02
  3.060  0.140E+02  0.140E+02
  3.070  0.142E+02  0.142E+02
  3.080  0.144E+02  0.144E+02
  3.090  0.150E+02  0.150E+02
  3.100  0.160E+02  0.160E+02
  3.110  0.172E+02  0.172E+02
  3.120  0.176E+02  0.176E+02
  3.130  0.170E+02  0.170E+02
  3.140  0.171E+02  0.171E+02
  3.150  0.176E+02  0.176E+02
  3.160  0.172E+02  0.172E+02
  3.170  0.166E+02  0.165E+02
  3.180  0.161E+02  0.161E+02
  3.190  0.160E+02  0.160E+02
  3.200  0.154E+02  0.154E+02
  3.210  0.156E+02  0.156E+02
  3.220  0.156E+02  0.156E+02
  3.230  0.146E+02  0.146E+02
  3.240  0.132E+02  0.132E+02
  3.250  0.134E+02  0.133E+02
  3.260  0.126E+02  0.126E+02
  3.270  0.118E+02  0.118E+02
  3.280  0.116E+02  0.116E+02
  3.290  0.124E+02  0.124E+02
  3.300  0.134E+02  0.134E+02
  3.310  0.148E+02  0.148E+02
  3.320  0.169E+02  0.169E+02
  3.330  0.187E+02  0.187E+02
  3.340  0.203E+02  0.203E+02
  3.350  0.218E+02  0.218E+02
  3.360  0.213E+02  0.213E+02
  3.370  0.206E+02  0.206E+02
  3.380  0.215E+02  0.215E+02
  3.390  0.225E+02  0.225E+02
  3.400  0.234E+02  0.234E+02
  3.410  0.240E+02  0.240E+02
  3.420  0.241E+02  0.241E+02
  3.430  0.238E+02  0.238E+02
  3.440  0.228E+02  0.227E+02
  3.450  0.197E+02  0.197E+02
  3.460  0.169E+02  0.169E+02
  3.470  0.182E+02  0.182E+02
  3.480  0.181E+02  0.181E+02
  3.490  0.193E+02  0.193E+02
  3.500  0.202E+02  0.202E+02
  3.510  0.207E+02  0.207E+02
  3.520  0.211E+02  0.211E+02
  3.530  0.211E+02  0.211E+02
  3.540  0.227E+02  0.227E+02
  3.550  0.237E+02  0.237E+02
  3.560  0.237E+02  0.237E+02
  3.570  0.243E+02  0.243E+02
  3.580  0.232E+02  0.232E+02
  3.590  0.228E+02  0.228E+02
  3.600  0.218E+02  0.218E+02
  3.610  0.199E+02  0.199E+02
  3.620  0.192E+02  0.192E+02
  3.630  0.212E+02  0.211E+02
  3.640  0.231E+02  0.231E+02
  3.650  0.257E+02  0.256E+02
  3.660  0.252E+02  0.252E+02
  3.670  0.231E+02  0.231E+02
  3.680  0.217E+02  0.217E+02
  3.690  0.205E+02  0.205E+02
  3.700  0.191E+02  0.191E+02
  3.710  0.182E+02  0.182E+02
  3.720  0.181E+02  0.181E+02
  3.730  0.190E+02  0.190E+02
  3.740  0.211E+02  0.211E+02
  3.750  0.269E+02  0.269E+02
  3.760  0.262E+02  0.262E+02
  3.770  0.234E+02  0.234E+02
  3.780  0.209E+02  0.208E+02
  3.790  0.189E+02  0.189E+02
  3.800  0.182E+02  0.182E+02
  3.810  0.177E+02  0.177E+02
  3.820  0.173E+02  0.173E+02
  3.830  0.170E+02  0.170E+02
  3.840  0.171E+02  0.171E+02
  3.850  0.178E+02  0.178E+02
  3.860  0.196E+02  0.196E+02
  3.870  0.225E+02  0.225E+02
  3.880  0.268E+02  0.268E+02
  3.890  0.294E+02  0.294E+02
  3.900  0.267E+02  0.267E+02
  3.910  0.257E+02  0.257E+02
  3.920  0.246E+02  0.246E+02
  3.930  0.217E+02  0.217E+02
  3.940  0.202E+02  0.201E+02
  3.950  0.196E+02  0.196E+02
  3.960  0.201E+02  0.201E+02
  3.970  0.206E+02  0.206E+02
  3.980  0.221E+02  0.221E+02
  3.990  0.227E+02  0.227E+02
  4.000  0.230E+02  0.230E+02
  4.010  0.223E+02  0.223E+02
  4.020  0.218E+02  0.218E+02
  4.030  0.216E+02  0.216E+02
  4.040  0.216E+02  0.216E+02
  4.050  0.217E+02  0.217E+02
  4.060  0.210E+02  0.210E+02
  4.070  0.208E+02  0.208E+02
  4.080  0.212E+02  0.212E+02
  4.090  0.206E+02  0.206E+02
  4.100  0.195E+02  0.195E+02
  4.110  0.191E+02  0.191E+02
  4.120  0.189E+02  0.189E+02
  4.130  0.192E+02  0.192E+02
  4.140  0.208E+02  0.208E+02
  4.150  0.210E+02  0.210E+02
  4.160  0.214E+02  0.214E+02
  4.170  0.227E+02  0.227E+02
  4.180  0.254E+02  0.254E+02
  4.190  0.267E+02  0.267E+02
  4.200  0.290E+02  0.290E+02
  4.210  0.273E+02  0.273E+02
  4.220  0.288E+02  0.288E+02
  4.230  0.277E+02  0.277E+02
  4.240  0.251E+02  0.251E+02
  4.250  0.226E+02  0.226E+02
  4.260  0.212E+02  0.212E+02
  4.270  0.203E+02  0.203E+02
  4.280  0.198E+02  0.198E+02
  4.290  0.197E+02  0.197E+02
  4.300  0.211E+02  0.211E+02
  4.310  0.224E+02  0.224E+02
  4.320  0.243E+02  0.243E+02
  4.330  0.255E+02  0.255E+02
  4.340  0.250E+02  0.250E+02
  4.350  0.220E+02  0.220E+02
  4.360  0.203E+02  0.203E+02
  4.370  0.194E+02  0.194E+02
  4.380  0.193E+02  0.193E+02
  4.390  0.197E+02  0.197E+02
  4.400  0.210E+02  0.210E+02
  4.410  0.208E+02  0.209E+02
  4.420  0.204E+02  0.204E+02
  4.430  0.187E+02  0.187E+02
  4.440  0.187E+02  0.187E+02
  4.450  0.214E+02  0.214E+02
  4.460  0.234E+02  0.234E+02
  4.470  0.249E+02  0.249E+02
  4.480  0.265E+02  0.265E+02
  4.490  0.279E+02  0.279E+02
  4.500  0.256E+02  0.256E+02
  4.510  0.254E+02  0.254E+02
  4.520  0.229E+02  0.229E+02
  4.530  0.204E+02  0.204E+02
  4.540  0.201E+02  0.201E+02
  4.550  0.206E+02  0.206E+02
  4.560  0.216E+02  0.216E+02
  4.570  0.227E+02  0.227E+02
  4.580  0.225E+02  0.225E+02
  4.590  0.224E+02  0.224E+02
  4.600  0.220E+02  0.220E+02
  4.610  0.216E+02  0.216E+02
  4.620  0.212E+02  0.212E+02
  4.630  0.210E+02  0.210E+02
  4.640  0.209E+02  0.210E+02
  4.650  0.211E+02  0.211E+02
  4.660  0.216E+02  0.216E+02
  4.670  0.295E+02  0.295E+02
  4.680  0.262E+02  0.262E+02
  4.690  0.238E+02  0.238E+02
  4.700  0.254E+02  0.254E+02
  4.710  0.210E+02  0.210E+02
  4.720  0.200E+02  0.200E+02
  4.730  0.214E+02  0.214E+02
  4.740  0.243E+02  0.243E+02
  4.750  0.319E+02  0.319E+02
  4.760  0.260E+02  0.260E+02
  4.770  0.208E+02  0.208E+02
  4.780  0.190E+02  0.190E+02
  4.790  0.178E+02  0.178E+02
  4.800  0.173E+02  0.173E+02
  4.810  0.167E+02  0.167E+02
  4.820  0.161E+02  0.161E+02
  4.830  0.150E+02  0.150E+02
  4.840  0.141E+02  0.141E+02
  4.850  0.137E+02  0.137E+02
  4.860  0.133E+02  0.133E+02
  4.870  0.129E+02  0.129E+02
  4.880  0.125E+02  0.125E+02
  4.890  0.123E+02  0.123E+02
  4.900  0.121E+02  0.121E+02
  4.910  0.119E+02  0.119E+02
  4.920  0.118E+02  0.118E+02
  4.930  0.119E+02  0.119E+02
  4.940  0.124E+02  0.124E+02
  4.950  0.131E+02  0.131E+02
  4.960  0.137E+02  0.138E+02
  4.970  0.136E+02  0.136E+02
  4.980  0.124E+02  0.124E+02
  4.990  0.116E+02  0.116E+02
  5.000  0.118E+02  0.118E+02
  5.010  0.117E+02  0.117E+02
  5.020  0.123E+02  0.123E+02
  5.030  0.127E+02  0.127E+02
  5.040  0.117E+02  0.117E+02
  5.050  0.119E+02  0.119E+02
  5.060  0.121E+02  0.121E+02
  5.070  0.121E+02  0.121E+02
  5.080  0.121E+02  0.121E+02
  5.090  0.118E+02  0.118E+02
  5.100  0.112E+02  0.112E+02
  5.110  0.100E+02  0.100E+02
  5.120  0.842E+01  0.842E+01
  5.130  0.846E+01  0.846E+01
  5.140  0.852E+01  0.852E+01
  5.150  0.828E+01  0.828E+01
  5.160  0.793E+01  0.793E+01
  5.170  0.785E+01  0.785E+01
  5.180  0.601E+01  0.601E+01
  5.190  0.563E+01  0.563E+01
  5.200  0.545E+01  0.545E+01
  5.210  0.550E+01  0.551E+01
  5.220  0.652E+01  0.652E+01
  5.230  0.752E+01  0.752E+01
  5.240  0.835E+01  0.835E+01
  5.250  0.897E+01  0.897E+01
  5.260  0.949E+01  0.949E+01
  5.270  0.982E+01  0.982E+01
  5.280  0.999E+01  0.999E+01
  5.290  0.998E+01  0.998E+01
  5.300  0.976E+01  0.976E+01
  5.310  0.934E+01  0.934E+01
  5.320  0.825E+01  0.825E+01
  5.330  0.778E+01  0.778E+01
  5.340  0.769E+01  0.769E+01
  5.350  0.673E+01  0.673E+01
  5.360  0.545E+01  0.545E+01
  5.370  0.464E+01  0.464E+01
  5.380  0.433E+01  0.433E+01
  5.390  0.407E+01  0.407E+01
  5.400  0.386E+01  0.386E+01
  5.410  0.368E+01  0.368E+01
  5.420  0.356E+01  0.356E+01
  5.430  0.410E+01  0.410E+01
  5.440  0.444E+01  0.444E+01
  5.450  0.411E+01  0.411E+01
  5.460  0.386E+01  0.386E+01
  5.470  0.333E+01  0.333E+01
  5.480  0.291E+01  0.291E+01
  5.490  0.256E+01  0.256E+01
  5.500  0.220E+01  0.220E+01
  5.510  0.223E+01  0.223E+01
  5.520  0.204E+01  0.204E+01
  5.530  0.132E+01  0.132E+01
  5.540  0.336E+00  0.336E+00
  5.550  0.758E-01  0.758E-01
  5.560  0.656E-02  0.656E-02
  5.570  0.116E-02  0.116E-02
  5.580  0.350E-03  0.350E-03
  5.590  0.145E-04  0.145E-04
  5.600  0.000E+00  0.000E+00
  5.610  0.000E+00  0.000E+00
  5.620  0.000E+00  0.000E+00
  5.630  0.000E+00  0.000E+00
  5.640  0.000E+00  0.000E+00
  5.650  0.000E+00  0.000E+00
  5.660  0.000E+00  0.000E+00
  5.670  0.000E+00  0.000E+00
  5.680  0.000E+00  0.000E+00
  5.690  0.000E+00  0.000E+00
  5.700  0.000E+00  0.000E+00
  5.710  0.000E+00  0.000E+00
  5.720  0.000E+00  0.000E+00
  5.730  0.000E+00  0.000E+00
  5.740  0.000E+00  0.000E+00
  5.750  0.000E+00  0.000E+00
  5.760  0.000E+00  0.000E+00
  5.770  0.000E+00  0.000E+00
  5.780  0.000E+00  0.000E+00
  5.790  0.000E+00  0.000E+00
  5.800  0.000E+00  0.000E+00
  5.810  0.000E+00  0.000E+00
  5.820  0.000E+00  0.000E+00
  5.830  0.000E+00  0.000E+00
  5.840  0.000E+00  0.000E+00
  5.850  0.000E+00  0.000E+00
  5.860  0.000E+00  0.000E+00
  5.870  0.000E+00  0.000E+00
  5.880  0.000E+00  0.000E+00
  5.890  0.000E+00  0.000E+00
  5.900  0.000E+00  0.000E+00
  5.910  0.000E+00  0.000E+00
  5.920  0.000E+00  0.000E+00
  5.930  0.000E+00  0.000E+00
  5.940  0.000E+00  0.000E+00
  5.950  0.000E+00  0.000E+00
  5.960  0.000E+00  0.000E+00
  5.970  0.000E+00  0.000E+00
  5.980  0.000E+00  0.000E+00
  5.990  0.000E+00  0.000E+00
  6.000  0.000E+00  0.000E+00
  6.010  0.000E+00  0.000E+00
  6.020  0.000E+00  0.000E+00
  6.030  0.000E+00  0.000E+00
  6.040  0.000E+00  0.000E+00
  6.050  0.000E+00  0.000E+00
  6.060  0.000E+00  0.000E+00
  6.070  0.000E+00  0.000E+00
  6.080  0.000E+00  0.000E+00
  6.090  0.000E+00  0.000E+00
  6.100  0.000E+00  0.000E+00
  6.110  0.000E+00  0.000E+00
  6.120  0.000E+00  0.000E+00
  6.130  0.000E+00  0.000E+00
  6.140  0.000E+00  0.000E+00
  6.150  0.000E+00  0.000E+00
  6.160  0.000E+00  0.000E+00
  6.170  0.000E+00  0.000E+00
  6.180  0.000E+00  0.000E+00
  6.190  0.000E+00  0.000E+00
  6.200  0.000E+00  0.000E+00
  6.210  0.000E+00  0.000E+00
  6.220  0.000E+00  0.000E+00
  6.230  0.000E+00  0.000E+00
  6.240  0.000E+00  0.000E+00
  6.250  0.000E+00  0.000E+00
  6.260  0.000E+00  0.000E+00
  6.270  0.000E+00  0.000E+00
  6.280  0.000E+00  0.000E+00
  6.290  0.000E+00  0.000E+00
  6.300  0.000E+00  0.000E+00
  6.310  0.000E+00  0.000E+00
  6.320  0.000E+00  0.000E+00
  6.330  0.000E+00  0.000E+00
  6.340  0.000E+00  0.000E+00
  6.350  0.000E+00  0.000E+00
  6.360  0.000E+00  0.000E+00
  6.370  0.000E+00  0.000E+00
  6.380  0.000E+00  0.000E+00
  6.390  0.000E+00  0.000E+00
  6.400  0.000E+00  0.000E+00
  6.410  0.000E+00  0.000E+00
  6.420  0.000E+00  0.000E+00
  6.430  0.000E+00  0.000E+00
  6.440  0.000E+00  0.000E+00
  6.450  0.000E+00  0.000E+00
  6.460  0.000E+00  0.000E+00
  6.470  0.000E+00  0.000E+00
  6.480  0.000E+00  0.000E+00
  6.490  0.000E+00  0.000E+00
  6.500  0.000E+00  0.000E+00
  6.510  0.000E+00  0.000E+00
  6.520  0.000E+00  0.000E+00
  6.530  0.000E+00  0.000E+00
  6.540  0.000E+00  0.000E+00
  6.550  0.000E+00  0.000E+00
  6.560  0.000E+00  0.000E+00
  6.570  0.000E+00  0.000E+00
  6.580  0.000E+00  0.000E+00
  6.590  0.000E+00  0.000E+00
  6.600  0.000E+00  0.000E+00
  6.610  0.000E+00  0.000E+00
  6.620  0.000E+00  0.000E+00
  6.630  0.000E+00  0.000E+00
  6.640  0.000E+00  0.000E+00
  6.650  0.000E+00  0.000E+00
  6.660  0.000E+00  0.000E+00
  6.670  0.000E+00  0.000E+00
  6.680  0.000E+00  0.000E+00
  6.690  0.000E+00  0.000E+00
  6.700  0.000E+00  0.000E+00
  6.710  0.000E+00  0.000E+00
  6.720  0.000E+00  0.000E+00
  6.730  0.000E+00  0.000E+00
  6.740  0.000E+00  0.000E+00
  6.750  0.000E+00  0.000E+00
  6.760  0.000E+00  0.000E+00
  6.770  0.000E+00  0.000E+00
  6.780  0.000E+00  0.000E+00
  6.790  0.000E+00  0.000E+00
  6.800  0.000E+00  0.000E+00
  6.810  0.000E+00  0.000E+00
  6.820  0.000E+00  0.000E+00
  6.830  0.000E+00  0.000E+00
  6.840  0.000E+00  0.000E+00
  6.850  0.000E+00  0.000E+00
  6.860  0.000E+00  0.000E+00
  6.870  0.000E+00  0.000E+00
  6.880  0.000E+00  0.000E+00
  6.890  0.000E+00  0.000E+00
  6.900  0.000E+00  0.000E+00
  6.910  0.000E+00  0.000E+00
  6.920  0.000E+00  0.000E+00
  6.930  0.000E+00  0.000E+00
  6.940  0.000E+00  0.000E+00
  6.950  0.000E+00  0.000E+00
  6.960  0.000E+00  0.000E+00
  6.970  0.000E+00  0.000E+00
  6.980  0.000E+00  0.000E+00
  6.990  0.000E+00  0.000E+00
  7.000  0.000E+00  0.000E+00
  7.010  0.000E+00  0.000E+00
  7.020  0.000E+00  0.000E+00
  7.030  0.000E+00  0.000E+00
  7.040  0.000E+00  0.000E+00
  7.050  0.000E+00  0.000E+00
  7.060  0.000E+00  0.000E+00
  7.070  0.000E+00  0.000E+00
  7.080  0.000E+00  0.000E+00
  7.090  0.000E+00  0.000E+00
  7.100  0.000E+00  0.000E+00
  7.110  0.000E+00  0.000E+00
  7.120  0.000E+00  0.000E+00
  7.130  0.000E+00  0.000E+00
  7.140  0.000E+00  0.000E+00
  7.150  0.000E+00  0.000E+00
  7.160  0.000E+00  0.000E+00
  7.170  0.000E+00  0.000E+00
  7.180  0.000E+00  0.000E+00
  7.190  0.000E+00  0.000E+00
  7.200  0.000E+00  0.000E+00
  7.210  0.000E+00  0.000E+00
  7.220  0.000E+00  0.000E+00
  7.230  0.000E+00  0.000E+00
  7.240  0.000E+00  0.000E+00
  7.250  0.000E+00  0.000E+00
  7.260  0.000E+00  0.000E+00
  7.270  0.000E+00  0.000E+00
  7.280  0.000E+00  0.000E+00
  7.290  0.000E+00  0.000E+00
  7.300  0.000E+00  0.000E+00
  7.310  0.000E+00  0.000E+00
  7.320  0.000E+00  0.000E+00
  7.330  0.000E+00  0.000E+00
  7.340  0.000E+00  0.000E+00
  7.350  0.000E+00  0.000E+00
  7.360  0.000E+00  0.000E+00
  7.370  0.000E+00  0.000E+00
  7.380  0.000E+00  0.000E+00
  7.390  0.000E+00  0.000E+00
  7.400  0.000E+00  0.000E+00
  7.410  0.000E+00  0.000E+00
  7.420  0.000E+00  0.000E+00
  7.430  0.000E+00  0.000E+00
  7.440  0.000E+00  0.000E+00
  7.450  0.000E+00  0.000E+00
  7.460  0.000E+00  0.000E+00
  7.470 -0.125E-07 -0.125E-07
  7.480 -0.103E-05 -0.103E-05
  7.490 -0.293E-05 -0.293E-05
  7.500 -0.486E-05 -0.486E-05
  7.510 -0.912E-05 -0.912E-05
  7.520 -0.116E-04 -0.116E-04
  7.530 -0.566E-05 -0.566E-05
  7.540  0.151E-04  0.151E-04
  7.550  0.573E-04  0.573E-04
  7.560  0.127E-03  0.127E-03
  7.570  0.232E-03  0.232E-03
  7.580  0.378E-03  0.378E-03
  7.590  0.570E-03  0.570E-03
  7.600  0.816E-03  0.816E-03
  7.610  0.112E-02  0.112E-02
  7.620  0.150E-02  0.150E-02
  7.630  0.195E-02  0.195E-02
  7.640  0.248E-02  0.248E-02
  7.650  0.309E-02  0.309E-02
  7.660  0.381E-02  0.381E-02
  7.670  0.454E-02  0.454E-02
  7.680  0.538E-02  0.538E-02
  7.690  0.627E-02  0.627E-02
  7.700  0.726E-02  0.726E-02
  7.710  0.826E-02  0.826E-02
  7.720  0.928E-02  0.928E-02
  7.730  0.103E-01  0.103E-01
  7.740  0.114E-01  0.114E-01
  7.750  0.124E-01  0.124E-01
  7.760  0.135E-01  0.135E-01
  7.770  0.145E-01  0.145E-01
  7.780  0.156E-01  0.156E-01
  7.790  0.166E-01  0.166E-01
  7.800  0.177E-01  0.177E-01
  7.810  0.187E-01  0.187E-01
  7.820  0.197E-01  0.197E-01
  7.830  0.207E-01  0.207E-01
  7.840  0.215E-01  0.215E-01
  7.850  0.223E-01  0.223E-01
  7.860  0.231E-01  0.231E-01
  7.870  0.239E-01  0.239E-01
  7.880  0.249E-01  0.249E-01
  7.890  0.258E-01  0.258E-01
  7.900  0.268E-01  0.268E-01
  7.910  0.279E-01  0.279E-01
  7.920  0.290E-01  0.290E-01
  7.930  0.303E-01  0.303E-01
  7.940  0.315E-01  0.315E-01
  7.950  0.328E-01  0.328E-01
  7.960  0.342E-01  0.342E-01
  7.970  0.357E-01  0.357E-01
  7.980  0.373E-01  0.373E-01
  7.990  0.389E-01  0.389E-01
  8.000  0.405E-01  0.405E-01
  8.010  0.421E-01  0.421E-01
  8.020  0.438E-01  0.438E-01
  8.030  0.455E-01  0.455E-01
  8.040  0.474E-01  0.474E-01
  8.050  0.491E-01  0.491E-01
  8.060  0.510E-01  0.510E-01
  8.070  0.528E-01  0.528E-01
  8.080  0.549E-01  0.549E-01
  8.090  0.568E-01  0.568E-01
  8.100  0.588E-01  0.588E-01
  8.110  0.609E-01  0.609E-01
  8.120  0.630E-01  0.630E-01
  8.130  0.652E-01  0.652E-01
  8.140  0.673E-01  0.673E-01
  8.150  0.698E-01  0.698E-01
  8.160  0.720E-01  0.720E-01
  8.170  0.740E-01  0.740E-01
  8.180  0.758E-01  0.758E-01
  8.190  0.772E-01  0.772E-01
  8.200  0.785E-01  0.785E-01
  8.210  0.798E-01  0.798E-01
  8.220  0.810E-01  0.810E-01
  8.230  0.822E-01  0.822E-01
  8.240  0.833E-01  0.833E-01
  8.250  0.849E-01  0.849E-01
  8.260  0.866E-01  0.866E-01
  8.270  0.889E-01  0.889E-01
  8.280  0.914E-01  0.914E-01
  8.290  0.937E-01  0.937E-01
  8.300  0.953E-01  0.953E-01
  8.310  0.964E-01  0.964E-01
  8.320  0.977E-01  0.977E-01
  8.330  0.995E-01  0.995E-01
  8.340  0.102E+00  0.102E+00
  8.350  0.104E+00  0.104E+00
  8.360  0.106E+00  0.106E+00
  8.370  0.108E+00  0.108E+00
  8.380  0.111E+00  0.111E+00
  8.390  0.113E+00  0.113E+00
  8.400  0.115E+00  0.115E+00
  8.410  0.118E+00  0.118E+00
  8.420  0.120E+00  0.120E+00
  8.430  0.123E+00  0.123E+00
  8.440  0.125E+00  0.125E+00
  8.450  0.128E+00  0.128E+00
  8.460  0.131E+00  0.131E+00
  8.470  0.134E+00  0.134E+00
  8.480  0.136E+00  0.136E+00
  8.490  0.139E+00  0.139E+00
  8.500  0.143E+00  0.143E+00
  8.510  0.146E+00  0.146E+00
  8.520  0.148E+00  0.148E+00
  8.530  0.150E+00  0.150E+00
  8.540  0.151E+00  0.151E+00
  8.550  0.153E+00  0.153E+00
  8.560  0.157E+00  0.157E+00
  8.570  0.160E+00  0.160E+00
  8.580  0.164E+00  0.164E+00
  8.590  0.168E+00  0.168E+00
  8.600  0.172E+00  0.172E+00
  8.610  0.177E+00  0.177E+00
  8.620  0.182E+00  0.182E+00
  8.630  0.187E+00  0.187E+00
  8.640  0.193E+00  0.193E+00
  8.650  0.199E+00  0.199E+00
  8.660  0.205E+00  0.205E+00
  8.670  0.212E+00  0.212E+00
  8.680  0.219E+00  0.219E+00
  8.690  0.227E+00  0.227E+00
  8.700  0.234E+00  0.234E+00
  8.710  0.242E+00  0.242E+00
  8.720  0.254E+00  0.254E+00
  8.730  0.270E+00  0.270E+00
  8.740  0.289E+00  0.289E+00
  8.750  0.310E+00  0.310E+00
  8.760  0.333E+00  0.333E+00
  8.770  0.352E+00  0.352E+00
  8.780  0.366E+00  0.366E+00
  8.790  0.380E+00  0.380E+00
  8.800  0.394E+00  0.394E+00
  8.810  0.412E+00  0.412E+00
  8.820  0.432E+00  0.432E+00
  8.830  0.457E+00  0.457E+00
  8.840  0.484E+00  0.484E+00
  8.850  0.511E+00  0.511E+00
  8.860  0.546E+00  0.546E+00
  8.870  0.600E+00  0.600E+00
  8.880  0.666E+00  0.666E+00
  8.890  0.877E+00  0.877E+00
  8.900  0.873E+00  0.873E+00
  8.910  0.870E+00  0.870E+00
  8.920  0.879E+00  0.879E+00
  8.930  0.866E+00  0.866E+00
  8.940  0.875E+00  0.875E+00
  8.950  0.880E+00  0.880E+00
  8.960  0.873E+00  0.873E+00
  8.970  0.859E+00  0.859E+00
  8.980  0.815E+00  0.815E+00
  8.990  0.698E+00  0.698E+00
  9.000  0.654E+00  0.654E+00
  9.010  0.642E+00  0.642E+00
  9.020  0.637E+00  0.638E+00
  9.030  0.637E+00  0.637E+00
  9.040  0.636E+00  0.636E+00
  9.050  0.636E+00  0.636E+00
  9.060  0.639E+00  0.639E+00
  9.070  0.646E+00  0.646E+00
  9.080  0.652E+00  0.652E+00
  9.090  0.659E+00  0.659E+00
  9.100  0.673E+00  0.672E+00
  9.110  0.694E+00  0.694E+00
  9.120  0.726E+00  0.727E+00
  9.130  0.759E+00  0.759E+00
  9.140  0.814E+00  0.814E+00
  9.150  0.876E+00  0.876E+00
  9.160  0.935E+00  0.935E+00
  9.170  0.980E+00  0.981E+00
  9.180  0.104E+01  0.104E+01
  9.190  0.110E+01  0.111E+01
  9.200  0.117E+01  0.117E+01
  9.210  0.125E+01  0.125E+01
  9.220  0.133E+01  0.133E+01
  9.230  0.142E+01  0.142E+01
  9.240  0.151E+01  0.151E+01
  9.250  0.159E+01  0.159E+01
  9.260  0.167E+01  0.167E+01
  9.270  0.175E+01  0.175E+01
  9.280  0.181E+01  0.181E+01
  9.290  0.190E+01  0.190E+01
  9.300  0.211E+01  0.211E+01
  9.310  0.149E+01  0.149E+01
  9.320  0.145E+01  0.145E+01
  9.330  0.145E+01  0.145E+01
  9.340  0.147E+01  0.147E+01
  9.350  0.151E+01  0.150E+01
  9.360  0.155E+01  0.155E+01
  9.370  0.163E+01  0.163E+01
  9.380  0.174E+01  0.174E+01
  9.390  0.183E+01  0.183E+01
  9.400  0.202E+01  0.202E+01
  9.410  0.233E+01  0.233E+01
  9.420  0.253E+01  0.253E+01
  9.430  0.256E+01  0.256E+01
  9.440  0.240E+01  0.240E+01
  9.450  0.191E+01  0.191E+01
  9.460  0.169E+01  0.168E+01
  9.470  0.165E+01  0.165E+01
  9.480  0.163E+01  0.163E+01
  9.490  0.162E+01  0.162E+01
  9.500  0.206E+01  0.206E+01
  9.510  0.138E+01  0.138E+01
  9.520  0.119E+01  0.119E+01
  9.530  0.108E+01  0.108E+01
  9.540  0.108E+01  0.108E+01
  9.550  0.112E+01  0.112E+01
  9.560  0.121E+01  0.121E+01
  9.570  0.132E+01  0.132E+01
  9.580  0.145E+01  0.145E+01
  9.590  0.159E+01  0.159E+01
  9.600  0.174E+01  0.174E+01
  9.610  0.193E+01  0.193E+01
  9.620  0.217E+01  0.217E+01
  9.630  0.237E+01  0.237E+01
  9.640  0.255E+01  0.255E+01
  9.650  0.273E+01  0.273E+01
  9.660  0.292E+01  0.292E+01
  9.670  0.302E+01  0.302E+01
  9.680  0.314E+01  0.315E+01
  9.690  0.382E+01  0.382E+01
  9.700  0.423E+01  0.423E+01
  9.710  0.566E+01  0.566E+01
  9.720  0.677E+01  0.677E+01
  9.730  0.594E+01  0.594E+01
  9.740  0.578E+01  0.578E+01
  9.750  0.552E+01  0.552E+01
  9.760  0.508E+01  0.508E+01
  9.770  0.438E+01  0.438E+01
  9.780  0.385E+01  0.385E+01
  9.790  0.346E+01  0.344E+01
  9.800  0.331E+01  0.331E+01
  9.810  0.338E+01  0.338E+01
  9.820  0.357E+01  0.356E+01
  9.830  0.374E+01  0.374E+01
  9.840  0.366E+01  0.366E+01
  9.850  0.378E+01  0.378E+01
  9.860  0.385E+01  0.385E+01
  9.870  0.394E+01  0.394E+01
  9.880  0.399E+01  0.399E+01
  9.890  0.408E+01  0.408E+01
  9.900  0.432E+01  0.432E+01
  9.910  0.468E+01  0.468E+01
  9.920  0.502E+01  0.502E+01
  9.930  0.507E+01  0.507E+01
  9.940  0.558E+01  0.558E+01
  9.950  0.588E+01  0.588E+01
  9.960  0.647E+01  0.647E+01
  9.970  0.700E+01  0.700E+01