# E (eV) pdosup(E)  pdosdw(E) 
  0.000  0.757E+00  0.757E+00
  0.010  0.954E+00  0.954E+00
  0.020  0.134E+01  0.134E+01
  0.030  0.131E+01  0.131E+01
  0.040  0.128E+01  0.128E+01
  0.050  0.122E+01  0.122E+01
  0.060  0.117E+01  0.117E+01
  0.070  0.137E+01  0.137E+01
  0.080  0.122E+01  0.122E+01
  0.090  0.138E+01  0.138E+01
  0.100  0.152E+01  0.152E+01
  0.110  0.165E+01  0.165E+01
  0.120  0.165E+01  0.165E+01
  0.130  0.138E+01  0.138E+01
  0.140  0.994E+00  0.994E+00
  0.150  0.744E+00  0.744E+00
  0.160  0.565E+00  0.565E+00
  0.170  0.427E+00  0.427E+00
  0.180  0.217E+00  0.217E+00
  0.190  0.342E-02  0.342E-02
  0.200  0.000E+00  0.000E+00
  0.210  0.000E+00  0.000E+00
  0.220  0.000E+00  0.000E+00
  0.230  0.000E+00  0.000E+00
  0.240  0.000E+00  0.000E+00
  0.250  0.000E+00  0.000E+00
  0.260  0.000E+00  0.000E+00
  0.270  0.000E+00  0.000E+00
  0.280  0.000E+00  0.000E+00
  0.290  0.000E+00  0.000E+00
  0.300  0.000E+00  0.000E+00
  0.310  0.000E+00  0.000E+00
  0.320  0.000E+00  0.000E+00
  0.330  0.000E+00  0.000E+00
  0.340 -0.338E-07 -0.338E-07
  0.350 -0.360E-06 -0.360E-06
  0.360 -0.139E-05 -0.140E-05
  0.370  0.136E-04  0.136E-04
  0.380  0.923E-04  0.924E-04
  0.390  0.287E-03  0.287E-03
  0.400  0.639E-03  0.639E-03
  0.410  0.138E-02  0.138E-02
  0.420  0.280E-02  0.280E-02
  0.430  0.515E-02  0.516E-02
  0.440  0.766E-02  0.765E-02
  0.450  0.973E-02  0.973E-02
  0.460  0.108E-01  0.108E-01
  0.470  0.107E-01  0.107E-01
  0.480  0.117E-01  0.117E-01
  0.490  0.135E-01  0.135E-01
  0.500  0.156E-01  0.156E-01
  0.510  0.188E-01  0.188E-01
  0.520  0.230E-01  0.230E-01
  0.530  0.263E-01  0.263E-01
  0.540  0.273E-01  0.273E-01
  0.550  0.275E-01  0.275E-01
  0.560  0.287E-01  0.287E-01
  0.570  0.312E-01  0.312E-01
  0.580  0.340E-01  0.340E-01
  0.590  0.369E-01  0.369E-01
  0.600  0.400E-01  0.400E-01
  0.610  0.435E-01  0.435E-01
  0.620  0.472E-01  0.472E-01
  0.630  0.514E-01  0.514E-01
  0.640  0.560E-01  0.560E-01
  0.650  0.618E-01  0.618E-01
  0.660  0.686E-01  0.686E-01
  0.670  0.778E-01  0.778E-01
  0.680  0.917E-01  0.917E-01
  0.690  0.999E-01  0.999E-01
  0.700  0.104E+00  0.104E+00
  0.710  0.108E+00  0.108E+00
  0.720  0.110E+00  0.110E+00
  0.730  0.110E+00  0.111E+00
  0.740  0.111E+00  0.111E+00
  0.750  0.111E+00  0.111E+00
  0.760  0.109E+00  0.109E+00
  0.770  0.109E+00  0.109E+00
  0.780  0.113E+00  0.113E+00
  0.790  0.119E+00  0.119E+00
  0.800  0.127E+00  0.127E+00
  0.810  0.136E+00  0.136E+00
  0.820  0.146E+00  0.146E+00
  0.830  0.160E+00  0.160E+00
  0.840  0.178E+00  0.178E+00
  0.850  0.198E+00  0.198E+00
  0.860  0.221E+00  0.221E+00
  0.870  0.250E+00  0.249E+00
  0.880  0.268E+00  0.268E+00
  0.890  0.285E+00  0.285E+00
  0.900  0.297E+00  0.297E+00
  0.910  0.313E+00  0.313E+00
  0.920  0.321E+00  0.321E+00
  0.930  0.317E+00  0.317E+00
  0.940  0.303E+00  0.304E+00
  0.950  0.287E+00  0.287E+00
  0.960  0.275E+00  0.275E+00
  0.970  0.256E+00  0.256E+00
  0.980  0.251E+00  0.251E+00
  0.990  0.257E+00  0.257E+00
  1.000  0.306E+00  0.306E+00
  1.010  0.366E+00  0.366E+00
  1.020  0.666E+00  0.666E+00
  1.030  0.569E+00  0.569E+00
  1.040  0.584E+00  0.584E+00
  1.050  0.701E+00  0.701E+00
  1.060  0.614E+00  0.614E+00
  1.070  0.538E+00  0.538E+00
  1.080  0.834E+00  0.834E+00
  1.090  0.532E+00  0.533E+00
  1.100  0.409E+00  0.409E+00
  1.110  0.379E+00  0.379E+00
  1.120  0.341E+00  0.341E+00
  1.130  0.360E+00  0.361E+00
  1.140  0.556E+00  0.556E+00
  1.150  0.596E+00  0.596E+00
  1.160  0.515E+00  0.515E+00
  1.170  0.558E+00  0.558E+00
  1.180  0.662E+00  0.662E+00
  1.190  0.734E+00  0.735E+00
  1.200  0.739E+00  0.740E+00
  1.210  0.731E+00  0.731E+00
  1.220  0.720E+00  0.720E+00
  1.230  0.709E+00  0.710E+00
  1.240  0.701E+00  0.702E+00
  1.250  0.683E+00  0.684E+00
  1.260  0.667E+00  0.667E+00
  1.270  0.651E+00  0.650E+00
  1.280  0.642E+00  0.641E+00
  1.290  0.644E+00  0.643E+00
  1.300  0.648E+00  0.647E+00
  1.310  0.670E+00  0.669E+00
  1.320  0.671E+00  0.671E+00
  1.330  0.660E+00  0.659E+00
  1.340  0.601E+00  0.601E+00
  1.350  0.585E+00  0.585E+00
  1.360  0.633E+00  0.633E+00
  1.370  0.671E+00  0.672E+00
  1.380  0.691E+00  0.692E+00
  1.390  0.692E+00  0.692E+00
  1.400  0.686E+00  0.686E+00
  1.410  0.668E+00  0.668E+00
  1.420  0.648E+00  0.648E+00
  1.430  0.624E+00  0.625E+00
  1.440  0.608E+00  0.608E+00
  1.450  0.604E+00  0.604E+00
  1.460  0.602E+00  0.601E+00
  1.470  0.603E+00  0.602E+00
  1.480  0.607E+00  0.607E+00
  1.490  0.624E+00  0.624E+00
  1.500  0.638E+00  0.639E+00
  1.510  0.647E+00  0.647E+00
  1.520  0.642E+00  0.641E+00
  1.530  0.636E+00  0.636E+00
  1.540  0.638E+00  0.638E+00
  1.550  0.637E+00  0.637E+00
  1.560  0.621E+00  0.621E+00
  1.570  0.609E+00  0.609E+00
  1.580  0.597E+00  0.597E+00
  1.590  0.586E+00  0.586E+00
  1.600  0.578E+00  0.578E+00
  1.610  0.568E+00  0.568E+00
  1.620  0.555E+00  0.555E+00
  1.630  0.547E+00  0.548E+00
  1.640  0.548E+00  0.548E+00
  1.650  0.553E+00  0.553E+00
  1.660  0.563E+00  0.563E+00
  1.670  0.577E+00  0.578E+00
  1.680  0.593E+00  0.594E+00
  1.690  0.608E+00  0.608E+00
  1.700  0.614E+00  0.613E+00
  1.710  0.608E+00  0.608E+00
  1.720  0.590E+00  0.589E+00
  1.730  0.551E+00  0.552E+00
  1.740  0.503E+00  0.502E+00
  1.750  0.459E+00  0.459E+00
  1.760  0.447E+00  0.447E+00
  1.770  0.514E+00  0.514E+00
  1.780  0.524E+00  0.524E+00
  1.790  0.503E+00  0.503E+00
  1.800  0.495E+00  0.495E+00
  1.810  0.509E+00  0.509E+00
  1.820  0.522E+00  0.522E+00
  1.830  0.533E+00  0.532E+00
  1.840  0.542E+00  0.542E+00
  1.850  0.546E+00  0.546E+00
  1.860  0.550E+00  0.550E+00
  1.870  0.550E+00  0.551E+00
  1.880  0.550E+00  0.550E+00
  1.890  0.546E+00  0.545E+00
  1.900  0.540E+00  0.541E+00
  1.910  0.536E+00  0.536E+00
  1.920  0.536E+00  0.536E+00
  1.930  0.542E+00  0.542E+00
  1.940  0.551E+00  0.552E+00
  1.950  0.560E+00  0.560E+00
  1.960  0.566E+00  0.566E+00
  1.970  0.570E+00  0.570E+00
  1.980  0.574E+00  0.574E+00
  1.990  0.575E+00  0.576E+00
  2.000  0.576E+00  0.577E+00
  2.010  0.578E+00  0.578E+00
  2.020  0.579E+00  0.580E+00
  2.030  0.581E+00  0.581E+00
  2.040  0.573E+00  0.574E+00
  2.050  0.587E+00  0.587E+00
  2.060  0.577E+00  0.578E+00
  2.070  0.556E+00  0.556E+00
  2.080  0.550E+00  0.551E+00
  2.090  0.549E+00  0.550E+00
  2.100  0.550E+00  0.551E+00
  2.110  0.551E+00  0.550E+00
  2.120  0.549E+00  0.549E+00
  2.130  0.545E+00  0.545E+00
  2.140  0.539E+00  0.538E+00
  2.150  0.526E+00  0.526E+00
  2.160  0.510E+00  0.509E+00
  2.170  0.492E+00  0.492E+00
  2.180  0.473E+00  0.473E+00
  2.190  0.452E+00  0.453E+00
  2.200  0.438E+00  0.440E+00
  2.210  0.429E+00  0.429E+00
  2.220  0.420E+00  0.420E+00
  2.230  0.411E+00  0.409E+00
  2.240  0.402E+00  0.401E+00
  2.250  0.394E+00  0.395E+00
  2.260  0.389E+00  0.389E+00
  2.270  0.386E+00  0.386E+00
  2.280  0.386E+00  0.386E+00
  2.290  0.387E+00  0.387E+00
  2.300  0.391E+00  0.391E+00
  2.310  0.394E+00  0.395E+00
  2.320  0.400E+00  0.399E+00
  2.330  0.405E+00  0.405E+00
  2.340  0.415E+00  0.415E+00
  2.350  0.426E+00  0.426E+00
  2.360  0.418E+00  0.418E+00
  2.370  0.426E+00  0.426E+00
  2.380  0.444E+00  0.444E+00
  2.390  0.468E+00  0.469E+00
  2.400  0.481E+00  0.480E+00
  2.410  0.477E+00  0.477E+00
  2.420  0.475E+00  0.476E+00
  2.430  0.476E+00  0.475E+00
  2.440  0.470E+00  0.471E+00
  2.450  0.465E+00  0.465E+00
  2.460  0.461E+00  0.461E+00
  2.470  0.454E+00  0.453E+00
  2.480  0.442E+00  0.442E+00
  2.490  0.423E+00  0.423E+00
  2.500  0.383E+00  0.383E+00
  2.510  0.365E+00  0.365E+00
  2.520  0.350E+00  0.350E+00
  2.530  0.336E+00  0.336E+00
  2.540  0.319E+00  0.319E+00
  2.550  0.298E+00  0.297E+00
  2.560  0.274E+00  0.274E+00
  2.570  0.254E+00  0.254E+00
  2.580  0.246E+00  0.246E+00
  2.590  0.251E+00  0.251E+00
  2.600  0.274E+00  0.274E+00
  2.610  0.319E+00  0.319E+00
  2.620  0.349E+00  0.348E+00
  2.630  0.380E+00  0.381E+00
  2.640  0.387E+00  0.388E+00
  2.650  0.391E+00  0.391E+00
  2.660  0.403E+00  0.404E+00
  2.670  0.432E+00  0.431E+00
  2.680  0.503E+00  0.503E+00
  2.690  0.657E+00  0.657E+00
  2.700  0.797E+00  0.797E+00
  2.710  0.934E+00  0.933E+00
  2.720  0.818E+00  0.818E+00
  2.730  0.726E+00  0.726E+00
  2.740  0.514E+00  0.515E+00
  2.750  0.431E+00  0.431E+00
  2.760  0.395E+00  0.394E+00
  2.770  0.386E+00  0.386E+00
  2.780  0.400E+00  0.400E+00
  2.790  0.423E+00  0.423E+00
  2.800  0.444E+00  0.444E+00
  2.810  0.472E+00  0.472E+00
  2.820  0.493E+00  0.492E+00
  2.830  0.487E+00  0.487E+00
  2.840  0.498E+00  0.498E+00
  2.850  0.458E+00  0.459E+00
  2.860  0.379E+00  0.380E+00
  2.870  0.339E+00  0.339E+00
  2.880  0.296E+00  0.296E+00
  2.890  0.270E+00  0.270E+00
  2.900  0.247E+00  0.247E+00
  2.910  0.259E+00  0.259E+00
  2.920  0.303E+00  0.303E+00
  2.930  0.380E+00  0.380E+00
  2.940  0.436E+00  0.436E+00
  2.950  0.474E+00  0.474E+00
  2.960  0.502E+00  0.502E+00
  2.970  0.521E+00  0.521E+00
  2.980  0.535E+00  0.535E+00
  2.990  0.540E+00  0.540E+00
  3.000  0.530E+00  0.530E+00
  3.010  0.514E+00  0.514E+00
  3.020  0.525E+00  0.525E+00
  3.030  0.536E+00  0.536E+00
  3.040  0.505E+00  0.505E+00
  3.050  0.477E+00  0.477E+00
  3.060  0.395E+00  0.395E+00
  3.070  0.381E+00  0.381E+00
  3.080  0.386E+00  0.386E+00
  3.090  0.406E+00  0.406E+00
  3.100  0.465E+00  0.464E+00
  3.110  0.559E+00  0.559E+00
  3.120  0.562E+00  0.562E+00
  3.130  0.485E+00  0.485E+00
  3.140  0.458E+00  0.458E+00
  3.150  0.449E+00  0.449E+00
  3.160  0.423E+00  0.423E+00
  3.170  0.397E+00  0.397E+00
  3.180  0.374E+00  0.374E+00
  3.190  0.358E+00  0.358E+00
  3.200  0.301E+00  0.301E+00
  3.210  0.278E+00  0.278E+00
  3.220  0.273E+00  0.273E+00
  3.230  0.250E+00  0.250E+00
  3.240  0.224E+00  0.224E+00
  3.250  0.244E+00  0.244E+00
  3.260  0.214E+00  0.214E+00
  3.270  0.206E+00  0.206E+00
  3.280  0.213E+00  0.213E+00
  3.290  0.232E+00  0.232E+00
  3.300  0.254E+00  0.254E+00
  3.310  0.284E+00  0.284E+00
  3.320  0.321E+00  0.322E+00
  3.330  0.350E+00  0.350E+00
  3.340  0.378E+00  0.377E+00
  3.350  0.420E+00  0.420E+00
  3.360  0.446E+00  0.447E+00
  3.370  0.421E+00  0.421E+00
  3.380  0.452E+00  0.452E+00
  3.390  0.511E+00  0.511E+00
  3.400  0.602E+00  0.602E+00
  3.410  0.656E+00  0.657E+00
  3.420  0.661E+00  0.661E+00
  3.430  0.609E+00  0.610E+00
  3.440  0.523E+00  0.524E+00
  3.450  0.436E+00  0.436E+00
  3.460  0.368E+00  0.368E+00
  3.470  0.366E+00  0.366E+00
  3.480  0.384E+00  0.384E+00
  3.490  0.408E+00  0.409E+00
  3.500  0.409E+00  0.410E+00
  3.510  0.402E+00  0.402E+00
  3.520  0.403E+00  0.402E+00
  3.530  0.392E+00  0.392E+00
  3.540  0.482E+00  0.482E+00
  3.550  0.510E+00  0.510E+00
  3.560  0.480E+00  0.480E+00
  3.570  0.432E+00  0.432E+00
  3.580  0.371E+00  0.370E+00
  3.590  0.311E+00  0.311E+00
  3.600  0.257E+00  0.257E+00
  3.610  0.215E+00  0.215E+00
  3.620  0.198E+00  0.198E+00
  3.630  0.256E+00  0.256E+00
  3.640  0.230E+00  0.230E+00
  3.650  0.242E+00  0.243E+00
  3.660  0.209E+00  0.209E+00
  3.670  0.185E+00  0.185E+00
  3.680  0.175E+00  0.175E+00
  3.690  0.171E+00  0.171E+00
  3.700  0.183E+00  0.183E+00
  3.710  0.216E+00  0.216E+00
  3.720  0.250E+00  0.250E+00
  3.730  0.256E+00  0.256E+00
  3.740  0.259E+00  0.259E+00
  3.750  0.285E+00  0.285E+00
  3.760  0.334E+00  0.334E+00
  3.770  0.364E+00  0.363E+00
  3.780  0.378E+00  0.378E+00
  3.790  0.383E+00  0.383E+00
  3.800  0.389E+00  0.389E+00
  3.810  0.380E+00  0.380E+00
  3.820  0.373E+00  0.372E+00
  3.830  0.366E+00  0.364E+00
  3.840  0.353E+00  0.353E+00
  3.850  0.376E+00  0.375E+00
  3.860  0.395E+00  0.396E+00
  3.870  0.395E+00  0.395E+00
  3.880  0.386E+00  0.386E+00
  3.890  0.382E+00  0.382E+00
  3.900  0.399E+00  0.399E+00
  3.910  0.395E+00  0.395E+00
  3.920  0.400E+00  0.400E+00
  3.930  0.358E+00  0.358E+00
  3.940  0.342E+00  0.342E+00
  3.950  0.307E+00  0.307E+00
  3.960  0.257E+00  0.256E+00
  3.970  0.211E+00  0.211E+00
  3.980  0.182E+00  0.182E+00
  3.990  0.176E+00  0.176E+00
  4.000  0.189E+00  0.189E+00
  4.010  0.187E+00  0.187E+00
  4.020  0.182E+00  0.182E+00
  4.030  0.178E+00  0.178E+00
  4.040  0.172E+00  0.172E+00
  4.050  0.144E+00  0.144E+00
  4.060  0.139E+00  0.139E+00
  4.070  0.139E+00  0.139E+00
  4.080  0.152E+00  0.152E+00
  4.090  0.154E+00  0.154E+00
  4.100  0.155E+00  0.155E+00
  4.110  0.163E+00  0.163E+00
  4.120  0.173E+00  0.173E+00
  4.130  0.186E+00  0.186E+00
  4.140  0.206E+00  0.206E+00
  4.150  0.239E+00  0.238E+00
  4.160  0.283E+00  0.283E+00
  4.170  0.310E+00  0.310E+00
  4.180  0.280E+00  0.280E+00
  4.190  0.208E+00  0.208E+00
  4.200  0.212E+00  0.212E+00
  4.210  0.221E+00  0.221E+00
  4.220  0.264E+00  0.264E+00
  4.230  0.253E+00  0.254E+00
  4.240  0.213E+00  0.214E+00
  4.250  0.175E+00  0.175E+00
  4.260  0.151E+00  0.151E+00
  4.270  0.133E+00  0.133E+00
  4.280  0.120E+00  0.120E+00
  4.290  0.112E+00  0.112E+00
  4.300  0.124E+00  0.124E+00
  4.310  0.199E+00  0.199E+00
  4.320  0.252E+00  0.252E+00
  4.330  0.288E+00  0.288E+00
  4.340  0.298E+00  0.298E+00
  4.350  0.287E+00  0.287E+00
  4.360  0.270E+00  0.270E+00
  4.370  0.254E+00  0.254E+00
  4.380  0.237E+00  0.237E+00
  4.390  0.222E+00  0.222E+00
  4.400  0.210E+00  0.210E+00
  4.410  0.200E+00  0.200E+00
  4.420  0.183E+00  0.183E+00
  4.430  0.161E+00  0.161E+00
  4.440  0.140E+00  0.140E+00
  4.450  0.130E+00  0.130E+00
  4.460  0.120E+00  0.120E+00
  4.470  0.112E+00  0.113E+00
  4.480  0.108E+00  0.108E+00
  4.490  0.107E+00  0.107E+00
  4.500  0.869E-01  0.869E-01
  4.510  0.760E-01  0.759E-01
  4.520  0.689E-01  0.689E-01
  4.530  0.625E-01  0.625E-01
  4.540  0.656E-01  0.656E-01
  4.550  0.734E-01  0.734E-01
  4.560  0.889E-01  0.889E-01
  4.570  0.102E+00  0.102E+00
  4.580  0.107E+00  0.107E+00
  4.590  0.123E+00  0.123E+00
  4.600  0.138E+00  0.138E+00
  4.610  0.145E+00  0.145E+00
  4.620  0.147E+00  0.147E+00
  4.630  0.144E+00  0.144E+00
  4.640  0.137E+00  0.137E+00
  4.650  0.126E+00  0.126E+00
  4.660  0.121E+00  0.121E+00
  4.670  0.126E+00  0.126E+00
  4.680  0.106E+00  0.105E+00
  4.690  0.864E-01  0.864E-01
  4.700  0.766E-01  0.766E-01
  4.710  0.707E-01  0.707E-01
  4.720  0.745E-01  0.745E-01
  4.730  0.845E-01  0.845E-01
  4.740  0.124E+00  0.124E+00
  4.750  0.211E+00  0.211E+00
  4.760  0.158E+00  0.158E+00
  4.770  0.136E+00  0.136E+00
  4.780  0.123E+00  0.123E+00
  4.790  0.110E+00  0.110E+00
  4.800  0.101E+00  0.101E+00
  4.810  0.923E-01  0.923E-01
  4.820  0.821E-01  0.821E-01
  4.830  0.706E-01  0.706E-01
  4.840  0.633E-01  0.633E-01
  4.850  0.573E-01  0.573E-01
  4.860  0.520E-01  0.520E-01
  4.870  0.474E-01  0.472E-01
  4.880  0.431E-01  0.431E-01
  4.890  0.396E-01  0.396E-01
  4.900  0.365E-01  0.365E-01
  4.910  0.335E-01  0.335E-01
  4.920  0.309E-01  0.309E-01
  4.930  0.291E-01  0.291E-01
  4.940  0.303E-01  0.303E-01
  4.950  0.413E-01  0.413E-01
  4.960  0.570E-01  0.570E-01
  4.970  0.668E-01  0.667E-01
  4.980  0.686E-01  0.686E-01
  4.990  0.678E-01  0.678E-01
  5.000  0.674E-01  0.674E-01
  5.010  0.666E-01  0.668E-01
  5.020  0.668E-01  0.668E-01
  5.030  0.652E-01  0.654E-01
  5.040  0.638E-01  0.639E-01
  5.050  0.624E-01  0.624E-01
  5.060  0.599E-01  0.598E-01
  5.070  0.562E-01  0.562E-01
  5.080  0.519E-01  0.518E-01
  5.090  0.466E-01  0.466E-01
  5.100  0.413E-01  0.413E-01
  5.110  0.352E-01  0.352E-01
  5.120  0.271E-01  0.271E-01
  5.130  0.225E-01  0.226E-01
  5.140  0.194E-01  0.194E-01
  5.150  0.178E-01  0.178E-01
  5.160  0.173E-01  0.173E-01
  5.170  0.176E-01  0.176E-01
  5.180  0.159E-01  0.159E-01
  5.190  0.153E-01  0.153E-01
  5.200  0.149E-01  0.149E-01
  5.210  0.150E-01  0.149E-01
  5.220  0.169E-01  0.169E-01
  5.230  0.207E-01  0.207E-01
  5.240  0.237E-01  0.237E-01
  5.250  0.244E-01  0.244E-01
  5.260  0.246E-01  0.246E-01
  5.270  0.240E-01  0.240E-01
  5.280  0.229E-01  0.229E-01
  5.290  0.213E-01  0.213E-01
  5.300  0.195E-01  0.195E-01
  5.310  0.174E-01  0.174E-01
  5.320  0.150E-01  0.150E-01
  5.330  0.136E-01  0.136E-01
  5.340  0.125E-01  0.125E-01
  5.350  0.107E-01  0.107E-01
  5.360  0.890E-02  0.890E-02
  5.370  0.730E-02  0.730E-02
  5.380  0.645E-02  0.645E-02
  5.390  0.571E-02  0.571E-02
  5.400  0.506E-02  0.506E-02
  5.410  0.448E-02  0.448E-02
  5.420  0.406E-02  0.406E-02
  5.430  0.450E-02  0.450E-02
  5.440  0.493E-02  0.494E-02
  5.450  0.398E-02  0.398E-02
  5.460  0.324E-02  0.324E-02
  5.470  0.212E-02  0.212E-02
  5.480  0.137E-02  0.137E-02
  5.490  0.862E-03  0.862E-03
  5.500  0.480E-03  0.480E-03
  5.510  0.143E-03  0.143E-03
  5.520 -0.588E-04 -0.587E-04
  5.530 -0.910E-04 -0.910E-04
  5.540  0.679E-05  0.679E-05
  5.550  0.483E-05  0.483E-05
  5.560 -0.201E-05 -0.201E-05
  5.570 -0.310E-05 -0.310E-05
  5.580 -0.154E-05 -0.154E-05
  5.590 -0.666E-07 -0.666E-07
  5.600  0.000E+00  0.000E+00
  5.610  0.000E+00  0.000E+00
  5.620  0.000E+00  0.000E+00
  5.630  0.000E+00  0.000E+00
  5.640  0.000E+00  0.000E+00
  5.650  0.000E+00  0.000E+00
  5.660  0.000E+00  0.000E+00
  5.670  0.000E+00  0.000E+00
  5.680  0.000E+00  0.000E+00
  5.690  0.000E+00  0.000E+00
  5.700  0.000E+00  0.000E+00
  5.710  0.000E+00  0.000E+00
  5.720  0.000E+00  0.000E+00
  5.730  0.000E+00  0.000E+00
  5.740  0.000E+00  0.000E+00
  5.750  0.000E+00  0.000E+00
  5.760  0.000E+00  0.000E+00
  5.770  0.000E+00  0.000E+00
  5.780  0.000E+00  0.000E+00
  5.790  0.000E+00  0.000E+00
  5.800  0.000E+00  0.000E+00
  5.810  0.000E+00  0.000E+00
  5.820  0.000E+00  0.000E+00
  5.830  0.000E+00  0.000E+00
  5.840  0.000E+00  0.000E+00
  5.850  0.000E+00  0.000E+00
  5.860  0.000E+00  0.000E+00
  5.870  0.000E+00  0.000E+00
  5.880  0.000E+00  0.000E+00
  5.890  0.000E+00  0.000E+00
  5.900  0.000E+00  0.000E+00
  5.910  0.000E+00  0.000E+00
  5.920  0.000E+00  0.000E+00
  5.930  0.000E+00  0.000E+00
  5.940  0.000E+00  0.000E+00
  5.950  0.000E+00  0.000E+00
  5.960  0.000E+00  0.000E+00
  5.970  0.000E+00  0.000E+00
  5.980  0.000E+00  0.000E+00
  5.990  0.000E+00  0.000E+00
  6.000  0.000E+00  0.000E+00
  6.010  0.000E+00  0.000E+00
  6.020  0.000E+00  0.000E+00
  6.030  0.000E+00  0.000E+00
  6.040  0.000E+00  0.000E+00
  6.050  0.000E+00  0.000E+00
  6.060  0.000E+00  0.000E+00
  6.070  0.000E+00  0.000E+00
  6.080  0.000E+00  0.000E+00
  6.090  0.000E+00  0.000E+00
  6.100  0.000E+00  0.000E+00
  6.110  0.000E+00  0.000E+00
  6.120  0.000E+00  0.000E+00
  6.130  0.000E+00  0.000E+00
  6.140  0.000E+00  0.000E+00
  6.150  0.000E+00  0.000E+00
  6.160  0.000E+00  0.000E+00
  6.170  0.000E+00  0.000E+00
  6.180  0.000E+00  0.000E+00
  6.190  0.000E+00  0.000E+00
  6.200  0.000E+00  0.000E+00
  6.210  0.000E+00  0.000E+00
  6.220  0.000E+00  0.000E+00
  6.230  0.000E+00  0.000E+00
  6.240  0.000E+00  0.000E+00
  6.250  0.000E+00  0.000E+00
  6.260  0.000E+00  0.000E+00
  6.270  0.000E+00  0.000E+00
  6.280  0.000E+00  0.000E+00
  6.290  0.000E+00  0.000E+00
  6.300  0.000E+00  0.000E+00
  6.310  0.000E+00  0.000E+00
  6.320  0.000E+00  0.000E+00
  6.330  0.000E+00  0.000E+00
  6.340  0.000E+00  0.000E+00
  6.350  0.000E+00  0.000E+00
  6.360  0.000E+00  0.000E+00
  6.370  0.000E+00  0.000E+00
  6.380  0.000E+00  0.000E+00
  6.390  0.000E+00  0.000E+00
  6.400  0.000E+00  0.000E+00
  6.410  0.000E+00  0.000E+00
  6.420  0.000E+00  0.000E+00
  6.430  0.000E+00  0.000E+00
  6.440  0.000E+00  0.000E+00
  6.450  0.000E+00  0.000E+00
  6.460  0.000E+00  0.000E+00
  6.470  0.000E+00  0.000E+00
  6.480  0.000E+00  0.000E+00
  6.490  0.000E+00  0.000E+00
  6.500  0.000E+00  0.000E+00
  6.510  0.000E+00  0.000E+00
  6.520  0.000E+00  0.000E+00
  6.530  0.000E+00  0.000E+00
  6.540  0.000E+00  0.000E+00
  6.550  0.000E+00  0.000E+00
  6.560  0.000E+00  0.000E+00
  6.570  0.000E+00  0.000E+00
  6.580  0.000E+00  0.000E+00
  6.590  0.000E+00  0.000E+00
  6.600  0.000E+00  0.000E+00
  6.610  0.000E+00  0.000E+00
  6.620  0.000E+00  0.000E+00
  6.630  0.000E+00  0.000E+00
  6.640  0.000E+00  0.000E+00
  6.650  0.000E+00  0.000E+00
  6.660  0.000E+00  0.000E+00
  6.670  0.000E+00  0.000E+00
  6.680  0.000E+00  0.000E+00
  6.690  0.000E+00  0.000E+00
  6.700  0.000E+00  0.000E+00
  6.710  0.000E+00  0.000E+00
  6.720  0.000E+00  0.000E+00
  6.730  0.000E+00  0.000E+00
  6.740  0.000E+00  0.000E+00
  6.750  0.000E+00  0.000E+00
  6.760  0.000E+00  0.000E+00
  6.770  0.000E+00  0.000E+00
  6.780  0.000E+00  0.000E+00
  6.790  0.000E+00  0.000E+00
  6.800  0.000E+00  0.000E+00
  6.810  0.000E+00  0.000E+00
  6.820  0.000E+00  0.000E+00
  6.830  0.000E+00  0.000E+00
  6.840  0.000E+00  0.000E+00
  6.850  0.000E+00  0.000E+00
  6.860  0.000E+00  0.000E+00
  6.870  0.000E+00  0.000E+00
  6.880  0.000E+00  0.000E+00
  6.890  0.000E+00  0.000E+00
  6.900  0.000E+00  0.000E+00
  6.910  0.000E+00  0.000E+00
  6.920  0.000E+00  0.000E+00
  6.930  0.000E+00  0.000E+00
  6.940  0.000E+00  0.000E+00
  6.950  0.000E+00  0.000E+00
  6.960  0.000E+00  0.000E+00
  6.970  0.000E+00  0.000E+00
  6.980  0.000E+00  0.000E+00
  6.990  0.000E+00  0.000E+00
  7.000  0.000E+00  0.000E+00
  7.010  0.000E+00  0.000E+00
  7.020  0.000E+00  0.000E+00
  7.030  0.000E+00  0.000E+00
  7.040  0.000E+00  0.000E+00
  7.050  0.000E+00  0.000E+00
  7.060  0.000E+00  0.000E+00
  7.070  0.000E+00  0.000E+00
  7.080  0.000E+00  0.000E+00
  7.090  0.000E+00  0.000E+00
  7.100  0.000E+00  0.000E+00
  7.110  0.000E+00  0.000E+00
  7.120  0.000E+00  0.000E+00
  7.130  0.000E+00  0.000E+00
  7.140  0.000E+00  0.000E+00
  7.150  0.000E+00  0.000E+00
  7.160  0.000E+00  0.000E+00
  7.170  0.000E+00  0.000E+00
  7.180  0.000E+00  0.000E+00
  7.190  0.000E+00  0.000E+00
  7.200  0.000E+00  0.000E+00
  7.210  0.000E+00  0.000E+00
  7.220  0.000E+00  0.000E+00
  7.230  0.000E+00  0.000E+00
  7.240  0.000E+00  0.000E+00
  7.250  0.000E+00  0.000E+00
  7.260  0.000E+00  0.000E+00
  7.270  0.000E+00  0.000E+00
  7.280  0.000E+00  0.000E+00
  7.290  0.000E+00  0.000E+00
  7.300  0.000E+00  0.000E+00
  7.310  0.000E+00  0.000E+00
  7.320  0.000E+00  0.000E+00
  7.330  0.000E+00  0.000E+00
  7.340  0.000E+00  0.000E+00
  7.350  0.000E+00  0.000E+00
  7.360  0.000E+00  0.000E+00
  7.370  0.000E+00  0.000E+00
  7.380  0.000E+00  0.000E+00
  7.390  0.000E+00  0.000E+00
  7.400  0.000E+00  0.000E+00
  7.410  0.000E+00  0.000E+00
  7.420  0.000E+00  0.000E+00
  7.430  0.000E+00  0.000E+00
  7.440  0.000E+00  0.000E+00
  7.450  0.000E+00  0.000E+00
  7.460  0.000E+00  0.000E+00
  7.470  0.261E-06  0.261E-06
  7.480  0.260E-04  0.260E-04
  7.490  0.934E-04  0.934E-04
  7.500  0.208E-03  0.208E-03
  7.510  0.490E-03  0.490E-03
  7.520  0.982E-03  0.982E-03
  7.530  0.168E-02  0.168E-02
  7.540  0.260E-02  0.260E-02
  7.550  0.371E-02  0.371E-02
  7.560  0.502E-02  0.502E-02
  7.570  0.656E-02  0.656E-02
  7.580  0.826E-02  0.826E-02
  7.590  0.102E-01  0.102E-01
  7.600  0.123E-01  0.123E-01
  7.610  0.146E-01  0.146E-01
  7.620  0.171E-01  0.171E-01
  7.630  0.197E-01  0.197E-01
  7.640  0.226E-01  0.226E-01
  7.650  0.256E-01  0.256E-01
  7.660  0.288E-01  0.288E-01
  7.670  0.319E-01  0.319E-01
  7.680  0.349E-01  0.349E-01
  7.690  0.381E-01  0.381E-01
  7.700  0.416E-01  0.416E-01
  7.710  0.448E-01  0.448E-01
  7.720  0.480E-01  0.480E-01
  7.730  0.509E-01  0.509E-01
  7.740  0.536E-01  0.536E-01
  7.750  0.563E-01  0.563E-01
  7.760  0.588E-01  0.588E-01
  7.770  0.612E-01  0.612E-01
  7.780  0.634E-01  0.634E-01
  7.790  0.656E-01  0.656E-01
  7.800  0.675E-01  0.675E-01
  7.810  0.693E-01  0.693E-01
  7.820  0.710E-01  0.710E-01
  7.830  0.725E-01  0.725E-01
  7.840  0.738E-01  0.738E-01
  7.850  0.746E-01  0.746E-01
  7.860  0.754E-01  0.754E-01
  7.870  0.764E-01  0.764E-01
  7.880  0.774E-01  0.774E-01
  7.890  0.787E-01  0.787E-01
  7.900  0.801E-01  0.801E-01
  7.910  0.815E-01  0.815E-01
  7.920  0.831E-01  0.831E-01
  7.930  0.849E-01  0.849E-01
  7.940  0.867E-01  0.867E-01
  7.950  0.886E-01  0.886E-01
  7.960  0.909E-01  0.909E-01
  7.970  0.930E-01  0.930E-01
  7.980  0.954E-01  0.954E-01
  7.990  0.976E-01  0.976E-01
  8.000  0.100E+00  0.100E+00
  8.010  0.103E+00  0.103E+00
  8.020  0.105E+00  0.105E+00
  8.030  0.107E+00  0.107E+00
  8.040  0.110E+00  0.110E+00
  8.050  0.112E+00  0.112E+00
  8.060  0.115E+00  0.115E+00
  8.070  0.118E+00  0.118E+00
  8.080  0.120E+00  0.120E+00
  8.090  0.123E+00  0.123E+00
  8.100  0.126E+00  0.126E+00
  8.110  0.128E+00  0.128E+00
  8.120  0.131E+00  0.131E+00
  8.130  0.134E+00  0.134E+00
  8.140  0.137E+00  0.137E+00
  8.150  0.140E+00  0.140E+00
  8.160  0.142E+00  0.142E+00
  8.170  0.145E+00  0.145E+00
  8.180  0.146E+00  0.146E+00
  8.190  0.148E+00  0.148E+00
  8.200  0.149E+00  0.149E+00
  8.210  0.149E+00  0.149E+00
  8.220  0.150E+00  0.150E+00
  8.230  0.151E+00  0.151E+00
  8.240  0.152E+00  0.152E+00
  8.250  0.153E+00  0.153E+00
  8.260  0.155E+00  0.155E+00
  8.270  0.157E+00  0.157E+00
  8.280  0.160E+00  0.160E+00
  8.290  0.163E+00  0.163E+00
  8.300  0.165E+00  0.165E+00
  8.310  0.165E+00  0.165E+00
  8.320  0.166E+00  0.166E+00
  8.330  0.168E+00  0.168E+00
  8.340  0.171E+00  0.171E+00
  8.350  0.173E+00  0.173E+00
  8.360  0.176E+00  0.176E+00
  8.370  0.178E+00  0.178E+00
  8.380  0.181E+00  0.181E+00
  8.390  0.183E+00  0.183E+00
  8.400  0.186E+00  0.186E+00
  8.410  0.188E+00  0.188E+00
  8.420  0.191E+00  0.191E+00
  8.430  0.194E+00  0.194E+00
  8.440  0.197E+00  0.197E+00
  8.450  0.200E+00  0.200E+00
  8.460  0.203E+00  0.203E+00
  8.470  0.206E+00  0.206E+00
  8.480  0.209E+00  0.209E+00
  8.490  0.213E+00  0.213E+00
  8.500  0.216E+00  0.216E+00
  8.510  0.219E+00  0.219E+00
  8.520  0.222E+00  0.222E+00
  8.530  0.223E+00  0.223E+00
  8.540  0.224E+00  0.224E+00
  8.550  0.225E+00  0.225E+00
  8.560  0.229E+00  0.229E+00
  8.570  0.232E+00  0.232E+00
  8.580  0.237E+00  0.237E+00
  8.590  0.241E+00  0.241E+00
  8.600  0.246E+00  0.246E+00
  8.610  0.251E+00  0.251E+00
  8.620  0.257E+00  0.257E+00
  8.630  0.262E+00  0.262E+00
  8.640  0.269E+00  0.269E+00
  8.650  0.276E+00  0.276E+00
  8.660  0.284E+00  0.284E+00
  8.670  0.292E+00  0.292E+00
  8.680  0.300E+00  0.300E+00
  8.690  0.308E+00  0.308E+00
  8.700  0.317E+00  0.317E+00
  8.710  0.327E+00  0.327E+00
  8.720  0.339E+00  0.339E+00
  8.730  0.357E+00  0.357E+00
  8.740  0.379E+00  0.379E+00
  8.750  0.405E+00  0.405E+00
  8.760  0.431E+00  0.431E+00
  8.770  0.453E+00  0.453E+00
  8.780  0.476E+00  0.476E+00
  8.790  0.502E+00  0.502E+00
  8.800  0.529E+00  0.529E+00
  8.810  0.567E+00  0.567E+00
  8.820  0.612E+00  0.612E+00
  8.830  0.667E+00  0.667E+00
  8.840  0.732E+00  0.732E+00
  8.850  0.801E+00  0.801E+00
  8.860  0.902E+00  0.902E+00
  8.870  0.108E+01  0.108E+01
  8.880  0.116E+01  0.116E+01
  8.890  0.151E+01  0.151E+01
  8.900  0.147E+01  0.147E+01
  8.910  0.149E+01  0.149E+01
  8.920  0.155E+01  0.155E+01
  8.930  0.157E+01  0.157E+01
  8.940  0.162E+01  0.162E+01
  8.950  0.164E+01  0.164E+01
  8.960  0.163E+01  0.163E+01
  8.970  0.163E+01  0.163E+01
  8.980  0.162E+01  0.162E+01
  8.990  0.138E+01  0.138E+01
  9.000  0.130E+01  0.130E+01
  9.010  0.129E+01  0.129E+01
  9.020  0.129E+01  0.129E+01
  9.030  0.129E+01  0.129E+01
  9.040  0.130E+01  0.130E+01
  9.050  0.131E+01  0.131E+01
  9.060  0.133E+01  0.133E+01
  9.070  0.138E+01  0.138E+01
  9.080  0.140E+01  0.140E+01
  9.090  0.138E+01  0.138E+01
  9.100  0.138E+01  0.138E+01
  9.110  0.140E+01  0.140E+01
  9.120  0.143E+01  0.143E+01
  9.130  0.143E+01  0.143E+01
  9.140  0.149E+01  0.149E+01
  9.150  0.156E+01  0.156E+01
  9.160  0.162E+01  0.162E+01
  9.170  0.167E+01  0.167E+01
  9.180  0.175E+01  0.175E+01
  9.190  0.184E+01  0.184E+01
  9.200  0.192E+01  0.192E+01
  9.210  0.203E+01  0.203E+01
  9.220  0.214E+01  0.214E+01
  9.230  0.227E+01  0.227E+01
  9.240  0.237E+01  0.237E+01
  9.250  0.246E+01  0.246E+01
  9.260  0.254E+01  0.254E+01
  9.270  0.260E+01  0.260E+01
  9.280  0.266E+01  0.266E+01
  9.290  0.270E+01  0.270E+01
  9.300  0.290E+01  0.290E+01
  9.310  0.218E+01  0.218E+01
  9.320  0.210E+01  0.210E+01
  9.330  0.206E+01  0.207E+01
  9.340  0.205E+01  0.205E+01
  9.350  0.206E+01  0.206E+01
  9.360  0.210E+01  0.210E+01
  9.370  0.217E+01  0.217E+01
  9.380  0.229E+01  0.229E+01
  9.390  0.241E+01  0.241E+01
  9.400  0.266E+01  0.266E+01
  9.410  0.306E+01  0.306E+01
  9.420  0.335E+01  0.334E+01
  9.430  0.341E+01  0.341E+01
  9.440  0.327E+01  0.326E+01
  9.450  0.262E+01  0.262E+01
  9.460  0.225E+01  0.225E+01
  9.470  0.213E+01  0.213E+01
  9.480  0.208E+01  0.208E+01
  9.490  0.203E+01  0.203E+01
  9.500  0.246E+01  0.246E+01
  9.510  0.173E+01  0.173E+01
  9.520  0.150E+01  0.150E+01
  9.530  0.135E+01  0.135E+01
  9.540  0.133E+01  0.133E+01
  9.550  0.136E+01  0.136E+01
  9.560  0.143E+01  0.143E+01
  9.570  0.153E+01  0.153E+01
  9.580  0.166E+01  0.166E+01
  9.590  0.180E+01  0.180E+01
  9.600  0.193E+01  0.193E+01
  9.610  0.214E+01  0.214E+01
  9.620  0.242E+01  0.242E+01
  9.630  0.254E+01  0.254E+01
  9.640  0.263E+01  0.263E+01
  9.650  0.271E+01  0.271E+01
  9.660  0.280E+01  0.280E+01
  9.670  0.282E+01  0.282E+01
  9.680  0.286E+01  0.286E+01
  9.690  0.327E+01  0.328E+01
  9.700  0.333E+01  0.333E+01
  9.710  0.414E+01  0.415E+01
  9.720  0.480E+01  0.480E+01
  9.730  0.424E+01  0.425E+01
  9.740  0.420E+01  0.420E+01
  9.750  0.401E+01  0.401E+01
  9.760  0.365E+01  0.365E+01
  9.770  0.309E+01  0.309E+01
  9.780  0.267E+01  0.267E+01
  9.790  0.236E+01  0.236E+01
  9.800  0.224E+01  0.224E+01
  9.810  0.228E+01  0.228E+01
  9.820  0.244E+01  0.244E+01
  9.830  0.259E+01  0.259E+01
  9.840  0.278E+01  0.278E+01
  9.850  0.294E+01  0.294E+01
  9.860  0.290E+01  0.290E+01
  9.870  0.290E+01  0.290E+01
  9.880  0.285E+01  0.285E+01
  9.890  0.288E+01  0.288E+01
  9.900  0.300E+01  0.300E+01
  9.910  0.318E+01  0.318E+01
  9.920  0.333E+01  0.333E+01
  9.930  0.328E+01  0.328E+01
  9.940  0.356E+01  0.356E+01
  9.950  0.370E+01  0.370E+01
  9.960  0.407E+01  0.407E+01
  9.970  0.427E+01  0.428E+01