# E (eV) pdosup(E)  pdosdw(E) 
  0.000  0.547E+02  0.547E+02
  0.010  0.643E+02  0.643E+02
  0.020  0.834E+02  0.834E+02
  0.030  0.765E+02  0.765E+02
  0.040  0.720E+02  0.720E+02
  0.050  0.664E+02  0.664E+02
  0.060  0.598E+02  0.598E+02
  0.070  0.658E+02  0.658E+02
  0.080  0.577E+02  0.577E+02
  0.090  0.614E+02  0.614E+02
  0.100  0.637E+02  0.637E+02
  0.110  0.657E+02  0.657E+02
  0.120  0.626E+02  0.626E+02
  0.130  0.506E+02  0.506E+02
  0.140  0.349E+02  0.349E+02
  0.150  0.249E+02  0.249E+02
  0.160  0.182E+02  0.182E+02
  0.170  0.132E+02  0.132E+02
  0.180  0.640E+01  0.640E+01
  0.190  0.973E-01  0.973E-01
  0.200  0.000E+00  0.000E+00
  0.210  0.000E+00  0.000E+00
  0.220  0.000E+00  0.000E+00
  0.230  0.000E+00  0.000E+00
  0.240  0.000E+00  0.000E+00
  0.250  0.000E+00  0.000E+00
  0.260  0.000E+00  0.000E+00
  0.270  0.000E+00  0.000E+00
  0.280  0.000E+00  0.000E+00
  0.290  0.000E+00  0.000E+00
  0.300  0.000E+00  0.000E+00
  0.310  0.000E+00  0.000E+00
  0.320  0.000E+00  0.000E+00
  0.330  0.000E+00  0.000E+00
  0.340  0.172E-04  0.172E-04
  0.350  0.351E-03  0.351E-03
  0.360  0.398E-02  0.398E-02
  0.370  0.187E-01  0.187E-01
  0.380  0.475E-01  0.475E-01
  0.390  0.921E-01  0.922E-01
  0.400  0.179E+00  0.179E+00
  0.410  0.333E+00  0.333E+00
  0.420  0.542E+00  0.542E+00
  0.430  0.810E+00  0.810E+00
  0.440  0.991E+00  0.991E+00
  0.450  0.109E+01  0.109E+01
  0.460  0.110E+01  0.110E+01
  0.470  0.105E+01  0.105E+01
  0.480  0.110E+01  0.110E+01
  0.490  0.120E+01  0.120E+01
  0.500  0.135E+01  0.135E+01
  0.510  0.160E+01  0.160E+01
  0.520  0.184E+01  0.184E+01
  0.530  0.202E+01  0.202E+01
  0.540  0.200E+01  0.200E+01
  0.550  0.189E+01  0.189E+01
  0.560  0.185E+01  0.185E+01
  0.570  0.193E+01  0.194E+01
  0.580  0.203E+01  0.203E+01
  0.590  0.213E+01  0.213E+01
  0.600  0.225E+01  0.224E+01
  0.610  0.238E+01  0.237E+01
  0.620  0.252E+01  0.252E+01
  0.630  0.267E+01  0.267E+01
  0.640  0.285E+01  0.286E+01
  0.650  0.309E+01  0.309E+01
  0.660  0.335E+01  0.335E+01
  0.670  0.375E+01  0.375E+01
  0.680  0.447E+01  0.447E+01
  0.690  0.479E+01  0.479E+01
  0.700  0.476E+01  0.476E+01
  0.710  0.482E+01  0.482E+01
  0.720  0.476E+01  0.476E+01
  0.730  0.462E+01  0.462E+01
  0.740  0.451E+01  0.451E+01
  0.750  0.438E+01  0.438E+01
  0.760  0.414E+01  0.414E+01
  0.770  0.400E+01  0.400E+01
  0.780  0.401E+01  0.401E+01
  0.790  0.411E+01  0.411E+01
  0.800  0.428E+01  0.428E+01
  0.810  0.446E+01  0.446E+01
  0.820  0.470E+01  0.471E+01
  0.830  0.509E+01  0.509E+01
  0.840  0.566E+01  0.566E+01
  0.850  0.631E+01  0.631E+01
  0.860  0.709E+01  0.709E+01
  0.870  0.808E+01  0.807E+01
  0.880  0.860E+01  0.861E+01
  0.890  0.902E+01  0.903E+01
  0.900  0.931E+01  0.931E+01
  0.910  0.972E+01  0.972E+01
  0.920  0.980E+01  0.979E+01
  0.930  0.965E+01  0.966E+01
  0.940  0.932E+01  0.933E+01
  0.950  0.894E+01  0.895E+01
  0.960  0.871E+01  0.872E+01
  0.970  0.833E+01  0.833E+01
  0.980  0.812E+01  0.811E+01
  0.990  0.836E+01  0.836E+01
  1.000  0.106E+02  0.106E+02
  1.010  0.132E+02  0.132E+02
  1.020  0.280E+02  0.280E+02
  1.030  0.244E+02  0.244E+02
  1.040  0.265E+02  0.265E+02
  1.050  0.398E+02  0.398E+02
  1.060  0.354E+02  0.354E+02
  1.070  0.292E+02  0.292E+02
  1.080  0.298E+02  0.298E+02
  1.090  0.177E+02  0.177E+02
  1.100  0.153E+02  0.153E+02
  1.110  0.134E+02  0.134E+02
  1.120  0.118E+02  0.118E+02
  1.130  0.124E+02  0.124E+02
  1.140  0.165E+02  0.165E+02
  1.150  0.158E+02  0.158E+02
  1.160  0.132E+02  0.132E+02
  1.170  0.112E+02  0.112E+02
  1.180  0.122E+02  0.122E+02
  1.190  0.129E+02  0.129E+02
  1.200  0.128E+02  0.128E+02
  1.210  0.124E+02  0.124E+02
  1.220  0.120E+02  0.120E+02
  1.230  0.117E+02  0.117E+02
  1.240  0.113E+02  0.113E+02
  1.250  0.108E+02  0.108E+02
  1.260  0.104E+02  0.104E+02
  1.270  0.992E+01  0.990E+01
  1.280  0.960E+01  0.959E+01
  1.290  0.948E+01  0.947E+01
  1.300  0.941E+01  0.941E+01
  1.310  0.963E+01  0.962E+01
  1.320  0.962E+01  0.962E+01
  1.330  0.940E+01  0.940E+01
  1.340  0.817E+01  0.817E+01
  1.350  0.774E+01  0.774E+01
  1.360  0.828E+01  0.827E+01
  1.370  0.866E+01  0.866E+01
  1.380  0.878E+01  0.877E+01
  1.390  0.859E+01  0.859E+01
  1.400  0.829E+01  0.829E+01
  1.410  0.786E+01  0.788E+01
  1.420  0.750E+01  0.750E+01
  1.430  0.713E+01  0.713E+01
  1.440  0.685E+01  0.685E+01
  1.450  0.671E+01  0.671E+01
  1.460  0.659E+01  0.659E+01
  1.470  0.648E+01  0.649E+01
  1.480  0.645E+01  0.645E+01
  1.490  0.653E+01  0.653E+01
  1.500  0.659E+01  0.659E+01
  1.510  0.659E+01  0.659E+01
  1.520  0.645E+01  0.646E+01
  1.530  0.632E+01  0.632E+01
  1.540  0.625E+01  0.625E+01
  1.550  0.616E+01  0.616E+01
  1.560  0.592E+01  0.592E+01
  1.570  0.572E+01  0.572E+01
  1.580  0.554E+01  0.554E+01
  1.590  0.538E+01  0.538E+01
  1.600  0.523E+01  0.523E+01
  1.610  0.508E+01  0.508E+01
  1.620  0.492E+01  0.492E+01
  1.630  0.479E+01  0.479E+01
  1.640  0.477E+01  0.477E+01
  1.650  0.480E+01  0.480E+01
  1.660  0.488E+01  0.488E+01
  1.670  0.499E+01  0.499E+01
  1.680  0.512E+01  0.512E+01
  1.690  0.523E+01  0.523E+01
  1.700  0.522E+01  0.522E+01
  1.710  0.513E+01  0.512E+01
  1.720  0.490E+01  0.490E+01
  1.730  0.451E+01  0.451E+01
  1.740  0.404E+01  0.404E+01
  1.750  0.363E+01  0.363E+01
  1.760  0.347E+01  0.347E+01
  1.770  0.392E+01  0.392E+01
  1.780  0.396E+01  0.396E+01
  1.790  0.376E+01  0.376E+01
  1.800  0.367E+01  0.367E+01
  1.810  0.373E+01  0.373E+01
  1.820  0.379E+01  0.379E+01
  1.830  0.384E+01  0.384E+01
  1.840  0.386E+01  0.386E+01
  1.850  0.388E+01  0.388E+01
  1.860  0.387E+01  0.387E+01
  1.870  0.385E+01  0.385E+01
  1.880  0.382E+01  0.382E+01
  1.890  0.376E+01  0.376E+01
  1.900  0.370E+01  0.370E+01
  1.910  0.366E+01  0.366E+01
  1.920  0.363E+01  0.363E+01
  1.930  0.365E+01  0.365E+01
  1.940  0.368E+01  0.368E+01
  1.950  0.371E+01  0.371E+01
  1.960  0.373E+01  0.373E+01
  1.970  0.373E+01  0.373E+01
  1.980  0.373E+01  0.373E+01
  1.990  0.371E+01  0.371E+01
  2.000  0.369E+01  0.369E+01
  2.010  0.368E+01  0.368E+01
  2.020  0.366E+01  0.366E+01
  2.030  0.364E+01  0.364E+01
  2.040  0.357E+01  0.357E+01
  2.050  0.363E+01  0.363E+01
  2.060  0.354E+01  0.354E+01
  2.070  0.338E+01  0.338E+01
  2.080  0.332E+01  0.332E+01
  2.090  0.329E+01  0.329E+01
  2.100  0.328E+01  0.328E+01
  2.110  0.326E+01  0.326E+01
  2.120  0.323E+01  0.323E+01
  2.130  0.319E+01  0.319E+01
  2.140  0.312E+01  0.312E+01
  2.150  0.303E+01  0.303E+01
  2.160  0.292E+01  0.292E+01
  2.170  0.281E+01  0.281E+01
  2.180  0.268E+01  0.268E+01
  2.190  0.256E+01  0.256E+01
  2.200  0.247E+01  0.247E+01
  2.210  0.240E+01  0.240E+01
  2.220  0.234E+01  0.234E+01
  2.230  0.227E+01  0.227E+01
  2.240  0.222E+01  0.222E+01
  2.250  0.217E+01  0.217E+01
  2.260  0.213E+01  0.213E+01
  2.270  0.210E+01  0.210E+01
  2.280  0.209E+01  0.209E+01
  2.290  0.209E+01  0.209E+01
  2.300  0.210E+01  0.210E+01
  2.310  0.212E+01  0.212E+01
  2.320  0.213E+01  0.214E+01
  2.330  0.216E+01  0.216E+01
  2.340  0.220E+01  0.220E+01
  2.350  0.225E+01  0.225E+01
  2.360  0.221E+01  0.221E+01
  2.370  0.224E+01  0.225E+01
  2.380  0.235E+01  0.235E+01
  2.390  0.249E+01  0.249E+01
  2.400  0.256E+01  0.256E+01
  2.410  0.257E+01  0.257E+01
  2.420  0.259E+01  0.259E+01
  2.430  0.262E+01  0.262E+01
  2.440  0.264E+01  0.264E+01
  2.450  0.266E+01  0.266E+01
  2.460  0.268E+01  0.268E+01
  2.470  0.271E+01  0.271E+01
  2.480  0.297E+01  0.297E+01
  2.490  0.321E+01  0.321E+01
  2.500  0.338E+01  0.338E+01
  2.510  0.367E+01  0.367E+01
  2.520  0.401E+01  0.401E+01
  2.530  0.433E+01  0.433E+01
  2.540  0.457E+01  0.457E+01
  2.550  0.472E+01  0.472E+01
  2.560  0.479E+01  0.479E+01
  2.570  0.485E+01  0.485E+01
  2.580  0.498E+01  0.498E+01
  2.590  0.513E+01  0.513E+01
  2.600  0.539E+01  0.539E+01
  2.610  0.584E+01  0.584E+01
  2.620  0.621E+01  0.621E+01
  2.630  0.638E+01  0.638E+01
  2.640  0.642E+01  0.642E+01
  2.650  0.634E+01  0.634E+01
  2.660  0.670E+01  0.670E+01
  2.670  0.655E+01  0.655E+01
  2.680  0.725E+01  0.725E+01
  2.690  0.929E+01  0.929E+01
  2.700  0.111E+02  0.111E+02
  2.710  0.128E+02  0.128E+02
  2.720  0.124E+02  0.124E+02
  2.730  0.993E+01  0.993E+01
  2.740  0.802E+01  0.802E+01
  2.750  0.772E+01  0.772E+01
  2.760  0.777E+01  0.777E+01
  2.770  0.821E+01  0.821E+01
  2.780  0.860E+01  0.860E+01
  2.790  0.828E+01  0.828E+01
  2.800  0.807E+01  0.807E+01
  2.810  0.792E+01  0.792E+01
  2.820  0.791E+01  0.791E+01
  2.830  0.790E+01  0.790E+01
  2.840  0.798E+01  0.798E+01
  2.850  0.787E+01  0.787E+01
  2.860  0.754E+01  0.754E+01
  2.870  0.766E+01  0.766E+01
  2.880  0.719E+01  0.719E+01
  2.890  0.710E+01  0.710E+01
  2.900  0.587E+01  0.587E+01
  2.910  0.597E+01  0.597E+01
  2.920  0.636E+01  0.636E+01
  2.930  0.679E+01  0.679E+01
  2.940  0.702E+01  0.702E+01
  2.950  0.707E+01  0.707E+01
  2.960  0.714E+01  0.714E+01
  2.970  0.724E+01  0.724E+01
  2.980  0.735E+01  0.735E+01
  2.990  0.742E+01  0.742E+01
  3.000  0.743E+01  0.743E+01
  3.010  0.740E+01  0.740E+01
  3.020  0.750E+01  0.750E+01
  3.030  0.803E+01  0.803E+01
  3.040  0.840E+01  0.840E+01
  3.050  0.781E+01  0.781E+01
  3.060  0.713E+01  0.713E+01
  3.070  0.713E+01  0.713E+01
  3.080  0.721E+01  0.721E+01
  3.090  0.747E+01  0.747E+01
  3.100  0.796E+01  0.796E+01
  3.110  0.855E+01  0.855E+01
  3.120  0.870E+01  0.870E+01
  3.130  0.834E+01  0.834E+01
  3.140  0.836E+01  0.836E+01
  3.150  0.855E+01  0.855E+01
  3.160  0.831E+01  0.831E+01
  3.170  0.796E+01  0.796E+01
  3.180  0.771E+01  0.771E+01
  3.190  0.761E+01  0.762E+01
  3.200  0.726E+01  0.727E+01
  3.210  0.730E+01  0.731E+01
  3.220  0.727E+01  0.727E+01
  3.230  0.676E+01  0.674E+01
  3.240  0.603E+01  0.603E+01
  3.250  0.609E+01  0.610E+01
  3.260  0.569E+01  0.569E+01
  3.270  0.530E+01  0.530E+01
  3.280  0.522E+01  0.523E+01
  3.290  0.557E+01  0.557E+01
  3.300  0.599E+01  0.600E+01
  3.310  0.659E+01  0.660E+01
  3.320  0.748E+01  0.747E+01
  3.330  0.820E+01  0.819E+01
  3.340  0.879E+01  0.879E+01
  3.350  0.931E+01  0.931E+01
  3.360  0.914E+01  0.914E+01
  3.370  0.882E+01  0.880E+01
  3.380  0.917E+01  0.917E+01
  3.390  0.958E+01  0.958E+01
  3.400  0.100E+02  0.100E+02
  3.410  0.103E+02  0.102E+02
  3.420  0.103E+02  0.103E+02
  3.430  0.101E+02  0.101E+02
  3.440  0.953E+01  0.952E+01
  3.450  0.817E+01  0.817E+01
  3.460  0.690E+01  0.691E+01
  3.470  0.736E+01  0.736E+01
  3.480  0.732E+01  0.732E+01
  3.490  0.776E+01  0.776E+01
  3.500  0.806E+01  0.806E+01
  3.510  0.825E+01  0.824E+01
  3.520  0.837E+01  0.837E+01
  3.530  0.840E+01  0.839E+01
  3.540  0.915E+01  0.914E+01
  3.550  0.951E+01  0.951E+01
  3.560  0.942E+01  0.942E+01
  3.570  0.951E+01  0.952E+01
  3.580  0.905E+01  0.905E+01
  3.590  0.883E+01  0.883E+01
  3.600  0.840E+01  0.840E+01
  3.610  0.761E+01  0.761E+01
  3.620  0.728E+01  0.728E+01
  3.630  0.816E+01  0.816E+01
  3.640  0.865E+01  0.865E+01
  3.650  0.950E+01  0.950E+01
  3.660  0.919E+01  0.919E+01
  3.670  0.837E+01  0.837E+01
  3.680  0.788E+01  0.788E+01
  3.690  0.747E+01  0.747E+01
  3.700  0.698E+01  0.698E+01
  3.710  0.672E+01  0.672E+01
  3.720  0.676E+01  0.676E+01
  3.730  0.707E+01  0.707E+01
  3.740  0.787E+01  0.786E+01
  3.750  0.979E+01  0.978E+01
  3.760  0.962E+01  0.963E+01
  3.770  0.870E+01  0.871E+01
  3.780  0.779E+01  0.779E+01
  3.790  0.709E+01  0.709E+01
  3.800  0.680E+01  0.680E+01
  3.810  0.658E+01  0.658E+01
  3.820  0.635E+01  0.635E+01
  3.830  0.624E+01  0.622E+01
  3.840  0.623E+01  0.622E+01
  3.850  0.645E+01  0.647E+01
  3.860  0.704E+01  0.705E+01
  3.870  0.801E+01  0.801E+01
  3.880  0.943E+01  0.943E+01
  3.890  0.103E+02  0.103E+02
  3.900  0.939E+01  0.938E+01
  3.910  0.900E+01  0.900E+01
  3.920  0.864E+01  0.865E+01
  3.930  0.755E+01  0.754E+01
  3.940  0.700E+01  0.701E+01
  3.950  0.678E+01  0.679E+01
  3.960  0.686E+01  0.688E+01
  3.970  0.699E+01  0.699E+01
  3.980  0.742E+01  0.742E+01
  3.990  0.764E+01  0.764E+01
  4.000  0.776E+01  0.776E+01
  4.010  0.753E+01  0.753E+01
  4.020  0.732E+01  0.732E+01
  4.030  0.720E+01  0.720E+01
  4.040  0.717E+01  0.717E+01
  4.050  0.706E+01  0.706E+01
  4.060  0.678E+01  0.679E+01
  4.070  0.670E+01  0.670E+01
  4.080  0.683E+01  0.683E+01
  4.090  0.663E+01  0.663E+01
  4.100  0.627E+01  0.626E+01
  4.110  0.615E+01  0.615E+01
  4.120  0.609E+01  0.609E+01
  4.130  0.618E+01  0.618E+01
  4.140  0.665E+01  0.665E+01
  4.150  0.671E+01  0.671E+01
  4.160  0.685E+01  0.685E+01
  4.170  0.726E+01  0.726E+01
  4.180  0.805E+01  0.805E+01
  4.190  0.831E+01  0.831E+01
  4.200  0.900E+01  0.900E+01
  4.210  0.846E+01  0.846E+01
  4.220  0.890E+01  0.890E+01
  4.230  0.852E+01  0.852E+01
  4.240  0.766E+01  0.766E+01
  4.250  0.683E+01  0.683E+01
  4.260  0.638E+01  0.638E+01
  4.270  0.608E+01  0.608E+01
  4.280  0.588E+01  0.588E+01
  4.290  0.578E+01  0.579E+01
  4.300  0.620E+01  0.620E+01
  4.310  0.666E+01  0.666E+01
  4.320  0.725E+01  0.724E+01
  4.330  0.763E+01  0.763E+01
  4.340  0.748E+01  0.748E+01
  4.350  0.659E+01  0.659E+01
  4.360  0.609E+01  0.609E+01
  4.370  0.577E+01  0.578E+01
  4.380  0.570E+01  0.570E+01
  4.390  0.577E+01  0.577E+01
  4.400  0.609E+01  0.609E+01
  4.410  0.602E+01  0.602E+01
  4.420  0.584E+01  0.584E+01
  4.430  0.533E+01  0.533E+01
  4.440  0.527E+01  0.527E+01
  4.450  0.598E+01  0.598E+01
  4.460  0.649E+01  0.647E+01
  4.470  0.685E+01  0.685E+01
  4.480  0.724E+01  0.724E+01
  4.490  0.757E+01  0.757E+01
  4.500  0.689E+01  0.689E+01
  4.510  0.679E+01  0.679E+01
  4.520  0.609E+01  0.609E+01
  4.530  0.542E+01  0.542E+01
  4.540  0.532E+01  0.532E+01
  4.550  0.544E+01  0.544E+01
  4.560  0.570E+01  0.570E+01
  4.570  0.598E+01  0.598E+01
  4.580  0.590E+01  0.590E+01
  4.590  0.585E+01  0.585E+01
  4.600  0.574E+01  0.574E+01
  4.610  0.563E+01  0.563E+01
  4.620  0.551E+01  0.551E+01
  4.630  0.543E+01  0.543E+01
  4.640  0.539E+01  0.539E+01
  4.650  0.540E+01  0.540E+01
  4.660  0.548E+01  0.548E+01
  4.670  0.736E+01  0.736E+01
  4.680  0.652E+01  0.652E+01
  4.690  0.592E+01  0.592E+01
  4.700  0.623E+01  0.623E+01
  4.710  0.516E+01  0.516E+01
  4.720  0.492E+01  0.492E+01
  4.730  0.523E+01  0.523E+01
  4.740  0.592E+01  0.592E+01
  4.750  0.773E+01  0.772E+01
  4.760  0.628E+01  0.628E+01
  4.770  0.504E+01  0.504E+01
  4.780  0.460E+01  0.460E+01
  4.790  0.428E+01  0.428E+01
  4.800  0.416E+01  0.416E+01
  4.810  0.400E+01  0.400E+01
  4.820  0.383E+01  0.383E+01
  4.830  0.353E+01  0.353E+01
  4.840  0.332E+01  0.332E+01
  4.850  0.321E+01  0.321E+01
  4.860  0.309E+01  0.309E+01
  4.870  0.297E+01  0.297E+01
  4.880  0.288E+01  0.288E+01
  4.890  0.281E+01  0.281E+01
  4.900  0.275E+01  0.275E+01
  4.910  0.269E+01  0.269E+01
  4.920  0.264E+01  0.264E+01
  4.930  0.264E+01  0.264E+01
  4.940  0.273E+01  0.273E+01
  4.950  0.289E+01  0.289E+01
  4.960  0.304E+01  0.304E+01
  4.970  0.300E+01  0.300E+01
  4.980  0.273E+01  0.273E+01
  4.990  0.254E+01  0.254E+01
  5.000  0.258E+01  0.258E+01
  5.010  0.253E+01  0.253E+01
  5.020  0.264E+01  0.264E+01
  5.030  0.271E+01  0.271E+01
  5.040  0.249E+01  0.249E+01
  5.050  0.251E+01  0.251E+01
  5.060  0.253E+01  0.253E+01
  5.070  0.253E+01  0.253E+01
  5.080  0.250E+01  0.250E+01
  5.090  0.243E+01  0.243E+01
  5.100  0.229E+01  0.229E+01
  5.110  0.203E+01  0.203E+01
  5.120  0.169E+01  0.169E+01
  5.130  0.168E+01  0.168E+01
  5.140  0.168E+01  0.168E+01
  5.150  0.162E+01  0.162E+01
  5.160  0.154E+01  0.154E+01
  5.170  0.151E+01  0.151E+01
  5.180  0.115E+01  0.115E+01
  5.190  0.107E+01  0.107E+01
  5.200  0.103E+01  0.103E+01
  5.210  0.103E+01  0.103E+01
  5.220  0.121E+01  0.121E+01
  5.230  0.140E+01  0.140E+01
  5.240  0.155E+01  0.155E+01
  5.250  0.165E+01  0.165E+01
  5.260  0.174E+01  0.174E+01
  5.270  0.179E+01  0.179E+01
  5.280  0.180E+01  0.180E+01
  5.290  0.179E+01  0.179E+01
  5.300  0.173E+01  0.173E+01
  5.310  0.164E+01  0.164E+01
  5.320  0.144E+01  0.144E+01
  5.330  0.134E+01  0.134E+01
  5.340  0.131E+01  0.131E+01
  5.350  0.114E+01  0.114E+01
  5.360  0.923E+00  0.923E+00
  5.370  0.779E+00  0.779E+00
  5.380  0.721E+00  0.721E+00
  5.390  0.673E+00  0.673E+00
  5.400  0.631E+00  0.631E+00
  5.410  0.597E+00  0.597E+00
  5.420  0.571E+00  0.571E+00
  5.430  0.654E+00  0.654E+00
  5.440  0.701E+00  0.701E+00
  5.450  0.643E+00  0.643E+00
  5.460  0.597E+00  0.597E+00
  5.470  0.512E+00  0.512E+00
  5.480  0.443E+00  0.443E+00
  5.490  0.386E+00  0.386E+00
  5.500  0.329E+00  0.329E+00
  5.510  0.330E+00  0.330E+00
  5.520  0.297E+00  0.297E+00
  5.530  0.190E+00  0.190E+00
  5.540  0.482E-01  0.482E-01
  5.550  0.108E-01  0.108E-01
  5.560  0.922E-03  0.922E-03
  5.570  0.158E-03  0.158E-03
  5.580  0.468E-04  0.468E-04
  5.590  0.192E-05  0.192E-05
  5.600  0.000E+00  0.000E+00
  5.610  0.000E+00  0.000E+00
  5.620  0.000E+00  0.000E+00
  5.630  0.000E+00  0.000E+00
  5.640  0.000E+00  0.000E+00
  5.650  0.000E+00  0.000E+00
  5.660  0.000E+00  0.000E+00
  5.670  0.000E+00  0.000E+00
  5.680  0.000E+00  0.000E+00
  5.690  0.000E+00  0.000E+00
  5.700  0.000E+00  0.000E+00
  5.710  0.000E+00  0.000E+00
  5.720  0.000E+00  0.000E+00
  5.730  0.000E+00  0.000E+00
  5.740  0.000E+00  0.000E+00
  5.750  0.000E+00  0.000E+00
  5.760  0.000E+00  0.000E+00
  5.770  0.000E+00  0.000E+00
  5.780  0.000E+00  0.000E+00
  5.790  0.000E+00  0.000E+00
  5.800  0.000E+00  0.000E+00
  5.810  0.000E+00  0.000E+00
  5.820  0.000E+00  0.000E+00
  5.830  0.000E+00  0.000E+00
  5.840  0.000E+00  0.000E+00
  5.850  0.000E+00  0.000E+00
  5.860  0.000E+00  0.000E+00
  5.870  0.000E+00  0.000E+00
  5.880  0.000E+00  0.000E+00
  5.890  0.000E+00  0.000E+00
  5.900  0.000E+00  0.000E+00
  5.910  0.000E+00  0.000E+00
  5.920  0.000E+00  0.000E+00
  5.930  0.000E+00  0.000E+00
  5.940  0.000E+00  0.000E+00
  5.950  0.000E+00  0.000E+00
  5.960  0.000E+00  0.000E+00
  5.970  0.000E+00  0.000E+00
  5.980  0.000E+00  0.000E+00
  5.990  0.000E+00  0.000E+00
  6.000  0.000E+00  0.000E+00
  6.010  0.000E+00  0.000E+00
  6.020  0.000E+00  0.000E+00
  6.030  0.000E+00  0.000E+00
  6.040  0.000E+00  0.000E+00
  6.050  0.000E+00  0.000E+00
  6.060  0.000E+00  0.000E+00
  6.070  0.000E+00  0.000E+00
  6.080  0.000E+00  0.000E+00
  6.090  0.000E+00  0.000E+00
  6.100  0.000E+00  0.000E+00
  6.110  0.000E+00  0.000E+00
  6.120  0.000E+00  0.000E+00
  6.130  0.000E+00  0.000E+00
  6.140  0.000E+00  0.000E+00
  6.150  0.000E+00  0.000E+00
  6.160  0.000E+00  0.000E+00
  6.170  0.000E+00  0.000E+00
  6.180  0.000E+00  0.000E+00
  6.190  0.000E+00  0.000E+00
  6.200  0.000E+00  0.000E+00
  6.210  0.000E+00  0.000E+00
  6.220  0.000E+00  0.000E+00
  6.230  0.000E+00  0.000E+00
  6.240  0.000E+00  0.000E+00
  6.250  0.000E+00  0.000E+00
  6.260  0.000E+00  0.000E+00
  6.270  0.000E+00  0.000E+00
  6.280  0.000E+00  0.000E+00
  6.290  0.000E+00  0.000E+00
  6.300  0.000E+00  0.000E+00
  6.310  0.000E+00  0.000E+00
  6.320  0.000E+00  0.000E+00
  6.330  0.000E+00  0.000E+00
  6.340  0.000E+00  0.000E+00
  6.350  0.000E+00  0.000E+00
  6.360  0.000E+00  0.000E+00
  6.370  0.000E+00  0.000E+00
  6.380  0.000E+00  0.000E+00
  6.390  0.000E+00  0.000E+00
  6.400  0.000E+00  0.000E+00
  6.410  0.000E+00  0.000E+00
  6.420  0.000E+00  0.000E+00
  6.430  0.000E+00  0.000E+00
  6.440  0.000E+00  0.000E+00
  6.450  0.000E+00  0.000E+00
  6.460  0.000E+00  0.000E+00
  6.470  0.000E+00  0.000E+00
  6.480  0.000E+00  0.000E+00
  6.490  0.000E+00  0.000E+00
  6.500  0.000E+00  0.000E+00
  6.510  0.000E+00  0.000E+00
  6.520  0.000E+00  0.000E+00
  6.530  0.000E+00  0.000E+00
  6.540  0.000E+00  0.000E+00
  6.550  0.000E+00  0.000E+00
  6.560  0.000E+00  0.000E+00
  6.570  0.000E+00  0.000E+00
  6.580  0.000E+00  0.000E+00
  6.590  0.000E+00  0.000E+00
  6.600  0.000E+00  0.000E+00
  6.610  0.000E+00  0.000E+00
  6.620  0.000E+00  0.000E+00
  6.630  0.000E+00  0.000E+00
  6.640  0.000E+00  0.000E+00
  6.650  0.000E+00  0.000E+00
  6.660  0.000E+00  0.000E+00
  6.670  0.000E+00  0.000E+00
  6.680  0.000E+00  0.000E+00
  6.690  0.000E+00  0.000E+00
  6.700  0.000E+00  0.000E+00
  6.710  0.000E+00  0.000E+00
  6.720  0.000E+00  0.000E+00
  6.730  0.000E+00  0.000E+00
  6.740  0.000E+00  0.000E+00
  6.750  0.000E+00  0.000E+00
  6.760  0.000E+00  0.000E+00
  6.770  0.000E+00  0.000E+00
  6.780  0.000E+00  0.000E+00
  6.790  0.000E+00  0.000E+00
  6.800  0.000E+00  0.000E+00
  6.810  0.000E+00  0.000E+00
  6.820  0.000E+00  0.000E+00
  6.830  0.000E+00  0.000E+00
  6.840  0.000E+00  0.000E+00
  6.850  0.000E+00  0.000E+00
  6.860  0.000E+00  0.000E+00
  6.870  0.000E+00  0.000E+00
  6.880  0.000E+00  0.000E+00
  6.890  0.000E+00  0.000E+00
  6.900  0.000E+00  0.000E+00
  6.910  0.000E+00  0.000E+00
  6.920  0.000E+00  0.000E+00
  6.930  0.000E+00  0.000E+00
  6.940  0.000E+00  0.000E+00
  6.950  0.000E+00  0.000E+00
  6.960  0.000E+00  0.000E+00
  6.970  0.000E+00  0.000E+00
  6.980  0.000E+00  0.000E+00
  6.990  0.000E+00  0.000E+00
  7.000  0.000E+00  0.000E+00
  7.010  0.000E+00  0.000E+00
  7.020  0.000E+00  0.000E+00
  7.030  0.000E+00  0.000E+00
  7.040  0.000E+00  0.000E+00
  7.050  0.000E+00  0.000E+00
  7.060  0.000E+00  0.000E+00
  7.070  0.000E+00  0.000E+00
  7.080  0.000E+00  0.000E+00
  7.090  0.000E+00  0.000E+00
  7.100  0.000E+00  0.000E+00
  7.110  0.000E+00  0.000E+00
  7.120  0.000E+00  0.000E+00
  7.130  0.000E+00  0.000E+00
  7.140  0.000E+00  0.000E+00
  7.150  0.000E+00  0.000E+00
  7.160  0.000E+00  0.000E+00
  7.170  0.000E+00  0.000E+00
  7.180  0.000E+00  0.000E+00
  7.190  0.000E+00  0.000E+00
  7.200  0.000E+00  0.000E+00
  7.210  0.000E+00  0.000E+00
  7.220  0.000E+00  0.000E+00
  7.230  0.000E+00  0.000E+00
  7.240  0.000E+00  0.000E+00
  7.250  0.000E+00  0.000E+00
  7.260  0.000E+00  0.000E+00
  7.270  0.000E+00  0.000E+00
  7.280  0.000E+00  0.000E+00
  7.290  0.000E+00  0.000E+00
  7.300  0.000E+00  0.000E+00
  7.310  0.000E+00  0.000E+00
  7.320  0.000E+00  0.000E+00
  7.330  0.000E+00  0.000E+00
  7.340  0.000E+00  0.000E+00
  7.350  0.000E+00  0.000E+00
  7.360  0.000E+00  0.000E+00
  7.370  0.000E+00  0.000E+00
  7.380  0.000E+00  0.000E+00
  7.390  0.000E+00  0.000E+00
  7.400  0.000E+00  0.000E+00
  7.410  0.000E+00  0.000E+00
  7.420  0.000E+00  0.000E+00
  7.430  0.000E+00  0.000E+00
  7.440  0.000E+00  0.000E+00
  7.450  0.000E+00  0.000E+00
  7.460  0.000E+00  0.000E+00
  7.470  0.523E-06  0.523E-06
  7.480  0.521E-04  0.521E-04
  7.490  0.188E-03  0.188E-03
  7.500  0.419E-03  0.419E-03
  7.510  0.982E-03  0.982E-03
  7.520  0.197E-02  0.197E-02
  7.530  0.338E-02  0.338E-02
  7.540  0.524E-02  0.524E-02
  7.550  0.750E-02  0.750E-02
  7.560  0.101E-01  0.101E-01
  7.570  0.132E-01  0.132E-01
  7.580  0.167E-01  0.167E-01
  7.590  0.206E-01  0.206E-01
  7.600  0.249E-01  0.249E-01
  7.610  0.295E-01  0.295E-01
  7.620  0.345E-01  0.345E-01
  7.630  0.401E-01  0.401E-01
  7.640  0.458E-01  0.458E-01
  7.650  0.521E-01  0.521E-01
  7.660  0.585E-01  0.585E-01
  7.670  0.649E-01  0.649E-01
  7.680  0.710E-01  0.710E-01
  7.690  0.775E-01  0.775E-01
  7.700  0.846E-01  0.846E-01
  7.710  0.915E-01  0.915E-01
  7.720  0.977E-01  0.977E-01
  7.730  0.104E+00  0.104E+00
  7.740  0.110E+00  0.110E+00
  7.750  0.115E+00  0.115E+00
  7.760  0.120E+00  0.120E+00
  7.770  0.125E+00  0.125E+00
  7.780  0.130E+00  0.130E+00
  7.790  0.134E+00  0.134E+00
  7.800  0.139E+00  0.139E+00
  7.810  0.143E+00  0.143E+00
  7.820  0.146E+00  0.146E+00
  7.830  0.149E+00  0.149E+00
  7.840  0.152E+00  0.152E+00
  7.850  0.154E+00  0.154E+00
  7.860  0.155E+00  0.155E+00
  7.870  0.158E+00  0.158E+00
  7.880  0.160E+00  0.160E+00
  7.890  0.163E+00  0.163E+00
  7.900  0.166E+00  0.166E+00
  7.910  0.169E+00  0.169E+00
  7.920  0.172E+00  0.172E+00
  7.930  0.176E+00  0.176E+00
  7.940  0.180E+00  0.180E+00
  7.950  0.184E+00  0.184E+00
  7.960  0.189E+00  0.189E+00
  7.970  0.193E+00  0.193E+00
  7.980  0.198E+00  0.198E+00
  7.990  0.203E+00  0.203E+00
  8.000  0.208E+00  0.208E+00
  8.010  0.214E+00  0.214E+00
  8.020  0.219E+00  0.219E+00
  8.030  0.224E+00  0.224E+00
  8.040  0.230E+00  0.230E+00
  8.050  0.235E+00  0.235E+00
  8.060  0.241E+00  0.241E+00
  8.070  0.246E+00  0.246E+00
  8.080  0.252E+00  0.252E+00
  8.090  0.258E+00  0.258E+00
  8.100  0.263E+00  0.263E+00
  8.110  0.269E+00  0.269E+00
  8.120  0.275E+00  0.275E+00
  8.130  0.281E+00  0.281E+00
  8.140  0.288E+00  0.288E+00
  8.150  0.294E+00  0.294E+00
  8.160  0.300E+00  0.300E+00
  8.170  0.306E+00  0.306E+00
  8.180  0.309E+00  0.309E+00
  8.190  0.312E+00  0.312E+00
  8.200  0.315E+00  0.315E+00
  8.210  0.317E+00  0.317E+00
  8.220  0.319E+00  0.319E+00
  8.230  0.321E+00  0.321E+00
  8.240  0.322E+00  0.322E+00
  8.250  0.325E+00  0.325E+00
  8.260  0.330E+00  0.330E+00
  8.270  0.336E+00  0.336E+00
  8.280  0.343E+00  0.343E+00
  8.290  0.349E+00  0.349E+00
  8.300  0.352E+00  0.352E+00
  8.310  0.355E+00  0.355E+00
  8.320  0.357E+00  0.357E+00
  8.330  0.362E+00  0.362E+00
  8.340  0.367E+00  0.367E+00
  8.350  0.373E+00  0.373E+00
  8.360  0.379E+00  0.379E+00
  8.370  0.385E+00  0.385E+00
  8.380  0.391E+00  0.391E+00
  8.390  0.397E+00  0.397E+00
  8.400  0.403E+00  0.403E+00
  8.410  0.410E+00  0.410E+00
  8.420  0.416E+00  0.416E+00
  8.430  0.422E+00  0.422E+00
  8.440  0.429E+00  0.429E+00
  8.450  0.436E+00  0.436E+00
  8.460  0.444E+00  0.444E+00
  8.470  0.451E+00  0.451E+00
  8.480  0.458E+00  0.458E+00
  8.490  0.467E+00  0.467E+00
  8.500  0.476E+00  0.476E+00
  8.510  0.483E+00  0.483E+00
  8.520  0.489E+00  0.489E+00
  8.530  0.493E+00  0.493E+00
  8.540  0.496E+00  0.496E+00
  8.550  0.501E+00  0.501E+00
  8.560  0.507E+00  0.507E+00
  8.570  0.516E+00  0.516E+00
  8.580  0.528E+00  0.528E+00
  8.590  0.538E+00  0.538E+00
  8.600  0.549E+00  0.549E+00
  8.610  0.561E+00  0.561E+00
  8.620  0.576E+00  0.576E+00
  8.630  0.590E+00  0.590E+00
  8.640  0.605E+00  0.605E+00
  8.650  0.623E+00  0.623E+00
  8.660  0.641E+00  0.641E+00
  8.670  0.660E+00  0.660E+00
  8.680  0.681E+00  0.681E+00
  8.690  0.702E+00  0.702E+00
  8.700  0.722E+00  0.722E+00
  8.710  0.744E+00  0.744E+00
  8.720  0.775E+00  0.775E+00
  8.730  0.818E+00  0.818E+00
  8.740  0.868E+00  0.868E+00
  8.750  0.925E+00  0.925E+00
  8.760  0.988E+00  0.988E+00
  8.770  0.104E+01  0.104E+01
  8.780  0.111E+01  0.111E+01
  8.790  0.118E+01  0.118E+01
  8.800  0.127E+01  0.127E+01
  8.810  0.139E+01  0.139E+01
  8.820  0.154E+01  0.154E+01
  8.830  0.171E+01  0.171E+01
  8.840  0.193E+01  0.193E+01
  8.850  0.217E+01  0.217E+01
  8.860  0.253E+01  0.253E+01
  8.870  0.315E+01  0.315E+01
  8.880  0.334E+01  0.334E+01
  8.890  0.433E+01  0.433E+01
  8.900  0.423E+01  0.423E+01
  8.910  0.435E+01  0.435E+01
  8.920  0.462E+01  0.462E+01
  8.930  0.475E+01  0.475E+01
  8.940  0.493E+01  0.493E+01
  8.950  0.505E+01  0.505E+01
  8.960  0.504E+01  0.504E+01
  8.970  0.511E+01  0.511E+01
  8.980  0.519E+01  0.519E+01
  8.990  0.443E+01  0.443E+01
  9.000  0.423E+01  0.423E+01
  9.010  0.422E+01  0.422E+01
  9.020  0.426E+01  0.426E+01
  9.030  0.430E+01  0.430E+01
  9.040  0.436E+01  0.436E+01
  9.050  0.443E+01  0.442E+01
  9.060  0.453E+01  0.453E+01
  9.070  0.473E+01  0.473E+01
  9.080  0.482E+01  0.482E+01
  9.090  0.476E+01  0.476E+01
  9.100  0.476E+01  0.476E+01
  9.110  0.485E+01  0.485E+01
  9.120  0.494E+01  0.494E+01
  9.130  0.492E+01  0.492E+01
  9.140  0.511E+01  0.511E+01
  9.150  0.534E+01  0.534E+01
  9.160  0.558E+01  0.558E+01
  9.170  0.576E+01  0.576E+01
  9.180  0.604E+01  0.604E+01
  9.190  0.636E+01  0.636E+01
  9.200  0.668E+01  0.668E+01
  9.210  0.706E+01  0.706E+01
  9.220  0.748E+01  0.749E+01
  9.230  0.795E+01  0.795E+01
  9.240  0.832E+01  0.832E+01
  9.250  0.859E+01  0.860E+01
  9.260  0.884E+01  0.885E+01
  9.270  0.905E+01  0.905E+01
  9.280  0.925E+01  0.925E+01
  9.290  0.929E+01  0.930E+01
  9.300  0.984E+01  0.985E+01
  9.310  0.782E+01  0.782E+01
  9.320  0.762E+01  0.762E+01
  9.330  0.752E+01  0.751E+01
  9.340  0.751E+01  0.751E+01
  9.350  0.757E+01  0.758E+01
  9.360  0.774E+01  0.774E+01
  9.370  0.806E+01  0.807E+01
  9.380  0.856E+01  0.856E+01
  9.390  0.913E+01  0.914E+01
  9.400  0.103E+02  0.103E+02
  9.410  0.119E+02  0.119E+02
  9.420  0.133E+02  0.133E+02
  9.430  0.138E+02  0.138E+02
  9.440  0.135E+02  0.135E+02
  9.450  0.108E+02  0.109E+02
  9.460  0.916E+01  0.916E+01
  9.470  0.852E+01  0.852E+01
  9.480  0.829E+01  0.830E+01
  9.490  0.808E+01  0.808E+01
  9.500  0.948E+01  0.949E+01
  9.510  0.698E+01  0.698E+01
  9.520  0.624E+01  0.624E+01
  9.530  0.573E+01  0.573E+01
  9.540  0.568E+01  0.568E+01
  9.550  0.586E+01  0.586E+01
  9.560  0.621E+01  0.621E+01
  9.570  0.671E+01  0.671E+01
  9.580  0.731E+01  0.731E+01
  9.590  0.799E+01  0.799E+01
  9.600  0.871E+01  0.871E+01
  9.610  0.980E+01  0.980E+01
  9.620  0.113E+02  0.113E+02
  9.630  0.120E+02  0.120E+02
  9.640  0.126E+02  0.126E+02
  9.650  0.131E+02  0.131E+02
  9.660  0.137E+02  0.137E+02
  9.670  0.139E+02  0.139E+02
  9.680  0.140E+02  0.140E+02
  9.690  0.152E+02  0.152E+02
  9.700  0.152E+02  0.152E+02
  9.710  0.188E+02  0.188E+02
  9.720  0.218E+02  0.218E+02
  9.730  0.190E+02  0.190E+02
  9.740  0.189E+02  0.189E+02
  9.750  0.180E+02  0.180E+02
  9.760  0.166E+02  0.167E+02
  9.770  0.148E+02  0.148E+02
  9.780  0.132E+02  0.132E+02
  9.790  0.120E+02  0.119E+02
  9.800  0.117E+02  0.117E+02
  9.810  0.121E+02  0.121E+02
  9.820  0.130E+02  0.130E+02
  9.830  0.142E+02  0.142E+02
  9.840  0.153E+02  0.153E+02
  9.850  0.164E+02  0.164E+02
  9.860  0.162E+02  0.162E+02
  9.870  0.162E+02  0.162E+02
  9.880  0.159E+02  0.159E+02
  9.890  0.162E+02  0.162E+02
  9.900  0.171E+02  0.171E+02
  9.910  0.186E+02  0.186E+02
  9.920  0.195E+02  0.195E+02
  9.930  0.192E+02  0.192E+02
  9.940  0.207E+02  0.207E+02
  9.950  0.213E+02  0.213E+02
  9.960  0.232E+02  0.232E+02
  9.970  0.240E+02  0.240E+02