### Running on host: unam-asus

     Program PWSCF v.7.2 starts on 15Feb2024 at 21:11:38 

     This program is part of the open-source Quantum ESPRESSO suite
     for quantum simulation of materials; please cite
         "P. Giannozzi et al., J. Phys.:Condens. Matter 21 395502 (2009);
         "P. Giannozzi et al., J. Phys.:Condens. Matter 29 465901 (2017);
         "P. Giannozzi et al., J. Chem. Phys. 152 154105 (2020);
          URL http://www.quantum-espresso.org", 
     in publications or presentations arising from this work. More details at
     http://www.quantum-espresso.org/quote

     Parallel version (MPI), running on    10 processors

     MPI processes distributed on     1 nodes
     1565 MiB available memory on the printing compute node when the environment starts

     Reading input from eos.Cu.d/eos.Cu.14.in

     Current dimensions of program PWSCF are:
     Max number of different atomic species (ntypx) = 10
     Max number of k-points (npk) =  40000
     Max angular momentum in pseudopotentials (lmaxx) =  4
     file Cu.pbe-spn-kjpaw_psl.1.0.0.UPF: wavefunction(s)  4S 3P 3D renormalized
     Found identity + (  0.0000 -0.5000 -0.5000) symmetry
     This is a supercell, fractional translations are disabled

     R & G space division:  proc/nbgrp/npool/nimage =      10
     Subspace diagonalization in iterative solution of the eigenvalue problem:
     a serial algorithm will be used


     Parallelization info
     --------------------
     sticks:   dense  smooth     PW     G-vecs:    dense   smooth      PW
     Min         209     209     59                 7245     7245    1105
     Max         210     210     60                 7248     7248    1110
     Sum        2093    2093    593                72455    72455   11067

     Using Slab Decomposition



     bravais-lattice index     =            1
     lattice parameter (alat)  =       7.1194  a.u.
     unit-cell volume          =     360.8466 (a.u.)^3
     number of atoms/cell      =            4
     number of atomic types    =            1
     number of electrons       =        76.00
     number of Kohn-Sham states=           46
     kinetic-energy cutoff     =     130.0000  Ry
     charge density cutoff     =     520.0000  Ry
     scf convergence threshold =      1.0E-08
     mixing beta               =       0.7000
     number of iterations used =            8  plain     mixing
     Exchange-correlation= SLA  PW   PBX  PBC
                           (   1   4   3   4   0   0   0)

     celldm(1)=   7.119358  celldm(2)=   0.000000  celldm(3)=   0.000000
     celldm(4)=   0.000000  celldm(5)=   0.000000  celldm(6)=   0.000000

     crystal axes: (cart. coord. in units of alat)
               a(1) = (   1.000000   0.000000   0.000000 )  
               a(2) = (   0.000000   1.000000   0.000000 )  
               a(3) = (   0.000000   0.000000   1.000000 )  

     reciprocal axes: (cart. coord. in units 2 pi/alat)
               b(1) = (  1.000000  0.000000  0.000000 )  
               b(2) = (  0.000000  1.000000  0.000000 )  
               b(3) = (  0.000000  0.000000  1.000000 )  


     PseudoPot. # 1 for Cu read from file:
     /home/abdul/git_repo/ZnS_Cu-Vacancy/pseudo/QE/Cu.pbe-spn-kjpaw_psl.1.0.0.UPF
     MD5 check sum: e7cbaad2f97193e5fe23251a619a52b0
     Pseudo is Projector augmented-wave + core cor, Zval = 19.0
     Generated using &quot;atomic&quot; code by A. Dal Corso  v.6.3
     Shape of augmentation charge: PSQ
     Using radial grid of 1199 points,  6 beta functions with: 
                l(1) =   0
                l(2) =   0
                l(3) =   1
                l(4) =   1
                l(5) =   2
                l(6) =   2
     Q(r) pseudized with 0 coefficients 


     atomic species   valence    mass     pseudopotential
        Cu            19.00    63.54600     Cu( 1.00)

     48 Sym. Ops., with inversion, found


                                    s                        frac. trans.

      isym =  1     identity                                     

 cryst.   s( 1) = (     1          0          0      )
                  (     0          1          0      )
                  (     0          0          1      )

 cart.    s( 1) = (  1.0000000  0.0000000  0.0000000 )
                  (  0.0000000  1.0000000  0.0000000 )
                  (  0.0000000  0.0000000  1.0000000 )


      isym =  2     180 deg rotation - cart. axis [0,0,1]        

 cryst.   s( 2) = (    -1          0          0      )
                  (     0         -1          0      )
                  (     0          0          1      )

 cart.    s( 2) = ( -1.0000000  0.0000000  0.0000000 )
                  (  0.0000000 -1.0000000  0.0000000 )
                  (  0.0000000  0.0000000  1.0000000 )


      isym =  3     180 deg rotation - cart. axis [0,1,0]        

 cryst.   s( 3) = (    -1          0          0      )
                  (     0          1          0      )
                  (     0          0         -1      )

 cart.    s( 3) = ( -1.0000000  0.0000000  0.0000000 )
                  (  0.0000000  1.0000000  0.0000000 )
                  (  0.0000000  0.0000000 -1.0000000 )


      isym =  4     180 deg rotation - cart. axis [1,0,0]        

 cryst.   s( 4) = (     1          0          0      )
                  (     0         -1          0      )
                  (     0          0         -1      )

 cart.    s( 4) = (  1.0000000  0.0000000  0.0000000 )
                  (  0.0000000 -1.0000000  0.0000000 )
                  (  0.0000000  0.0000000 -1.0000000 )


      isym =  5     180 deg rotation - cart. axis [1,1,0]        

 cryst.   s( 5) = (     0          1          0      )
                  (     1          0          0      )
                  (     0          0         -1      )

 cart.    s( 5) = (  0.0000000  1.0000000  0.0000000 )
                  (  1.0000000  0.0000000  0.0000000 )
                  (  0.0000000  0.0000000 -1.0000000 )


      isym =  6     180 deg rotation - cart. axis [1,-1,0]       

 cryst.   s( 6) = (     0         -1          0      )
                  (    -1          0          0      )
                  (     0          0         -1      )

 cart.    s( 6) = (  0.0000000 -1.0000000  0.0000000 )
                  ( -1.0000000  0.0000000  0.0000000 )
                  (  0.0000000  0.0000000 -1.0000000 )


      isym =  7      90 deg rotation - cart. axis [0,0,-1]       

 cryst.   s( 7) = (     0         -1          0      )
                  (     1          0          0      )
                  (     0          0          1      )

 cart.    s( 7) = (  0.0000000  1.0000000  0.0000000 )
                  ( -1.0000000  0.0000000  0.0000000 )
                  (  0.0000000  0.0000000  1.0000000 )


      isym =  8      90 deg rotation - cart. axis [0,0,1]        

 cryst.   s( 8) = (     0          1          0      )
                  (    -1          0          0      )
                  (     0          0          1      )

 cart.    s( 8) = (  0.0000000 -1.0000000  0.0000000 )
                  (  1.0000000  0.0000000  0.0000000 )
                  (  0.0000000  0.0000000  1.0000000 )


      isym =  9     180 deg rotation - cart. axis [1,0,1]        

 cryst.   s( 9) = (     0          0          1      )
                  (     0         -1          0      )
                  (     1          0          0      )

 cart.    s( 9) = (  0.0000000  0.0000000  1.0000000 )
                  (  0.0000000 -1.0000000  0.0000000 )
                  (  1.0000000  0.0000000  0.0000000 )


      isym = 10     180 deg rotation - cart. axis [-1,0,1]       

 cryst.   s(10) = (     0          0         -1      )
                  (     0         -1          0      )
                  (    -1          0          0      )

 cart.    s(10) = (  0.0000000  0.0000000 -1.0000000 )
                  (  0.0000000 -1.0000000  0.0000000 )
                  ( -1.0000000  0.0000000  0.0000000 )


      isym = 11      90 deg rotation - cart. axis [0,1,0]        

 cryst.   s(11) = (     0          0         -1      )
                  (     0          1          0      )
                  (     1          0          0      )

 cart.    s(11) = (  0.0000000  0.0000000  1.0000000 )
                  (  0.0000000  1.0000000  0.0000000 )
                  ( -1.0000000  0.0000000  0.0000000 )


      isym = 12      90 deg rotation - cart. axis [0,-1,0]       

 cryst.   s(12) = (     0          0          1      )
                  (     0          1          0      )
                  (    -1          0          0      )

 cart.    s(12) = (  0.0000000  0.0000000 -1.0000000 )
                  (  0.0000000  1.0000000  0.0000000 )
                  (  1.0000000  0.0000000  0.0000000 )


      isym = 13     180 deg rotation - cart. axis [0,1,1]        

 cryst.   s(13) = (    -1          0          0      )
                  (     0          0          1      )
                  (     0          1          0      )

 cart.    s(13) = ( -1.0000000  0.0000000  0.0000000 )
                  (  0.0000000  0.0000000  1.0000000 )
                  (  0.0000000  1.0000000  0.0000000 )


      isym = 14     180 deg rotation - cart. axis [0,1,-1]       

 cryst.   s(14) = (    -1          0          0      )
                  (     0          0         -1      )
                  (     0         -1          0      )

 cart.    s(14) = ( -1.0000000  0.0000000  0.0000000 )
                  (  0.0000000  0.0000000 -1.0000000 )
                  (  0.0000000 -1.0000000  0.0000000 )


      isym = 15      90 deg rotation - cart. axis [-1,0,0]       

 cryst.   s(15) = (     1          0          0      )
                  (     0          0         -1      )
                  (     0          1          0      )

 cart.    s(15) = (  1.0000000  0.0000000  0.0000000 )
                  (  0.0000000  0.0000000  1.0000000 )
                  (  0.0000000 -1.0000000  0.0000000 )


      isym = 16      90 deg rotation - cart. axis [1,0,0]        

 cryst.   s(16) = (     1          0          0      )
                  (     0          0          1      )
                  (     0         -1          0      )

 cart.    s(16) = (  1.0000000  0.0000000  0.0000000 )
                  (  0.0000000  0.0000000 -1.0000000 )
                  (  0.0000000  1.0000000  0.0000000 )


      isym = 17     120 deg rotation - cart. axis [-1,-1,-1]     

 cryst.   s(17) = (     0          0          1      )
                  (     1          0          0      )
                  (     0          1          0      )

 cart.    s(17) = (  0.0000000  1.0000000  0.0000000 )
                  (  0.0000000  0.0000000  1.0000000 )
                  (  1.0000000  0.0000000  0.0000000 )


      isym = 18     120 deg rotation - cart. axis [-1,1,1]       

 cryst.   s(18) = (     0          0         -1      )
                  (    -1          0          0      )
                  (     0          1          0      )

 cart.    s(18) = (  0.0000000 -1.0000000  0.0000000 )
                  (  0.0000000  0.0000000  1.0000000 )
                  ( -1.0000000  0.0000000  0.0000000 )


      isym = 19     120 deg rotation - cart. axis [1,1,-1]       

 cryst.   s(19) = (     0          0         -1      )
                  (     1          0          0      )
                  (     0         -1          0      )

 cart.    s(19) = (  0.0000000  1.0000000  0.0000000 )
                  (  0.0000000  0.0000000 -1.0000000 )
                  ( -1.0000000  0.0000000  0.0000000 )


      isym = 20     120 deg rotation - cart. axis [1,-1,1]       

 cryst.   s(20) = (     0          0          1      )
                  (    -1          0          0      )
                  (     0         -1          0      )

 cart.    s(20) = (  0.0000000 -1.0000000  0.0000000 )
                  (  0.0000000  0.0000000 -1.0000000 )
                  (  1.0000000  0.0000000  0.0000000 )


      isym = 21     120 deg rotation - cart. axis [1,1,1]        

 cryst.   s(21) = (     0          1          0      )
                  (     0          0          1      )
                  (     1          0          0      )

 cart.    s(21) = (  0.0000000  0.0000000  1.0000000 )
                  (  1.0000000  0.0000000  0.0000000 )
                  (  0.0000000  1.0000000  0.0000000 )


      isym = 22     120 deg rotation - cart. axis [-1,1,-1]      

 cryst.   s(22) = (     0         -1          0      )
                  (     0          0         -1      )
                  (     1          0          0      )

 cart.    s(22) = (  0.0000000  0.0000000  1.0000000 )
                  ( -1.0000000  0.0000000  0.0000000 )
                  (  0.0000000 -1.0000000  0.0000000 )


      isym = 23     120 deg rotation - cart. axis [1,-1,-1]      

 cryst.   s(23) = (     0         -1          0      )
                  (     0          0          1      )
                  (    -1          0          0      )

 cart.    s(23) = (  0.0000000  0.0000000 -1.0000000 )
                  ( -1.0000000  0.0000000  0.0000000 )
                  (  0.0000000  1.0000000  0.0000000 )


      isym = 24     120 deg rotation - cart. axis [-1,-1,1]      

 cryst.   s(24) = (     0          1          0      )
                  (     0          0         -1      )
                  (    -1          0          0      )

 cart.    s(24) = (  0.0000000  0.0000000 -1.0000000 )
                  (  1.0000000  0.0000000  0.0000000 )
                  (  0.0000000 -1.0000000  0.0000000 )


      isym = 25     inversion                                    

 cryst.   s(25) = (    -1          0          0      )
                  (     0         -1          0      )
                  (     0          0         -1      )

 cart.    s(25) = ( -1.0000000  0.0000000  0.0000000 )
                  (  0.0000000 -1.0000000  0.0000000 )
                  (  0.0000000  0.0000000 -1.0000000 )


      isym = 26     inv. 180 deg rotation - cart. axis [0,0,1]   

 cryst.   s(26) = (     1          0          0      )
                  (     0          1          0      )
                  (     0          0         -1      )

 cart.    s(26) = (  1.0000000  0.0000000  0.0000000 )
                  (  0.0000000  1.0000000  0.0000000 )
                  (  0.0000000  0.0000000 -1.0000000 )


      isym = 27     inv. 180 deg rotation - cart. axis [0,1,0]   

 cryst.   s(27) = (     1          0          0      )
                  (     0         -1          0      )
                  (     0          0          1      )

 cart.    s(27) = (  1.0000000  0.0000000  0.0000000 )
                  (  0.0000000 -1.0000000  0.0000000 )
                  (  0.0000000  0.0000000  1.0000000 )


      isym = 28     inv. 180 deg rotation - cart. axis [1,0,0]   

 cryst.   s(28) = (    -1          0          0      )
                  (     0          1          0      )
                  (     0          0          1      )

 cart.    s(28) = ( -1.0000000  0.0000000  0.0000000 )
                  (  0.0000000  1.0000000  0.0000000 )
                  (  0.0000000  0.0000000  1.0000000 )


      isym = 29     inv. 180 deg rotation - cart. axis [1,1,0]   

 cryst.   s(29) = (     0         -1          0      )
                  (    -1          0          0      )
                  (     0          0          1      )

 cart.    s(29) = (  0.0000000 -1.0000000  0.0000000 )
                  ( -1.0000000  0.0000000  0.0000000 )
                  (  0.0000000  0.0000000  1.0000000 )


      isym = 30     inv. 180 deg rotation - cart. axis [1,-1,0]  

 cryst.   s(30) = (     0          1          0      )
                  (     1          0          0      )
                  (     0          0          1      )

 cart.    s(30) = (  0.0000000  1.0000000  0.0000000 )
                  (  1.0000000  0.0000000  0.0000000 )
                  (  0.0000000  0.0000000  1.0000000 )


      isym = 31     inv.  90 deg rotation - cart. axis [0,0,-1]  

 cryst.   s(31) = (     0          1          0      )
                  (    -1          0          0      )
                  (     0          0         -1      )

 cart.    s(31) = (  0.0000000 -1.0000000  0.0000000 )
                  (  1.0000000  0.0000000  0.0000000 )
                  (  0.0000000  0.0000000 -1.0000000 )


      isym = 32     inv.  90 deg rotation - cart. axis [0,0,1]   

 cryst.   s(32) = (     0         -1          0      )
                  (     1          0          0      )
                  (     0          0         -1      )

 cart.    s(32) = (  0.0000000  1.0000000  0.0000000 )
                  ( -1.0000000  0.0000000  0.0000000 )
                  (  0.0000000  0.0000000 -1.0000000 )


      isym = 33     inv. 180 deg rotation - cart. axis [1,0,1]   

 cryst.   s(33) = (     0          0         -1      )
                  (     0          1          0      )
                  (    -1          0          0      )

 cart.    s(33) = (  0.0000000  0.0000000 -1.0000000 )
                  (  0.0000000  1.0000000  0.0000000 )
                  ( -1.0000000  0.0000000  0.0000000 )


      isym = 34     inv. 180 deg rotation - cart. axis [-1,0,1]  

 cryst.   s(34) = (     0          0          1      )
                  (     0          1          0      )
                  (     1          0          0      )

 cart.    s(34) = (  0.0000000  0.0000000  1.0000000 )
                  (  0.0000000  1.0000000  0.0000000 )
                  (  1.0000000  0.0000000  0.0000000 )


      isym = 35     inv.  90 deg rotation - cart. axis [0,1,0]   

 cryst.   s(35) = (     0          0          1      )
                  (     0         -1          0      )
                  (    -1          0          0      )

 cart.    s(35) = (  0.0000000  0.0000000 -1.0000000 )
                  (  0.0000000 -1.0000000  0.0000000 )
                  (  1.0000000  0.0000000  0.0000000 )


      isym = 36     inv.  90 deg rotation - cart. axis [0,-1,0]  

 cryst.   s(36) = (     0          0         -1      )
                  (     0         -1          0      )
                  (     1          0          0      )

 cart.    s(36) = (  0.0000000  0.0000000  1.0000000 )
                  (  0.0000000 -1.0000000  0.0000000 )
                  ( -1.0000000  0.0000000  0.0000000 )


      isym = 37     inv. 180 deg rotation - cart. axis [0,1,1]   

 cryst.   s(37) = (     1          0          0      )
                  (     0          0         -1      )
                  (     0         -1          0      )

 cart.    s(37) = (  1.0000000  0.0000000  0.0000000 )
                  (  0.0000000  0.0000000 -1.0000000 )
                  (  0.0000000 -1.0000000  0.0000000 )


      isym = 38     inv. 180 deg rotation - cart. axis [0,1,-1]  

 cryst.   s(38) = (     1          0          0      )
                  (     0          0          1      )
                  (     0          1          0      )

 cart.    s(38) = (  1.0000000  0.0000000  0.0000000 )
                  (  0.0000000  0.0000000  1.0000000 )
                  (  0.0000000  1.0000000  0.0000000 )


      isym = 39     inv.  90 deg rotation - cart. axis [-1,0,0]  

 cryst.   s(39) = (    -1          0          0      )
                  (     0          0          1      )
                  (     0         -1          0      )

 cart.    s(39) = ( -1.0000000  0.0000000  0.0000000 )
                  (  0.0000000  0.0000000 -1.0000000 )
                  (  0.0000000  1.0000000  0.0000000 )


      isym = 40     inv.  90 deg rotation - cart. axis [1,0,0]   

 cryst.   s(40) = (    -1          0          0      )
                  (     0          0         -1      )
                  (     0          1          0      )

 cart.    s(40) = ( -1.0000000  0.0000000  0.0000000 )
                  (  0.0000000  0.0000000  1.0000000 )
                  (  0.0000000 -1.0000000  0.0000000 )


      isym = 41     inv. 120 deg rotation - cart. axis [-1,-1,-1]

 cryst.   s(41) = (     0          0         -1      )
                  (    -1          0          0      )
                  (     0         -1          0      )

 cart.    s(41) = (  0.0000000 -1.0000000  0.0000000 )
                  (  0.0000000  0.0000000 -1.0000000 )
                  ( -1.0000000  0.0000000  0.0000000 )


      isym = 42     inv. 120 deg rotation - cart. axis [-1,1,1]  

 cryst.   s(42) = (     0          0          1      )
                  (     1          0          0      )
                  (     0         -1          0      )

 cart.    s(42) = (  0.0000000  1.0000000  0.0000000 )
                  (  0.0000000  0.0000000 -1.0000000 )
                  (  1.0000000  0.0000000  0.0000000 )


      isym = 43     inv. 120 deg rotation - cart. axis [1,1,-1]  

 cryst.   s(43) = (     0          0          1      )
                  (    -1          0          0      )
                  (     0          1          0      )

 cart.    s(43) = (  0.0000000 -1.0000000  0.0000000 )
                  (  0.0000000  0.0000000  1.0000000 )
                  (  1.0000000  0.0000000  0.0000000 )


      isym = 44     inv. 120 deg rotation - cart. axis [1,-1,1]  

 cryst.   s(44) = (     0          0         -1      )
                  (     1          0          0      )
                  (     0          1          0      )

 cart.    s(44) = (  0.0000000  1.0000000  0.0000000 )
                  (  0.0000000  0.0000000  1.0000000 )
                  ( -1.0000000  0.0000000  0.0000000 )


      isym = 45     inv. 120 deg rotation - cart. axis [1,1,1]   

 cryst.   s(45) = (     0         -1          0      )
                  (     0          0         -1      )
                  (    -1          0          0      )

 cart.    s(45) = (  0.0000000  0.0000000 -1.0000000 )
                  ( -1.0000000  0.0000000  0.0000000 )
                  (  0.0000000 -1.0000000  0.0000000 )


      isym = 46     inv. 120 deg rotation - cart. axis [-1,1,-1] 

 cryst.   s(46) = (     0          1          0      )
                  (     0          0          1      )
                  (    -1          0          0      )

 cart.    s(46) = (  0.0000000  0.0000000 -1.0000000 )
                  (  1.0000000  0.0000000  0.0000000 )
                  (  0.0000000  1.0000000  0.0000000 )


      isym = 47     inv. 120 deg rotation - cart. axis [1,-1,-1] 

 cryst.   s(47) = (     0          1          0      )
                  (     0          0         -1      )
                  (     1          0          0      )

 cart.    s(47) = (  0.0000000  0.0000000  1.0000000 )
                  (  1.0000000  0.0000000  0.0000000 )
                  (  0.0000000 -1.0000000  0.0000000 )


      isym = 48     inv. 120 deg rotation - cart. axis [-1,-1,1] 

 cryst.   s(48) = (     0         -1          0      )
                  (     0          0          1      )
                  (     1          0          0      )

 cart.    s(48) = (  0.0000000  0.0000000  1.0000000 )
                  ( -1.0000000  0.0000000  0.0000000 )
                  (  0.0000000  1.0000000  0.0000000 )


     point group O_h (m-3m) 
     there are 10 classes
     the character table:

       E     8C3   3C2   6C4   6C2'  i     8S6   3s_h  6S4   6s_d 
A_1g   1.00  1.00  1.00  1.00  1.00  1.00  1.00  1.00  1.00  1.00
A_2g   1.00  1.00  1.00 -1.00 -1.00  1.00  1.00  1.00 -1.00 -1.00
E_g    2.00 -1.00  2.00  0.00  0.00  2.00 -1.00  2.00  0.00  0.00
T_1g   3.00  0.00 -1.00  1.00 -1.00  3.00  0.00 -1.00  1.00 -1.00
T_2g   3.00  0.00 -1.00 -1.00  1.00  3.00  0.00 -1.00 -1.00  1.00
A_1u   1.00  1.00  1.00  1.00  1.00 -1.00 -1.00 -1.00 -1.00 -1.00
A_2u   1.00  1.00  1.00 -1.00 -1.00 -1.00 -1.00 -1.00  1.00  1.00
E_u    2.00 -1.00  2.00  0.00  0.00 -2.00  1.00 -2.00  0.00  0.00
T_1u   3.00  0.00 -1.00  1.00 -1.00 -3.00  0.00  1.00 -1.00  1.00
T_2u   3.00  0.00 -1.00 -1.00  1.00 -3.00  0.00  1.00  1.00 -1.00

     the symmetry operations in each class and the name of the first element:

     E        1
          identity                                               
     8C3     17   19   20   18   24   21   22   23
          120 deg rotation - cart. axis [-1,-1,-1]               
     3C2      2    4    3
          180 deg rotation - cart. axis [0,0,1]                  
     6C4      7    8   15   16   12   11
           90 deg rotation - cart. axis [0,0,-1]                 
     6C2'     5    6   14   13   10    9
          180 deg rotation - cart. axis [1,1,0]                  
     i       25
          inversion                                              
     8S6     41   43   44   42   48   45   46   47
          inv. 120 deg rotation - cart. axis [-1,-1,-1]          
     3s_h    26   28   27
          inv. 180 deg rotation - cart. axis [0,0,1]             
     6S4     31   32   39   40   36   35
          inv.  90 deg rotation - cart. axis [0,0,-1]            
     6s_d    29   30   38   37   34   33
          inv. 180 deg rotation - cart. axis [1,1,0]             

   Cartesian axes

     site n.     atom                  positions (alat units)
         1           Cu  tau(   1) = (   0.0000000   0.0000000   0.0000000  )
         2           Cu  tau(   2) = (   0.0000000   0.5000000   0.5000000  )
         3           Cu  tau(   3) = (   0.5000000   0.0000000   0.5000000  )
         4           Cu  tau(   4) = (   0.5000000   0.5000000   0.0000000  )

   Crystallographic axes

     site n.     atom                  positions (cryst. coord.)
         1           Cu  tau(   1) = (  0.0000000  0.0000000  0.0000000  )
         2           Cu  tau(   2) = (  0.0000000  0.5000000  0.5000000  )
         3           Cu  tau(   3) = (  0.5000000  0.0000000  0.5000000  )
         4           Cu  tau(   4) = (  0.5000000  0.5000000  0.0000000  )

     number of k points=    84  Gaussian smearing, width (Ry)=  0.0010
                       cart. coord. in units 2pi/alat
        k(    1) = (   0.0000000   0.0000000   0.0000000), wk =   0.0011574
        k(    2) = (   0.0000000   0.0000000   0.0833333), wk =   0.0069444
        k(    3) = (   0.0000000   0.0000000   0.1666667), wk =   0.0069444
        k(    4) = (   0.0000000   0.0000000   0.2500000), wk =   0.0069444
        k(    5) = (   0.0000000   0.0000000   0.3333333), wk =   0.0069444
        k(    6) = (   0.0000000   0.0000000   0.4166667), wk =   0.0069444
        k(    7) = (   0.0000000   0.0000000  -0.5000000), wk =   0.0034722
        k(    8) = (   0.0000000   0.0833333   0.0833333), wk =   0.0138889
        k(    9) = (   0.0000000   0.0833333   0.1666667), wk =   0.0277778
        k(   10) = (   0.0000000   0.0833333   0.2500000), wk =   0.0277778
        k(   11) = (   0.0000000   0.0833333   0.3333333), wk =   0.0277778
        k(   12) = (   0.0000000   0.0833333   0.4166667), wk =   0.0277778
        k(   13) = (   0.0000000   0.0833333  -0.5000000), wk =   0.0138889
        k(   14) = (   0.0000000   0.1666667   0.1666667), wk =   0.0138889
        k(   15) = (   0.0000000   0.1666667   0.2500000), wk =   0.0277778
        k(   16) = (   0.0000000   0.1666667   0.3333333), wk =   0.0277778
        k(   17) = (   0.0000000   0.1666667   0.4166667), wk =   0.0277778
        k(   18) = (   0.0000000   0.1666667  -0.5000000), wk =   0.0138889
        k(   19) = (   0.0000000   0.2500000   0.2500000), wk =   0.0138889
        k(   20) = (   0.0000000   0.2500000   0.3333333), wk =   0.0277778
        k(   21) = (   0.0000000   0.2500000   0.4166667), wk =   0.0277778
        k(   22) = (   0.0000000   0.2500000  -0.5000000), wk =   0.0138889
        k(   23) = (   0.0000000   0.3333333   0.3333333), wk =   0.0138889
        k(   24) = (   0.0000000   0.3333333   0.4166667), wk =   0.0277778
        k(   25) = (   0.0000000   0.3333333  -0.5000000), wk =   0.0138889
        k(   26) = (   0.0000000   0.4166667   0.4166667), wk =   0.0138889
        k(   27) = (   0.0000000   0.4166667  -0.5000000), wk =   0.0138889
        k(   28) = (   0.0000000  -0.5000000  -0.5000000), wk =   0.0034722
        k(   29) = (   0.0833333   0.0833333   0.0833333), wk =   0.0092593
        k(   30) = (   0.0833333   0.0833333   0.1666667), wk =   0.0277778
        k(   31) = (   0.0833333   0.0833333   0.2500000), wk =   0.0277778
        k(   32) = (   0.0833333   0.0833333   0.3333333), wk =   0.0277778
        k(   33) = (   0.0833333   0.0833333   0.4166667), wk =   0.0277778
        k(   34) = (   0.0833333   0.0833333  -0.5000000), wk =   0.0138889
        k(   35) = (   0.0833333   0.1666667   0.1666667), wk =   0.0277778
        k(   36) = (   0.0833333   0.1666667   0.2500000), wk =   0.0555556
        k(   37) = (   0.0833333   0.1666667   0.3333333), wk =   0.0555556
        k(   38) = (   0.0833333   0.1666667   0.4166667), wk =   0.0555556
        k(   39) = (   0.0833333   0.1666667  -0.5000000), wk =   0.0277778
        k(   40) = (   0.0833333   0.2500000   0.2500000), wk =   0.0277778
        k(   41) = (   0.0833333   0.2500000   0.3333333), wk =   0.0555556
        k(   42) = (   0.0833333   0.2500000   0.4166667), wk =   0.0555556
        k(   43) = (   0.0833333   0.2500000  -0.5000000), wk =   0.0277778
        k(   44) = (   0.0833333   0.3333333   0.3333333), wk =   0.0277778
        k(   45) = (   0.0833333   0.3333333   0.4166667), wk =   0.0555556
        k(   46) = (   0.0833333   0.3333333  -0.5000000), wk =   0.0277778
        k(   47) = (   0.0833333   0.4166667   0.4166667), wk =   0.0277778
        k(   48) = (   0.0833333   0.4166667  -0.5000000), wk =   0.0277778
        k(   49) = (   0.0833333  -0.5000000  -0.5000000), wk =   0.0069444
        k(   50) = (   0.1666667   0.1666667   0.1666667), wk =   0.0092593
        k(   51) = (   0.1666667   0.1666667   0.2500000), wk =   0.0277778
        k(   52) = (   0.1666667   0.1666667   0.3333333), wk =   0.0277778
        k(   53) = (   0.1666667   0.1666667   0.4166667), wk =   0.0277778
        k(   54) = (   0.1666667   0.1666667  -0.5000000), wk =   0.0138889
        k(   55) = (   0.1666667   0.2500000   0.2500000), wk =   0.0277778
        k(   56) = (   0.1666667   0.2500000   0.3333333), wk =   0.0555556
        k(   57) = (   0.1666667   0.2500000   0.4166667), wk =   0.0555556
        k(   58) = (   0.1666667   0.2500000  -0.5000000), wk =   0.0277778
        k(   59) = (   0.1666667   0.3333333   0.3333333), wk =   0.0277778
        k(   60) = (   0.1666667   0.3333333   0.4166667), wk =   0.0555556
        k(   61) = (   0.1666667   0.3333333  -0.5000000), wk =   0.0277778
        k(   62) = (   0.1666667   0.4166667   0.4166667), wk =   0.0277778
        k(   63) = (   0.1666667   0.4166667  -0.5000000), wk =   0.0277778
        k(   64) = (   0.1666667  -0.5000000  -0.5000000), wk =   0.0069444
        k(   65) = (   0.2500000   0.2500000   0.2500000), wk =   0.0092593
        k(   66) = (   0.2500000   0.2500000   0.3333333), wk =   0.0277778
        k(   67) = (   0.2500000   0.2500000   0.4166667), wk =   0.0277778
        k(   68) = (   0.2500000   0.2500000  -0.5000000), wk =   0.0138889
        k(   69) = (   0.2500000   0.3333333   0.3333333), wk =   0.0277778
        k(   70) = (   0.2500000   0.3333333   0.4166667), wk =   0.0555556
        k(   71) = (   0.2500000   0.3333333  -0.5000000), wk =   0.0277778
        k(   72) = (   0.2500000   0.4166667   0.4166667), wk =   0.0277778
        k(   73) = (   0.2500000   0.4166667  -0.5000000), wk =   0.0277778
        k(   74) = (   0.2500000  -0.5000000  -0.5000000), wk =   0.0069444
        k(   75) = (   0.3333333   0.3333333   0.3333333), wk =   0.0092593
        k(   76) = (   0.3333333   0.3333333   0.4166667), wk =   0.0277778
        k(   77) = (   0.3333333   0.3333333  -0.5000000), wk =   0.0138889
        k(   78) = (   0.3333333   0.4166667   0.4166667), wk =   0.0277778
        k(   79) = (   0.3333333   0.4166667  -0.5000000), wk =   0.0277778
        k(   80) = (   0.3333333  -0.5000000  -0.5000000), wk =   0.0069444
        k(   81) = (   0.4166667   0.4166667   0.4166667), wk =   0.0092593
        k(   82) = (   0.4166667   0.4166667  -0.5000000), wk =   0.0138889
        k(   83) = (   0.4166667  -0.5000000  -0.5000000), wk =   0.0069444
        k(   84) = (  -0.5000000  -0.5000000  -0.5000000), wk =   0.0011574

                       cryst. coord.
        k(    1) = (   0.0000000   0.0000000   0.0000000), wk =   0.0011574
        k(    2) = (   0.0000000   0.0000000   0.0833333), wk =   0.0069444
        k(    3) = (   0.0000000   0.0000000   0.1666667), wk =   0.0069444
        k(    4) = (   0.0000000   0.0000000   0.2500000), wk =   0.0069444
        k(    5) = (   0.0000000   0.0000000   0.3333333), wk =   0.0069444
        k(    6) = (   0.0000000   0.0000000   0.4166667), wk =   0.0069444
        k(    7) = (   0.0000000   0.0000000  -0.5000000), wk =   0.0034722
        k(    8) = (   0.0000000   0.0833333   0.0833333), wk =   0.0138889
        k(    9) = (   0.0000000   0.0833333   0.1666667), wk =   0.0277778
        k(   10) = (   0.0000000   0.0833333   0.2500000), wk =   0.0277778
        k(   11) = (   0.0000000   0.0833333   0.3333333), wk =   0.0277778
        k(   12) = (   0.0000000   0.0833333   0.4166667), wk =   0.0277778
        k(   13) = (   0.0000000   0.0833333  -0.5000000), wk =   0.0138889
        k(   14) = (   0.0000000   0.1666667   0.1666667), wk =   0.0138889
        k(   15) = (   0.0000000   0.1666667   0.2500000), wk =   0.0277778
        k(   16) = (   0.0000000   0.1666667   0.3333333), wk =   0.0277778
        k(   17) = (   0.0000000   0.1666667   0.4166667), wk =   0.0277778
        k(   18) = (   0.0000000   0.1666667  -0.5000000), wk =   0.0138889
        k(   19) = (   0.0000000   0.2500000   0.2500000), wk =   0.0138889
        k(   20) = (   0.0000000   0.2500000   0.3333333), wk =   0.0277778
        k(   21) = (   0.0000000   0.2500000   0.4166667), wk =   0.0277778
        k(   22) = (   0.0000000   0.2500000  -0.5000000), wk =   0.0138889
        k(   23) = (   0.0000000   0.3333333   0.3333333), wk =   0.0138889
        k(   24) = (   0.0000000   0.3333333   0.4166667), wk =   0.0277778
        k(   25) = (   0.0000000   0.3333333  -0.5000000), wk =   0.0138889
        k(   26) = (   0.0000000   0.4166667   0.4166667), wk =   0.0138889
        k(   27) = (   0.0000000   0.4166667  -0.5000000), wk =   0.0138889
        k(   28) = (   0.0000000  -0.5000000  -0.5000000), wk =   0.0034722
        k(   29) = (   0.0833333   0.0833333   0.0833333), wk =   0.0092593
        k(   30) = (   0.0833333   0.0833333   0.1666667), wk =   0.0277778
        k(   31) = (   0.0833333   0.0833333   0.2500000), wk =   0.0277778
        k(   32) = (   0.0833333   0.0833333   0.3333333), wk =   0.0277778
        k(   33) = (   0.0833333   0.0833333   0.4166667), wk =   0.0277778
        k(   34) = (   0.0833333   0.0833333  -0.5000000), wk =   0.0138889
        k(   35) = (   0.0833333   0.1666667   0.1666667), wk =   0.0277778
        k(   36) = (   0.0833333   0.1666667   0.2500000), wk =   0.0555556
        k(   37) = (   0.0833333   0.1666667   0.3333333), wk =   0.0555556
        k(   38) = (   0.0833333   0.1666667   0.4166667), wk =   0.0555556
        k(   39) = (   0.0833333   0.1666667  -0.5000000), wk =   0.0277778
        k(   40) = (   0.0833333   0.2500000   0.2500000), wk =   0.0277778
        k(   41) = (   0.0833333   0.2500000   0.3333333), wk =   0.0555556
        k(   42) = (   0.0833333   0.2500000   0.4166667), wk =   0.0555556
        k(   43) = (   0.0833333   0.2500000  -0.5000000), wk =   0.0277778
        k(   44) = (   0.0833333   0.3333333   0.3333333), wk =   0.0277778
        k(   45) = (   0.0833333   0.3333333   0.4166667), wk =   0.0555556
        k(   46) = (   0.0833333   0.3333333  -0.5000000), wk =   0.0277778
        k(   47) = (   0.0833333   0.4166667   0.4166667), wk =   0.0277778
        k(   48) = (   0.0833333   0.4166667  -0.5000000), wk =   0.0277778
        k(   49) = (   0.0833333  -0.5000000  -0.5000000), wk =   0.0069444
        k(   50) = (   0.1666667   0.1666667   0.1666667), wk =   0.0092593
        k(   51) = (   0.1666667   0.1666667   0.2500000), wk =   0.0277778
        k(   52) = (   0.1666667   0.1666667   0.3333333), wk =   0.0277778
        k(   53) = (   0.1666667   0.1666667   0.4166667), wk =   0.0277778
        k(   54) = (   0.1666667   0.1666667  -0.5000000), wk =   0.0138889
        k(   55) = (   0.1666667   0.2500000   0.2500000), wk =   0.0277778
        k(   56) = (   0.1666667   0.2500000   0.3333333), wk =   0.0555556
        k(   57) = (   0.1666667   0.2500000   0.4166667), wk =   0.0555556
        k(   58) = (   0.1666667   0.2500000  -0.5000000), wk =   0.0277778
        k(   59) = (   0.1666667   0.3333333   0.3333333), wk =   0.0277778
        k(   60) = (   0.1666667   0.3333333   0.4166667), wk =   0.0555556
        k(   61) = (   0.1666667   0.3333333  -0.5000000), wk =   0.0277778
        k(   62) = (   0.1666667   0.4166667   0.4166667), wk =   0.0277778
        k(   63) = (   0.1666667   0.4166667  -0.5000000), wk =   0.0277778
        k(   64) = (   0.1666667  -0.5000000  -0.5000000), wk =   0.0069444
        k(   65) = (   0.2500000   0.2500000   0.2500000), wk =   0.0092593
        k(   66) = (   0.2500000   0.2500000   0.3333333), wk =   0.0277778
        k(   67) = (   0.2500000   0.2500000   0.4166667), wk =   0.0277778
        k(   68) = (   0.2500000   0.2500000  -0.5000000), wk =   0.0138889
        k(   69) = (   0.2500000   0.3333333   0.3333333), wk =   0.0277778
        k(   70) = (   0.2500000   0.3333333   0.4166667), wk =   0.0555556
        k(   71) = (   0.2500000   0.3333333  -0.5000000), wk =   0.0277778
        k(   72) = (   0.2500000   0.4166667   0.4166667), wk =   0.0277778
        k(   73) = (   0.2500000   0.4166667  -0.5000000), wk =   0.0277778
        k(   74) = (   0.2500000  -0.5000000  -0.5000000), wk =   0.0069444
        k(   75) = (   0.3333333   0.3333333   0.3333333), wk =   0.0092593
        k(   76) = (   0.3333333   0.3333333   0.4166667), wk =   0.0277778
        k(   77) = (   0.3333333   0.3333333  -0.5000000), wk =   0.0138889
        k(   78) = (   0.3333333   0.4166667   0.4166667), wk =   0.0277778
        k(   79) = (   0.3333333   0.4166667  -0.5000000), wk =   0.0277778
        k(   80) = (   0.3333333  -0.5000000  -0.5000000), wk =   0.0069444
        k(   81) = (   0.4166667   0.4166667   0.4166667), wk =   0.0092593
        k(   82) = (   0.4166667   0.4166667  -0.5000000), wk =   0.0138889
        k(   83) = (   0.4166667  -0.5000000  -0.5000000), wk =   0.0069444
        k(   84) = (  -0.5000000  -0.5000000  -0.5000000), wk =   0.0011574

     Dense  grid:    72455 G-vectors     FFT dimensions: (  54,  54,  54)

     Dynamical RAM for                 wfc:       0.63 MB

     Dynamical RAM for     wfc (w. buffer):      53.87 MB

     Dynamical RAM for           str. fact:       0.11 MB

     Dynamical RAM for           local pot:       0.00 MB

     Dynamical RAM for          nlocal pot:       0.99 MB

     Dynamical RAM for                qrad:       1.83 MB

     Dynamical RAM for          rho,v,vnew:       0.73 MB

     Dynamical RAM for               rhoin:       0.24 MB

     Dynamical RAM for            rho*nmix:       1.77 MB

     Dynamical RAM for           G-vectors:       0.47 MB

     Dynamical RAM for          h,s,v(r/c):       0.39 MB

     Dynamical RAM for          <psi|beta>:       0.05 MB

     Dynamical RAM for                 psi:       1.27 MB

     Dynamical RAM for                hpsi:       1.27 MB

     Dynamical RAM for                spsi:       1.27 MB

     Dynamical RAM for      wfcinit/wfcrot:       1.32 MB

     Dynamical RAM for           addusdens:      21.01 MB

     Estimated static dynamical RAM per process >      59.14 MB

     Estimated max dynamical RAM per process >      81.92 MB

     Estimated total dynamical RAM >     819.25 MB

     The initial density is read from file :
     ./out/Cu.save/charge-density


     starting charge      77.2737, renormalised to      76.0000
     Starting wfcs from file
     Checking if some PAW data can be deallocated... 

     total cpu time spent up to now is        1.8 secs

     Self-consistent Calculation

     iteration #  1     ecut=   130.00 Ry     beta= 0.70
     Davidson diagonalization with overlap

---- Real-time Memory Report at c_bands before calling an iterative solver
            95 MiB given to the printing process from OS
             0 MiB allocation reported by mallinfo(arena+hblkhd)
           862 MiB available memory on the node where the printing process lives
------------------
     ethr =  1.00E-05,  avg # of iterations =  4.7

     total cpu time spent up to now is       69.7 secs

     total energy              =   -1947.16843156 Ry
     estimated scf accuracy    <       0.58833141 Ry

     iteration #  2     ecut=   130.00 Ry     beta= 0.70
     Davidson diagonalization with overlap

---- Real-time Memory Report at c_bands before calling an iterative solver
           121 MiB given to the printing process from OS
             0 MiB allocation reported by mallinfo(arena+hblkhd)
           667 MiB available memory on the node where the printing process lives
------------------
     ethr =  7.74E-04,  avg # of iterations =  3.0

     total cpu time spent up to now is      117.1 secs

     total energy              =   -1946.98639474 Ry
     estimated scf accuracy    <       3.81115386 Ry

     iteration #  3     ecut=   130.00 Ry     beta= 0.70
     Davidson diagonalization with overlap

---- Real-time Memory Report at c_bands before calling an iterative solver
           121 MiB given to the printing process from OS
             0 MiB allocation reported by mallinfo(arena+hblkhd)
           630 MiB available memory on the node where the printing process lives
------------------
     ethr =  7.74E-04,  avg # of iterations =  2.6

     total cpu time spent up to now is      159.7 secs

     total energy              =   -1947.53463164 Ry
     estimated scf accuracy    <       0.00059890 Ry

     iteration #  4     ecut=   130.00 Ry     beta= 0.70
     Davidson diagonalization with overlap

---- Real-time Memory Report at c_bands before calling an iterative solver
           121 MiB given to the printing process from OS
             0 MiB allocation reported by mallinfo(arena+hblkhd)
           684 MiB available memory on the node where the printing process lives
------------------
     ethr =  7.88E-07,  avg # of iterations =  5.0

     total cpu time spent up to now is      217.7 secs

     total energy              =   -1947.53575021 Ry
     estimated scf accuracy    <       0.00097621 Ry

     iteration #  5     ecut=   130.00 Ry     beta= 0.70
     Davidson diagonalization with overlap

---- Real-time Memory Report at c_bands before calling an iterative solver
           121 MiB given to the printing process from OS
             0 MiB allocation reported by mallinfo(arena+hblkhd)
           683 MiB available memory on the node where the printing process lives
------------------
     ethr =  7.88E-07,  avg # of iterations =  1.3

     total cpu time spent up to now is      247.2 secs

     total energy              =   -1947.53566037 Ry
     estimated scf accuracy    <       0.00036474 Ry

     iteration #  6     ecut=   130.00 Ry     beta= 0.70
     Davidson diagonalization with overlap

---- Real-time Memory Report at c_bands before calling an iterative solver
           121 MiB given to the printing process from OS
             0 MiB allocation reported by mallinfo(arena+hblkhd)
           641 MiB available memory on the node where the printing process lives
------------------
     ethr =  4.80E-07,  avg # of iterations =  2.0

     total cpu time spent up to now is      284.6 secs

     total energy              =   -1947.53574838 Ry
     estimated scf accuracy    <       0.00010160 Ry

     iteration #  7     ecut=   130.00 Ry     beta= 0.70
     Davidson diagonalization with overlap

---- Real-time Memory Report at c_bands before calling an iterative solver
           123 MiB given to the printing process from OS
             0 MiB allocation reported by mallinfo(arena+hblkhd)
           646 MiB available memory on the node where the printing process lives
------------------
     ethr =  1.34E-07,  avg # of iterations =  2.0

     total cpu time spent up to now is      317.1 secs

     total energy              =   -1947.53575963 Ry
     estimated scf accuracy    <       0.00000173 Ry

     iteration #  8     ecut=   130.00 Ry     beta= 0.70
     Davidson diagonalization with overlap

---- Real-time Memory Report at c_bands before calling an iterative solver
           123 MiB given to the printing process from OS
             0 MiB allocation reported by mallinfo(arena+hblkhd)
           651 MiB available memory on the node where the printing process lives
------------------
     ethr =  2.28E-09,  avg # of iterations =  2.0

     total cpu time spent up to now is      354.8 secs

     total energy              =   -1947.53575975 Ry
     estimated scf accuracy    <       0.00000078 Ry

     iteration #  9     ecut=   130.00 Ry     beta= 0.70
     Davidson diagonalization with overlap

---- Real-time Memory Report at c_bands before calling an iterative solver
           123 MiB given to the printing process from OS
             0 MiB allocation reported by mallinfo(arena+hblkhd)
           644 MiB available memory on the node where the printing process lives
------------------
     ethr =  1.03E-09,  avg # of iterations =  1.0

     total cpu time spent up to now is      382.7 secs

     total energy              =   -1947.53575969 Ry
     estimated scf accuracy    <       0.00000027 Ry

     iteration # 10     ecut=   130.00 Ry     beta= 0.70
     Davidson diagonalization with overlap

---- Real-time Memory Report at c_bands before calling an iterative solver
           123 MiB given to the printing process from OS
             0 MiB allocation reported by mallinfo(arena+hblkhd)
           643 MiB available memory on the node where the printing process lives
------------------
     ethr =  3.60E-10,  avg # of iterations =  2.0

     total cpu time spent up to now is      416.2 secs

     total energy              =   -1947.53575971 Ry
     estimated scf accuracy    <       0.00000001 Ry

     iteration # 11     ecut=   130.00 Ry     beta= 0.70
     Davidson diagonalization with overlap

---- Real-time Memory Report at c_bands before calling an iterative solver
           123 MiB given to the printing process from OS
             0 MiB allocation reported by mallinfo(arena+hblkhd)
           799 MiB available memory on the node where the printing process lives
------------------
     ethr =  1.61E-11,  avg # of iterations =  3.3

     total cpu time spent up to now is      455.1 secs

     End of self-consistent calculation

          k = 0.0000 0.0000 0.0000 (  9045 PWs)   bands (ev):

   -98.5199 -98.5099 -98.5099 -98.5099 -55.9213 -55.9213 -55.9213 -55.8845
   -55.8845 -55.8845 -55.8845 -55.8845 -55.8845 -55.8591 -55.8591 -55.8591
     5.2914   9.5885   9.5885   9.5885   9.9823   9.9823   9.9823  11.1449
    11.1449  11.1449  11.8310  11.8310  12.2911  12.2911  12.2911  12.4262
    12.4262  12.4262  12.4262  12.4262  12.4262  15.3589  15.3589  15.3589
    20.0591  20.0591  20.0591  25.9434  25.9434  25.9434

     occupation numbers 
     1.0000   1.0000   1.0000   1.0000   1.0000   1.0000   1.0000   1.0000
     1.0000   1.0000   1.0000   1.0000   1.0000   1.0000   1.0000   1.0000
     1.0000   1.0000   1.0000   1.0000   1.0000   1.0000   1.0000   1.0000
     1.0000   1.0000   1.0000   1.0000   1.0000   1.0000   1.0000   1.0000
     1.0000   1.0000   1.0000   1.0000   1.0000   0.0000   0.0000   0.0000
     0.0000   0.0000   0.0000   0.0000   0.0000   0.0000

          k = 0.0000 0.0000 0.0833 (  9014 PWs)   bands (ev):

   -98.5197 -98.5101 -98.5099 -98.5099 -55.9207 -55.9207 -55.9203 -55.8851
   -55.8851 -55.8845 -55.8845 -55.8841 -55.8841 -55.8602 -55.8595 -55.8595
     5.3689   9.5847   9.6229   9.6229  10.0012  10.0022  10.0022  11.1242
    11.1617  11.1617  11.8123  11.8386  12.2669  12.2669  12.2831  12.3081
    12.3081  12.3974  12.3974  12.4262  12.4262  14.8364  15.5478  15.5478
    20.0910  20.0910  20.7416  25.4159  25.4159  25.5743

     occupation numbers 
     1.0000   1.0000   1.0000   1.0000   1.0000   1.0000   1.0000   1.0000
     1.0000   1.0000   1.0000   1.0000   1.0000   1.0000   1.0000   1.0000
     1.0000   1.0000   1.0000   1.0000   1.0000   1.0000   1.0000   1.0000
     1.0000   1.0000   1.0000   1.0000   1.0000   1.0000   1.0000   1.0000
     1.0000   1.0000   1.0000   1.0000   1.0000   0.0000   0.0000   0.0000
     0.0000   0.0000   0.0000   0.0000   0.0000   0.0000

          k = 0.0000 0.0000 0.1667 (  8994 PWs)   bands (ev):

   -98.5192 -98.5106 -98.5099 -98.5099 -55.9189 -55.9189 -55.9173 -55.8870
   -55.8870 -55.8846 -55.8846 -55.8828 -55.8828 -55.8633 -55.8608 -55.8608
     5.6001   9.5569   9.7212   9.7212  10.0569  10.0623  10.0623  11.0637
    11.2118  11.2118  11.7582  11.8612  12.0221  12.0221  12.1965  12.1965
    12.2597  12.3151  12.3151  12.4263  12.4263  13.7792  16.0455  16.0455
    20.1898  20.1898  22.2922  24.3105  24.3105  24.7360

     occupation numbers 
     1.0000   1.0000   1.0000   1.0000   1.0000   1.0000   1.0000   1.0000
     1.0000   1.0000   1.0000   1.0000   1.0000   1.0000   1.0000   1.0000
     1.0000   1.0000   1.0000   1.0000   1.0000   1.0000   1.0000   1.0000
     1.0000   1.0000   1.0000   1.0000   1.0000   1.0000   1.0000   1.0000
     1.0000   1.0000   1.0000   1.0000   1.0000   0.9997   0.0000   0.0000
     0.0000   0.0000   0.0000   0.0000   0.0000   0.0000

          k = 0.0000 0.0000 0.2500 (  8986 PWs)   bands (ev):

   -98.5184 -98.5114 -98.5099 -98.5099 -55.9159 -55.9159 -55.9124 -55.8899
   -55.8899 -55.8846 -55.8846 -55.8808 -55.8808 -55.8684 -55.8628 -55.8628
     5.9801   9.4468   9.8680   9.8680  10.1461  10.1637  10.1637  10.9680
    11.2939  11.2939  11.6744  11.6744  11.6757  11.8972  12.0878  12.0878
    12.1897  12.1897  12.2225  12.4265  12.4265  12.7272  16.7447  16.7447
    20.3639  20.3639  23.0735  23.0735  23.7849  23.7849

     occupation numbers 
     1.0000   1.0000   1.0000   1.0000   1.0000   1.0000   1.0000   1.0000
     1.0000   1.0000   1.0000   1.0000   1.0000   1.0000   1.0000   1.0000
     1.0000   1.0000   1.0000   1.0000   1.0000   1.0000   1.0000   1.0000
     1.0000   1.0000   1.0000   1.0000   1.0000   1.0000   1.0000   1.0000
     1.0000   1.0000   1.0000   1.0000   1.0000   1.0000   0.0000   0.0000
     0.0000   0.0000   0.0000   0.0000   0.0000   0.0000

          k = 0.0000 0.0000 0.3333 (  9034 PWs)   bands (ev):

   -98.5174 -98.5124 -98.5099 -98.5099 -55.9121 -55.9121 -55.9060 -55.8937
   -55.8937 -55.8847 -55.8847 -55.8782 -55.8782 -55.8749 -55.8655 -55.8655
     6.4993   9.1433  10.0346  10.0346  10.2632  10.3079  10.3079  10.8443
    11.3272  11.3272  11.4055  11.4055  11.5777  11.9443  11.9471  11.9592
    11.9592  12.0354  12.0354  12.1743  12.4266  12.4266  17.5808  17.5808
    20.6267  20.6267  21.8436  21.8436  22.8916  22.8916

     occupation numbers 
     1.0000   1.0000   1.0000   1.0000   1.0000   1.0000   1.0000   1.0000
     1.0000   1.0000   1.0000   1.0000   1.0000   1.0000   1.0000   1.0000
     1.0000   1.0000   1.0000   1.0000   1.0000   1.0000   1.0000   1.0000
     1.0000   1.0000   1.0000   1.0000   1.0000   1.0000   1.0000   1.0000
     1.0000   1.0000   1.0000   1.0000   1.0000   1.0000   0.0000   0.0000
     0.0000   0.0000   0.0000   0.0000   0.0000   0.0000

          k = 0.0000 0.0000 0.4167 (  9026 PWs)   bands (ev):

   -98.5162 -98.5136 -98.5099 -98.5099 -55.9077 -55.9077 -55.8986 -55.8982
   -55.8982 -55.8847 -55.8847 -55.8825 -55.8751 -55.8751 -55.8685 -55.8685
     7.1389   8.5782  10.1752  10.1752  10.4009  10.4965  10.4965  10.7018
    11.0086  11.0086  11.4879  11.5427  11.5427  11.5535  11.8464  11.8464
    11.8675  11.8675  11.9993  12.1184  12.4267  12.4267  18.5226  18.5226
    20.6645  20.6645  20.9949  20.9949  22.1210  22.1210

     occupation numbers 
     1.0000   1.0000   1.0000   1.0000   1.0000   1.0000   1.0000   1.0000
     1.0000   1.0000   1.0000   1.0000   1.0000   1.0000   1.0000   1.0000
     1.0000   1.0000   1.0000   1.0000   1.0000   1.0000   1.0000   1.0000
     1.0000   1.0000   1.0000   1.0000   1.0000   1.0000   1.0000   1.0000
     1.0000   1.0000   1.0000   1.0000   1.0000   1.0000   0.0000   0.0000
     0.0000   0.0000   0.0000   0.0000   0.0000   0.0000

          k = 0.0000 0.0000-0.5000 (  9026 PWs)   bands (ev):

   -98.5149 -98.5149 -98.5099 -98.5099 -55.9029 -55.9029 -55.9029 -55.9029
   -55.8906 -55.8906 -55.8847 -55.8847 -55.8718 -55.8718 -55.8718 -55.8718
     7.8599   7.8599  10.2323  10.2323  10.5505  10.5505  10.7303  10.7303
    10.7303  10.7303  11.4504  11.4504  11.6995  11.6995  11.6995  11.6995
    11.7995  11.7995  12.0587  12.0587  12.4268  12.4268  19.5540  19.5540
    19.5540  19.5540  21.4475  21.4475  21.5308  21.5308

     occupation numbers 
     1.0000   1.0000   1.0000   1.0000   1.0000   1.0000   1.0000   1.0000
     1.0000   1.0000   1.0000   1.0000   1.0000   1.0000   1.0000   1.0000
     1.0000   1.0000   1.0000   1.0000   1.0000   1.0000   1.0000   1.0000
     1.0000   1.0000   1.0000   1.0000   1.0000   1.0000   1.0000   1.0000
     1.0000   1.0000   1.0000   1.0000   1.0000   1.0000   0.0000   0.0000
     0.0000   0.0000   0.0000   0.0000   0.0000   0.0000

          k = 0.0000 0.0833 0.0833 (  9021 PWs)   bands (ev):

   -98.5195 -98.5101 -98.5101 -98.5099 -55.9201 -55.9197 -55.9197 -55.8864
   -55.8847 -55.8847 -55.8841 -55.8841 -55.8839 -55.8618 -55.8600 -55.8594
     5.4462   9.6200   9.6200   9.6564  10.0208  10.0208  10.0215  11.1128
    11.1697  11.1768  11.8072  11.8344  12.2205  12.2335  12.2335  12.2438
    12.2986  12.2986  12.3974  12.3974  12.4077  15.0206  15.0206  15.7248
    20.1237  20.7843  20.7843  24.3271  25.5199  25.5199

     occupation numbers 
     1.0000   1.0000   1.0000   1.0000   1.0000   1.0000   1.0000   1.0000
     1.0000   1.0000   1.0000   1.0000   1.0000   1.0000   1.0000   1.0000
     1.0000   1.0000   1.0000   1.0000   1.0000   1.0000   1.0000   1.0000
     1.0000   1.0000   1.0000   1.0000   1.0000   1.0000   1.0000   1.0000
     1.0000   1.0000   1.0000   1.0000   1.0000   0.0000   0.0000   0.0000
     0.0000   0.0000   0.0000   0.0000   0.0000   0.0000

          k = 0.0000 0.0833 0.1667 (  9022 PWs)   bands (ev):

   -98.5190 -98.5106 -98.5101 -98.5099 -55.9183 -55.9181 -55.9169 -55.8886
   -55.8865 -55.8841 -55.8835 -55.8834 -55.8827 -55.8653 -55.8612 -55.8602
     5.6764   9.5951   9.7210   9.7521  10.0754  10.0795  10.0798  11.0583
    11.2149  11.2215  11.7605  11.8551  11.9643  11.9675  12.1318  12.1762
    12.2046  12.2701  12.3149  12.3973  12.3977  13.9763  15.4921  16.1999
    20.2246  20.9158  22.3460  23.0560  24.4074  24.8301

     occupation numbers 
     1.0000   1.0000   1.0000   1.0000   1.0000   1.0000   1.0000   1.0000
     1.0000   1.0000   1.0000   1.0000   1.0000   1.0000   1.0000   1.0000
     1.0000   1.0000   1.0000   1.0000   1.0000   1.0000   1.0000   1.0000
     1.0000   1.0000   1.0000   1.0000   1.0000   1.0000   1.0000   1.0000
     1.0000   1.0000   1.0000   1.0000   1.0000   0.0000   0.0000   0.0000
     0.0000   0.0000   0.0000   0.0000   0.0000   0.0000

          k = 0.0000 0.0833 0.2500 (  9027 PWs)   bands (ev):

   -98.5183 -98.5113 -98.5100 -98.5099 -55.9154 -55.9153 -55.9123 -55.8915
   -55.8894 -55.8840 -55.8833 -55.8814 -55.8806 -55.8704 -55.8633 -55.8620
     6.0549   9.4901   9.8723   9.8954  10.1627  10.1767  10.1792  10.9661
    11.2922  11.2955  11.6182  11.6426  11.6851  11.8954  11.9490  12.0717
    12.0951  12.1893  12.2209  12.3954  12.3971  12.9872  16.1340  16.8792
    20.4018  21.1456  21.8202  23.1680  23.8695  24.2807

     occupation numbers 
     1.0000   1.0000   1.0000   1.0000   1.0000   1.0000   1.0000   1.0000
     1.0000   1.0000   1.0000   1.0000   1.0000   1.0000   1.0000   1.0000
     1.0000   1.0000   1.0000   1.0000   1.0000   1.0000   1.0000   1.0000
     1.0000   1.0000   1.0000   1.0000   1.0000   1.0000   1.0000   1.0000
     1.0000   1.0000   1.0000   1.0000   1.0000   1.0000   0.0000   0.0000
     0.0000   0.0000   0.0000   0.0000   0.0000   0.0000

          k = 0.0000 0.0833 0.3333 (  9017 PWs)   bands (ev):

   -98.5172 -98.5123 -98.5100 -98.5099 -55.9120 -55.9116 -55.9063 -55.8951
   -55.8932 -55.8839 -55.8834 -55.8787 -55.8778 -55.8767 -55.8659 -55.8646
     6.5717   9.1935  10.0452  10.0601  10.2775  10.3118  10.3205  10.8457
    11.2768  11.3112  11.3732  11.4063  11.6112  11.6672  11.9481  11.9490
    11.9665  12.0349  12.1315  12.3713  12.3951  12.3968  16.8832  17.7008
    20.6302  20.7040  21.4875  21.9386  22.9685  24.1917

     occupation numbers 
     1.0000   1.0000   1.0000   1.0000   1.0000   1.0000   1.0000   1.0000
     1.0000   1.0000   1.0000   1.0000   1.0000   1.0000   1.0000   1.0000
     1.0000   1.0000   1.0000   1.0000   1.0000   1.0000   1.0000   1.0000
     1.0000   1.0000   1.0000   1.0000   1.0000   1.0000   1.0000   1.0000
     1.0000   1.0000   1.0000   1.0000   1.0000   1.0000   0.0000   0.0000
     0.0000   0.0000   0.0000   0.0000   0.0000   0.0000

          k = 0.0000 0.0833 0.4167 (  9011 PWs)   bands (ev):

   -98.5161 -98.5135 -98.5100 -98.5100 -55.9079 -55.9071 -55.8993 -55.8992
   -55.8976 -55.8839 -55.8838 -55.8835 -55.8756 -55.8746 -55.8690 -55.8677
     7.2077   8.6356  10.1937  10.2023  10.4124  10.4840  10.5049  10.7065
    10.9669  11.0036  11.3972  11.4346  11.5430  11.6263  11.8408  11.8518
    11.8671  11.9442  12.0127  12.1703  12.3954  12.3963  17.7135  18.6323
    19.5972  20.7622  21.0459  21.9425  22.2056  23.3256

     occupation numbers 
     1.0000   1.0000   1.0000   1.0000   1.0000   1.0000   1.0000   1.0000
     1.0000   1.0000   1.0000   1.0000   1.0000   1.0000   1.0000   1.0000
     1.0000   1.0000   1.0000   1.0000   1.0000   1.0000   1.0000   1.0000
     1.0000   1.0000   1.0000   1.0000   1.0000   1.0000   1.0000   1.0000
     1.0000   1.0000   1.0000   1.0000   1.0000   1.0000   0.0000   0.0000
     0.0000   0.0000   0.0000   0.0000   0.0000   0.0000

          k = 0.0000 0.0833-0.5000 (  9006 PWs)   bands (ev):

   -98.5148 -98.5148 -98.5100 -98.5100 -55.9036 -55.9036 -55.9024 -55.9024
   -55.8916 -55.8916 -55.8836 -55.8836 -55.8723 -55.8723 -55.8712 -55.8712
     7.9238   7.9238  10.2580  10.2580  10.5586  10.5587  10.7008  10.7008
    10.7331  10.7331  11.3727  11.3727  11.6994  11.6994  11.7590  11.7590
    11.8000  11.8000  12.0844  12.0844  12.3958  12.3959  18.6171  18.6171
    19.6565  19.6565  21.5427  21.5427  22.5783  22.5783

     occupation numbers 
     1.0000   1.0000   1.0000   1.0000   1.0000   1.0000   1.0000   1.0000
     1.0000   1.0000   1.0000   1.0000   1.0000   1.0000   1.0000   1.0000
     1.0000   1.0000   1.0000   1.0000   1.0000   1.0000   1.0000   1.0000
     1.0000   1.0000   1.0000   1.0000   1.0000   1.0000   1.0000   1.0000
     1.0000   1.0000   1.0000   1.0000   1.0000   1.0000   0.0000   0.0000
     0.0000   0.0000   0.0000   0.0000   0.0000   0.0000

          k = 0.0000 0.1667 0.1667 (  9022 PWs)   bands (ev):

   -98.5186 -98.5105 -98.5105 -98.5099 -55.9165 -55.9157 -55.9157 -55.8914
   -55.8852 -55.8852 -55.8825 -55.8825 -55.8822 -55.8694 -55.8626 -55.8601
     5.9039   9.7047   9.7047   9.8402  10.1310  10.1310  10.1313  11.0258
    11.2419  11.2496  11.7438  11.7978  11.8178  11.8178  11.8623  12.1167
    12.2004  12.2004  12.3142  12.3142  12.3527  14.4346  14.4346  16.6277
    20.3310  21.6709  22.5096  22.5096  24.6934  24.6934

     occupation numbers 
     1.0000   1.0000   1.0000   1.0000   1.0000   1.0000   1.0000   1.0000
     1.0000   1.0000   1.0000   1.0000   1.0000   1.0000   1.0000   1.0000
     1.0000   1.0000   1.0000   1.0000   1.0000   1.0000   1.0000   1.0000
     1.0000   1.0000   1.0000   1.0000   1.0000   1.0000   1.0000   1.0000
     1.0000   1.0000   1.0000   1.0000   1.0000   0.0000   0.0000   0.0000
     0.0000   0.0000   0.0000   0.0000   0.0000   0.0000

          k = 0.0000 0.1667 0.2500 (  9017 PWs)   bands (ev):

   -98.5178 -98.5113 -98.5105 -98.5100 -55.9139 -55.9136 -55.9119 -55.8946
   -55.8881 -55.8831 -55.8821 -55.8813 -55.8801 -55.8746 -55.8646 -55.8613
     6.2774   9.6148   9.8702   9.9723  10.2129  10.2165  10.2246  10.9520
    11.2906  11.3097  11.4722  11.5436  11.6052  11.6908  11.9100  12.0238
    12.0968  12.1615  12.1881  12.3133  12.3269  13.4468  15.0180  17.2614
    20.3586  20.5456  22.7877  23.4467  24.1211  24.4584

     occupation numbers 
     1.0000   1.0000   1.0000   1.0000   1.0000   1.0000   1.0000   1.0000
     1.0000   1.0000   1.0000   1.0000   1.0000   1.0000   1.0000   1.0000
     1.0000   1.0000   1.0000   1.0000   1.0000   1.0000   1.0000   1.0000
     1.0000   1.0000   1.0000   1.0000   1.0000   1.0000   1.0000   1.0000
     1.0000   1.0000   1.0000   1.0000   1.0000   1.0000   0.0000   0.0000
     0.0000   0.0000   0.0000   0.0000   0.0000   0.0000

          k = 0.0000 0.1667 0.3333 (  9040 PWs)   bands (ev):

   -98.5169 -98.5122 -98.5104 -98.5101 -55.9114 -55.9099 -55.9069 -55.8980
   -55.8918 -55.8817 -55.8808 -55.8808 -55.8804 -55.8770 -55.8674 -55.8634
     6.7866   9.3384  10.0629  10.1294  10.3203  10.3269  10.3572  10.8456
    11.1469  11.2610  11.3218  11.3777  11.4137  11.6461  11.9134  11.9718
    11.9848  12.0338  12.0776  12.3121  12.3157  12.7585  15.6826  18.0470
    19.2137  20.8082  22.2187  23.1128  23.2718  25.7734

     occupation numbers 
     1.0000   1.0000   1.0000   1.0000   1.0000   1.0000   1.0000   1.0000
     1.0000   1.0000   1.0000   1.0000   1.0000   1.0000   1.0000   1.0000
     1.0000   1.0000   1.0000   1.0000   1.0000   1.0000   1.0000   1.0000
     1.0000   1.0000   1.0000   1.0000   1.0000   1.0000   1.0000   1.0000
     1.0000   1.0000   1.0000   1.0000   1.0000   1.0000   0.0000   0.0000
     0.0000   0.0000   0.0000   0.0000   0.0000   0.0000

          k = 0.0000 0.1667 0.4167 (  9017 PWs)   bands (ev):

   -98.5158 -98.5133 -98.5103 -98.5101 -55.9084 -55.9055 -55.9016 -55.9009
   -55.8962 -55.8875 -55.8813 -55.8807 -55.8773 -55.8734 -55.8705 -55.8663
     7.4114   8.8028  10.2371  10.2789  10.4462  10.4493  10.5293  10.7187
    10.8593  10.9870  11.2507  11.3004  11.5464  11.6771  11.8204  11.8554
    11.8665  11.9431  12.0797  12.3110  12.3114  12.3887  16.4228  18.1733
    18.9519  21.0498  21.2005  22.3794  23.7343  25.1606

     occupation numbers 
     1.0000   1.0000   1.0000   1.0000   1.0000   1.0000   1.0000   1.0000
     1.0000   1.0000   1.0000   1.0000   1.0000   1.0000   1.0000   1.0000
     1.0000   1.0000   1.0000   1.0000   1.0000   1.0000   1.0000   1.0000
     1.0000   1.0000   1.0000   1.0000   1.0000   1.0000   1.0000   1.0000
     1.0000   1.0000   1.0000   1.0000   1.0000   1.0000   0.0000   0.0000
     0.0000   0.0000   0.0000   0.0000   0.0000   0.0000

          k = 0.0000 0.1667-0.5000 (  9006 PWs)   bands (ev):

   -98.5145 -98.5145 -98.5102 -98.5102 -55.9051 -55.9051 -55.9008 -55.9008
   -55.8943 -55.8943 -55.8809 -55.8809 -55.8739 -55.8739 -55.8698 -55.8698
     8.1116   8.1116  10.3289  10.3289  10.5821  10.5822  10.6198  10.6198
    10.7403  10.7403  11.2494  11.2494  11.7003  11.7003  11.7909  11.7909
    11.7939  11.7939  12.2011  12.2011  12.3105  12.3105  17.2478  17.2478
    19.9570  19.9570  21.7205  21.7205  24.3921  24.3921

     occupation numbers 
     1.0000   1.0000   1.0000   1.0000   1.0000   1.0000   1.0000   1.0000
     1.0000   1.0000   1.0000   1.0000   1.0000   1.0000   1.0000   1.0000
     1.0000   1.0000   1.0000   1.0000   1.0000   1.0000   1.0000   1.0000
     1.0000   1.0000   1.0000   1.0000   1.0000   1.0000   1.0000   1.0000
     1.0000   1.0000   1.0000   1.0000   1.0000   1.0000   0.0000   0.0000
     0.0000   0.0000   0.0000   0.0000   0.0000   0.0000

          k = 0.0000 0.2500 0.2500 (  9036 PWs)   bands (ev):

   -98.5172 -98.5111 -98.5111 -98.5101 -55.9113 -55.9113 -55.9108 -55.8979
   -55.8859 -55.8859 -55.8800 -55.8795 -55.8793 -55.8793 -55.8668 -55.8615
     6.6420   9.8046   9.8046  10.0847  10.2840  10.2970  10.2970  10.9094
    11.2813  11.2813  11.2918  11.3551  11.3795  11.6616  11.9471  11.9740
    12.0655  12.0655  12.1867  12.1867  12.2632  13.9738  13.9738  17.8452
    19.0643  20.7336  23.8969  23.8969  24.5201  24.5201

     occupation numbers 
     1.0000   1.0000   1.0000   1.0000   1.0000   1.0000   1.0000   1.0000
     1.0000   1.0000   1.0000   1.0000   1.0000   1.0000   1.0000   1.0000
     1.0000   1.0000   1.0000   1.0000   1.0000   1.0000   1.0000   1.0000
     1.0000   1.0000   1.0000   1.0000   1.0000   1.0000   1.0000   1.0000
     1.0000   1.0000   1.0000   1.0000   1.0000   0.0000   0.0000   0.0000
     0.0000   0.0000   0.0000   0.0000   0.0000   0.0000

          k = 0.0000 0.2500 0.3333 (  9023 PWs)   bands (ev):

   -98.5163 -98.5120 -98.5110 -98.5103 -55.9102 -55.9076 -55.9072 -55.9011
   -55.8896 -55.8858 -55.8831 -55.8785 -55.8783 -55.8759 -55.8696 -55.8629
     7.1372   9.5602  10.0298  10.2168  10.3676  10.3913  10.4151  10.8333
    10.9944  11.1256  11.1733  11.2806  11.4404  11.6283  11.8543  11.9472
    11.9883  12.0329  12.0815  12.1855  12.2219  13.1890  14.5619  17.8946
    18.5877  21.0408  22.6707  23.5577  24.5015  25.0883

     occupation numbers 
     1.0000   1.0000   1.0000   1.0000   1.0000   1.0000   1.0000   1.0000
     1.0000   1.0000   1.0000   1.0000   1.0000   1.0000   1.0000   1.0000
     1.0000   1.0000   1.0000   1.0000   1.0000   1.0000   1.0000   1.0000
     1.0000   1.0000   1.0000   1.0000   1.0000   1.0000   1.0000   1.0000
     1.0000   1.0000   1.0000   1.0000   1.0000   1.0000   0.0000   0.0000
     0.0000   0.0000   0.0000   0.0000   0.0000   0.0000

          k = 0.0000 0.2500 0.4167 (  9064 PWs)   bands (ev):

   -98.5153 -98.5130 -98.5108 -98.5104 -55.9086 -55.9041 -55.9030 -55.9029
   -55.8938 -55.8919 -55.8799 -55.8779 -55.8776 -55.8729 -55.8721 -55.8653
     7.7411   9.0634  10.2449  10.3647  10.4253  10.5010  10.5667  10.7322
    10.7478  10.9555  11.0869  11.2270  11.5605  11.6506  11.7778  11.8331
    11.8680  11.8695  12.1858  12.1998  12.2222  12.6967  15.2256  16.8713
    19.4584  21.4645  21.5124  22.7167  25.2430  25.7896

     occupation numbers 
     1.0000   1.0000   1.0000   1.0000   1.0000   1.0000   1.0000   1.0000
     1.0000   1.0000   1.0000   1.0000   1.0000   1.0000   1.0000   1.0000
     1.0000   1.0000   1.0000   1.0000   1.0000   1.0000   1.0000   1.0000
     1.0000   1.0000   1.0000   1.0000   1.0000   1.0000   1.0000   1.0000
     1.0000   1.0000   1.0000   1.0000   1.0000   1.0000   0.0000   0.0000
     0.0000   0.0000   0.0000   0.0000   0.0000   0.0000

          k = 0.0000 0.2500-0.5000 (  9070 PWs)   bands (ev):

   -98.5142 -98.5141 -98.5106 -98.5106 -55.9066 -55.9066 -55.8984 -55.8984
   -55.8977 -55.8977 -55.8775 -55.8775 -55.8764 -55.8764 -55.8685 -55.8685
     8.4111   8.4111  10.3900  10.3900  10.5405  10.5405  10.6178  10.6178
    10.7490  10.7490  11.1435  11.1435  11.7065  11.7065  11.7418  11.7418
    11.7651  11.7651  12.1895  12.1895  12.4093  12.4093  15.9875  15.9875
    20.4378  20.4378  22.0194  22.0194  26.1063  26.1063

     occupation numbers 
     1.0000   1.0000   1.0000   1.0000   1.0000   1.0000   1.0000   1.0000
     1.0000   1.0000   1.0000   1.0000   1.0000   1.0000   1.0000   1.0000
     1.0000   1.0000   1.0000   1.0000   1.0000   1.0000   1.0000   1.0000
     1.0000   1.0000   1.0000   1.0000   1.0000   1.0000   1.0000   1.0000
     1.0000   1.0000   1.0000   1.0000   1.0000   1.0000   0.0000   0.0000
     0.0000   0.0000   0.0000   0.0000   0.0000   0.0000

          k = 0.0000 0.3333 0.3333 (  9044 PWs)   bands (ev):

   -98.5155 -98.5118 -98.5118 -98.5105 -55.9081 -55.9081 -55.9038 -55.9037
   -55.8911 -55.8866 -55.8866 -55.8763 -55.8749 -55.8749 -55.8725 -55.8635
     7.6098   9.8250   9.8250  10.2799  10.4510  10.4896  10.4896  10.7981
    10.9158  10.9158  11.0506  11.2410  11.4996  11.5880  11.7776  11.8776
    11.8776  12.0341  12.0341  12.1424  12.2292  13.6742  13.6742  16.7343
    19.2894  21.3825  23.2775  23.2775  24.0743  24.0743

     occupation numbers 
     1.0000   1.0000   1.0000   1.0000   1.0000   1.0000   1.0000   1.0000
     1.0000   1.0000   1.0000   1.0000   1.0000   1.0000   1.0000   1.0000
     1.0000   1.0000   1.0000   1.0000   1.0000   1.0000   1.0000   1.0000
     1.0000   1.0000   1.0000   1.0000   1.0000   1.0000   1.0000   1.0000
     1.0000   1.0000   1.0000   1.0000   1.0000   1.0000   1.0000   0.0000
     0.0000   0.0000   0.0000   0.0000   0.0000   0.0000

          k = 0.0000 0.3333 0.4167 (  9041 PWs)   bands (ev):

   -98.5146 -98.5127 -98.5115 -98.5108 -55.9080 -55.9059 -55.9050 -55.8996
   -55.8963 -55.8907 -55.8832 -55.8759 -55.8749 -55.8742 -55.8712 -55.8652
     8.1788   9.3850  10.0789  10.3032  10.5467  10.5739  10.6123  10.7381
    10.7519  10.9052  10.9582  11.1712  11.5882  11.5962  11.7116  11.7692
    11.7695  11.8754  12.0405  12.0880  12.4197  13.0628  14.2394  15.7433
    20.1255  21.8463  22.1316  23.1875  24.0224  24.7281

     occupation numbers 
     1.0000   1.0000   1.0000   1.0000   1.0000   1.0000   1.0000   1.0000
     1.0000   1.0000   1.0000   1.0000   1.0000   1.0000   1.0000   1.0000
     1.0000   1.0000   1.0000   1.0000   1.0000   1.0000   1.0000   1.0000
     1.0000   1.0000   1.0000   1.0000   1.0000   1.0000   1.0000   1.0000
     1.0000   1.0000   1.0000   1.0000   1.0000   1.0000   0.0000   0.0000
     0.0000   0.0000   0.0000   0.0000   0.0000   0.0000

          k = 0.0000 0.3333-0.5000 (  9038 PWs)   bands (ev):

   -98.5136 -98.5136 -98.5111 -98.5111 -55.9073 -55.9073 -55.9010 -55.9010
   -55.8952 -55.8951 -55.8796 -55.8796 -55.8742 -55.8742 -55.8678 -55.8678
     8.7976   8.7976  10.2510  10.2510  10.6353  10.6353  10.6600  10.6600
    10.7542  10.7542  11.0640  11.0640  11.6573  11.6573  11.7032  11.7032
    11.7250  11.7250  12.0564  12.0564  12.6760  12.6760  14.9183  14.9183
    21.0773  21.0773  22.4450  22.4450  24.8912  24.8912

     occupation numbers 
     1.0000   1.0000   1.0000   1.0000   1.0000   1.0000   1.0000   1.0000
     1.0000   1.0000   1.0000   1.0000   1.0000   1.0000   1.0000   1.0000
     1.0000   1.0000   1.0000   1.0000   1.0000   1.0000   1.0000   1.0000
     1.0000   1.0000   1.0000   1.0000   1.0000   1.0000   1.0000   1.0000
     1.0000   1.0000   1.0000   1.0000   1.0000   1.0000   0.0000   0.0000
     0.0000   0.0000   0.0000   0.0000   0.0000   0.0000

          k = 0.0000 0.4167 0.4167 (  9042 PWs)   bands (ev):

   -98.5138 -98.5122 -98.5122 -98.5113 -55.9070 -55.9065 -55.9065 -55.9005
   -55.8956 -55.8872 -55.8872 -55.8795 -55.8727 -55.8708 -55.8708 -55.8661
     8.6925   9.7163   9.7163  10.1855  10.6597  10.6597  10.6788  10.7284
    10.8352  10.8633  10.8633  11.1051  11.5495  11.6433  11.6632  11.6725
    11.6725  11.8944  11.8944  11.9962  12.6707  13.5080  13.5080  14.8110
    20.9303  22.3561  22.8897  22.8897  23.7942  23.7942

     occupation numbers 
     1.0000   1.0000   1.0000   1.0000   1.0000   1.0000   1.0000   1.0000
     1.0000   1.0000   1.0000   1.0000   1.0000   1.0000   1.0000   1.0000
     1.0000   1.0000   1.0000   1.0000   1.0000   1.0000   1.0000   1.0000
     1.0000   1.0000   1.0000   1.0000   1.0000   1.0000   1.0000   1.0000
     1.0000   1.0000   1.0000   1.0000   1.0000   1.0000   1.0000   0.0000
     0.0000   0.0000   0.0000   0.0000   0.0000   0.0000

          k = 0.0000 0.4167-0.5000 (  9038 PWs)   bands (ev):

   -98.5130 -98.5130 -98.5117 -98.5117 -55.9072 -55.9072 -55.9039 -55.9039
   -55.8914 -55.8914 -55.8833 -55.8833 -55.8713 -55.8713 -55.8680 -55.8680
     9.2292   9.2292   9.9950   9.9950  10.7009  10.7009  10.7502  10.7502
    10.7817  10.7818  10.9976  10.9976  11.5820  11.5820  11.6210  11.6210
    11.7645  11.7645  11.9324  11.9324  13.0100  13.0100  14.0751  14.0751
    21.8558  21.8558  23.0032  23.0032  23.7725  23.7725

     occupation numbers 
     1.0000   1.0000   1.0000   1.0000   1.0000   1.0000   1.0000   1.0000
     1.0000   1.0000   1.0000   1.0000   1.0000   1.0000   1.0000   1.0000
     1.0000   1.0000   1.0000   1.0000   1.0000   1.0000   1.0000   1.0000
     1.0000   1.0000   1.0000   1.0000   1.0000   1.0000   1.0000   1.0000
     1.0000   1.0000   1.0000   1.0000   1.0000   1.0000   0.0000   0.0000
     0.0000   0.0000   0.0000   0.0000   0.0000   0.0000

          k = 0.0000-0.5000-0.5000 (  9076 PWs)   bands (ev):

   -98.5124 -98.5124 -98.5124 -98.5124 -55.9060 -55.9060 -55.9060 -55.9060
   -55.8874 -55.8874 -55.8874 -55.8874 -55.8692 -55.8692 -55.8692 -55.8692
     9.6471   9.6471   9.6471   9.6471  10.7326  10.7326  10.7326  10.7326
    10.9101  10.9101  10.9101  10.9101  11.5652  11.5652  11.5652  11.5652
    11.8329  11.8329  11.8329  11.8329  13.4550  13.4550  13.4550  13.4550
    22.7579  22.7579  22.7579  22.7579  23.6999  23.6999

     occupation numbers 
     1.0000   1.0000   1.0000   1.0000   1.0000   1.0000   1.0000   1.0000
     1.0000   1.0000   1.0000   1.0000   1.0000   1.0000   1.0000   1.0000
     1.0000   1.0000   1.0000   1.0000   1.0000   1.0000   1.0000   1.0000
     1.0000   1.0000   1.0000   1.0000   1.0000   1.0000   1.0000   1.0000
     1.0000   1.0000   1.0000   1.0000   1.0000   1.0000   1.0000   1.0000
     0.0000   0.0000   0.0000   0.0000   0.0000   0.0000

          k = 0.0833 0.0833 0.0833 (  9003 PWs)   bands (ev):

   -98.5194 -98.5101 -98.5101 -98.5101 -55.9192 -55.9192 -55.9192 -55.8859
   -55.8859 -55.8859 -55.8835 -55.8835 -55.8835 -55.8635 -55.8598 -55.8598
     5.5231   9.6542   9.6542   9.6542  10.0397  10.0397  10.0397  11.1022
    11.1837  11.1837  11.8170  11.8170  12.1801  12.1801  12.1801  12.2230
    12.2230  12.2230  12.3936  12.3936  12.3936  15.1901  15.1901  15.1901
    20.8278  20.8278  20.8278  24.4245  24.4245  24.4245

     occupation numbers 
     1.0000   1.0000   1.0000   1.0000   1.0000   1.0000   1.0000   1.0000
     1.0000   1.0000   1.0000   1.0000   1.0000   1.0000   1.0000   1.0000
     1.0000   1.0000   1.0000   1.0000   1.0000   1.0000   1.0000   1.0000
     1.0000   1.0000   1.0000   1.0000   1.0000   1.0000   1.0000   1.0000
     1.0000   1.0000   1.0000   1.0000   1.0000   0.0000   0.0000   0.0000
     0.0000   0.0000   0.0000   0.0000   0.0000   0.0000

          k = 0.0833 0.0833 0.1667 (  9030 PWs)   bands (ev):

   -98.5189 -98.5105 -98.5101 -98.5101 -55.9176 -55.9176 -55.9165 -55.8880
   -55.8880 -55.8844 -55.8831 -55.8831 -55.8823 -55.8672 -55.8610 -55.8604
     5.7524   9.6318   9.7522   9.7522  10.0934  10.0967  10.0967  11.0529
    11.2222  11.2258  11.7678  11.8457  11.9161  11.9161  12.0566  12.1605
    12.1622  12.1622  12.3558  12.3848  12.3848  14.1454  15.6348  15.6348
    20.9617  20.9617  22.4003  23.1492  23.1492  24.7118

     occupation numbers 
     1.0000   1.0000   1.0000   1.0000   1.0000   1.0000   1.0000   1.0000
     1.0000   1.0000   1.0000   1.0000   1.0000   1.0000   1.0000   1.0000
     1.0000   1.0000   1.0000   1.0000   1.0000   1.0000   1.0000   1.0000
     1.0000   1.0000   1.0000   1.0000   1.0000   1.0000   1.0000   1.0000
     1.0000   1.0000   1.0000   1.0000   1.0000   0.0000   0.0000   0.0000
     0.0000   0.0000   0.0000   0.0000   0.0000   0.0000

          k = 0.0833 0.0833 0.2500 (  9009 PWs)   bands (ev):

   -98.5181 -98.5113 -98.5101 -98.5101 -55.9150 -55.9150 -55.9122 -55.8908
   -55.8908 -55.8828 -55.8828 -55.8820 -55.8803 -55.8723 -55.8629 -55.8621
     6.1291   9.5313   9.8992   9.8992  10.1793  10.1921  10.1921  10.9647
    11.2907  11.2950  11.5904  11.5904  11.6987  11.8420  11.8912  12.0592
    12.0663  12.0663  12.3024  12.3776  12.3776  13.1618  16.2541  16.2541
    21.1955  21.1955  21.9113  21.9113  24.3396  25.1760

     occupation numbers 
     1.0000   1.0000   1.0000   1.0000   1.0000   1.0000   1.0000   1.0000
     1.0000   1.0000   1.0000   1.0000   1.0000   1.0000   1.0000   1.0000
     1.0000   1.0000   1.0000   1.0000   1.0000   1.0000   1.0000   1.0000
     1.0000   1.0000   1.0000   1.0000   1.0000   1.0000   1.0000   1.0000
     1.0000   1.0000   1.0000   1.0000   1.0000   1.0000   0.0000   0.0000
     0.0000   0.0000   0.0000   0.0000   0.0000   0.0000

          k = 0.0833 0.0833 0.3333 (  9003 PWs)   bands (ev):

   -98.5171 -98.5123 -98.5101 -98.5101 -55.9116 -55.9116 -55.9066 -55.8943
   -55.8943 -55.8828 -55.8828 -55.8789 -55.8785 -55.8778 -55.8655 -55.8647
     6.6433   9.2411  10.0693  10.0693  10.2921  10.3237  10.3237  10.8480
    11.2654  11.2654  11.3596  11.3898  11.5624  11.6465  11.9298  11.9474
    11.9474  11.9503  12.2385  12.3734  12.3734  12.4888  16.9861  16.9861
    20.7566  20.7566  21.5433  21.5433  24.2731  24.2731

     occupation numbers 
     1.0000   1.0000   1.0000   1.0000   1.0000   1.0000   1.0000   1.0000
     1.0000   1.0000   1.0000   1.0000   1.0000   1.0000   1.0000   1.0000
     1.0000   1.0000   1.0000   1.0000   1.0000   1.0000   1.0000   1.0000
     1.0000   1.0000   1.0000   1.0000   1.0000   1.0000   1.0000   1.0000
     1.0000   1.0000   1.0000   1.0000   1.0000   1.0000   0.0000   0.0000
     0.0000   0.0000   0.0000   0.0000   0.0000   0.0000

          k = 0.0833 0.0833 0.4167 (  9010 PWs)   bands (ev):

   -98.5160 -98.5135 -98.5101 -98.5101 -55.9079 -55.9079 -55.9000 -55.8981
   -55.8981 -55.8855 -55.8827 -55.8827 -55.8754 -55.8748 -55.8685 -55.8680
     7.2755   8.6908  10.2200  10.2200  10.4246  10.4860  10.4860  10.7124
    10.9716  10.9716  11.3619  11.3680  11.5071  11.6976  11.7862  11.8403
    11.8403  12.0191  12.1049  12.1676  12.3714  12.3714  17.8003  17.8003
    19.6980  19.6980  22.0187  22.0187  23.4014  23.4014

     occupation numbers 
     1.0000   1.0000   1.0000   1.0000   1.0000   1.0000   1.0000   1.0000
     1.0000   1.0000   1.0000   1.0000   1.0000   1.0000   1.0000   1.0000
     1.0000   1.0000   1.0000   1.0000   1.0000   1.0000   1.0000   1.0000
     1.0000   1.0000   1.0000   1.0000   1.0000   1.0000   1.0000   1.0000
     1.0000   1.0000   1.0000   1.0000   1.0000   1.0000   0.0000   0.0000
     0.0000   0.0000   0.0000   0.0000   0.0000   0.0000

          k = 0.0833 0.0833-0.5000 (  9018 PWs)   bands (ev):

   -98.5147 -98.5147 -98.5101 -98.5101 -55.9053 -55.9053 -55.9007 -55.9007
   -55.8928 -55.8928 -55.8827 -55.8827 -55.8717 -55.8717 -55.8716 -55.8716
     7.9861   7.9861  10.2843  10.2843  10.5679  10.5679  10.6351  10.6351
    10.7739  10.7739  11.3279  11.3279  11.6418  11.6418  11.7951  11.7951
    11.8603  11.8603  12.0930  12.0930  12.3708  12.3708  18.5606  18.5606
    18.8580  18.8580  22.5631  22.5631  22.7180  22.7180

     occupation numbers 
     1.0000   1.0000   1.0000   1.0000   1.0000   1.0000   1.0000   1.0000
     1.0000   1.0000   1.0000   1.0000   1.0000   1.0000   1.0000   1.0000
     1.0000   1.0000   1.0000   1.0000   1.0000   1.0000   1.0000   1.0000
     1.0000   1.0000   1.0000   1.0000   1.0000   1.0000   1.0000   1.0000
     1.0000   1.0000   1.0000   1.0000   1.0000   1.0000   0.0000   0.0000
     0.0000   0.0000   0.0000   0.0000   0.0000   0.0000

          k = 0.0833 0.1667 0.1667 (  9036 PWs)   bands (ev):

   -98.5184 -98.5105 -98.5105 -98.5101 -55.9160 -55.9154 -55.9154 -55.8905
   -55.8862 -55.8862 -55.8818 -55.8818 -55.8818 -55.8712 -55.8620 -55.8605
     5.9787   9.7370   9.7370   9.8411  10.1476  10.1476  10.1480  11.0225
    11.2462  11.2505  11.7521  11.7614  11.7742  11.7742  11.8483  12.0810
    12.1069  12.1069  12.3511  12.3511  12.3589  14.5641  14.5641  16.0250
    21.1027  21.7626  22.5647  22.5647  23.4246  23.4246

     occupation numbers 
[...]
     1.0000   1.0000   1.0000   1.0000   1.0000   1.0000   1.0000   1.0000
     1.0000   1.0000   1.0000   1.0000   1.0000   1.0000   1.0000   1.0000
     1.0000   1.0000   1.0000   1.0000   1.0000   1.0000   0.0000   0.0000
     0.0000   0.0000   0.0000   0.0000   0.0000   0.0000

          k = 0.2500 0.3333 0.3333 (  9032 PWs)   bands (ev):

   -98.5148 -98.5118 -98.5118 -98.5112 -55.9165 -55.9153 -55.9153 -55.9029
   -55.8846 -55.8805 -55.8805 -55.8744 -55.8740 -55.8740 -55.8673 -55.8654
     8.1055   9.7673   9.7673   9.9517  10.6804  10.7197  10.7197  10.9989
    11.0969  11.0969  11.1684  11.2336  11.2527  11.4879  11.4879  11.5018
    11.9576  12.1156  12.2979  12.3111  12.3111  14.0022  14.0022  15.3514
    17.7776  19.3048  19.3048  22.8186  26.2117  27.9053

     occupation numbers 
     1.0000   1.0000   1.0000   1.0000   1.0000   1.0000   1.0000   1.0000
     1.0000   1.0000   1.0000   1.0000   1.0000   1.0000   1.0000   1.0000
     1.0000   1.0000   1.0000   1.0000   1.0000   1.0000   1.0000   1.0000
     1.0000   1.0000   1.0000   1.0000   1.0000   1.0000   1.0000   1.0000
     1.0000   1.0000   1.0000   1.0000   1.0000   0.0000   0.0000   0.0000
     0.0000   0.0000   0.0000   0.0000   0.0000   0.0000

          k = 0.2500 0.3333 0.4167 (  9045 PWs)   bands (ev):

   -98.5140 -98.5125 -98.5116 -98.5114 -55.9176 -55.9169 -55.9142 -55.9077
   -55.8833 -55.8811 -55.8757 -55.8733 -55.8731 -55.8717 -55.8694 -55.8667
     8.5654   9.4429   9.8162   9.9049  10.7635  10.7966  10.8786  11.0404
    11.0983  11.1554  11.1804  11.2209  11.2639  11.3878  11.4384  11.4410
    12.0400  12.2646  12.2696  12.2701  12.2777  13.1550  14.4638  15.3798
    17.3346  18.3439  19.9872  21.7449  26.7951  28.2924

     occupation numbers 
     1.0000   1.0000   1.0000   1.0000   1.0000   1.0000   1.0000   1.0000
     1.0000   1.0000   1.0000   1.0000   1.0000   1.0000   1.0000   1.0000
     1.0000   1.0000   1.0000   1.0000   1.0000   1.0000   1.0000   1.0000
     1.0000   1.0000   1.0000   1.0000   1.0000   1.0000   1.0000   1.0000
     1.0000   1.0000   1.0000   1.0000   1.0000   1.0000   0.0000   0.0000
     0.0000   0.0000   0.0000   0.0000   0.0000   0.0000

          k = 0.2500 0.3333-0.5000 (  9030 PWs)   bands (ev):

   -98.5133 -98.5133 -98.5115 -98.5115 -55.9177 -55.9177 -55.9116 -55.9116
   -55.8821 -55.8821 -55.8728 -55.8728 -55.8721 -55.8721 -55.8690 -55.8690
     9.0300   9.0300   9.8601   9.8601  10.8026  10.8026  11.0098  11.0098
    11.1166  11.1167  11.2258  11.2258  11.3110  11.3110  11.4167  11.4167
    12.1778  12.1778  12.2480  12.2480  12.5794  12.5794  14.9836  14.9836
    17.6227  17.6227  20.8012  20.8012  27.5029  27.5029

     occupation numbers 
     1.0000   1.0000   1.0000   1.0000   1.0000   1.0000   1.0000   1.0000
     1.0000   1.0000   1.0000   1.0000   1.0000   1.0000   1.0000   1.0000
     1.0000   1.0000   1.0000   1.0000   1.0000   1.0000   1.0000   1.0000
     1.0000   1.0000   1.0000   1.0000   1.0000   1.0000   1.0000   1.0000
     1.0000   1.0000   1.0000   1.0000   1.0000   1.0000   0.0000   0.0000
     0.0000   0.0000   0.0000   0.0000   0.0000   0.0000

          k = 0.2500 0.4167 0.4167 (  9029 PWs)   bands (ev):

   -98.5135 -98.5122 -98.5122 -98.5116 -55.9185 -55.9167 -55.9167 -55.9119
   -55.8808 -55.8771 -55.8771 -55.8717 -55.8714 -55.8708 -55.8708 -55.8671
     8.9228   9.5628   9.5628   9.7865  10.8639  10.9461  10.9461  11.1433
    11.1841  11.2039  11.2039  11.2442  11.3129  11.3525  11.3525  11.3621
    12.0413  12.2194  12.2194  12.2263  12.5141  13.5579  13.5579  14.7724
    17.5452  18.9826  18.9826  20.6862  27.3930  28.9504

     occupation numbers 
     1.0000   1.0000   1.0000   1.0000   1.0000   1.0000   1.0000   1.0000
     1.0000   1.0000   1.0000   1.0000   1.0000   1.0000   1.0000   1.0000
     1.0000   1.0000   1.0000   1.0000   1.0000   1.0000   1.0000   1.0000
     1.0000   1.0000   1.0000   1.0000   1.0000   1.0000   1.0000   1.0000
     1.0000   1.0000   1.0000   1.0000   1.0000   1.0000   1.0000   0.0000
     0.0000   0.0000   0.0000   0.0000   0.0000   0.0000

          k = 0.2500 0.4167-0.5000 (  9034 PWs)   bands (ev):

   -98.5128 -98.5128 -98.5119 -98.5119 -55.9183 -55.9183 -55.9150 -55.9150
   -55.8788 -55.8788 -55.8739 -55.8739 -55.8708 -55.8708 -55.8686 -55.8686
     9.2638   9.2638   9.6745   9.6745  10.9273  10.9273  11.0690  11.0690
    11.2248  11.2248  11.2870  11.2870  11.3053  11.3053  11.3457  11.3457
    12.1253  12.1253  12.1984  12.1984  12.9056  12.9056  14.1038  14.1038
    18.1538  18.1538  19.7651  19.7651  28.1189  28.1189

     occupation numbers 
     1.0000   1.0000   1.0000   1.0000   1.0000   1.0000   1.0000   1.0000
     1.0000   1.0000   1.0000   1.0000   1.0000   1.0000   1.0000   1.0000
     1.0000   1.0000   1.0000   1.0000   1.0000   1.0000   1.0000   1.0000
     1.0000   1.0000   1.0000   1.0000   1.0000   1.0000   1.0000   1.0000
     1.0000   1.0000   1.0000   1.0000   1.0000   1.0000   0.0000   0.0000
     0.0000   0.0000   0.0000   0.0000   0.0000   0.0000

          k = 0.2500-0.5000-0.5000 (  9012 PWs)   bands (ev):

   -98.5124 -98.5124 -98.5124 -98.5124 -55.9173 -55.9173 -55.9173 -55.9173
   -55.8761 -55.8761 -55.8761 -55.8761 -55.8692 -55.8692 -55.8692 -55.8692
     9.4785   9.4785   9.4785   9.4785  11.0201  11.0201  11.0201  11.0201
    11.2761  11.2761  11.2761  11.2761  11.3481  11.3481  11.3481  11.3481
    12.1363  12.1363  12.1363  12.1363  13.3967  13.3967  13.3967  13.3967
    18.8798  18.8798  18.8798  18.8798  28.8650  28.8650

     occupation numbers 
     1.0000   1.0000   1.0000   1.0000   1.0000   1.0000   1.0000   1.0000
     1.0000   1.0000   1.0000   1.0000   1.0000   1.0000   1.0000   1.0000
     1.0000   1.0000   1.0000   1.0000   1.0000   1.0000   1.0000   1.0000
     1.0000   1.0000   1.0000   1.0000   1.0000   1.0000   1.0000   1.0000
     1.0000   1.0000   1.0000   1.0000   1.0000   1.0000   1.0000   1.0000
     0.0000   0.0000   0.0000   0.0000   0.0000   0.0000

          k = 0.3333 0.3333 0.3333 (  9030 PWs)   bands (ev):

   -98.5143 -98.5118 -98.5118 -98.5118 -55.9180 -55.9180 -55.9180 -55.9081
   -55.8787 -55.8787 -55.8787 -55.8730 -55.8730 -55.8730 -55.8667 -55.8667
     8.4413   9.7330   9.7330   9.7330  10.8282  10.8282  10.8282  11.1636
    11.2141  11.2141  11.2300  11.2300  11.2300  11.3911  11.3911  11.3911
    12.0829  12.0829  12.3231  12.3231  12.3231  14.2546  14.2546  14.2546
    18.2353  18.2353  18.2353  21.6220  28.3473  28.3473

     occupation numbers 
     1.0000   1.0000   1.0000   1.0000   1.0000   1.0000   1.0000   1.0000
     1.0000   1.0000   1.0000   1.0000   1.0000   1.0000   1.0000   1.0000
     1.0000   1.0000   1.0000   1.0000   1.0000   1.0000   1.0000   1.0000
     1.0000   1.0000   1.0000   1.0000   1.0000   1.0000   1.0000   1.0000
     1.0000   1.0000   1.0000   1.0000   1.0000   0.0000   0.0000   0.0000
     0.0000   0.0000   0.0000   0.0000   0.0000   0.0000

          k = 0.3333 0.3333 0.4167 (  9044 PWs)   bands (ev):

   -98.5136 -98.5124 -98.5118 -98.5118 -55.9197 -55.9197 -55.9177 -55.9126
   -55.8779 -55.8779 -55.8737 -55.8721 -55.8721 -55.8715 -55.8682 -55.8675
     8.8060   9.4691   9.7076   9.7076  10.8911  10.8912  10.9760  11.1722
    11.2093  11.2922  11.3010  11.3119  11.3270  11.3270  11.3736  11.3736
    12.1886  12.1914  12.2986  12.2986  12.3130  13.3146  14.5199  14.5199
    17.4616  17.4616  18.8671  20.5641  28.9140  28.9140

     occupation numbers 
     1.0000   1.0000   1.0000   1.0000   1.0000   1.0000   1.0000   1.0000
     1.0000   1.0000   1.0000   1.0000   1.0000   1.0000   1.0000   1.0000
     1.0000   1.0000   1.0000   1.0000   1.0000   1.0000   1.0000   1.0000
     1.0000   1.0000   1.0000   1.0000   1.0000   1.0000   1.0000   1.0000
     1.0000   1.0000   1.0000   1.0000   1.0000   1.0000   0.0000   0.0000
     0.0000   0.0000   0.0000   0.0000   0.0000   0.0000

          k = 0.3333 0.3333-0.5000 (  9052 PWs)   bands (ev):

   -98.5130 -98.5130 -98.5118 -98.5118 -55.9204 -55.9204 -55.9159 -55.9159
   -55.8777 -55.8777 -55.8718 -55.8718 -55.8699 -55.8699 -55.8699 -55.8699
     9.1578   9.1578   9.6983   9.6983  10.9101  10.9101  11.0954  11.0954
    11.2389  11.2389  11.3118  11.3118  11.3404  11.3404  11.4321  11.4321
    12.2672  12.2672  12.2805  12.2805  12.6032  12.6032  14.6505  14.6505
    17.1580  17.1580  19.6454  19.6454  29.5114  29.5114

     occupation numbers 
     1.0000   1.0000   1.0000   1.0000   1.0000   1.0000   1.0000   1.0000
     1.0000   1.0000   1.0000   1.0000   1.0000   1.0000   1.0000   1.0000
     1.0000   1.0000   1.0000   1.0000   1.0000   1.0000   1.0000   1.0000
     1.0000   1.0000   1.0000   1.0000   1.0000   1.0000   1.0000   1.0000
     1.0000   1.0000   1.0000   1.0000   1.0000   1.0000   0.0000   0.0000
     0.0000   0.0000   0.0000   0.0000   0.0000   0.0000

          k = 0.3333 0.4167 0.4167 (  9041 PWs)   bands (ev):

   -98.5132 -98.5122 -98.5122 -98.5119 -55.9213 -55.9203 -55.9203 -55.9165
   -55.8758 -55.8737 -55.8737 -55.8710 -55.8707 -55.8707 -55.8693 -55.8677
     9.0523   9.5020   9.5020   9.6176  10.9644  11.0084  11.0084  11.1555
    11.1784  11.2484  11.2484  11.2631  11.5163  11.5163  11.5481  11.5921
    12.1566  12.2865  12.2924  12.2924  12.3877  13.6005  13.6005  14.3678
    17.1034  17.9593  17.9593  19.5349  29.4912  30.8928

     occupation numbers 
     1.0000   1.0000   1.0000   1.0000   1.0000   1.0000   1.0000   1.0000
     1.0000   1.0000   1.0000   1.0000   1.0000   1.0000   1.0000   1.0000
     1.0000   1.0000   1.0000   1.0000   1.0000   1.0000   1.0000   1.0000
     1.0000   1.0000   1.0000   1.0000   1.0000   1.0000   1.0000   1.0000
     1.0000   1.0000   1.0000   1.0000   1.0000   1.0000   1.0000   0.0000
     0.0000   0.0000   0.0000   0.0000   0.0000   0.0000

          k = 0.3333 0.4167-0.5000 (  9058 PWs)   bands (ev):

   -98.5127 -98.5127 -98.5121 -98.5121 -55.9215 -55.9215 -55.9191 -55.9191
   -55.8745 -55.8745 -55.8710 -55.8710 -55.8704 -55.8704 -55.8689 -55.8689
     9.2851   9.2851   9.5496   9.5496  11.0045  11.0045  11.0985  11.0985
    11.1958  11.1958  11.2340  11.2340  11.6222  11.6222  11.6336  11.6336
    12.2369  12.2369  12.2693  12.2693  12.8398  12.8398  13.9945  13.9945
    17.3261  17.3261  18.6631  18.6631  30.1833  30.1833

     occupation numbers 
     1.0000   1.0000   1.0000   1.0000   1.0000   1.0000   1.0000   1.0000
     1.0000   1.0000   1.0000   1.0000   1.0000   1.0000   1.0000   1.0000
     1.0000   1.0000   1.0000   1.0000   1.0000   1.0000   1.0000   1.0000
     1.0000   1.0000   1.0000   1.0000   1.0000   1.0000   1.0000   1.0000
     1.0000   1.0000   1.0000   1.0000   1.0000   1.0000   0.0000   0.0000
     0.0000   0.0000   0.0000   0.0000   0.0000   0.0000

          k = 0.3333-0.5000-0.5000 (  9048 PWs)   bands (ev):

   -98.5124 -98.5124 -98.5124 -98.5124 -55.9211 -55.9211 -55.9211 -55.9211
   -55.8724 -55.8724 -55.8724 -55.8724 -55.8692 -55.8692 -55.8692 -55.8692
     9.4135   9.4135   9.4135   9.4135  11.0711  11.0711  11.0711  11.0711
    11.1915  11.1915  11.1915  11.1915  11.7365  11.7365  11.7365  11.7365
    12.2280  12.2280  12.2280  12.2281  13.3221  13.3221  13.3221  13.3221
    17.8744  17.8744  17.8744  17.8744  30.8974  30.8974

     occupation numbers 
     1.0000   1.0000   1.0000   1.0000   1.0000   1.0000   1.0000   1.0000
     1.0000   1.0000   1.0000   1.0000   1.0000   1.0000   1.0000   1.0000
     1.0000   1.0000   1.0000   1.0000   1.0000   1.0000   1.0000   1.0000
     1.0000   1.0000   1.0000   1.0000   1.0000   1.0000   1.0000   1.0000
     1.0000   1.0000   1.0000   1.0000   1.0000   1.0000   1.0000   1.0000
     0.0000   0.0000   0.0000   0.0000   0.0000   0.0000

          k = 0.4167 0.4167 0.4167 (  9057 PWs)   bands (ev):

   -98.5129 -98.5122 -98.5122 -98.5122 -55.9226 -55.9226 -55.9226 -55.9200
   -55.8719 -55.8719 -55.8719 -55.8702 -55.8702 -55.8702 -55.8685 -55.8685
     9.1838   9.4615   9.4615   9.4615  11.0510  11.0510  11.0510  11.1467
    11.1467  11.1907  11.1907  11.1907  11.7869  11.7869  11.7869  12.1351
    12.2440  12.2440  12.3111  12.3111  12.3111  13.6491  13.6491  13.6491
    17.2594  17.2594  17.2594  18.5615  31.6249  31.6249

     occupation numbers 
     1.0000   1.0000   1.0000   1.0000   1.0000   1.0000   1.0000   1.0000
     1.0000   1.0000   1.0000   1.0000   1.0000   1.0000   1.0000   1.0000
     1.0000   1.0000   1.0000   1.0000   1.0000   1.0000   1.0000   1.0000
     1.0000   1.0000   1.0000   1.0000   1.0000   1.0000   1.0000   1.0000
     1.0000   1.0000   1.0000   1.0000   1.0000   1.0000   1.0000   1.0000
     0.0000   0.0000   0.0000   0.0000   0.0000   0.0000

          k = 0.4167 0.4167-0.5000 (  9056 PWs)   bands (ev):

   -98.5125 -98.5125 -98.5122 -98.5122 -55.9233 -55.9233 -55.9221 -55.9221
   -55.8715 -55.8715 -55.8699 -55.8699 -55.8694 -55.8694 -55.8694 -55.8694
     9.3183   9.3183   9.4473   9.4473  11.0674  11.0674  11.1127  11.1127
    11.1509  11.1509  11.1691  11.1691  11.9102  11.9102  12.0134  12.0134
    12.2968  12.2968  12.2997  12.2997  12.8665  12.8665  13.6735  13.6735
    17.0035  17.0035  17.7877  17.7877  32.1429  32.1429

     occupation numbers 
     1.0000   1.0000   1.0000   1.0000   1.0000   1.0000   1.0000   1.0000
     1.0000   1.0000   1.0000   1.0000   1.0000   1.0000   1.0000   1.0000
     1.0000   1.0000   1.0000   1.0000   1.0000   1.0000   1.0000   1.0000
     1.0000   1.0000   1.0000   1.0000   1.0000   1.0000   1.0000   1.0000
     1.0000   1.0000   1.0000   1.0000   1.0000   1.0000   1.0000   1.0000
     0.0000   0.0000   0.0000   0.0000   0.0000   0.0000

          k = 0.4167-0.5000-0.5000 (  9084 PWs)   bands (ev):

   -98.5124 -98.5124 -98.5124 -98.5124 -55.9235 -55.9235 -55.9235 -55.9235
   -55.8701 -55.8700 -55.8700 -55.8700 -55.8692 -55.8692 -55.8692 -55.8692
     9.3707   9.3707   9.3707   9.3707  11.1069  11.1069  11.1069  11.1069
    11.1380  11.1380  11.1380  11.1380  12.1165  12.1165  12.1165  12.1165
    12.2867  12.2867  12.2867  12.2867  13.2011  13.2011  13.2011  13.2011
    17.1994  17.1994  17.1994  17.1994  32.8607  32.8607

     occupation numbers 
     1.0000   1.0000   1.0000   1.0000   1.0000   1.0000   1.0000   1.0000
     1.0000   1.0000   1.0000   1.0000   1.0000   1.0000   1.0000   1.0000
     1.0000   1.0000   1.0000   1.0000   1.0000   1.0000   1.0000   1.0000
     1.0000   1.0000   1.0000   1.0000   1.0000   1.0000   1.0000   1.0000
     1.0000   1.0000   1.0000   1.0000   1.0000   1.0000   1.0000   1.0000
     0.0000   0.0000   0.0000   0.0000   0.0000   0.0000

          k =-0.5000-0.5000-0.5000 (  9104 PWs)   bands (ev):

   -98.5124 -98.5124 -98.5124 -98.5124 -55.9244 -55.9244 -55.9244 -55.9244
   -55.8692 -55.8692 -55.8692 -55.8692 -55.8692 -55.8692 -55.8692 -55.8692
     9.3558   9.3558   9.3558   9.3558  11.1197  11.1197  11.1197  11.1197
    11.1197  11.1198  11.1198  11.1198  12.3069  12.3069  12.3069  12.3069
    12.3069  12.3069  12.3069  12.3069  13.1139  13.1139  13.1139  13.1139
    16.9574  16.9574  16.9574  16.9574  33.9817  33.9817

     occupation numbers 
     1.0000   1.0000   1.0000   1.0000   1.0000   1.0000   1.0000   1.0000
     1.0000   1.0000   1.0000   1.0000   1.0000   1.0000   1.0000   1.0000
     1.0000   1.0000   1.0000   1.0000   1.0000   1.0000   1.0000   1.0000
     1.0000   1.0000   1.0000   1.0000   1.0000   1.0000   1.0000   1.0000
     1.0000   1.0000   1.0000   1.0000   1.0000   1.0000   1.0000   1.0000
     0.0000   0.0000   0.0000   0.0000   0.0000   0.0000

     the Fermi energy is    13.8122 ev

!    total energy              =   -1947.53575971 Ry
     total all-electron energy =    -13239.882174 Ry
     estimated scf accuracy    <          3.5E-09 Ry
     smearing contrib. (-TS)   =      -0.00001391 Ry
     internal energy E=F+TS    =   -1947.53574580 Ry

     The total energy is F=E-TS. E is the sum of the following terms:
     one-electron contribution =   -1051.81905940 Ry
     hartree contribution      =     582.62737521 Ry
     xc contribution           =    -153.03658054 Ry
     ewald contribution        =    -929.93503261 Ry
     one-center paw contrib.   =    -395.37244846 Ry
      -> PAW hartree energy AE =     319.28335702 Ry
      -> PAW hartree energy PS =    -321.24856276 Ry
      -> PAW xc energy AE      =    -133.83898527 Ry
      -> PAW xc energy PS      =      36.96107857 Ry
      -> total E_H with PAW    =     580.66216946 Ry
      -> total E_XC with PAW   =    -249.91448725 Ry

     convergence has been achieved in  11 iterations

     Writing all to output data dir ./out/Cu.save/

     init_run     :      1.43s CPU      1.71s WALL (       1 calls)
     electrons    :    440.64s CPU    453.26s WALL (       1 calls)

     Called by init_run:
     wfcinit      :      0.85s CPU      1.09s WALL (       1 calls)
     potinit      :      0.19s CPU      0.20s WALL (       1 calls)
     hinit0       :      0.24s CPU      0.24s WALL (       1 calls)

     Called by electrons:
     c_bands      :    398.29s CPU    409.00s WALL (      11 calls)
     sum_band     :     39.01s CPU     40.85s WALL (      11 calls)
     v_of_rho     :      0.28s CPU      0.28s WALL (      12 calls)
     v_h          :      0.02s CPU      0.03s WALL (      12 calls)
     v_xc         :      0.25s CPU      0.26s WALL (      12 calls)
     newd         :      1.20s CPU      1.23s WALL (      12 calls)
     PAW_pot      :      2.00s CPU      2.06s WALL (      12 calls)
     mix_rho      :      0.10s CPU      0.10s WALL (      11 calls)

     Called by c_bands:
     init_us_2    :      2.62s CPU      2.66s WALL (    1848 calls)
     init_us_2:cp :      2.61s CPU      2.65s WALL (    1848 calls)
     cegterg      :    389.95s CPU    400.57s WALL (     924 calls)

     Called by sum_band:
     sum_band:wei :      0.03s CPU      0.03s WALL (      11 calls)
     sum_band:loo :     38.14s CPU     39.95s WALL (      11 calls)
     sum_band:buf :      1.10s CPU      1.11s WALL (     924 calls)
     sum_band:ini :      1.16s CPU      1.17s WALL (     924 calls)
     sum_band:cal :     11.20s CPU     11.38s WALL (     924 calls)
     sum_band:bec :      0.16s CPU      0.16s WALL (     924 calls)
     addusdens    :      0.74s CPU      0.76s WALL (      11 calls)
                                        0.00s GPU  (      11 calls)
     addusd:skk   :      0.01s CPU      0.01s WALL (      11 calls)
                                        0.00s GPU  (      11 calls)

     Called by *egterg:
     cdiaghg      :     20.46s CPU     20.57s WALL (    3258 calls)
     cegterg:over :     45.76s CPU     46.19s WALL (    2418 calls)
     cegterg:upda :     22.41s CPU     22.47s WALL (    2418 calls)
     cegterg:last :     64.56s CPU     64.91s WALL (    2003 calls)
     h_psi        :    181.45s CPU    190.73s WALL (    3342 calls)
     s_psi        :     28.67s CPU     28.83s WALL (    3342 calls)
     g_psi        :      1.31s CPU      1.32s WALL (    2418 calls)

     Called by h_psi:
     h_psi:calbec :     31.78s CPU     32.51s WALL (    3342 calls)
     vloc_psi     :    119.69s CPU    128.11s WALL (    3342 calls)
     add_vuspsi   :     28.59s CPU     28.74s WALL (    3342 calls)

     General routines
     calbec       :     42.95s CPU     43.88s WALL (    4266 calls)
     fft          :      0.28s CPU      0.28s WALL (     132 calls)
     ffts         :      0.01s CPU      0.01s WALL (      11 calls)
     fftw         :    126.31s CPU    135.20s WALL (  266586 calls)

     Parallel routines

     PAW routines
     PAW_pot      :      2.00s CPU      2.06s WALL (      12 calls)
     PAW_symme    :      0.01s CPU      0.01s WALL (      22 calls)

     PWSCF        :   7m22.93s CPU   7m37.78s WALL


   This run was terminated on:  21:19:16  15Feb2024            

=------------------------------------------------------------------------------=
   JOB DONE.
=------------------------------------------------------------------------------=
