### Running on host: unam-asus

     Program PWSCF v.7.2 starts on 15Feb2024 at 19:47:17 

     This program is part of the open-source Quantum ESPRESSO suite
     for quantum simulation of materials; please cite
         "P. Giannozzi et al., J. Phys.:Condens. Matter 21 395502 (2009);
         "P. Giannozzi et al., J. Phys.:Condens. Matter 29 465901 (2017);
         "P. Giannozzi et al., J. Chem. Phys. 152 154105 (2020);
          URL http://www.quantum-espresso.org", 
     in publications or presentations arising from this work. More details at
     http://www.quantum-espresso.org/quote

     Parallel version (MPI), running on    10 processors

     MPI processes distributed on     1 nodes
     1940 MiB available memory on the printing compute node when the environment starts

     Reading input from eos.Cu.d/eos.Cu.1.in

     Current dimensions of program PWSCF are:
     Max number of different atomic species (ntypx) = 10
     Max number of k-points (npk) =  40000
     Max angular momentum in pseudopotentials (lmaxx) =  4
     file Cu.pbe-spn-kjpaw_psl.1.0.0.UPF: wavefunction(s)  4S 3P 3D renormalized
     Found identity + (  0.0000 -0.5000 -0.5000) symmetry
     This is a supercell, fractional translations are disabled

     R & G space division:  proc/nbgrp/npool/nimage =      10
     Subspace diagonalization in iterative solution of the eigenvalue problem:
     a serial algorithm will be used


     Parallelization info
     --------------------
     sticks:   dense  smooth     PW     G-vecs:    dense   smooth      PW
     Min         178     178     51                 5770     5770     891
     Max         179     179     52                 5777     5777     894
     Sum        1789    1789    517                57747    57747    8925

     Using Slab Decomposition



     bravais-lattice index     =            1
     lattice parameter (alat)  =       6.6080  a.u.
     unit-cell volume          =     288.5458 (a.u.)^3
     number of atoms/cell      =            4
     number of atomic types    =            1
     number of electrons       =        76.00
     number of Kohn-Sham states=           46
     kinetic-energy cutoff     =     130.0000  Ry
     charge density cutoff     =     520.0000  Ry
     scf convergence threshold =      1.0E-08
     mixing beta               =       0.7000
     number of iterations used =            8  plain     mixing
     Exchange-correlation= SLA  PW   PBX  PBC
                           (   1   4   3   4   0   0   0)

     celldm(1)=   6.608023  celldm(2)=   0.000000  celldm(3)=   0.000000
     celldm(4)=   0.000000  celldm(5)=   0.000000  celldm(6)=   0.000000

     crystal axes: (cart. coord. in units of alat)
               a(1) = (   1.000000   0.000000   0.000000 )  
               a(2) = (   0.000000   1.000000   0.000000 )  
               a(3) = (   0.000000   0.000000   1.000000 )  

     reciprocal axes: (cart. coord. in units 2 pi/alat)
               b(1) = (  1.000000  0.000000  0.000000 )  
               b(2) = (  0.000000  1.000000  0.000000 )  
               b(3) = (  0.000000  0.000000  1.000000 )  


     PseudoPot. # 1 for Cu read from file:
     /home/abdul/git_repo/ZnS_Cu-Vacancy/pseudo/QE/Cu.pbe-spn-kjpaw_psl.1.0.0.UPF
     MD5 check sum: e7cbaad2f97193e5fe23251a619a52b0
     Pseudo is Projector augmented-wave + core cor, Zval = 19.0
     Generated using &quot;atomic&quot; code by A. Dal Corso  v.6.3
     Shape of augmentation charge: PSQ
     Using radial grid of 1199 points,  6 beta functions with: 
                l(1) =   0
                l(2) =   0
                l(3) =   1
                l(4) =   1
                l(5) =   2
                l(6) =   2
     Q(r) pseudized with 0 coefficients 


     atomic species   valence    mass     pseudopotential
        Cu            19.00    63.54600     Cu( 1.00)

     48 Sym. Ops., with inversion, found


                                    s                        frac. trans.

      isym =  1     identity                                     

 cryst.   s( 1) = (     1          0          0      )
                  (     0          1          0      )
                  (     0          0          1      )

 cart.    s( 1) = (  1.0000000  0.0000000  0.0000000 )
                  (  0.0000000  1.0000000  0.0000000 )
                  (  0.0000000  0.0000000  1.0000000 )


      isym =  2     180 deg rotation - cart. axis [0,0,1]        

 cryst.   s( 2) = (    -1          0          0      )
                  (     0         -1          0      )
                  (     0          0          1      )

 cart.    s( 2) = ( -1.0000000  0.0000000  0.0000000 )
                  (  0.0000000 -1.0000000  0.0000000 )
                  (  0.0000000  0.0000000  1.0000000 )


      isym =  3     180 deg rotation - cart. axis [0,1,0]        

 cryst.   s( 3) = (    -1          0          0      )
                  (     0          1          0      )
                  (     0          0         -1      )

 cart.    s( 3) = ( -1.0000000  0.0000000  0.0000000 )
                  (  0.0000000  1.0000000  0.0000000 )
                  (  0.0000000  0.0000000 -1.0000000 )


      isym =  4     180 deg rotation - cart. axis [1,0,0]        

 cryst.   s( 4) = (     1          0          0      )
                  (     0         -1          0      )
                  (     0          0         -1      )

 cart.    s( 4) = (  1.0000000  0.0000000  0.0000000 )
                  (  0.0000000 -1.0000000  0.0000000 )
                  (  0.0000000  0.0000000 -1.0000000 )


      isym =  5     180 deg rotation - cart. axis [1,1,0]        

 cryst.   s( 5) = (     0          1          0      )
                  (     1          0          0      )
                  (     0          0         -1      )

 cart.    s( 5) = (  0.0000000  1.0000000  0.0000000 )
                  (  1.0000000  0.0000000  0.0000000 )
                  (  0.0000000  0.0000000 -1.0000000 )


      isym =  6     180 deg rotation - cart. axis [1,-1,0]       

 cryst.   s( 6) = (     0         -1          0      )
                  (    -1          0          0      )
                  (     0          0         -1      )

 cart.    s( 6) = (  0.0000000 -1.0000000  0.0000000 )
                  ( -1.0000000  0.0000000  0.0000000 )
                  (  0.0000000  0.0000000 -1.0000000 )


      isym =  7      90 deg rotation - cart. axis [0,0,-1]       

 cryst.   s( 7) = (     0         -1          0      )
                  (     1          0          0      )
                  (     0          0          1      )

 cart.    s( 7) = (  0.0000000  1.0000000  0.0000000 )
                  ( -1.0000000  0.0000000  0.0000000 )
                  (  0.0000000  0.0000000  1.0000000 )


      isym =  8      90 deg rotation - cart. axis [0,0,1]        

 cryst.   s( 8) = (     0          1          0      )
                  (    -1          0          0      )
                  (     0          0          1      )

 cart.    s( 8) = (  0.0000000 -1.0000000  0.0000000 )
                  (  1.0000000  0.0000000  0.0000000 )
                  (  0.0000000  0.0000000  1.0000000 )


      isym =  9     180 deg rotation - cart. axis [1,0,1]        

 cryst.   s( 9) = (     0          0          1      )
                  (     0         -1          0      )
                  (     1          0          0      )

 cart.    s( 9) = (  0.0000000  0.0000000  1.0000000 )
                  (  0.0000000 -1.0000000  0.0000000 )
                  (  1.0000000  0.0000000  0.0000000 )


      isym = 10     180 deg rotation - cart. axis [-1,0,1]       

 cryst.   s(10) = (     0          0         -1      )
                  (     0         -1          0      )
                  (    -1          0          0      )

 cart.    s(10) = (  0.0000000  0.0000000 -1.0000000 )
                  (  0.0000000 -1.0000000  0.0000000 )
                  ( -1.0000000  0.0000000  0.0000000 )


      isym = 11      90 deg rotation - cart. axis [0,1,0]        

 cryst.   s(11) = (     0          0         -1      )
                  (     0          1          0      )
                  (     1          0          0      )

 cart.    s(11) = (  0.0000000  0.0000000  1.0000000 )
                  (  0.0000000  1.0000000  0.0000000 )
                  ( -1.0000000  0.0000000  0.0000000 )


      isym = 12      90 deg rotation - cart. axis [0,-1,0]       

 cryst.   s(12) = (     0          0          1      )
                  (     0          1          0      )
                  (    -1          0          0      )

 cart.    s(12) = (  0.0000000  0.0000000 -1.0000000 )
                  (  0.0000000  1.0000000  0.0000000 )
                  (  1.0000000  0.0000000  0.0000000 )


      isym = 13     180 deg rotation - cart. axis [0,1,1]        

 cryst.   s(13) = (    -1          0          0      )
                  (     0          0          1      )
                  (     0          1          0      )

 cart.    s(13) = ( -1.0000000  0.0000000  0.0000000 )
                  (  0.0000000  0.0000000  1.0000000 )
                  (  0.0000000  1.0000000  0.0000000 )


      isym = 14     180 deg rotation - cart. axis [0,1,-1]       

 cryst.   s(14) = (    -1          0          0      )
                  (     0          0         -1      )
                  (     0         -1          0      )

 cart.    s(14) = ( -1.0000000  0.0000000  0.0000000 )
                  (  0.0000000  0.0000000 -1.0000000 )
                  (  0.0000000 -1.0000000  0.0000000 )


      isym = 15      90 deg rotation - cart. axis [-1,0,0]       

 cryst.   s(15) = (     1          0          0      )
                  (     0          0         -1      )
                  (     0          1          0      )

 cart.    s(15) = (  1.0000000  0.0000000  0.0000000 )
                  (  0.0000000  0.0000000  1.0000000 )
                  (  0.0000000 -1.0000000  0.0000000 )


      isym = 16      90 deg rotation - cart. axis [1,0,0]        

 cryst.   s(16) = (     1          0          0      )
                  (     0          0          1      )
                  (     0         -1          0      )

 cart.    s(16) = (  1.0000000  0.0000000  0.0000000 )
                  (  0.0000000  0.0000000 -1.0000000 )
                  (  0.0000000  1.0000000  0.0000000 )


      isym = 17     120 deg rotation - cart. axis [-1,-1,-1]     

 cryst.   s(17) = (     0          0          1      )
                  (     1          0          0      )
                  (     0          1          0      )

 cart.    s(17) = (  0.0000000  1.0000000  0.0000000 )
                  (  0.0000000  0.0000000  1.0000000 )
                  (  1.0000000  0.0000000  0.0000000 )


      isym = 18     120 deg rotation - cart. axis [-1,1,1]       

 cryst.   s(18) = (     0          0         -1      )
                  (    -1          0          0      )
                  (     0          1          0      )

 cart.    s(18) = (  0.0000000 -1.0000000  0.0000000 )
                  (  0.0000000  0.0000000  1.0000000 )
                  ( -1.0000000  0.0000000  0.0000000 )


      isym = 19     120 deg rotation - cart. axis [1,1,-1]       

 cryst.   s(19) = (     0          0         -1      )
                  (     1          0          0      )
                  (     0         -1          0      )

 cart.    s(19) = (  0.0000000  1.0000000  0.0000000 )
                  (  0.0000000  0.0000000 -1.0000000 )
                  ( -1.0000000  0.0000000  0.0000000 )


      isym = 20     120 deg rotation - cart. axis [1,-1,1]       

 cryst.   s(20) = (     0          0          1      )
                  (    -1          0          0      )
                  (     0         -1          0      )

 cart.    s(20) = (  0.0000000 -1.0000000  0.0000000 )
                  (  0.0000000  0.0000000 -1.0000000 )
                  (  1.0000000  0.0000000  0.0000000 )


      isym = 21     120 deg rotation - cart. axis [1,1,1]        

 cryst.   s(21) = (     0          1          0      )
                  (     0          0          1      )
                  (     1          0          0      )

 cart.    s(21) = (  0.0000000  0.0000000  1.0000000 )
                  (  1.0000000  0.0000000  0.0000000 )
                  (  0.0000000  1.0000000  0.0000000 )


      isym = 22     120 deg rotation - cart. axis [-1,1,-1]      

 cryst.   s(22) = (     0         -1          0      )
                  (     0          0         -1      )
                  (     1          0          0      )

 cart.    s(22) = (  0.0000000  0.0000000  1.0000000 )
                  ( -1.0000000  0.0000000  0.0000000 )
                  (  0.0000000 -1.0000000  0.0000000 )


      isym = 23     120 deg rotation - cart. axis [1,-1,-1]      

 cryst.   s(23) = (     0         -1          0      )
                  (     0          0          1      )
                  (    -1          0          0      )

 cart.    s(23) = (  0.0000000  0.0000000 -1.0000000 )
                  ( -1.0000000  0.0000000  0.0000000 )
                  (  0.0000000  1.0000000  0.0000000 )


      isym = 24     120 deg rotation - cart. axis [-1,-1,1]      

 cryst.   s(24) = (     0          1          0      )
                  (     0          0         -1      )
                  (    -1          0          0      )

 cart.    s(24) = (  0.0000000  0.0000000 -1.0000000 )
                  (  1.0000000  0.0000000  0.0000000 )
                  (  0.0000000 -1.0000000  0.0000000 )


      isym = 25     inversion                                    

 cryst.   s(25) = (    -1          0          0      )
                  (     0         -1          0      )
                  (     0          0         -1      )

 cart.    s(25) = ( -1.0000000  0.0000000  0.0000000 )
                  (  0.0000000 -1.0000000  0.0000000 )
                  (  0.0000000  0.0000000 -1.0000000 )


      isym = 26     inv. 180 deg rotation - cart. axis [0,0,1]   

 cryst.   s(26) = (     1          0          0      )
                  (     0          1          0      )
                  (     0          0         -1      )

 cart.    s(26) = (  1.0000000  0.0000000  0.0000000 )
                  (  0.0000000  1.0000000  0.0000000 )
                  (  0.0000000  0.0000000 -1.0000000 )


      isym = 27     inv. 180 deg rotation - cart. axis [0,1,0]   

 cryst.   s(27) = (     1          0          0      )
                  (     0         -1          0      )
                  (     0          0          1      )

 cart.    s(27) = (  1.0000000  0.0000000  0.0000000 )
                  (  0.0000000 -1.0000000  0.0000000 )
                  (  0.0000000  0.0000000  1.0000000 )


      isym = 28     inv. 180 deg rotation - cart. axis [1,0,0]   

 cryst.   s(28) = (    -1          0          0      )
                  (     0          1          0      )
                  (     0          0          1      )

 cart.    s(28) = ( -1.0000000  0.0000000  0.0000000 )
                  (  0.0000000  1.0000000  0.0000000 )
                  (  0.0000000  0.0000000  1.0000000 )


      isym = 29     inv. 180 deg rotation - cart. axis [1,1,0]   

 cryst.   s(29) = (     0         -1          0      )
                  (    -1          0          0      )
                  (     0          0          1      )

 cart.    s(29) = (  0.0000000 -1.0000000  0.0000000 )
                  ( -1.0000000  0.0000000  0.0000000 )
                  (  0.0000000  0.0000000  1.0000000 )


      isym = 30     inv. 180 deg rotation - cart. axis [1,-1,0]  

 cryst.   s(30) = (     0          1          0      )
                  (     1          0          0      )
                  (     0          0          1      )

 cart.    s(30) = (  0.0000000  1.0000000  0.0000000 )
                  (  1.0000000  0.0000000  0.0000000 )
                  (  0.0000000  0.0000000  1.0000000 )


      isym = 31     inv.  90 deg rotation - cart. axis [0,0,-1]  

 cryst.   s(31) = (     0          1          0      )
                  (    -1          0          0      )
                  (     0          0         -1      )

 cart.    s(31) = (  0.0000000 -1.0000000  0.0000000 )
                  (  1.0000000  0.0000000  0.0000000 )
                  (  0.0000000  0.0000000 -1.0000000 )


      isym = 32     inv.  90 deg rotation - cart. axis [0,0,1]   

 cryst.   s(32) = (     0         -1          0      )
                  (     1          0          0      )
                  (     0          0         -1      )

 cart.    s(32) = (  0.0000000  1.0000000  0.0000000 )
                  ( -1.0000000  0.0000000  0.0000000 )
                  (  0.0000000  0.0000000 -1.0000000 )


      isym = 33     inv. 180 deg rotation - cart. axis [1,0,1]   

 cryst.   s(33) = (     0          0         -1      )
                  (     0          1          0      )
                  (    -1          0          0      )

 cart.    s(33) = (  0.0000000  0.0000000 -1.0000000 )
                  (  0.0000000  1.0000000  0.0000000 )
                  ( -1.0000000  0.0000000  0.0000000 )


      isym = 34     inv. 180 deg rotation - cart. axis [-1,0,1]  

 cryst.   s(34) = (     0          0          1      )
                  (     0          1          0      )
                  (     1          0          0      )

 cart.    s(34) = (  0.0000000  0.0000000  1.0000000 )
                  (  0.0000000  1.0000000  0.0000000 )
                  (  1.0000000  0.0000000  0.0000000 )


      isym = 35     inv.  90 deg rotation - cart. axis [0,1,0]   

 cryst.   s(35) = (     0          0          1      )
                  (     0         -1          0      )
                  (    -1          0          0      )

 cart.    s(35) = (  0.0000000  0.0000000 -1.0000000 )
                  (  0.0000000 -1.0000000  0.0000000 )
                  (  1.0000000  0.0000000  0.0000000 )


      isym = 36     inv.  90 deg rotation - cart. axis [0,-1,0]  

 cryst.   s(36) = (     0          0         -1      )
                  (     0         -1          0      )
                  (     1          0          0      )

 cart.    s(36) = (  0.0000000  0.0000000  1.0000000 )
                  (  0.0000000 -1.0000000  0.0000000 )
                  ( -1.0000000  0.0000000  0.0000000 )


      isym = 37     inv. 180 deg rotation - cart. axis [0,1,1]   

 cryst.   s(37) = (     1          0          0      )
                  (     0          0         -1      )
                  (     0         -1          0      )

 cart.    s(37) = (  1.0000000  0.0000000  0.0000000 )
                  (  0.0000000  0.0000000 -1.0000000 )
                  (  0.0000000 -1.0000000  0.0000000 )


      isym = 38     inv. 180 deg rotation - cart. axis [0,1,-1]  

 cryst.   s(38) = (     1          0          0      )
                  (     0          0          1      )
                  (     0          1          0      )

 cart.    s(38) = (  1.0000000  0.0000000  0.0000000 )
                  (  0.0000000  0.0000000  1.0000000 )
                  (  0.0000000  1.0000000  0.0000000 )


      isym = 39     inv.  90 deg rotation - cart. axis [-1,0,0]  

 cryst.   s(39) = (    -1          0          0      )
                  (     0          0          1      )
                  (     0         -1          0      )

 cart.    s(39) = ( -1.0000000  0.0000000  0.0000000 )
                  (  0.0000000  0.0000000 -1.0000000 )
                  (  0.0000000  1.0000000  0.0000000 )


      isym = 40     inv.  90 deg rotation - cart. axis [1,0,0]   

 cryst.   s(40) = (    -1          0          0      )
                  (     0          0         -1      )
                  (     0          1          0      )

 cart.    s(40) = ( -1.0000000  0.0000000  0.0000000 )
                  (  0.0000000  0.0000000  1.0000000 )
                  (  0.0000000 -1.0000000  0.0000000 )


      isym = 41     inv. 120 deg rotation - cart. axis [-1,-1,-1]

 cryst.   s(41) = (     0          0         -1      )
                  (    -1          0          0      )
                  (     0         -1          0      )

 cart.    s(41) = (  0.0000000 -1.0000000  0.0000000 )
                  (  0.0000000  0.0000000 -1.0000000 )
                  ( -1.0000000  0.0000000  0.0000000 )


      isym = 42     inv. 120 deg rotation - cart. axis [-1,1,1]  

 cryst.   s(42) = (     0          0          1      )
                  (     1          0          0      )
                  (     0         -1          0      )

 cart.    s(42) = (  0.0000000  1.0000000  0.0000000 )
                  (  0.0000000  0.0000000 -1.0000000 )
                  (  1.0000000  0.0000000  0.0000000 )


      isym = 43     inv. 120 deg rotation - cart. axis [1,1,-1]  

 cryst.   s(43) = (     0          0          1      )
                  (    -1          0          0      )
                  (     0          1          0      )

 cart.    s(43) = (  0.0000000 -1.0000000  0.0000000 )
                  (  0.0000000  0.0000000  1.0000000 )
                  (  1.0000000  0.0000000  0.0000000 )


      isym = 44     inv. 120 deg rotation - cart. axis [1,-1,1]  

 cryst.   s(44) = (     0          0         -1      )
                  (     1          0          0      )
                  (     0          1          0      )

 cart.    s(44) = (  0.0000000  1.0000000  0.0000000 )
                  (  0.0000000  0.0000000  1.0000000 )
                  ( -1.0000000  0.0000000  0.0000000 )


      isym = 45     inv. 120 deg rotation - cart. axis [1,1,1]   

 cryst.   s(45) = (     0         -1          0      )
                  (     0          0         -1      )
                  (    -1          0          0      )

 cart.    s(45) = (  0.0000000  0.0000000 -1.0000000 )
                  ( -1.0000000  0.0000000  0.0000000 )
                  (  0.0000000 -1.0000000  0.0000000 )


      isym = 46     inv. 120 deg rotation - cart. axis [-1,1,-1] 

 cryst.   s(46) = (     0          1          0      )
                  (     0          0          1      )
                  (    -1          0          0      )

 cart.    s(46) = (  0.0000000  0.0000000 -1.0000000 )
                  (  1.0000000  0.0000000  0.0000000 )
                  (  0.0000000  1.0000000  0.0000000 )


      isym = 47     inv. 120 deg rotation - cart. axis [1,-1,-1] 

 cryst.   s(47) = (     0          1          0      )
                  (     0          0         -1      )
                  (     1          0          0      )

 cart.    s(47) = (  0.0000000  0.0000000  1.0000000 )
                  (  1.0000000  0.0000000  0.0000000 )
                  (  0.0000000 -1.0000000  0.0000000 )


      isym = 48     inv. 120 deg rotation - cart. axis [-1,-1,1] 

 cryst.   s(48) = (     0         -1          0      )
                  (     0          0          1      )
                  (     1          0          0      )

 cart.    s(48) = (  0.0000000  0.0000000  1.0000000 )
                  ( -1.0000000  0.0000000  0.0000000 )
                  (  0.0000000  1.0000000  0.0000000 )


     point group O_h (m-3m) 
     there are 10 classes
     the character table:

       E     8C3   3C2   6C4   6C2'  i     8S6   3s_h  6S4   6s_d 
A_1g   1.00  1.00  1.00  1.00  1.00  1.00  1.00  1.00  1.00  1.00
A_2g   1.00  1.00  1.00 -1.00 -1.00  1.00  1.00  1.00 -1.00 -1.00
E_g    2.00 -1.00  2.00  0.00  0.00  2.00 -1.00  2.00  0.00  0.00
T_1g   3.00  0.00 -1.00  1.00 -1.00  3.00  0.00 -1.00  1.00 -1.00
T_2g   3.00  0.00 -1.00 -1.00  1.00  3.00  0.00 -1.00 -1.00  1.00
A_1u   1.00  1.00  1.00  1.00  1.00 -1.00 -1.00 -1.00 -1.00 -1.00
A_2u   1.00  1.00  1.00 -1.00 -1.00 -1.00 -1.00 -1.00  1.00  1.00
E_u    2.00 -1.00  2.00  0.00  0.00 -2.00  1.00 -2.00  0.00  0.00
T_1u   3.00  0.00 -1.00  1.00 -1.00 -3.00  0.00  1.00 -1.00  1.00
T_2u   3.00  0.00 -1.00 -1.00  1.00 -3.00  0.00  1.00  1.00 -1.00

     the symmetry operations in each class and the name of the first element:

     E        1
          identity                                               
     8C3     17   19   20   18   24   21   22   23
          120 deg rotation - cart. axis [-1,-1,-1]               
     3C2      2    4    3
          180 deg rotation - cart. axis [0,0,1]                  
     6C4      7    8   15   16   12   11
           90 deg rotation - cart. axis [0,0,-1]                 
     6C2'     5    6   14   13   10    9
          180 deg rotation - cart. axis [1,1,0]                  
     i       25
          inversion                                              
     8S6     41   43   44   42   48   45   46   47
          inv. 120 deg rotation - cart. axis [-1,-1,-1]          
     3s_h    26   28   27
          inv. 180 deg rotation - cart. axis [0,0,1]             
     6S4     31   32   39   40   36   35
          inv.  90 deg rotation - cart. axis [0,0,-1]            
     6s_d    29   30   38   37   34   33
          inv. 180 deg rotation - cart. axis [1,1,0]             

   Cartesian axes

     site n.     atom                  positions (alat units)
         1           Cu  tau(   1) = (   0.0000000   0.0000000   0.0000000  )
         2           Cu  tau(   2) = (   0.0000000   0.5000000   0.5000000  )
         3           Cu  tau(   3) = (   0.5000000   0.0000000   0.5000000  )
         4           Cu  tau(   4) = (   0.5000000   0.5000000   0.0000000  )

   Crystallographic axes

     site n.     atom                  positions (cryst. coord.)
         1           Cu  tau(   1) = (  0.0000000  0.0000000  0.0000000  )
         2           Cu  tau(   2) = (  0.0000000  0.5000000  0.5000000  )
         3           Cu  tau(   3) = (  0.5000000  0.0000000  0.5000000  )
         4           Cu  tau(   4) = (  0.5000000  0.5000000  0.0000000  )

     number of k points=    84  Gaussian smearing, width (Ry)=  0.0010
                       cart. coord. in units 2pi/alat
        k(    1) = (   0.0000000   0.0000000   0.0000000), wk =   0.0011574
        k(    2) = (   0.0000000   0.0000000   0.0833333), wk =   0.0069444
        k(    3) = (   0.0000000   0.0000000   0.1666667), wk =   0.0069444
        k(    4) = (   0.0000000   0.0000000   0.2500000), wk =   0.0069444
        k(    5) = (   0.0000000   0.0000000   0.3333333), wk =   0.0069444
        k(    6) = (   0.0000000   0.0000000   0.4166667), wk =   0.0069444
        k(    7) = (   0.0000000   0.0000000  -0.5000000), wk =   0.0034722
        k(    8) = (   0.0000000   0.0833333   0.0833333), wk =   0.0138889
        k(    9) = (   0.0000000   0.0833333   0.1666667), wk =   0.0277778
        k(   10) = (   0.0000000   0.0833333   0.2500000), wk =   0.0277778
        k(   11) = (   0.0000000   0.0833333   0.3333333), wk =   0.0277778
        k(   12) = (   0.0000000   0.0833333   0.4166667), wk =   0.0277778
        k(   13) = (   0.0000000   0.0833333  -0.5000000), wk =   0.0138889
        k(   14) = (   0.0000000   0.1666667   0.1666667), wk =   0.0138889
        k(   15) = (   0.0000000   0.1666667   0.2500000), wk =   0.0277778
        k(   16) = (   0.0000000   0.1666667   0.3333333), wk =   0.0277778
        k(   17) = (   0.0000000   0.1666667   0.4166667), wk =   0.0277778
        k(   18) = (   0.0000000   0.1666667  -0.5000000), wk =   0.0138889
        k(   19) = (   0.0000000   0.2500000   0.2500000), wk =   0.0138889
        k(   20) = (   0.0000000   0.2500000   0.3333333), wk =   0.0277778
        k(   21) = (   0.0000000   0.2500000   0.4166667), wk =   0.0277778
        k(   22) = (   0.0000000   0.2500000  -0.5000000), wk =   0.0138889
        k(   23) = (   0.0000000   0.3333333   0.3333333), wk =   0.0138889
        k(   24) = (   0.0000000   0.3333333   0.4166667), wk =   0.0277778
        k(   25) = (   0.0000000   0.3333333  -0.5000000), wk =   0.0138889
        k(   26) = (   0.0000000   0.4166667   0.4166667), wk =   0.0138889
        k(   27) = (   0.0000000   0.4166667  -0.5000000), wk =   0.0138889
        k(   28) = (   0.0000000  -0.5000000  -0.5000000), wk =   0.0034722
        k(   29) = (   0.0833333   0.0833333   0.0833333), wk =   0.0092593
        k(   30) = (   0.0833333   0.0833333   0.1666667), wk =   0.0277778
        k(   31) = (   0.0833333   0.0833333   0.2500000), wk =   0.0277778
        k(   32) = (   0.0833333   0.0833333   0.3333333), wk =   0.0277778
        k(   33) = (   0.0833333   0.0833333   0.4166667), wk =   0.0277778
        k(   34) = (   0.0833333   0.0833333  -0.5000000), wk =   0.0138889
        k(   35) = (   0.0833333   0.1666667   0.1666667), wk =   0.0277778
        k(   36) = (   0.0833333   0.1666667   0.2500000), wk =   0.0555556
        k(   37) = (   0.0833333   0.1666667   0.3333333), wk =   0.0555556
        k(   38) = (   0.0833333   0.1666667   0.4166667), wk =   0.0555556
        k(   39) = (   0.0833333   0.1666667  -0.5000000), wk =   0.0277778
        k(   40) = (   0.0833333   0.2500000   0.2500000), wk =   0.0277778
        k(   41) = (   0.0833333   0.2500000   0.3333333), wk =   0.0555556
        k(   42) = (   0.0833333   0.2500000   0.4166667), wk =   0.0555556
        k(   43) = (   0.0833333   0.2500000  -0.5000000), wk =   0.0277778
        k(   44) = (   0.0833333   0.3333333   0.3333333), wk =   0.0277778
        k(   45) = (   0.0833333   0.3333333   0.4166667), wk =   0.0555556
        k(   46) = (   0.0833333   0.3333333  -0.5000000), wk =   0.0277778
        k(   47) = (   0.0833333   0.4166667   0.4166667), wk =   0.0277778
        k(   48) = (   0.0833333   0.4166667  -0.5000000), wk =   0.0277778
        k(   49) = (   0.0833333  -0.5000000  -0.5000000), wk =   0.0069444
        k(   50) = (   0.1666667   0.1666667   0.1666667), wk =   0.0092593
        k(   51) = (   0.1666667   0.1666667   0.2500000), wk =   0.0277778
        k(   52) = (   0.1666667   0.1666667   0.3333333), wk =   0.0277778
        k(   53) = (   0.1666667   0.1666667   0.4166667), wk =   0.0277778
        k(   54) = (   0.1666667   0.1666667  -0.5000000), wk =   0.0138889
        k(   55) = (   0.1666667   0.2500000   0.2500000), wk =   0.0277778
        k(   56) = (   0.1666667   0.2500000   0.3333333), wk =   0.0555556
        k(   57) = (   0.1666667   0.2500000   0.4166667), wk =   0.0555556
        k(   58) = (   0.1666667   0.2500000  -0.5000000), wk =   0.0277778
        k(   59) = (   0.1666667   0.3333333   0.3333333), wk =   0.0277778
        k(   60) = (   0.1666667   0.3333333   0.4166667), wk =   0.0555556
        k(   61) = (   0.1666667   0.3333333  -0.5000000), wk =   0.0277778
        k(   62) = (   0.1666667   0.4166667   0.4166667), wk =   0.0277778
        k(   63) = (   0.1666667   0.4166667  -0.5000000), wk =   0.0277778
        k(   64) = (   0.1666667  -0.5000000  -0.5000000), wk =   0.0069444
        k(   65) = (   0.2500000   0.2500000   0.2500000), wk =   0.0092593
        k(   66) = (   0.2500000   0.2500000   0.3333333), wk =   0.0277778
        k(   67) = (   0.2500000   0.2500000   0.4166667), wk =   0.0277778
        k(   68) = (   0.2500000   0.2500000  -0.5000000), wk =   0.0138889
        k(   69) = (   0.2500000   0.3333333   0.3333333), wk =   0.0277778
        k(   70) = (   0.2500000   0.3333333   0.4166667), wk =   0.0555556
        k(   71) = (   0.2500000   0.3333333  -0.5000000), wk =   0.0277778
        k(   72) = (   0.2500000   0.4166667   0.4166667), wk =   0.0277778
        k(   73) = (   0.2500000   0.4166667  -0.5000000), wk =   0.0277778
        k(   74) = (   0.2500000  -0.5000000  -0.5000000), wk =   0.0069444
        k(   75) = (   0.3333333   0.3333333   0.3333333), wk =   0.0092593
        k(   76) = (   0.3333333   0.3333333   0.4166667), wk =   0.0277778
        k(   77) = (   0.3333333   0.3333333  -0.5000000), wk =   0.0138889
        k(   78) = (   0.3333333   0.4166667   0.4166667), wk =   0.0277778
        k(   79) = (   0.3333333   0.4166667  -0.5000000), wk =   0.0277778
        k(   80) = (   0.3333333  -0.5000000  -0.5000000), wk =   0.0069444
        k(   81) = (   0.4166667   0.4166667   0.4166667), wk =   0.0092593
        k(   82) = (   0.4166667   0.4166667  -0.5000000), wk =   0.0138889
        k(   83) = (   0.4166667  -0.5000000  -0.5000000), wk =   0.0069444
        k(   84) = (  -0.5000000  -0.5000000  -0.5000000), wk =   0.0011574

                       cryst. coord.
        k(    1) = (   0.0000000   0.0000000   0.0000000), wk =   0.0011574
        k(    2) = (   0.0000000   0.0000000   0.0833333), wk =   0.0069444
        k(    3) = (   0.0000000   0.0000000   0.1666667), wk =   0.0069444
        k(    4) = (   0.0000000   0.0000000   0.2500000), wk =   0.0069444
        k(    5) = (   0.0000000   0.0000000   0.3333333), wk =   0.0069444
        k(    6) = (   0.0000000   0.0000000   0.4166667), wk =   0.0069444
        k(    7) = (   0.0000000   0.0000000  -0.5000000), wk =   0.0034722
        k(    8) = (   0.0000000   0.0833333   0.0833333), wk =   0.0138889
        k(    9) = (   0.0000000   0.0833333   0.1666667), wk =   0.0277778
        k(   10) = (   0.0000000   0.0833333   0.2500000), wk =   0.0277778
        k(   11) = (   0.0000000   0.0833333   0.3333333), wk =   0.0277778
        k(   12) = (   0.0000000   0.0833333   0.4166667), wk =   0.0277778
        k(   13) = (   0.0000000   0.0833333  -0.5000000), wk =   0.0138889
        k(   14) = (   0.0000000   0.1666667   0.1666667), wk =   0.0138889
        k(   15) = (   0.0000000   0.1666667   0.2500000), wk =   0.0277778
        k(   16) = (   0.0000000   0.1666667   0.3333333), wk =   0.0277778
        k(   17) = (   0.0000000   0.1666667   0.4166667), wk =   0.0277778
        k(   18) = (   0.0000000   0.1666667  -0.5000000), wk =   0.0138889
        k(   19) = (   0.0000000   0.2500000   0.2500000), wk =   0.0138889
        k(   20) = (   0.0000000   0.2500000   0.3333333), wk =   0.0277778
        k(   21) = (   0.0000000   0.2500000   0.4166667), wk =   0.0277778
        k(   22) = (   0.0000000   0.2500000  -0.5000000), wk =   0.0138889
        k(   23) = (   0.0000000   0.3333333   0.3333333), wk =   0.0138889
        k(   24) = (   0.0000000   0.3333333   0.4166667), wk =   0.0277778
        k(   25) = (   0.0000000   0.3333333  -0.5000000), wk =   0.0138889
        k(   26) = (   0.0000000   0.4166667   0.4166667), wk =   0.0138889
        k(   27) = (   0.0000000   0.4166667  -0.5000000), wk =   0.0138889
        k(   28) = (   0.0000000  -0.5000000  -0.5000000), wk =   0.0034722
        k(   29) = (   0.0833333   0.0833333   0.0833333), wk =   0.0092593
        k(   30) = (   0.0833333   0.0833333   0.1666667), wk =   0.0277778
        k(   31) = (   0.0833333   0.0833333   0.2500000), wk =   0.0277778
        k(   32) = (   0.0833333   0.0833333   0.3333333), wk =   0.0277778
        k(   33) = (   0.0833333   0.0833333   0.4166667), wk =   0.0277778
        k(   34) = (   0.0833333   0.0833333  -0.5000000), wk =   0.0138889
        k(   35) = (   0.0833333   0.1666667   0.1666667), wk =   0.0277778
        k(   36) = (   0.0833333   0.1666667   0.2500000), wk =   0.0555556
        k(   37) = (   0.0833333   0.1666667   0.3333333), wk =   0.0555556
        k(   38) = (   0.0833333   0.1666667   0.4166667), wk =   0.0555556
        k(   39) = (   0.0833333   0.1666667  -0.5000000), wk =   0.0277778
        k(   40) = (   0.0833333   0.2500000   0.2500000), wk =   0.0277778
        k(   41) = (   0.0833333   0.2500000   0.3333333), wk =   0.0555556
        k(   42) = (   0.0833333   0.2500000   0.4166667), wk =   0.0555556
        k(   43) = (   0.0833333   0.2500000  -0.5000000), wk =   0.0277778
        k(   44) = (   0.0833333   0.3333333   0.3333333), wk =   0.0277778
        k(   45) = (   0.0833333   0.3333333   0.4166667), wk =   0.0555556
        k(   46) = (   0.0833333   0.3333333  -0.5000000), wk =   0.0277778
        k(   47) = (   0.0833333   0.4166667   0.4166667), wk =   0.0277778
        k(   48) = (   0.0833333   0.4166667  -0.5000000), wk =   0.0277778
        k(   49) = (   0.0833333  -0.5000000  -0.5000000), wk =   0.0069444
        k(   50) = (   0.1666667   0.1666667   0.1666667), wk =   0.0092593
        k(   51) = (   0.1666667   0.1666667   0.2500000), wk =   0.0277778
        k(   52) = (   0.1666667   0.1666667   0.3333333), wk =   0.0277778
        k(   53) = (   0.1666667   0.1666667   0.4166667), wk =   0.0277778
        k(   54) = (   0.1666667   0.1666667  -0.5000000), wk =   0.0138889
        k(   55) = (   0.1666667   0.2500000   0.2500000), wk =   0.0277778
        k(   56) = (   0.1666667   0.2500000   0.3333333), wk =   0.0555556
        k(   57) = (   0.1666667   0.2500000   0.4166667), wk =   0.0555556
        k(   58) = (   0.1666667   0.2500000  -0.5000000), wk =   0.0277778
        k(   59) = (   0.1666667   0.3333333   0.3333333), wk =   0.0277778
        k(   60) = (   0.1666667   0.3333333   0.4166667), wk =   0.0555556
        k(   61) = (   0.1666667   0.3333333  -0.5000000), wk =   0.0277778
        k(   62) = (   0.1666667   0.4166667   0.4166667), wk =   0.0277778
        k(   63) = (   0.1666667   0.4166667  -0.5000000), wk =   0.0277778
        k(   64) = (   0.1666667  -0.5000000  -0.5000000), wk =   0.0069444
        k(   65) = (   0.2500000   0.2500000   0.2500000), wk =   0.0092593
        k(   66) = (   0.2500000   0.2500000   0.3333333), wk =   0.0277778
        k(   67) = (   0.2500000   0.2500000   0.4166667), wk =   0.0277778
        k(   68) = (   0.2500000   0.2500000  -0.5000000), wk =   0.0138889
        k(   69) = (   0.2500000   0.3333333   0.3333333), wk =   0.0277778
        k(   70) = (   0.2500000   0.3333333   0.4166667), wk =   0.0555556
        k(   71) = (   0.2500000   0.3333333  -0.5000000), wk =   0.0277778
        k(   72) = (   0.2500000   0.4166667   0.4166667), wk =   0.0277778
        k(   73) = (   0.2500000   0.4166667  -0.5000000), wk =   0.0277778
        k(   74) = (   0.2500000  -0.5000000  -0.5000000), wk =   0.0069444
        k(   75) = (   0.3333333   0.3333333   0.3333333), wk =   0.0092593
        k(   76) = (   0.3333333   0.3333333   0.4166667), wk =   0.0277778
        k(   77) = (   0.3333333   0.3333333  -0.5000000), wk =   0.0138889
        k(   78) = (   0.3333333   0.4166667   0.4166667), wk =   0.0277778
        k(   79) = (   0.3333333   0.4166667  -0.5000000), wk =   0.0277778
        k(   80) = (   0.3333333  -0.5000000  -0.5000000), wk =   0.0069444
        k(   81) = (   0.4166667   0.4166667   0.4166667), wk =   0.0092593
        k(   82) = (   0.4166667   0.4166667  -0.5000000), wk =   0.0138889
        k(   83) = (   0.4166667  -0.5000000  -0.5000000), wk =   0.0069444
        k(   84) = (  -0.5000000  -0.5000000  -0.5000000), wk =   0.0011574

     Dense  grid:    57747 G-vectors     FFT dimensions: (  48,  48,  48)

     Dynamical RAM for                 wfc:       0.51 MB

     Dynamical RAM for     wfc (w. buffer):      43.08 MB

     Dynamical RAM for           str. fact:       0.09 MB

     Dynamical RAM for           local pot:       0.00 MB

     Dynamical RAM for          nlocal pot:       0.79 MB

     Dynamical RAM for                qrad:       1.83 MB

     Dynamical RAM for          rho,v,vnew:       0.53 MB

     Dynamical RAM for               rhoin:       0.18 MB

     Dynamical RAM for            rho*nmix:       1.41 MB

     Dynamical RAM for           G-vectors:       0.37 MB

     Dynamical RAM for          h,s,v(r/c):       0.39 MB

     Dynamical RAM for          <psi|beta>:       0.05 MB

     Dynamical RAM for                 psi:       1.01 MB

     Dynamical RAM for                hpsi:       1.01 MB

     Dynamical RAM for                spsi:       1.01 MB

     Dynamical RAM for      wfcinit/wfcrot:       1.06 MB

     Dynamical RAM for           addusdens:      16.75 MB

     Estimated static dynamical RAM per process >      47.48 MB

     Estimated max dynamical RAM per process >      65.64 MB

     Estimated total dynamical RAM >     656.40 MB

     The initial density is read from file :
     ./out/Cu.save/charge-density


     starting charge      53.3261, renormalised to      76.0000
     Starting wfcs from file
     Checking if some PAW data can be deallocated... 

     total cpu time spent up to now is        1.9 secs

     Self-consistent Calculation

     iteration #  1     ecut=   130.00 Ry     beta= 0.70
     Davidson diagonalization with overlap

---- Real-time Memory Report at c_bands before calling an iterative solver
            83 MiB given to the printing process from OS
             0 MiB allocation reported by mallinfo(arena+hblkhd)
          1359 MiB available memory on the node where the printing process lives
------------------
     c_bands:  1 eigenvalues not converged
     c_bands:  1 eigenvalues not converged
     c_bands:  2 eigenvalues not converged
     c_bands:  2 eigenvalues not converged
     c_bands:  1 eigenvalues not converged
     ethr =  1.00E-05,  avg # of iterations = 14.4

     total cpu time spent up to now is      115.0 secs

     total energy              =   -1844.40969541 Ry
     estimated scf accuracy    <     179.91737560 Ry

     iteration #  2     ecut=   130.00 Ry     beta= 0.70
     Davidson diagonalization with overlap

---- Real-time Memory Report at c_bands before calling an iterative solver
           102 MiB given to the printing process from OS
             0 MiB allocation reported by mallinfo(arena+hblkhd)
          1159 MiB available memory on the node where the printing process lives
------------------
     ethr =  1.00E-02,  avg # of iterations =  6.0

     total cpu time spent up to now is      173.0 secs

     total energy              =   -1936.03526969 Ry
     estimated scf accuracy    <     190.89764717 Ry

     iteration #  3     ecut=   130.00 Ry     beta= 0.70
     Davidson diagonalization with overlap

---- Real-time Memory Report at c_bands before calling an iterative solver
           102 MiB given to the printing process from OS
             0 MiB allocation reported by mallinfo(arena+hblkhd)
          1168 MiB available memory on the node where the printing process lives
------------------
     ethr =  1.00E-02,  avg # of iterations =  2.5

     total cpu time spent up to now is      210.0 secs

     total energy              =   -1954.16628327 Ry
     estimated scf accuracy    <      19.21318610 Ry

     iteration #  4     ecut=   130.00 Ry     beta= 0.70
     Davidson diagonalization with overlap

---- Real-time Memory Report at c_bands before calling an iterative solver
           103 MiB given to the printing process from OS
             0 MiB allocation reported by mallinfo(arena+hblkhd)
          1163 MiB available memory on the node where the printing process lives
------------------
     ethr =  1.00E-02,  avg # of iterations =  1.0

     total cpu time spent up to now is      233.3 secs

     total energy              =   -1938.46282258 Ry
     estimated scf accuracy    <      18.96139354 Ry

     iteration #  5     ecut=   130.00 Ry     beta= 0.70
     Davidson diagonalization with overlap

---- Real-time Memory Report at c_bands before calling an iterative solver
           103 MiB given to the printing process from OS
             0 MiB allocation reported by mallinfo(arena+hblkhd)
          1155 MiB available memory on the node where the printing process lives
------------------
     ethr =  1.00E-02,  avg # of iterations =  4.1

     total cpu time spent up to now is      275.6 secs

     total energy              =   -1934.52854482 Ry
     estimated scf accuracy    <     107.80536939 Ry

     iteration #  6     ecut=   130.00 Ry     beta= 0.70
     Davidson diagonalization with overlap

---- Real-time Memory Report at c_bands before calling an iterative solver
           103 MiB given to the printing process from OS
             0 MiB allocation reported by mallinfo(arena+hblkhd)
          1133 MiB available memory on the node where the printing process lives
------------------
     ethr =  1.00E-02,  avg # of iterations =  3.5

     total cpu time spent up to now is      319.3 secs

     total energy              =   -1949.19062734 Ry
     estimated scf accuracy    <       2.68465637 Ry

     iteration #  7     ecut=   130.00 Ry     beta= 0.70
     Davidson diagonalization with overlap

---- Real-time Memory Report at c_bands before calling an iterative solver
           103 MiB given to the printing process from OS
             0 MiB allocation reported by mallinfo(arena+hblkhd)
          1125 MiB available memory on the node where the printing process lives
------------------
     ethr =  3.53E-03,  avg # of iterations =  2.0

     total cpu time spent up to now is      347.5 secs

     total energy              =   -1949.46700066 Ry
     estimated scf accuracy    <       7.95222230 Ry

     iteration #  8     ecut=   130.00 Ry     beta= 0.70
     Davidson diagonalization with overlap

---- Real-time Memory Report at c_bands before calling an iterative solver
           104 MiB given to the printing process from OS
             0 MiB allocation reported by mallinfo(arena+hblkhd)
          1125 MiB available memory on the node where the printing process lives
------------------
     ethr =  3.53E-03,  avg # of iterations =  1.0

     total cpu time spent up to now is      371.0 secs

     total energy              =   -1949.45638810 Ry
     estimated scf accuracy    <       7.59357347 Ry

     iteration #  9     ecut=   130.00 Ry     beta= 0.70
     Davidson diagonalization with overlap

---- Real-time Memory Report at c_bands before calling an iterative solver
           104 MiB given to the printing process from OS
             0 MiB allocation reported by mallinfo(arena+hblkhd)
          1122 MiB available memory on the node where the printing process lives
------------------
     ethr =  3.53E-03,  avg # of iterations =  1.1

     total cpu time spent up to now is      393.4 secs

     total energy              =   -1949.51352603 Ry
     estimated scf accuracy    <       7.73347461 Ry

     iteration # 10     ecut=   130.00 Ry     beta= 0.70
     Davidson diagonalization with overlap

---- Real-time Memory Report at c_bands before calling an iterative solver
           104 MiB given to the printing process from OS
             0 MiB allocation reported by mallinfo(arena+hblkhd)
          1127 MiB available memory on the node where the printing process lives
------------------
     ethr =  3.53E-03,  avg # of iterations =  1.1

     total cpu time spent up to now is      417.0 secs

     total energy              =   -1948.74023333 Ry
     estimated scf accuracy    <       9.32779681 Ry

     iteration # 11     ecut=   130.00 Ry     beta= 0.70
     Davidson diagonalization with overlap

---- Real-time Memory Report at c_bands before calling an iterative solver
           104 MiB given to the printing process from OS
             0 MiB allocation reported by mallinfo(arena+hblkhd)
          1084 MiB available memory on the node where the printing process lives
------------------
     ethr =  3.53E-03,  avg # of iterations =  1.0

     total cpu time spent up to now is      439.2 secs

     total energy              =   -1948.81215431 Ry
     estimated scf accuracy    <       5.63828727 Ry

     iteration # 12     ecut=   130.00 Ry     beta= 0.70
     Davidson diagonalization with overlap

---- Real-time Memory Report at c_bands before calling an iterative solver
           104 MiB given to the printing process from OS
             0 MiB allocation reported by mallinfo(arena+hblkhd)
          1115 MiB available memory on the node where the printing process lives
------------------
     ethr =  3.53E-03,  avg # of iterations =  1.0

     total cpu time spent up to now is      464.1 secs

     total energy              =   -1945.84761438 Ry
     estimated scf accuracy    <       5.83323027 Ry

     iteration # 13     ecut=   130.00 Ry     beta= 0.70
     Davidson diagonalization with overlap

---- Real-time Memory Report at c_bands before calling an iterative solver
           104 MiB given to the printing process from OS
             0 MiB allocation reported by mallinfo(arena+hblkhd)
          1119 MiB available memory on the node where the printing process lives
------------------
     ethr =  3.53E-03,  avg # of iterations =  2.2

     total cpu time spent up to now is      498.9 secs

     total energy              =   -1947.42489737 Ry
     estimated scf accuracy    <       1.62362514 Ry

     iteration # 14     ecut=   130.00 Ry     beta= 0.70
     Davidson diagonalization with overlap

---- Real-time Memory Report at c_bands before calling an iterative solver
           104 MiB given to the printing process from OS
             0 MiB allocation reported by mallinfo(arena+hblkhd)
          1109 MiB available memory on the node where the printing process lives
------------------
     ethr =  2.14E-03,  avg # of iterations =  1.4

     total cpu time spent up to now is      524.3 secs

     total energy              =   -1947.51605242 Ry
     estimated scf accuracy    <       0.14885606 Ry

     iteration # 15     ecut=   130.00 Ry     beta= 0.70
     Davidson diagonalization with overlap

---- Real-time Memory Report at c_bands before calling an iterative solver
           104 MiB given to the printing process from OS
             0 MiB allocation reported by mallinfo(arena+hblkhd)
          1104 MiB available memory on the node where the printing process lives
------------------
     ethr =  1.96E-04,  avg # of iterations =  2.4

     total cpu time spent up to now is      554.1 secs

     total energy              =   -1947.52997402 Ry
     estimated scf accuracy    <       0.00850231 Ry

     iteration # 16     ecut=   130.00 Ry     beta= 0.70
     Davidson diagonalization with overlap

---- Real-time Memory Report at c_bands before calling an iterative solver
           104 MiB given to the printing process from OS
             0 MiB allocation reported by mallinfo(arena+hblkhd)
          1095 MiB available memory on the node where the printing process lives
------------------
     ethr =  1.12E-05,  avg # of iterations =  2.0

     total cpu time spent up to now is      581.0 secs

     total energy              =   -1947.52808946 Ry
     estimated scf accuracy    <       0.00587990 Ry

     iteration # 17     ecut=   130.00 Ry     beta= 0.70
     Davidson diagonalization with overlap

---- Real-time Memory Report at c_bands before calling an iterative solver
           104 MiB given to the printing process from OS
             0 MiB allocation reported by mallinfo(arena+hblkhd)
          1087 MiB available memory on the node where the printing process lives
------------------
     ethr =  7.74E-06,  avg # of iterations =  2.0

     total cpu time spent up to now is      609.7 secs

     total energy              =   -1947.52905636 Ry
     estimated scf accuracy    <       0.00052900 Ry

     iteration # 18     ecut=   130.00 Ry     beta= 0.70
     Davidson diagonalization with overlap

---- Real-time Memory Report at c_bands before calling an iterative solver
           104 MiB given to the printing process from OS
             0 MiB allocation reported by mallinfo(arena+hblkhd)
          1101 MiB available memory on the node where the printing process lives
------------------
     ethr =  6.96E-07,  avg # of iterations =  2.0

     total cpu time spent up to now is      642.7 secs

     total energy              =   -1947.52916829 Ry
     estimated scf accuracy    <       0.00029976 Ry

     iteration # 19     ecut=   130.00 Ry     beta= 0.70
     Davidson diagonalization with overlap

---- Real-time Memory Report at c_bands before calling an iterative solver
           104 MiB given to the printing process from OS
             0 MiB allocation reported by mallinfo(arena+hblkhd)
          1102 MiB available memory on the node where the printing process lives
------------------
     ethr =  3.94E-07,  avg # of iterations =  1.0

     total cpu time spent up to now is      666.0 secs

     total energy              =   -1947.52898120 Ry
     estimated scf accuracy    <       0.00062625 Ry

     iteration # 20     ecut=   130.00 Ry     beta= 0.70
     Davidson diagonalization with overlap

---- Real-time Memory Report at c_bands before calling an iterative solver
           104 MiB given to the printing process from OS
             0 MiB allocation reported by mallinfo(arena+hblkhd)
          1111 MiB available memory on the node where the printing process lives
------------------
     ethr =  3.94E-07,  avg # of iterations =  2.0

     total cpu time spent up to now is      696.1 secs

     total energy              =   -1947.52906929 Ry
     estimated scf accuracy    <       0.00000083 Ry

     iteration # 21     ecut=   130.00 Ry     beta= 0.70
     Davidson diagonalization with overlap

---- Real-time Memory Report at c_bands before calling an iterative solver
           104 MiB given to the printing process from OS
             0 MiB allocation reported by mallinfo(arena+hblkhd)
          1109 MiB available memory on the node where the printing process lives
------------------
     ethr =  1.09E-09,  avg # of iterations =  3.3

     total cpu time spent up to now is      732.9 secs

     total energy              =   -1947.52906972 Ry
     estimated scf accuracy    <       0.00000106 Ry

     iteration # 22     ecut=   130.00 Ry     beta= 0.70
     Davidson diagonalization with overlap

---- Real-time Memory Report at c_bands before calling an iterative solver
           104 MiB given to the printing process from OS
             0 MiB allocation reported by mallinfo(arena+hblkhd)
          1100 MiB available memory on the node where the printing process lives
------------------
     ethr =  1.09E-09,  avg # of iterations =  1.9

     total cpu time spent up to now is      760.9 secs

     total energy              =   -1947.52906982 Ry
     estimated scf accuracy    <       0.00000005 Ry

     iteration # 23     ecut=   130.00 Ry     beta= 0.70
     Davidson diagonalization with overlap

---- Real-time Memory Report at c_bands before calling an iterative solver
           104 MiB given to the printing process from OS
             0 MiB allocation reported by mallinfo(arena+hblkhd)
          1113 MiB available memory on the node where the printing process lives
------------------
     ethr =  6.11E-11,  avg # of iterations =  2.0

     total cpu time spent up to now is      790.8 secs

     End of self-consistent calculation

          k = 0.0000 0.0000 0.0000 (  7123 PWs)   bands (ev):

   -94.4174 -94.3875 -94.3875 -94.3875 -51.8523 -51.8523 -51.8523 -51.7623
   -51.7623 -51.7623 -51.7623 -51.7623 -51.7623 -51.7024 -51.7024 -51.7024
     8.2295  12.9243  12.9243  12.9243  13.4655  13.4655  13.4655  15.1150
    15.1150  15.1150  16.0880  16.0880  16.7370  16.7370  16.7370  16.9273
    16.9273  16.9273  16.9273  16.9273  16.9273  19.8308  19.8308  19.8308
    26.2575  26.2575  26.2575  32.3173  32.3173  32.3173

     occupation numbers 
     1.0000   1.0000   1.0000   1.0000   1.0000   1.0000   1.0000   1.0000
     1.0000   1.0000   1.0000   1.0000   1.0000   1.0000   1.0000   1.0000
     1.0000   1.0000   1.0000   1.0000   1.0000   1.0000   1.0000   1.0000
     1.0000   1.0000   1.0000   1.0000   1.0000   1.0000   1.0000   1.0000
     1.0000   1.0000   1.0000   1.0000   1.0000   0.0000   0.0000   0.0000
     0.0000   0.0000   0.0000   0.0000   0.0000   0.0000

          k = 0.0000 0.0000 0.0833 (  7156 PWs)   bands (ev):

   -94.4169 -94.3880 -94.3875 -94.3875 -51.8508 -51.8508 -51.8499 -51.7639
   -51.7639 -51.7624 -51.7624 -51.7613 -51.7613 -51.7050 -51.7034 -51.7034
     8.3206  12.9252  12.9694  12.9694  13.4918  13.4933  13.4933  15.0849
    15.1384  15.1384  16.0607  16.0987  16.7016  16.7016  16.7256  16.7373
    16.7373  16.8857  16.8857  16.9273  16.9273  19.3169  20.0995  20.0995
    26.2853  26.2853  26.9423  31.7303  31.7303  31.9574

     occupation numbers 
     1.0000   1.0000   1.0000   1.0000   1.0000   1.0000   1.0000   1.0000
     1.0000   1.0000   1.0000   1.0000   1.0000   1.0000   1.0000   1.0000
     1.0000   1.0000   1.0000   1.0000   1.0000   1.0000   1.0000   1.0000
     1.0000   1.0000   1.0000   1.0000   1.0000   1.0000   1.0000   1.0000
     1.0000   1.0000   1.0000   1.0000   1.0000   0.0000   0.0000   0.0000
     0.0000   0.0000   0.0000   0.0000   0.0000   0.0000

          k = 0.0000 0.0000 0.1667 (  7188 PWs)   bands (ev):

   -94.4154 -94.3895 -94.3875 -94.3875 -51.8463 -51.8463 -51.8426 -51.7684
   -51.7684 -51.7626 -51.7626 -51.7583 -51.7583 -51.7128 -51.7064 -51.7064
     8.5918  12.9099  13.0985  13.0985  13.5691  13.5770  13.5770  14.9970
    15.2082  15.2082  15.9819  16.1304  16.3049  16.3049  16.5989  16.5989
    16.6924  16.7669  16.7669  16.9275  16.9275  18.2071  20.7677  20.7677
    26.3716  26.3716  28.5775  30.4913  30.4913  31.1129

     occupation numbers 
     1.0000   1.0000   1.0000   1.0000   1.0000   1.0000   1.0000   1.0000
     1.0000   1.0000   1.0000   1.0000   1.0000   1.0000   1.0000   1.0000
     1.0000   1.0000   1.0000   1.0000   1.0000   1.0000   1.0000   1.0000
     1.0000   1.0000   1.0000   1.0000   1.0000   1.0000   1.0000   1.0000
     1.0000   1.0000   1.0000   1.0000   1.0000   1.0000   0.0000   0.0000
     0.0000   0.0000   0.0000   0.0000   0.0000   0.0000

          k = 0.0000 0.0000 0.2500 (  7196 PWs)   bands (ev):

   -94.4130 -94.3919 -94.3875 -94.3875 -51.8392 -51.8392 -51.8309 -51.7756
   -51.7756 -51.7629 -51.7629 -51.7536 -51.7536 -51.7250 -51.7112 -51.7112
     9.0359  12.8160  13.2917  13.2917  13.6932  13.7178  13.7178  14.8586
    15.3226  15.3226  15.8061  15.8061  15.8617  16.1809  16.4412  16.4412
    16.5868  16.5868  16.6397  16.9277  16.9277  17.0466  21.6577  21.6577
    26.5241  26.5241  29.0931  29.0931  30.1356  30.1356

     occupation numbers 
     1.0000   1.0000   1.0000   1.0000   1.0000   1.0000   1.0000   1.0000
     1.0000   1.0000   1.0000   1.0000   1.0000   1.0000   1.0000   1.0000
     1.0000   1.0000   1.0000   1.0000   1.0000   1.0000   1.0000   1.0000
     1.0000   1.0000   1.0000   1.0000   1.0000   1.0000   1.0000   1.0000
     1.0000   1.0000   1.0000   1.0000   1.0000   1.0000   0.0000   0.0000
     0.0000   0.0000   0.0000   0.0000   0.0000   0.0000

          k = 0.0000 0.0000 0.3333 (  7232 PWs)   bands (ev):

   -94.4099 -94.3950 -94.3875 -94.3875 -51.8299 -51.8299 -51.8157 -51.7849
   -51.7849 -51.7631 -51.7631 -51.7474 -51.7474 -51.7407 -51.7174 -51.7174
     9.6381  12.5268  13.5112  13.5112  13.8568  13.9174  13.9174  14.6807
    15.3215  15.3215  15.4786  15.4786  15.7192  16.1470  16.2470  16.2564
    16.2564  16.3666  16.3666  16.5714  16.9280  16.9280  22.6861  22.6861
    26.7519  26.7519  27.6904  27.6904  29.2258  29.2258

     occupation numbers 
     1.0000   1.0000   1.0000   1.0000   1.0000   1.0000   1.0000   1.0000
     1.0000   1.0000   1.0000   1.0000   1.0000   1.0000   1.0000   1.0000
     1.0000   1.0000   1.0000   1.0000   1.0000   1.0000   1.0000   1.0000
     1.0000   1.0000   1.0000   1.0000   1.0000   1.0000   1.0000   1.0000
     1.0000   1.0000   1.0000   1.0000   1.0000   1.0000   0.0000   0.0000
     0.0000   0.0000   0.0000   0.0000   0.0000   0.0000

          k = 0.0000 0.0000 0.4167 (  7200 PWs)   bands (ev):

   -94.4063 -94.3986 -94.3875 -94.3875 -51.8190 -51.8190 -51.7978 -51.7957
   -51.7957 -51.7632 -51.7632 -51.7590 -51.7402 -51.7402 -51.7246 -51.7246
    10.3708  11.9527  13.6963  13.6963  14.0503  14.1775  14.1775  14.4767
    14.8819  14.8819  15.5887  15.6638  15.6707  15.6707  16.0962  16.0962
    16.1282  16.1282  16.3244  16.4923  16.9282  16.9282  23.8184  23.8184
    26.3319  26.3319  27.0467  27.0467  28.4922  28.4922

     occupation numbers 
     1.0000   1.0000   1.0000   1.0000   1.0000   1.0000   1.0000   1.0000
     1.0000   1.0000   1.0000   1.0000   1.0000   1.0000   1.0000   1.0000
     1.0000   1.0000   1.0000   1.0000   1.0000   1.0000   1.0000   1.0000
     1.0000   1.0000   1.0000   1.0000   1.0000   1.0000   1.0000   1.0000
     1.0000   1.0000   1.0000   1.0000   1.0000   1.0000   0.0000   0.0000
     0.0000   0.0000   0.0000   0.0000   0.0000   0.0000

          k = 0.0000 0.0000-0.5000 (  7224 PWs)   bands (ev):

   -94.4024 -94.4024 -94.3875 -94.3875 -51.8074 -51.8074 -51.8074 -51.8074
   -51.7785 -51.7785 -51.7633 -51.7633 -51.7324 -51.7324 -51.7324 -51.7324
    11.1789  11.1789  13.7714  13.7714  14.2616  14.2616  14.4992  14.4992
    14.4992  14.4992  15.5321  15.5321  15.8911  15.8911  15.8911  15.8911
    16.0301  16.0301  16.4081  16.4081  16.9282  16.9282  25.0374  25.0374
    25.0374  25.0374  27.2516  27.2516  28.1365  28.1365

     occupation numbers 
     1.0000   1.0000   1.0000   1.0000   1.0000   1.0000   1.0000   1.0000
     1.0000   1.0000   1.0000   1.0000   1.0000   1.0000   1.0000   1.0000
     1.0000   1.0000   1.0000   1.0000   1.0000   1.0000   1.0000   1.0000
     1.0000   1.0000   1.0000   1.0000   1.0000   1.0000   1.0000   1.0000
     1.0000   1.0000   1.0000   1.0000   1.0000   1.0000   0.0000   0.0000
     0.0000   0.0000   0.0000   0.0000   0.0000   0.0000

          k = 0.0000 0.0833 0.0833 (  7171 PWs)   bands (ev):

   -94.4164 -94.3880 -94.3880 -94.3875 -51.8493 -51.8485 -51.8485 -51.7670
   -51.7629 -51.7628 -51.7613 -51.7613 -51.7609 -51.7090 -51.7044 -51.7030
     8.4113  12.9713  12.9713  13.0135  13.5190  13.5190  13.5200  15.0676
    15.1496  15.1594  16.0531  16.0923  16.5991  16.6422  16.6422  16.6678
    16.7331  16.7331  16.8856  16.8856  16.9009  19.5851  19.5851  20.3432
    26.3125  26.9814  26.9814  30.5591  31.8574  31.8574

     occupation numbers 
     1.0000   1.0000   1.0000   1.0000   1.0000   1.0000   1.0000   1.0000
     1.0000   1.0000   1.0000   1.0000   1.0000   1.0000   1.0000   1.0000
     1.0000   1.0000   1.0000   1.0000   1.0000   1.0000   1.0000   1.0000
     1.0000   1.0000   1.0000   1.0000   1.0000   1.0000   1.0000   1.0000
     1.0000   1.0000   1.0000   1.0000   1.0000   0.0000   0.0000   0.0000
     0.0000   0.0000   0.0000   0.0000   0.0000   0.0000

          k = 0.0000 0.0833 0.1667 (  7196 PWs)   bands (ev):

   -94.4149 -94.3895 -94.3880 -94.3875 -51.8448 -51.8444 -51.8416 -51.7723
   -51.7673 -51.7614 -51.7599 -51.7598 -51.7582 -51.7176 -51.7075 -51.7049
     8.6812  12.9591  13.1034  13.1399  13.5948  13.6006  13.6012  14.9884
    15.2127  15.2215  15.9849  16.1211  16.2231  16.2249  16.4837  16.5694
    16.6071  16.6981  16.7666  16.8855  16.8865  18.5034  20.2274  20.9699
    26.3943  27.1022  28.6300  29.1595  30.6086  32.2307

     occupation numbers 
     1.0000   1.0000   1.0000   1.0000   1.0000   1.0000   1.0000   1.0000
     1.0000   1.0000   1.0000   1.0000   1.0000   1.0000   1.0000   1.0000
     1.0000   1.0000   1.0000   1.0000   1.0000   1.0000   1.0000   1.0000
     1.0000   1.0000   1.0000   1.0000   1.0000   1.0000   1.0000   1.0000
     1.0000   1.0000   1.0000   1.0000   1.0000   0.0672   0.0000   0.0000
     0.0000   0.0000   0.0000   0.0000   0.0000   0.0000

          k = 0.0000 0.0833 0.2500 (  7201 PWs)   bands (ev):

   -94.4126 -94.3918 -94.3879 -94.3876 -51.8380 -51.8377 -51.8307 -51.7796
   -51.7745 -51.7613 -51.7597 -51.7550 -51.7531 -51.7298 -51.7123 -51.7092
     9.1230  12.8702  13.3016  13.3294  13.7164  13.7350  13.7393  14.8550
    15.3196  15.3251  15.7303  15.7603  15.8750  16.1777  16.2077  16.4179
    16.4493  16.5862  16.6281  16.8831  16.8852  17.4494  21.0538  21.8282
    26.5153  27.3135  27.8205  29.2069  30.2425  30.7184

     occupation numbers 
     1.0000   1.0000   1.0000   1.0000   1.0000   1.0000   1.0000   1.0000
     1.0000   1.0000   1.0000   1.0000   1.0000   1.0000   1.0000   1.0000
     1.0000   1.0000   1.0000   1.0000   1.0000   1.0000   1.0000   1.0000
     1.0000   1.0000   1.0000   1.0000   1.0000   1.0000   1.0000   1.0000
     1.0000   1.0000   1.0000   1.0000   1.0000   1.0000   0.0000   0.0000
     0.0000   0.0000   0.0000   0.0000   0.0000   0.0000

          k = 0.0000 0.0833 0.3333 (  7212 PWs)   bands (ev):

   -94.4095 -94.3948 -94.3879 -94.3876 -51.8295 -51.8285 -51.8163 -51.7885
   -51.7837 -51.7612 -51.7598 -51.7488 -51.7466 -51.7451 -51.7185 -51.7154
     9.7219  12.5872  13.5284  13.5473  13.8767  13.9221  13.9349  14.6819
    15.2551  15.2989  15.4316  15.4799  15.7673  15.8112  16.2403  16.2531
    16.2649  16.3659  16.4909  16.7922  16.8825  16.8848  21.9840  22.8352
    26.2620  27.0215  27.6195  27.8049  29.3321  30.5661

     occupation numbers 
     1.0000   1.0000   1.0000   1.0000   1.0000   1.0000   1.0000   1.0000
     1.0000   1.0000   1.0000   1.0000   1.0000   1.0000   1.0000   1.0000
     1.0000   1.0000   1.0000   1.0000   1.0000   1.0000   1.0000   1.0000
     1.0000   1.0000   1.0000   1.0000   1.0000   1.0000   1.0000   1.0000
     1.0000   1.0000   1.0000   1.0000   1.0000   1.0000   0.0000   0.0000
     0.0000   0.0000   0.0000   0.0000   0.0000   0.0000

          k = 0.0000 0.0833 0.4167 (  7217 PWs)   bands (ev):

   -94.4060 -94.3984 -94.3878 -94.3877 -51.8197 -51.8177 -51.7994 -51.7985
   -51.7945 -51.7626 -51.7609 -51.7602 -51.7415 -51.7390 -51.7258 -51.7228
    10.4500  12.0195  13.7230  13.7341  14.0661  14.1615  14.1893  14.4828
    14.8282  14.8749  15.4613  15.5048  15.6712  15.7872  16.0878  16.1023
    16.1277  16.2268  16.3428  16.5612  16.8829  16.8843  22.9866  23.9529
    25.1668  26.4500  27.2528  27.9240  28.6967  29.6604

     occupation numbers 
     1.0000   1.0000   1.0000   1.0000   1.0000   1.0000   1.0000   1.0000
     1.0000   1.0000   1.0000   1.0000   1.0000   1.0000   1.0000   1.0000
     1.0000   1.0000   1.0000   1.0000   1.0000   1.0000   1.0000   1.0000
     1.0000   1.0000   1.0000   1.0000   1.0000   1.0000   1.0000   1.0000
     1.0000   1.0000   1.0000   1.0000   1.0000   1.0000   0.0000   0.0000
     0.0000   0.0000   0.0000   0.0000   0.0000   0.0000

          k = 0.0000 0.0833-0.5000 (  7216 PWs)   bands (ev):

   -94.4022 -94.4022 -94.3877 -94.3877 -51.8091 -51.8091 -51.8061 -51.8061
   -51.7811 -51.7811 -51.7606 -51.7606 -51.7337 -51.7337 -51.7308 -51.7308
    11.2522  11.2522  13.8068  13.8068  14.2727  14.2727  14.4618  14.4618
    14.5031  14.5031  15.4237  15.4237  15.8910  15.8910  15.9720  15.9720
    16.0299  16.0299  16.4435  16.4435  16.8836  16.8836  24.0495  24.0495
    25.1620  25.1620  27.6767  27.6767  28.9290  28.9290

     occupation numbers 
     1.0000   1.0000   1.0000   1.0000   1.0000   1.0000   1.0000   1.0000
     1.0000   1.0000   1.0000   1.0000   1.0000   1.0000   1.0000   1.0000
     1.0000   1.0000   1.0000   1.0000   1.0000   1.0000   1.0000   1.0000
     1.0000   1.0000   1.0000   1.0000   1.0000   1.0000   1.0000   1.0000
     1.0000   1.0000   1.0000   1.0000   1.0000   1.0000   0.0000   0.0000
     0.0000   0.0000   0.0000   0.0000   0.0000   0.0000

          k = 0.0000 0.1667 0.1667 (  7213 PWs)   bands (ev):

   -94.4135 -94.3894 -94.3894 -94.3876 -51.8405 -51.8388 -51.8388 -51.7792
   -51.7643 -51.7642 -51.7577 -51.7577 -51.7567 -51.7274 -51.7106 -51.7048
     8.9471  13.1004  13.1004  13.2581  13.6713  13.6723  13.6723  14.9398
    15.2506  15.2601  15.9601  15.9771  16.0187  16.0187  16.1303  16.4830
    16.5979  16.5979  16.7657  16.7657  16.8225  19.1281  19.1281  21.5176
    26.4299  27.6768  28.7884  28.7884  30.9528  30.9528

     occupation numbers 
     1.0000   1.0000   1.0000   1.0000   1.0000   1.0000   1.0000   1.0000
     1.0000   1.0000   1.0000   1.0000   1.0000   1.0000   1.0000   1.0000
     1.0000   1.0000   1.0000   1.0000   1.0000   1.0000   1.0000   1.0000
     1.0000   1.0000   1.0000   1.0000   1.0000   1.0000   1.0000   1.0000
     1.0000   1.0000   1.0000   1.0000   1.0000   0.0000   0.0000   0.0000
     0.0000   0.0000   0.0000   0.0000   0.0000   0.0000

          k = 0.0000 0.1667 0.2500 (  7219 PWs)   bands (ev):

   -94.4113 -94.3916 -94.3892 -94.3878 -51.8343 -51.8335 -51.8298 -51.7871
   -51.7713 -51.7593 -51.7569 -51.7546 -51.7519 -51.7401 -51.7155 -51.7074
     9.3819  13.0267  13.3141  13.4366  13.7862  13.7873  13.8023  14.8327
    15.3159  15.3453  15.5335  15.6197  15.7244  15.8826  16.1970  16.3486
    16.4479  16.5398  16.5848  16.7644  16.7854  18.0610  19.8740  22.3063
    25.9337  26.9114  29.0459  29.5409  30.5770  30.8631

     occupation numbers 
     1.0000   1.0000   1.0000   1.0000   1.0000   1.0000   1.0000   1.0000
     1.0000   1.0000   1.0000   1.0000   1.0000   1.0000   1.0000   1.0000
     1.0000   1.0000   1.0000   1.0000   1.0000   1.0000   1.0000   1.0000
     1.0000   1.0000   1.0000   1.0000   1.0000   1.0000   1.0000   1.0000
     1.0000   1.0000   1.0000   1.0000   1.0000   1.0000   0.0000   0.0000
     0.0000   0.0000   0.0000   0.0000   0.0000   0.0000

          k = 0.0000 0.1667 0.3333 (  7201 PWs)   bands (ev):

   -94.4084 -94.3945 -94.3890 -94.3880 -51.8283 -51.8244 -51.8177 -51.7956
   -51.7804 -51.7559 -51.7550 -51.7535 -51.7529 -51.7445 -51.7219 -51.7124
     9.9703  12.7620  13.5635  13.6483  13.9362  13.9389  13.9858  14.6797
    15.0847  15.2286  15.3566  15.4197  15.4907  15.8169  16.1903  16.2685
    16.3022  16.3645  16.4173  16.7629  16.7689  17.2896  20.6910  23.2617
    24.7317  27.0795  28.1404  29.2096  29.8580  32.2291

     occupation numbers 
     1.0000   1.0000   1.0000   1.0000   1.0000   1.0000   1.0000   1.0000
     1.0000   1.0000   1.0000   1.0000   1.0000   1.0000   1.0000   1.0000
     1.0000   1.0000   1.0000   1.0000   1.0000   1.0000   1.0000   1.0000
     1.0000   1.0000   1.0000   1.0000   1.0000   1.0000   1.0000   1.0000
     1.0000   1.0000   1.0000   1.0000   1.0000   1.0000   0.0000   0.0000
     0.0000   0.0000   0.0000   0.0000   0.0000   0.0000

          k = 0.0000 0.1667 0.4167 (  7204 PWs)   bands (ev):

   -94.4050 -94.3978 -94.3887 -94.3882 -51.8210 -51.8137 -51.8044 -51.8034
   -51.7910 -51.7711 -51.7548 -51.7534 -51.7454 -51.7361 -51.7294 -51.7193
    10.6839  12.2139  13.7884  13.8424  14.1128  14.1165  14.2232  14.4985
    14.6898  14.8521  15.2497  15.3227  15.6765  15.8581  16.0576  16.1039
    16.1273  16.2261  16.4352  16.7615  16.7625  16.8468  21.5721  23.5770
    24.3424  26.7956  27.4476  28.6106  30.1821  31.6859

     occupation numbers 
     1.0000   1.0000   1.0000   1.0000   1.0000   1.0000   1.0000   1.0000
     1.0000   1.0000   1.0000   1.0000   1.0000   1.0000   1.0000   1.0000
     1.0000   1.0000   1.0000   1.0000   1.0000   1.0000   1.0000   1.0000
     1.0000   1.0000   1.0000   1.0000   1.0000   1.0000   1.0000   1.0000
     1.0000   1.0000   1.0000   1.0000   1.0000   1.0000   0.0000   0.0000
     0.0000   0.0000   0.0000   0.0000   0.0000   0.0000

          k = 0.0000 0.1667-0.5000 (  7224 PWs)   bands (ev):

   -94.4014 -94.4014 -94.3885 -94.3885 -51.8130 -51.8130 -51.8024 -51.8024
   -51.7876 -51.7876 -51.7539 -51.7539 -51.7374 -51.7374 -51.7275 -51.7275
    11.4674  11.4674  13.9050  13.9050  14.3047  14.3047  14.3603  14.3603
    14.5134  14.5134  15.2489  15.2489  15.8927  15.8927  16.0151  16.0151
    16.0189  16.0189  16.6022  16.6022  16.7609  16.7609  22.5280  22.5280
    25.5253  25.5253  27.9605  27.9605  30.8616  30.8616

     occupation numbers 
     1.0000   1.0000   1.0000   1.0000   1.0000   1.0000   1.0000   1.0000
     1.0000   1.0000   1.0000   1.0000   1.0000   1.0000   1.0000   1.0000
     1.0000   1.0000   1.0000   1.0000   1.0000   1.0000   1.0000   1.0000
     1.0000   1.0000   1.0000   1.0000   1.0000   1.0000   1.0000   1.0000
     1.0000   1.0000   1.0000   1.0000   1.0000   1.0000   0.0000   0.0000
     0.0000   0.0000   0.0000   0.0000   0.0000   0.0000

          k = 0.0000 0.2500 0.2500 (  7211 PWs)   bands (ev):

   -94.4093 -94.3912 -94.3912 -94.3881 -51.8281 -51.8281 -51.8267 -51.7953
   -51.7662 -51.7662 -51.7530 -51.7503 -51.7502 -51.7502 -51.7206 -51.7079
     9.8042  13.2656  13.2656  13.5963  13.8739  13.9029  13.9029  14.7696
    15.2790  15.2790  15.3151  15.3911  15.4093  15.8398  16.2381  16.2863
    16.4003  16.4003  16.5829  16.5829  16.6947  18.7273  18.7273  23.0232
    24.5559  27.0171  30.0751  30.0751  30.7643  30.7643

     occupation numbers 
     1.0000   1.0000   1.0000   1.0000   1.0000   1.0000   1.0000   1.0000
     1.0000   1.0000   1.0000   1.0000   1.0000   1.0000   1.0000   1.0000
     1.0000   1.0000   1.0000   1.0000   1.0000   1.0000   1.0000   1.0000
     1.0000   1.0000   1.0000   1.0000   1.0000   1.0000   1.0000   1.0000
     1.0000   1.0000   1.0000   1.0000   1.0000   0.0000   0.0000   0.0000
     0.0000   0.0000   0.0000   0.0000   0.0000   0.0000

          k = 0.0000 0.2500 0.3333 (  7218 PWs)   bands (ev):

   -94.4066 -94.3939 -94.3908 -94.3886 -51.8254 -51.8194 -51.8178 -51.8032
   -51.7750 -51.7672 -51.7595 -51.7482 -51.7474 -51.7419 -51.7273 -51.7111
    10.3738  13.0304  13.5505  13.7880  13.9794  14.0346  14.0664  14.6596
    14.8845  15.0716  15.1072  15.2953  15.5287  15.7907  16.1051  16.2304
    16.2887  16.3637  16.4368  16.5816  16.6357  17.8380  19.4453  23.2560
    23.9186  27.3095  28.6770  29.8963  30.7834  31.5765

     occupation numbers 
     1.0000   1.0000   1.0000   1.0000   1.0000   1.0000   1.0000   1.0000
     1.0000   1.0000   1.0000   1.0000   1.0000   1.0000   1.0000   1.0000
     1.0000   1.0000   1.0000   1.0000   1.0000   1.0000   1.0000   1.0000
     1.0000   1.0000   1.0000   1.0000   1.0000   1.0000   1.0000   1.0000
     1.0000   1.0000   1.0000   1.0000   1.0000   1.0000   0.0000   0.0000
     0.0000   0.0000   0.0000   0.0000   0.0000   0.0000

          k = 0.0000 0.2500 0.4167 (  7235 PWs)   bands (ev):

   -94.4035 -94.3969 -94.3902 -94.3891 -51.8216 -51.8104 -51.8085 -51.8075
   -51.7854 -51.7817 -51.7517 -51.7466 -51.7459 -51.7350 -51.7330 -51.7168
    11.0605  12.5159  13.8232  13.9999  14.0546  14.1884  14.2754  14.5152
    14.5432  14.8088  15.0174  15.2157  15.6971  15.8196  15.9957  16.0690
    16.1213  16.1299  16.5824  16.6035  16.6318  17.2507  20.2300  22.1082
    24.9527  27.3466  27.7356  29.0293  31.6395  32.4090

     occupation numbers 
     1.0000   1.0000   1.0000   1.0000   1.0000   1.0000   1.0000   1.0000
     1.0000   1.0000   1.0000   1.0000   1.0000   1.0000   1.0000   1.0000
     1.0000   1.0000   1.0000   1.0000   1.0000   1.0000   1.0000   1.0000
     1.0000   1.0000   1.0000   1.0000   1.0000   1.0000   1.0000   1.0000
     1.0000   1.0000   1.0000   1.0000   1.0000   1.0000   0.0000   0.0000
     0.0000   0.0000   0.0000   0.0000   0.0000   0.0000

          k = 0.0000 0.2500-0.5000 (  7198 PWs)   bands (ev):

   -94.4002 -94.4002 -94.3897 -94.3896 -51.8166 -51.8166 -51.7964 -51.7964
   -51.7957 -51.7957 -51.7457 -51.7457 -51.7434 -51.7434 -51.7243 -51.7243
    11.8087  11.8087  14.0070  14.0070  14.2533  14.2533  14.3530  14.3530
    14.5258  14.5258  15.0960  15.0960  15.9022  15.9022  15.9446  15.9446
    15.9756  15.9756  16.5882  16.5882  16.8839  16.8839  21.1076  21.1076
    26.1008  26.1008  28.3056  28.3056  33.3710  33.3710

     occupation numbers 
     1.0000   1.0000   1.0000   1.0000   1.0000   1.0000   1.0000   1.0000
     1.0000   1.0000   1.0000   1.0000   1.0000   1.0000   1.0000   1.0000
     1.0000   1.0000   1.0000   1.0000   1.0000   1.0000   1.0000   1.0000
     1.0000   1.0000   1.0000   1.0000   1.0000   1.0000   1.0000   1.0000
     1.0000   1.0000   1.0000   1.0000   1.0000   1.0000   0.0000   0.0000
     0.0000   0.0000   0.0000   0.0000   0.0000   0.0000

          k = 0.0000 0.3333 0.3333 (  7227 PWs)   bands (ev):

   -94.4043 -94.3931 -94.3931 -94.3893 -51.8205 -51.8205 -51.8099 -51.8093
   -51.7801 -51.7680 -51.7680 -51.7424 -51.7394 -51.7394 -51.7343 -51.7125
    10.9137  13.3527  13.3527  13.9048  14.0719  14.1703  14.1703  14.6074
    14.7761  14.7761  14.9389  15.2351  15.6124  15.7320  15.9954  16.1301
    16.1301  16.3660  16.3660  16.5227  16.6418  18.4376  18.4376  21.9505
    24.7587  27.6614  29.3891  29.3891  30.5112  30.5112

     occupation numbers 
     1.0000   1.0000   1.0000   1.0000   1.0000   1.0000   1.0000   1.0000
     1.0000   1.0000   1.0000   1.0000   1.0000   1.0000   1.0000   1.0000
     1.0000   1.0000   1.0000   1.0000   1.0000   1.0000   1.0000   1.0000
     1.0000   1.0000   1.0000   1.0000   1.0000   1.0000   1.0000   1.0000
     1.0000   1.0000   1.0000   1.0000   1.0000   1.0000   1.0000   0.0000
     0.0000   0.0000   0.0000   0.0000   0.0000   0.0000

          k = 0.0000 0.3333 0.4167 (  7238 PWs)   bands (ev):

   -94.4016 -94.3958 -94.3922 -94.3902 -51.8203 -51.8151 -51.8133 -51.7993
   -51.7926 -51.7780 -51.7599 -51.7424 -51.7392 -51.7379 -51.7306 -51.7164
    11.5568  12.8876  13.6646  13.9477  14.2084  14.2885  14.3392  14.5208
    14.5375  14.7401  14.8301  15.1319  15.7301  15.7481  15.9012  15.9776
    15.9783  16.1412  16.3757  16.4450  16.9015  17.7188  19.1119  20.8336
    25.7463  28.0757  28.1460  29.5670  30.2519  31.2618

     occupation numbers 
     1.0000   1.0000   1.0000   1.0000   1.0000   1.0000   1.0000   1.0000
     1.0000   1.0000   1.0000   1.0000   1.0000   1.0000   1.0000   1.0000
     1.0000   1.0000   1.0000   1.0000   1.0000   1.0000   1.0000   1.0000
     1.0000   1.0000   1.0000   1.0000   1.0000   1.0000   1.0000   1.0000
     1.0000   1.0000   1.0000   1.0000   1.0000   1.0000   0.0000   0.0000
     0.0000   0.0000   0.0000   0.0000   0.0000   0.0000

          k = 0.0000 0.3333-0.5000 (  7238 PWs)   bands (ev):

   -94.3987 -94.3987 -94.3912 -94.3912 -51.8186 -51.8186 -51.8038 -51.8038
   -51.7887 -51.7887 -51.7512 -51.7512 -51.7377 -51.7377 -51.7226 -51.7226
    12.2458  12.2458  13.8807  13.8807  14.3544  14.3544  14.4099  14.4099
    14.5337  14.5337  14.9779  14.9779  15.8241  15.8241  15.8868  15.8868
    15.9291  15.9291  16.3992  16.3992  17.2383  17.2383  19.8972  19.8972
    26.8574  26.8574  28.7778  28.7778  32.1564  32.1564

     occupation numbers 
     1.0000   1.0000   1.0000   1.0000   1.0000   1.0000   1.0000   1.0000
     1.0000   1.0000   1.0000   1.0000   1.0000   1.0000   1.0000   1.0000
     1.0000   1.0000   1.0000   1.0000   1.0000   1.0000   1.0000   1.0000
     1.0000   1.0000   1.0000   1.0000   1.0000   1.0000   1.0000   1.0000
     1.0000   1.0000   1.0000   1.0000   1.0000   1.0000   0.0000   0.0000
     0.0000   0.0000   0.0000   0.0000   0.0000   0.0000

          k = 0.0000 0.4167 0.4167 (  7233 PWs)   bands (ev):

   -94.3993 -94.3944 -94.3944 -94.3916 -51.8179 -51.8168 -51.8168 -51.8025
   -51.7898 -51.7694 -51.7694 -51.7510 -51.7340 -51.7297 -51.7297 -51.7185
    12.1334  13.2690  13.2690  13.8091  14.4004  14.4059  14.4059  14.5049
    14.6448  14.6858  14.6858  15.0318  15.6747  15.8047  15.8423  15.8423
    15.8430  16.1691  16.1691  16.3147  17.2351  18.2659  18.2659  19.7779
    26.6921  28.6941  28.9578  28.9578  30.2488  30.2488

     occupation numbers 
     1.0000   1.0000   1.0000   1.0000   1.0000   1.0000   1.0000   1.0000
     1.0000   1.0000   1.0000   1.0000   1.0000   1.0000   1.0000   1.0000
     1.0000   1.0000   1.0000   1.0000   1.0000   1.0000   1.0000   1.0000
     1.0000   1.0000   1.0000   1.0000   1.0000   1.0000   1.0000   1.0000
     1.0000   1.0000   1.0000   1.0000   1.0000   1.0000   1.0000   0.0000
     0.0000   0.0000   0.0000   0.0000   0.0000   0.0000

          k = 0.0000 0.4167-0.5000 (  7244 PWs)   bands (ev):

   -94.3969 -94.3969 -94.3930 -94.3930 -51.8184 -51.8184 -51.8107 -51.8107
   -51.7796 -51.7796 -51.7602 -51.7602 -51.7308 -51.7308 -51.7231 -51.7231
    12.7302  12.7302  13.5892  13.5892  14.4646  14.4646  14.5293  14.5293
    14.5570  14.5570  14.8753  14.8753  15.7181  15.7181  15.7720  15.7720
    15.9859  15.9859  16.2238  16.2238  17.6662  17.6662  18.9346  18.9346
    27.7676  27.7676  29.3923  29.3923  29.9732  29.9732

     occupation numbers 
[...]
     1.0000   1.0000   1.0000   1.0000   1.0000   1.0000   1.0000   1.0000
     1.0000   1.0000   1.0000   1.0000   1.0000   1.0000   1.0000   1.0000
     1.0000   1.0000   1.0000   1.0000   1.0000   1.0000   0.0000   0.0000
     0.0000   0.0000   0.0000   0.0000   0.0000   0.0000

          k = 0.2500 0.3333 0.3333 (  7239 PWs)   bands (ev):

   -94.4021 -94.3931 -94.3931 -94.3915 -51.8410 -51.8380 -51.8380 -51.8085
   -51.7631 -51.7530 -51.7530 -51.7381 -51.7372 -51.7372 -51.7215 -51.7169
    11.4502  13.2744  13.2744  13.4908  14.3951  14.4522  14.4522  14.8609
    15.0198  15.0198  15.0997  15.2324  15.2612  15.5880  15.5880  15.6077
    16.2593  16.4815  16.7448  16.7632  16.7632  18.7278  18.7278  20.1697
    23.4646  25.0901  25.0901  29.0471  32.8399  34.6610

     occupation numbers 
     1.0000   1.0000   1.0000   1.0000   1.0000   1.0000   1.0000   1.0000
     1.0000   1.0000   1.0000   1.0000   1.0000   1.0000   1.0000   1.0000
     1.0000   1.0000   1.0000   1.0000   1.0000   1.0000   1.0000   1.0000
     1.0000   1.0000   1.0000   1.0000   1.0000   1.0000   1.0000   1.0000
     1.0000   1.0000   1.0000   1.0000   1.0000   0.0000   0.0000   0.0000
     0.0000   0.0000   0.0000   0.0000   0.0000   0.0000

          k = 0.2500 0.3333 0.4167 (  7231 PWs)   bands (ev):

   -94.3999 -94.3952 -94.3927 -94.3919 -51.8437 -51.8421 -51.8356 -51.8202
   -51.7598 -51.7545 -51.7415 -51.7355 -51.7351 -51.7317 -51.7265 -51.7199
    11.9520  12.9092  13.3314  13.4358  14.5184  14.5648  14.6734  14.9049
    15.0275  15.0766  15.1547  15.1551  15.2758  15.4478  15.5178  15.5194
    16.3718  16.6970  16.6982  16.7021  16.7037  17.7432  19.2129  20.1206
    23.0558  24.0632  25.8672  27.8462  33.4758  34.8959

     occupation numbers 
     1.0000   1.0000   1.0000   1.0000   1.0000   1.0000   1.0000   1.0000
     1.0000   1.0000   1.0000   1.0000   1.0000   1.0000   1.0000   1.0000
     1.0000   1.0000   1.0000   1.0000   1.0000   1.0000   1.0000   1.0000
     1.0000   1.0000   1.0000   1.0000   1.0000   1.0000   1.0000   1.0000
     1.0000   1.0000   1.0000   1.0000   1.0000   1.0000   0.0000   0.0000
     0.0000   0.0000   0.0000   0.0000   0.0000   0.0000

          k = 0.2500 0.3333-0.5000 (  7230 PWs)   bands (ev):

   -94.3976 -94.3976 -94.3923 -94.3923 -51.8441 -51.8440 -51.8295 -51.8295
   -51.7569 -51.7569 -51.7344 -51.7344 -51.7328 -51.7328 -51.7254 -51.7254
    12.4565  12.4565  13.3829  13.3829  14.5787  14.5787  14.8525  14.8525
    15.0639  15.0639  15.1559  15.1559  15.3408  15.3408  15.4862  15.4862
    16.5665  16.5665  16.6729  16.6729  17.0642  17.0642  19.7291  19.7291
    23.3285  23.3285  26.7866  26.7866  34.2296  34.2296

     occupation numbers 
     1.0000   1.0000   1.0000   1.0000   1.0000   1.0000   1.0000   1.0000
     1.0000   1.0000   1.0000   1.0000   1.0000   1.0000   1.0000   1.0000
     1.0000   1.0000   1.0000   1.0000   1.0000   1.0000   1.0000   1.0000
     1.0000   1.0000   1.0000   1.0000   1.0000   1.0000   1.0000   1.0000
     1.0000   1.0000   1.0000   1.0000   1.0000   1.0000   0.0000   0.0000
     0.0000   0.0000   0.0000   0.0000   0.0000   0.0000

          k = 0.2500 0.4167 0.4167 (  7229 PWs)   bands (ev):

   -94.3982 -94.3944 -94.3944 -94.3927 -51.8460 -51.8418 -51.8418 -51.8303
   -51.7540 -51.7448 -51.7448 -51.7317 -51.7314 -51.7295 -51.7295 -51.7208
    12.3333  13.0354  13.0354  13.2908  14.6705  14.7866  14.7866  15.0748
    15.1039  15.1334  15.1334  15.2472  15.2633  15.3919  15.3919  15.4107
    16.3779  16.6293  16.6293  16.6421  16.9982  18.1932  18.1932  19.4716
    23.2576  24.7709  24.7709  26.6675  34.1400  35.8361

     occupation numbers 
     1.0000   1.0000   1.0000   1.0000   1.0000   1.0000   1.0000   1.0000
     1.0000   1.0000   1.0000   1.0000   1.0000   1.0000   1.0000   1.0000
     1.0000   1.0000   1.0000   1.0000   1.0000   1.0000   1.0000   1.0000
     1.0000   1.0000   1.0000   1.0000   1.0000   1.0000   1.0000   1.0000
     1.0000   1.0000   1.0000   1.0000   1.0000   1.0000   1.0000   0.0000
     0.0000   0.0000   0.0000   0.0000   0.0000   0.0000

          k = 0.2500 0.4167-0.5000 (  7214 PWs)   bands (ev):

   -94.3963 -94.3963 -94.3935 -94.3935 -51.8454 -51.8454 -51.8378 -51.8378
   -51.7490 -51.7490 -51.7373 -51.7373 -51.7295 -51.7295 -51.7242 -51.7242
    12.7015  12.7015  13.1592  13.1592  14.7674  14.7674  14.9777  14.9777
    15.1500  15.1500  15.2628  15.2628  15.2947  15.2947  15.3697  15.3697
    16.4947  16.4947  16.6016  16.6016  17.4557  17.4557  18.7758  18.7758
    23.8837  23.8837  25.6421  25.6421  34.9388  34.9388

     occupation numbers 
     1.0000   1.0000   1.0000   1.0000   1.0000   1.0000   1.0000   1.0000
     1.0000   1.0000   1.0000   1.0000   1.0000   1.0000   1.0000   1.0000
     1.0000   1.0000   1.0000   1.0000   1.0000   1.0000   1.0000   1.0000
     1.0000   1.0000   1.0000   1.0000   1.0000   1.0000   1.0000   1.0000
     1.0000   1.0000   1.0000   1.0000   1.0000   1.0000   0.0000   0.0000
     0.0000   0.0000   0.0000   0.0000   0.0000   0.0000

          k = 0.2500-0.5000-0.5000 (  7220 PWs)   bands (ev):

   -94.3949 -94.3949 -94.3949 -94.3949 -51.8432 -51.8432 -51.8432 -51.8432
   -51.7427 -51.7427 -51.7427 -51.7427 -51.7258 -51.7258 -51.7258 -51.7258
    12.9348  12.9348  12.9348  12.9348  14.9102  14.9102  14.9102  14.9102
    15.2898  15.2898  15.2898  15.2898  15.2905  15.2905  15.2905  15.2905
    16.5134  16.5134  16.5134  16.5134  18.0046  18.0046  18.0046  18.0046
    24.6705  24.6705  24.6705  24.6705  35.7724  35.7724

     occupation numbers 
     1.0000   1.0000   1.0000   1.0000   1.0000   1.0000   1.0000   1.0000
     1.0000   1.0000   1.0000   1.0000   1.0000   1.0000   1.0000   1.0000
     1.0000   1.0000   1.0000   1.0000   1.0000   1.0000   1.0000   1.0000
     1.0000   1.0000   1.0000   1.0000   1.0000   1.0000   1.0000   1.0000
     1.0000   1.0000   1.0000   1.0000   1.0000   1.0000   1.0000   1.0000
     0.0000   0.0000   0.0000   0.0000   0.0000   0.0000

          k = 0.3333 0.3333 0.3333 (  7241 PWs)   bands (ev):

   -94.4005 -94.3931 -94.3930 -94.3930 -51.8446 -51.8446 -51.8446 -51.8211
   -51.7488 -51.7488 -51.7488 -51.7349 -51.7349 -51.7349 -51.7199 -51.7199
    11.8083  13.2261  13.2261  13.2261  14.6092  14.6092  14.6092  15.0605
    15.1772  15.1772  15.1772  15.2064  15.2064  15.4523  15.4523  15.4523
    16.4380  16.4380  16.7812  16.7812  16.7812  18.9409  18.9409  18.9409
    23.9564  23.9564  23.9564  27.7155  35.1720  35.1720

     occupation numbers 
     1.0000   1.0000   1.0000   1.0000   1.0000   1.0000   1.0000   1.0000
     1.0000   1.0000   1.0000   1.0000   1.0000   1.0000   1.0000   1.0000
     1.0000   1.0000   1.0000   1.0000   1.0000   1.0000   1.0000   1.0000
     1.0000   1.0000   1.0000   1.0000   1.0000   1.0000   1.0000   1.0000
     1.0000   1.0000   1.0000   1.0000   1.0000   0.0000   0.0000   0.0000
     0.0000   0.0000   0.0000   0.0000   0.0000   0.0000

          k = 0.3333 0.3333 0.4167 (  7235 PWs)   bands (ev):

   -94.3987 -94.3948 -94.3930 -94.3930 -51.8490 -51.8490 -51.8442 -51.8319
   -51.7468 -51.7468 -51.7367 -51.7327 -51.7327 -51.7313 -51.7236 -51.7219
    12.1956  12.9197  13.1902  13.1902  14.7112  14.7112  14.8307  15.1424
    15.1991  15.2377  15.2466  15.3263  15.3297  15.3297  15.3793  15.3793
    16.5693  16.5891  16.7458  16.7458  16.7671  17.8671  19.1452  19.1452
    23.1809  23.1809  24.6543  26.5393  35.7611  35.7611

     occupation numbers 
     1.0000   1.0000   1.0000   1.0000   1.0000   1.0000   1.0000   1.0000
     1.0000   1.0000   1.0000   1.0000   1.0000   1.0000   1.0000   1.0000
     1.0000   1.0000   1.0000   1.0000   1.0000   1.0000   1.0000   1.0000
     1.0000   1.0000   1.0000   1.0000   1.0000   1.0000   1.0000   1.0000
     1.0000   1.0000   1.0000   1.0000   1.0000   1.0000   0.0000   0.0000
     0.0000   0.0000   0.0000   0.0000   0.0000   0.0000

          k = 0.3333 0.3333-0.5000 (  7206 PWs)   bands (ev):

   -94.3968 -94.3968 -94.3930 -94.3930 -51.8505 -51.8505 -51.8398 -51.8398
   -51.7462 -51.7462 -51.7318 -51.7318 -51.7276 -51.7276 -51.7274 -51.7274
    12.5738  12.5738  13.1771  13.1771  14.7436  14.7436  15.0188  15.0188
    15.2399  15.2399  15.2876  15.2876  15.3400  15.3400  15.4166  15.4166
    16.7016  16.7016  16.7200  16.7200  17.0466  17.0466  19.2357  19.2357
    22.8961  22.8961  25.5185  25.5185  36.1912  36.1912

     occupation numbers 
     1.0000   1.0000   1.0000   1.0000   1.0000   1.0000   1.0000   1.0000
     1.0000   1.0000   1.0000   1.0000   1.0000   1.0000   1.0000   1.0000
     1.0000   1.0000   1.0000   1.0000   1.0000   1.0000   1.0000   1.0000
     1.0000   1.0000   1.0000   1.0000   1.0000   1.0000   1.0000   1.0000
     1.0000   1.0000   1.0000   1.0000   1.0000   1.0000   0.0000   0.0000
     0.0000   0.0000   0.0000   0.0000   0.0000   0.0000

          k = 0.3333 0.4167 0.4167 (  7231 PWs)   bands (ev):

   -94.3973 -94.3944 -94.3944 -94.3935 -51.8529 -51.8504 -51.8504 -51.8414
   -51.7417 -51.7367 -51.7367 -51.7301 -51.7292 -51.7292 -51.7260 -51.7224
    12.4488  12.9443  12.9443  13.0757  14.8275  14.8933  14.8933  15.1208
    15.1547  15.2515  15.2515  15.2721  15.5194  15.5194  15.5649  15.5660
    16.5428  16.7286  16.7362  16.7362  16.8185  18.1234  18.1234  18.8872
    22.8465  23.6986  23.6986  25.4069  36.4214  37.7258

     occupation numbers 
     1.0000   1.0000   1.0000   1.0000   1.0000   1.0000   1.0000   1.0000
     1.0000   1.0000   1.0000   1.0000   1.0000   1.0000   1.0000   1.0000
     1.0000   1.0000   1.0000   1.0000   1.0000   1.0000   1.0000   1.0000
     1.0000   1.0000   1.0000   1.0000   1.0000   1.0000   1.0000   1.0000
     1.0000   1.0000   1.0000   1.0000   1.0000   1.0000   1.0000   0.0000
     0.0000   0.0000   0.0000   0.0000   0.0000   0.0000

          k = 0.3333 0.4167-0.5000 (  7230 PWs)   bands (ev):

   -94.3959 -94.3959 -94.3939 -94.3939 -51.8534 -51.8534 -51.8478 -51.8478
   -51.7385 -51.7385 -51.7302 -51.7302 -51.7286 -51.7286 -51.7251 -51.7251
    12.6984  12.6984  12.9941  12.9941  14.8906  14.8906  15.0339  15.0339
    15.1785  15.1785  15.2313  15.2313  15.6458  15.6458  15.6560  15.6560
    16.6544  16.6544  16.7037  16.7037  17.2912  17.2912  18.4942  18.4942
    23.0609  23.0609  24.4556  24.4556  37.1511  37.1511

     occupation numbers 
     1.0000   1.0000   1.0000   1.0000   1.0000   1.0000   1.0000   1.0000
     1.0000   1.0000   1.0000   1.0000   1.0000   1.0000   1.0000   1.0000
     1.0000   1.0000   1.0000   1.0000   1.0000   1.0000   1.0000   1.0000
     1.0000   1.0000   1.0000   1.0000   1.0000   1.0000   1.0000   1.0000
     1.0000   1.0000   1.0000   1.0000   1.0000   1.0000   0.2953   0.2953
     0.0000   0.0000   0.0000   0.0000   0.0000   0.0000

          k = 0.3333-0.5000-0.5000 (  7232 PWs)   bands (ev):

   -94.3949 -94.3949 -94.3949 -94.3949 -51.8524 -51.8524 -51.8524 -51.8524
   -51.7336 -51.7336 -51.7336 -51.7336 -51.7258 -51.7258 -51.7258 -51.7258
    12.8359  12.8359  12.8359  12.8359  14.9936  14.9936  14.9936  14.9936
    15.1719  15.1719  15.1719  15.1719  15.7896  15.7896  15.7896  15.7896
    16.6449  16.6449  16.6449  16.6449  17.7835  17.7835  17.7835  17.7835
    23.6207  23.6207  23.6207  23.6207  37.9618  37.9618

     occupation numbers 
     1.0000   1.0000   1.0000   1.0000   1.0000   1.0000   1.0000   1.0000
     1.0000   1.0000   1.0000   1.0000   1.0000   1.0000   1.0000   1.0000
     1.0000   1.0000   1.0000   1.0000   1.0000   1.0000   1.0000   1.0000
     1.0000   1.0000   1.0000   1.0000   1.0000   1.0000   1.0000   1.0000
     1.0000   1.0000   1.0000   1.0000   1.0000   1.0000   1.0000   1.0000
     0.0000   0.0000   0.0000   0.0000   0.0000   0.0000

          k = 0.4167 0.4167 0.4167 (  7238 PWs)   bands (ev):

   -94.3964 -94.3944 -94.3944 -94.3944 -51.8559 -51.8559 -51.8559 -51.8499
   -51.7322 -51.7322 -51.7322 -51.7282 -51.7282 -51.7282 -51.7242 -51.7242
    12.5754  12.8839  12.8839  12.8839  14.9634  14.9634  14.9634  15.1099
    15.1099  15.1710  15.1710  15.1710  15.8773  15.8773  15.8773  16.1421
    16.6680  16.6680  16.7642  16.7642  16.7642  18.0434  18.0434  18.0434
    23.0010  23.0010  23.0010  24.3567  38.5982  38.5982

     occupation numbers 
     1.0000   1.0000   1.0000   1.0000   1.0000   1.0000   1.0000   1.0000
     1.0000   1.0000   1.0000   1.0000   1.0000   1.0000   1.0000   1.0000
     1.0000   1.0000   1.0000   1.0000   1.0000   1.0000   1.0000   1.0000
     1.0000   1.0000   1.0000   1.0000   1.0000   1.0000   1.0000   1.0000
     1.0000   1.0000   1.0000   1.0000   1.0000   1.0000   1.0000   1.0000
     0.0000   0.0000   0.0000   0.0000   0.0000   0.0000

          k = 0.4167 0.4167-0.5000 (  7232 PWs)   bands (ev):

   -94.3954 -94.3954 -94.3944 -94.3944 -51.8578 -51.8578 -51.8549 -51.8549
   -51.7313 -51.7313 -51.7273 -51.7273 -51.7263 -51.7263 -51.7262 -51.7262
    12.7181  12.7181  12.8628  12.8628  14.9899  14.9899  15.0592  15.0592
    15.1156  15.1156  15.1405  15.1405  16.0476  16.0476  16.1650  16.1650
    16.7437  16.7437  16.7478  16.7478  17.1715  17.1715  18.0045  18.0045
    22.7573  22.7573  23.5400  23.5400  38.9598  38.9598

     occupation numbers 
     1.0000   1.0000   1.0000   1.0000   1.0000   1.0000   1.0000   1.0000
     1.0000   1.0000   1.0000   1.0000   1.0000   1.0000   1.0000   1.0000
     1.0000   1.0000   1.0000   1.0000   1.0000   1.0000   1.0000   1.0000
     1.0000   1.0000   1.0000   1.0000   1.0000   1.0000   1.0000   1.0000
     1.0000   1.0000   1.0000   1.0000   1.0000   1.0000   1.0000   1.0000
     0.0000   0.0000   0.0000   0.0000   0.0000   0.0000

          k = 0.4167-0.5000-0.5000 (  7236 PWs)   bands (ev):

   -94.3949 -94.3949 -94.3949 -94.3949 -51.8583 -51.8583 -51.8583 -51.8583
   -51.7278 -51.7278 -51.7278 -51.7278 -51.7258 -51.7258 -51.7258 -51.7258
    12.7710  12.7710  12.7710  12.7710  15.0511  15.0511  15.0511  15.0511
    15.0971  15.0971  15.0971  15.0971  16.3407  16.3407  16.3407  16.3407
    16.7291  16.7291  16.7291  16.7291  17.4405  17.4405  17.4405  17.4405
    22.9484  22.9484  22.9484  22.9484  39.8019  39.8019

     occupation numbers 
     1.0000   1.0000   1.0000   1.0000   1.0000   1.0000   1.0000   1.0000
     1.0000   1.0000   1.0000   1.0000   1.0000   1.0000   1.0000   1.0000
     1.0000   1.0000   1.0000   1.0000   1.0000   1.0000   1.0000   1.0000
     1.0000   1.0000   1.0000   1.0000   1.0000   1.0000   1.0000   1.0000
     1.0000   1.0000   1.0000   1.0000   1.0000   1.0000   1.0000   1.0000
     0.0000   0.0000   0.0000   0.0000   0.0000   0.0000

          k =-0.5000-0.5000-0.5000 (  7208 PWs)   bands (ev):

   -94.3949 -94.3949 -94.3949 -94.3949 -51.8604 -51.8604 -51.8604 -51.8604
   -51.7258 -51.7258 -51.7258 -51.7258 -51.7258 -51.7258 -51.7258 -51.7258
    12.7485  12.7485  12.7485  12.7485  15.0716  15.0716  15.0716  15.0716
    15.0716  15.0716  15.0716  15.0716  16.7581  16.7581  16.7581  16.7581
    16.7581  16.7581  16.7581  16.7581  17.0997  17.0997  17.0997  17.0997
    22.7167  22.7167  22.7167  22.7167  40.3513  40.3513

     occupation numbers 
     1.0000   1.0000   1.0000   1.0000   1.0000   1.0000   1.0000   1.0000
     1.0000   1.0000   1.0000   1.0000   1.0000   1.0000   1.0000   1.0000
     1.0000   1.0000   1.0000   1.0000   1.0000   1.0000   1.0000   1.0000
     1.0000   1.0000   1.0000   1.0000   1.0000   1.0000   1.0000   1.0000
     1.0000   1.0000   1.0000   1.0000   1.0000   1.0000   1.0000   1.0000
     0.0000   0.0000   0.0000   0.0000   0.0000   0.0000

     the Fermi energy is    18.4890 ev

!    total energy              =   -1947.52906983 Ry
     total all-electron energy =    -13239.875484 Ry
     estimated scf accuracy    <          1.6E-09 Ry
     smearing contrib. (-TS)   =      -0.00001772 Ry
     internal energy E=F+TS    =   -1947.52905211 Ry

     The total energy is F=E-TS. E is the sum of the following terms:
     one-electron contribution =    -930.17303219 Ry
     hartree contribution      =     533.46907768 Ry
     xc contribution           =    -153.45693338 Ry
     ewald contribution        =   -1001.89429109 Ry
     one-center paw contrib.   =    -395.47387313 Ry
      -> PAW hartree energy AE =     319.56700167 Ry
      -> PAW hartree energy PS =    -321.54967756 Ry
      -> PAW xc energy AE      =    -133.84921195 Ry
      -> PAW xc energy PS      =      36.96341757 Ry
      -> total E_H with PAW    =     531.48640179 Ry
      -> total E_XC with PAW   =    -250.34272776 Ry

     convergence has been achieved in  23 iterations

     Writing all to output data dir ./out/Cu.save/

     init_run     :      1.52s CPU      1.76s WALL (       1 calls)
     electrons    :    760.57s CPU    788.87s WALL (       1 calls)

     Called by init_run:
     wfcinit      :      0.84s CPU      1.02s WALL (       1 calls)
     potinit      :      0.21s CPU      0.24s WALL (       1 calls)
     hinit0       :      0.33s CPU      0.34s WALL (       1 calls)

     Called by electrons:
     c_bands      :    691.31s CPU    715.37s WALL (      23 calls)
     sum_band     :     62.65s CPU     66.64s WALL (      23 calls)
     v_of_rho     :      0.35s CPU      0.38s WALL (      24 calls)
     v_h          :      0.03s CPU      0.03s WALL (      24 calls)
     v_xc         :      0.33s CPU      0.35s WALL (      24 calls)
     newd         :      1.71s CPU      1.76s WALL (      24 calls)
     PAW_pot      :      4.56s CPU      4.77s WALL (      24 calls)
     mix_rho      :      0.21s CPU      0.22s WALL (      23 calls)

     Called by c_bands:
     init_us_2    :      3.62s CPU      3.64s WALL (    3864 calls)
     init_us_2:cp :      3.58s CPU      3.63s WALL (    3864 calls)
     cegterg      :    676.03s CPU    699.95s WALL (    1932 calls)

     Called by sum_band:
     sum_band:wei :      0.05s CPU      0.05s WALL (      23 calls)
     sum_band:loo :     61.20s CPU     65.16s WALL (      23 calls)
     sum_band:buf :      1.22s CPU      1.23s WALL (    1932 calls)
     sum_band:ini :      1.56s CPU      1.57s WALL (    1932 calls)
     sum_band:cal :     22.93s CPU     23.55s WALL (    1932 calls)
     sum_band:bec :      0.37s CPU      0.37s WALL (    1932 calls)
     addusdens    :      1.12s CPU      1.14s WALL (      23 calls)
                                        0.00s GPU  (      23 calls)
     addusd:skk   :      0.01s CPU      0.01s WALL (      23 calls)
                                        0.00s GPU  (      23 calls)

     Called by *egterg:
     cdiaghg      :     50.50s CPU     50.82s WALL (    6957 calls)
     cegterg:over :     93.82s CPU     94.97s WALL (    5109 calls)
     cegterg:upda :     41.53s CPU     41.75s WALL (    5109 calls)
     cegterg:last :    102.28s CPU    102.66s WALL (    4058 calls)
     h_psi        :    281.71s CPU    302.79s WALL (    7041 calls)
     s_psi        :     51.20s CPU     51.51s WALL (    7041 calls)
     g_psi        :      2.29s CPU      2.30s WALL (    5109 calls)

     Called by h_psi:
     h_psi:calbec :     59.02s CPU     60.98s WALL (    7041 calls)
     vloc_psi     :    171.04s CPU    189.79s WALL (    7041 calls)
     add_vuspsi   :     49.79s CPU     50.17s WALL (    7041 calls)

     General routines
     calbec       :     81.90s CPU     84.50s WALL (    8973 calls)
     fft          :      0.44s CPU      0.45s WALL (     264 calls)
     ffts         :      0.01s CPU      0.01s WALL (      23 calls)
     fftw         :    178.33s CPU    197.45s WALL (  566084 calls)

     Parallel routines

     PAW routines
     PAW_pot      :      4.56s CPU      4.77s WALL (      24 calls)
     PAW_symme    :      0.03s CPU      0.04s WALL (      46 calls)

     PWSCF        :  12m43.05s CPU  13m12.62s WALL


   This run was terminated on:  20: 0:29  15Feb2024            

=------------------------------------------------------------------------------=
   JOB DONE.
=------------------------------------------------------------------------------=
