### Running on host: unam-asus

     Program PWSCF v.7.2 starts on 15Feb2024 at 20:33:12 

     This program is part of the open-source Quantum ESPRESSO suite
     for quantum simulation of materials; please cite
         "P. Giannozzi et al., J. Phys.:Condens. Matter 21 395502 (2009);
         "P. Giannozzi et al., J. Phys.:Condens. Matter 29 465901 (2017);
         "P. Giannozzi et al., J. Chem. Phys. 152 154105 (2020);
          URL http://www.quantum-espresso.org", 
     in publications or presentations arising from this work. More details at
     http://www.quantum-espresso.org/quote

     Parallel version (MPI), running on    10 processors

     MPI processes distributed on     1 nodes
     1942 MiB available memory on the printing compute node when the environment starts

     Reading input from eos.Cu.d/eos.Cu.8.in

     Current dimensions of program PWSCF are:
     Max number of different atomic species (ntypx) = 10
     Max number of k-points (npk) =  40000
     Max angular momentum in pseudopotentials (lmaxx) =  4
     file Cu.pbe-spn-kjpaw_psl.1.0.0.UPF: wavefunction(s)  4S 3P 3D renormalized
     Found identity + (  0.0000 -0.5000 -0.5000) symmetry
     This is a supercell, fractional translations are disabled

     R & G space division:  proc/nbgrp/npool/nimage =      10
     Subspace diagonalization in iterative solution of the eigenvalue problem:
     a serial algorithm will be used


     Parallelization info
     --------------------
     sticks:   dense  smooth     PW     G-vecs:    dense   smooth      PW
     Min         194     194     55                 6510     6510     993
     Max         195     195     57                 6515     6515     996
     Sum        1941    1941    561                65117    65117    9939

     Using Slab Decomposition



     bravais-lattice index     =            1
     lattice parameter (alat)  =       6.8834  a.u.
     unit-cell volume          =     326.1377 (a.u.)^3
     number of atoms/cell      =            4
     number of atomic types    =            1
     number of electrons       =        76.00
     number of Kohn-Sham states=           46
     kinetic-energy cutoff     =     130.0000  Ry
     charge density cutoff     =     520.0000  Ry
     scf convergence threshold =      1.0E-08
     mixing beta               =       0.7000
     number of iterations used =            8  plain     mixing
     Exchange-correlation= SLA  PW   PBX  PBC
                           (   1   4   3   4   0   0   0)

     celldm(1)=   6.883358  celldm(2)=   0.000000  celldm(3)=   0.000000
     celldm(4)=   0.000000  celldm(5)=   0.000000  celldm(6)=   0.000000

     crystal axes: (cart. coord. in units of alat)
               a(1) = (   1.000000   0.000000   0.000000 )  
               a(2) = (   0.000000   1.000000   0.000000 )  
               a(3) = (   0.000000   0.000000   1.000000 )  

     reciprocal axes: (cart. coord. in units 2 pi/alat)
               b(1) = (  1.000000  0.000000  0.000000 )  
               b(2) = (  0.000000  1.000000  0.000000 )  
               b(3) = (  0.000000  0.000000  1.000000 )  


     PseudoPot. # 1 for Cu read from file:
     /home/abdul/git_repo/ZnS_Cu-Vacancy/pseudo/QE/Cu.pbe-spn-kjpaw_psl.1.0.0.UPF
     MD5 check sum: e7cbaad2f97193e5fe23251a619a52b0
     Pseudo is Projector augmented-wave + core cor, Zval = 19.0
     Generated using &quot;atomic&quot; code by A. Dal Corso  v.6.3
     Shape of augmentation charge: PSQ
     Using radial grid of 1199 points,  6 beta functions with: 
                l(1) =   0
                l(2) =   0
                l(3) =   1
                l(4) =   1
                l(5) =   2
                l(6) =   2
     Q(r) pseudized with 0 coefficients 


     atomic species   valence    mass     pseudopotential
        Cu            19.00    63.54600     Cu( 1.00)

     48 Sym. Ops., with inversion, found


                                    s                        frac. trans.

      isym =  1     identity                                     

 cryst.   s( 1) = (     1          0          0      )
                  (     0          1          0      )
                  (     0          0          1      )

 cart.    s( 1) = (  1.0000000  0.0000000  0.0000000 )
                  (  0.0000000  1.0000000  0.0000000 )
                  (  0.0000000  0.0000000  1.0000000 )


      isym =  2     180 deg rotation - cart. axis [0,0,1]        

 cryst.   s( 2) = (    -1          0          0      )
                  (     0         -1          0      )
                  (     0          0          1      )

 cart.    s( 2) = ( -1.0000000  0.0000000  0.0000000 )
                  (  0.0000000 -1.0000000  0.0000000 )
                  (  0.0000000  0.0000000  1.0000000 )


      isym =  3     180 deg rotation - cart. axis [0,1,0]        

 cryst.   s( 3) = (    -1          0          0      )
                  (     0          1          0      )
                  (     0          0         -1      )

 cart.    s( 3) = ( -1.0000000  0.0000000  0.0000000 )
                  (  0.0000000  1.0000000  0.0000000 )
                  (  0.0000000  0.0000000 -1.0000000 )


      isym =  4     180 deg rotation - cart. axis [1,0,0]        

 cryst.   s( 4) = (     1          0          0      )
                  (     0         -1          0      )
                  (     0          0         -1      )

 cart.    s( 4) = (  1.0000000  0.0000000  0.0000000 )
                  (  0.0000000 -1.0000000  0.0000000 )
                  (  0.0000000  0.0000000 -1.0000000 )


      isym =  5     180 deg rotation - cart. axis [1,1,0]        

 cryst.   s( 5) = (     0          1          0      )
                  (     1          0          0      )
                  (     0          0         -1      )

 cart.    s( 5) = (  0.0000000  1.0000000  0.0000000 )
                  (  1.0000000  0.0000000  0.0000000 )
                  (  0.0000000  0.0000000 -1.0000000 )


      isym =  6     180 deg rotation - cart. axis [1,-1,0]       

 cryst.   s( 6) = (     0         -1          0      )
                  (    -1          0          0      )
                  (     0          0         -1      )

 cart.    s( 6) = (  0.0000000 -1.0000000  0.0000000 )
                  ( -1.0000000  0.0000000  0.0000000 )
                  (  0.0000000  0.0000000 -1.0000000 )


      isym =  7      90 deg rotation - cart. axis [0,0,-1]       

 cryst.   s( 7) = (     0         -1          0      )
                  (     1          0          0      )
                  (     0          0          1      )

 cart.    s( 7) = (  0.0000000  1.0000000  0.0000000 )
                  ( -1.0000000  0.0000000  0.0000000 )
                  (  0.0000000  0.0000000  1.0000000 )


      isym =  8      90 deg rotation - cart. axis [0,0,1]        

 cryst.   s( 8) = (     0          1          0      )
                  (    -1          0          0      )
                  (     0          0          1      )

 cart.    s( 8) = (  0.0000000 -1.0000000  0.0000000 )
                  (  1.0000000  0.0000000  0.0000000 )
                  (  0.0000000  0.0000000  1.0000000 )


      isym =  9     180 deg rotation - cart. axis [1,0,1]        

 cryst.   s( 9) = (     0          0          1      )
                  (     0         -1          0      )
                  (     1          0          0      )

 cart.    s( 9) = (  0.0000000  0.0000000  1.0000000 )
                  (  0.0000000 -1.0000000  0.0000000 )
                  (  1.0000000  0.0000000  0.0000000 )


      isym = 10     180 deg rotation - cart. axis [-1,0,1]       

 cryst.   s(10) = (     0          0         -1      )
                  (     0         -1          0      )
                  (    -1          0          0      )

 cart.    s(10) = (  0.0000000  0.0000000 -1.0000000 )
                  (  0.0000000 -1.0000000  0.0000000 )
                  ( -1.0000000  0.0000000  0.0000000 )


      isym = 11      90 deg rotation - cart. axis [0,1,0]        

 cryst.   s(11) = (     0          0         -1      )
                  (     0          1          0      )
                  (     1          0          0      )

 cart.    s(11) = (  0.0000000  0.0000000  1.0000000 )
                  (  0.0000000  1.0000000  0.0000000 )
                  ( -1.0000000  0.0000000  0.0000000 )


      isym = 12      90 deg rotation - cart. axis [0,-1,0]       

 cryst.   s(12) = (     0          0          1      )
                  (     0          1          0      )
                  (    -1          0          0      )

 cart.    s(12) = (  0.0000000  0.0000000 -1.0000000 )
                  (  0.0000000  1.0000000  0.0000000 )
                  (  1.0000000  0.0000000  0.0000000 )


      isym = 13     180 deg rotation - cart. axis [0,1,1]        

 cryst.   s(13) = (    -1          0          0      )
                  (     0          0          1      )
                  (     0          1          0      )

 cart.    s(13) = ( -1.0000000  0.0000000  0.0000000 )
                  (  0.0000000  0.0000000  1.0000000 )
                  (  0.0000000  1.0000000  0.0000000 )


      isym = 14     180 deg rotation - cart. axis [0,1,-1]       

 cryst.   s(14) = (    -1          0          0      )
                  (     0          0         -1      )
                  (     0         -1          0      )

 cart.    s(14) = ( -1.0000000  0.0000000  0.0000000 )
                  (  0.0000000  0.0000000 -1.0000000 )
                  (  0.0000000 -1.0000000  0.0000000 )


      isym = 15      90 deg rotation - cart. axis [-1,0,0]       

 cryst.   s(15) = (     1          0          0      )
                  (     0          0         -1      )
                  (     0          1          0      )

 cart.    s(15) = (  1.0000000  0.0000000  0.0000000 )
                  (  0.0000000  0.0000000  1.0000000 )
                  (  0.0000000 -1.0000000  0.0000000 )


      isym = 16      90 deg rotation - cart. axis [1,0,0]        

 cryst.   s(16) = (     1          0          0      )
                  (     0          0          1      )
                  (     0         -1          0      )

 cart.    s(16) = (  1.0000000  0.0000000  0.0000000 )
                  (  0.0000000  0.0000000 -1.0000000 )
                  (  0.0000000  1.0000000  0.0000000 )


      isym = 17     120 deg rotation - cart. axis [-1,-1,-1]     

 cryst.   s(17) = (     0          0          1      )
                  (     1          0          0      )
                  (     0          1          0      )

 cart.    s(17) = (  0.0000000  1.0000000  0.0000000 )
                  (  0.0000000  0.0000000  1.0000000 )
                  (  1.0000000  0.0000000  0.0000000 )


      isym = 18     120 deg rotation - cart. axis [-1,1,1]       

 cryst.   s(18) = (     0          0         -1      )
                  (    -1          0          0      )
                  (     0          1          0      )

 cart.    s(18) = (  0.0000000 -1.0000000  0.0000000 )
                  (  0.0000000  0.0000000  1.0000000 )
                  ( -1.0000000  0.0000000  0.0000000 )


      isym = 19     120 deg rotation - cart. axis [1,1,-1]       

 cryst.   s(19) = (     0          0         -1      )
                  (     1          0          0      )
                  (     0         -1          0      )

 cart.    s(19) = (  0.0000000  1.0000000  0.0000000 )
                  (  0.0000000  0.0000000 -1.0000000 )
                  ( -1.0000000  0.0000000  0.0000000 )


      isym = 20     120 deg rotation - cart. axis [1,-1,1]       

 cryst.   s(20) = (     0          0          1      )
                  (    -1          0          0      )
                  (     0         -1          0      )

 cart.    s(20) = (  0.0000000 -1.0000000  0.0000000 )
                  (  0.0000000  0.0000000 -1.0000000 )
                  (  1.0000000  0.0000000  0.0000000 )


      isym = 21     120 deg rotation - cart. axis [1,1,1]        

 cryst.   s(21) = (     0          1          0      )
                  (     0          0          1      )
                  (     1          0          0      )

 cart.    s(21) = (  0.0000000  0.0000000  1.0000000 )
                  (  1.0000000  0.0000000  0.0000000 )
                  (  0.0000000  1.0000000  0.0000000 )


      isym = 22     120 deg rotation - cart. axis [-1,1,-1]      

 cryst.   s(22) = (     0         -1          0      )
                  (     0          0         -1      )
                  (     1          0          0      )

 cart.    s(22) = (  0.0000000  0.0000000  1.0000000 )
                  ( -1.0000000  0.0000000  0.0000000 )
                  (  0.0000000 -1.0000000  0.0000000 )


      isym = 23     120 deg rotation - cart. axis [1,-1,-1]      

 cryst.   s(23) = (     0         -1          0      )
                  (     0          0          1      )
                  (    -1          0          0      )

 cart.    s(23) = (  0.0000000  0.0000000 -1.0000000 )
                  ( -1.0000000  0.0000000  0.0000000 )
                  (  0.0000000  1.0000000  0.0000000 )


      isym = 24     120 deg rotation - cart. axis [-1,-1,1]      

 cryst.   s(24) = (     0          1          0      )
                  (     0          0         -1      )
                  (    -1          0          0      )

 cart.    s(24) = (  0.0000000  0.0000000 -1.0000000 )
                  (  1.0000000  0.0000000  0.0000000 )
                  (  0.0000000 -1.0000000  0.0000000 )


      isym = 25     inversion                                    

 cryst.   s(25) = (    -1          0          0      )
                  (     0         -1          0      )
                  (     0          0         -1      )

 cart.    s(25) = ( -1.0000000  0.0000000  0.0000000 )
                  (  0.0000000 -1.0000000  0.0000000 )
                  (  0.0000000  0.0000000 -1.0000000 )


      isym = 26     inv. 180 deg rotation - cart. axis [0,0,1]   

 cryst.   s(26) = (     1          0          0      )
                  (     0          1          0      )
                  (     0          0         -1      )

 cart.    s(26) = (  1.0000000  0.0000000  0.0000000 )
                  (  0.0000000  1.0000000  0.0000000 )
                  (  0.0000000  0.0000000 -1.0000000 )


      isym = 27     inv. 180 deg rotation - cart. axis [0,1,0]   

 cryst.   s(27) = (     1          0          0      )
                  (     0         -1          0      )
                  (     0          0          1      )

 cart.    s(27) = (  1.0000000  0.0000000  0.0000000 )
                  (  0.0000000 -1.0000000  0.0000000 )
                  (  0.0000000  0.0000000  1.0000000 )


      isym = 28     inv. 180 deg rotation - cart. axis [1,0,0]   

 cryst.   s(28) = (    -1          0          0      )
                  (     0          1          0      )
                  (     0          0          1      )

 cart.    s(28) = ( -1.0000000  0.0000000  0.0000000 )
                  (  0.0000000  1.0000000  0.0000000 )
                  (  0.0000000  0.0000000  1.0000000 )


      isym = 29     inv. 180 deg rotation - cart. axis [1,1,0]   

 cryst.   s(29) = (     0         -1          0      )
                  (    -1          0          0      )
                  (     0          0          1      )

 cart.    s(29) = (  0.0000000 -1.0000000  0.0000000 )
                  ( -1.0000000  0.0000000  0.0000000 )
                  (  0.0000000  0.0000000  1.0000000 )


      isym = 30     inv. 180 deg rotation - cart. axis [1,-1,0]  

 cryst.   s(30) = (     0          1          0      )
                  (     1          0          0      )
                  (     0          0          1      )

 cart.    s(30) = (  0.0000000  1.0000000  0.0000000 )
                  (  1.0000000  0.0000000  0.0000000 )
                  (  0.0000000  0.0000000  1.0000000 )


      isym = 31     inv.  90 deg rotation - cart. axis [0,0,-1]  

 cryst.   s(31) = (     0          1          0      )
                  (    -1          0          0      )
                  (     0          0         -1      )

 cart.    s(31) = (  0.0000000 -1.0000000  0.0000000 )
                  (  1.0000000  0.0000000  0.0000000 )
                  (  0.0000000  0.0000000 -1.0000000 )


      isym = 32     inv.  90 deg rotation - cart. axis [0,0,1]   

 cryst.   s(32) = (     0         -1          0      )
                  (     1          0          0      )
                  (     0          0         -1      )

 cart.    s(32) = (  0.0000000  1.0000000  0.0000000 )
                  ( -1.0000000  0.0000000  0.0000000 )
                  (  0.0000000  0.0000000 -1.0000000 )


      isym = 33     inv. 180 deg rotation - cart. axis [1,0,1]   

 cryst.   s(33) = (     0          0         -1      )
                  (     0          1          0      )
                  (    -1          0          0      )

 cart.    s(33) = (  0.0000000  0.0000000 -1.0000000 )
                  (  0.0000000  1.0000000  0.0000000 )
                  ( -1.0000000  0.0000000  0.0000000 )


      isym = 34     inv. 180 deg rotation - cart. axis [-1,0,1]  

 cryst.   s(34) = (     0          0          1      )
                  (     0          1          0      )
                  (     1          0          0      )

 cart.    s(34) = (  0.0000000  0.0000000  1.0000000 )
                  (  0.0000000  1.0000000  0.0000000 )
                  (  1.0000000  0.0000000  0.0000000 )


      isym = 35     inv.  90 deg rotation - cart. axis [0,1,0]   

 cryst.   s(35) = (     0          0          1      )
                  (     0         -1          0      )
                  (    -1          0          0      )

 cart.    s(35) = (  0.0000000  0.0000000 -1.0000000 )
                  (  0.0000000 -1.0000000  0.0000000 )
                  (  1.0000000  0.0000000  0.0000000 )


      isym = 36     inv.  90 deg rotation - cart. axis [0,-1,0]  

 cryst.   s(36) = (     0          0         -1      )
                  (     0         -1          0      )
                  (     1          0          0      )

 cart.    s(36) = (  0.0000000  0.0000000  1.0000000 )
                  (  0.0000000 -1.0000000  0.0000000 )
                  ( -1.0000000  0.0000000  0.0000000 )


      isym = 37     inv. 180 deg rotation - cart. axis [0,1,1]   

 cryst.   s(37) = (     1          0          0      )
                  (     0          0         -1      )
                  (     0         -1          0      )

 cart.    s(37) = (  1.0000000  0.0000000  0.0000000 )
                  (  0.0000000  0.0000000 -1.0000000 )
                  (  0.0000000 -1.0000000  0.0000000 )


      isym = 38     inv. 180 deg rotation - cart. axis [0,1,-1]  

 cryst.   s(38) = (     1          0          0      )
                  (     0          0          1      )
                  (     0          1          0      )

 cart.    s(38) = (  1.0000000  0.0000000  0.0000000 )
                  (  0.0000000  0.0000000  1.0000000 )
                  (  0.0000000  1.0000000  0.0000000 )


      isym = 39     inv.  90 deg rotation - cart. axis [-1,0,0]  

 cryst.   s(39) = (    -1          0          0      )
                  (     0          0          1      )
                  (     0         -1          0      )

 cart.    s(39) = ( -1.0000000  0.0000000  0.0000000 )
                  (  0.0000000  0.0000000 -1.0000000 )
                  (  0.0000000  1.0000000  0.0000000 )


      isym = 40     inv.  90 deg rotation - cart. axis [1,0,0]   

 cryst.   s(40) = (    -1          0          0      )
                  (     0          0         -1      )
                  (     0          1          0      )

 cart.    s(40) = ( -1.0000000  0.0000000  0.0000000 )
                  (  0.0000000  0.0000000  1.0000000 )
                  (  0.0000000 -1.0000000  0.0000000 )


      isym = 41     inv. 120 deg rotation - cart. axis [-1,-1,-1]

 cryst.   s(41) = (     0          0         -1      )
                  (    -1          0          0      )
                  (     0         -1          0      )

 cart.    s(41) = (  0.0000000 -1.0000000  0.0000000 )
                  (  0.0000000  0.0000000 -1.0000000 )
                  ( -1.0000000  0.0000000  0.0000000 )


      isym = 42     inv. 120 deg rotation - cart. axis [-1,1,1]  

 cryst.   s(42) = (     0          0          1      )
                  (     1          0          0      )
                  (     0         -1          0      )

 cart.    s(42) = (  0.0000000  1.0000000  0.0000000 )
                  (  0.0000000  0.0000000 -1.0000000 )
                  (  1.0000000  0.0000000  0.0000000 )


      isym = 43     inv. 120 deg rotation - cart. axis [1,1,-1]  

 cryst.   s(43) = (     0          0          1      )
                  (    -1          0          0      )
                  (     0          1          0      )

 cart.    s(43) = (  0.0000000 -1.0000000  0.0000000 )
                  (  0.0000000  0.0000000  1.0000000 )
                  (  1.0000000  0.0000000  0.0000000 )


      isym = 44     inv. 120 deg rotation - cart. axis [1,-1,1]  

 cryst.   s(44) = (     0          0         -1      )
                  (     1          0          0      )
                  (     0          1          0      )

 cart.    s(44) = (  0.0000000  1.0000000  0.0000000 )
                  (  0.0000000  0.0000000  1.0000000 )
                  ( -1.0000000  0.0000000  0.0000000 )


      isym = 45     inv. 120 deg rotation - cart. axis [1,1,1]   

 cryst.   s(45) = (     0         -1          0      )
                  (     0          0         -1      )
                  (    -1          0          0      )

 cart.    s(45) = (  0.0000000  0.0000000 -1.0000000 )
                  ( -1.0000000  0.0000000  0.0000000 )
                  (  0.0000000 -1.0000000  0.0000000 )


      isym = 46     inv. 120 deg rotation - cart. axis [-1,1,-1] 

 cryst.   s(46) = (     0          1          0      )
                  (     0          0          1      )
                  (    -1          0          0      )

 cart.    s(46) = (  0.0000000  0.0000000 -1.0000000 )
                  (  1.0000000  0.0000000  0.0000000 )
                  (  0.0000000  1.0000000  0.0000000 )


      isym = 47     inv. 120 deg rotation - cart. axis [1,-1,-1] 

 cryst.   s(47) = (     0          1          0      )
                  (     0          0         -1      )
                  (     1          0          0      )

 cart.    s(47) = (  0.0000000  0.0000000  1.0000000 )
                  (  1.0000000  0.0000000  0.0000000 )
                  (  0.0000000 -1.0000000  0.0000000 )


      isym = 48     inv. 120 deg rotation - cart. axis [-1,-1,1] 

 cryst.   s(48) = (     0         -1          0      )
                  (     0          0          1      )
                  (     1          0          0      )

 cart.    s(48) = (  0.0000000  0.0000000  1.0000000 )
                  ( -1.0000000  0.0000000  0.0000000 )
                  (  0.0000000  1.0000000  0.0000000 )


     point group O_h (m-3m) 
     there are 10 classes
     the character table:

       E     8C3   3C2   6C4   6C2'  i     8S6   3s_h  6S4   6s_d 
A_1g   1.00  1.00  1.00  1.00  1.00  1.00  1.00  1.00  1.00  1.00
A_2g   1.00  1.00  1.00 -1.00 -1.00  1.00  1.00  1.00 -1.00 -1.00
E_g    2.00 -1.00  2.00  0.00  0.00  2.00 -1.00  2.00  0.00  0.00
T_1g   3.00  0.00 -1.00  1.00 -1.00  3.00  0.00 -1.00  1.00 -1.00
T_2g   3.00  0.00 -1.00 -1.00  1.00  3.00  0.00 -1.00 -1.00  1.00
A_1u   1.00  1.00  1.00  1.00  1.00 -1.00 -1.00 -1.00 -1.00 -1.00
A_2u   1.00  1.00  1.00 -1.00 -1.00 -1.00 -1.00 -1.00  1.00  1.00
E_u    2.00 -1.00  2.00  0.00  0.00 -2.00  1.00 -2.00  0.00  0.00
T_1u   3.00  0.00 -1.00  1.00 -1.00 -3.00  0.00  1.00 -1.00  1.00
T_2u   3.00  0.00 -1.00 -1.00  1.00 -3.00  0.00  1.00  1.00 -1.00

     the symmetry operations in each class and the name of the first element:

     E        1
          identity                                               
     8C3     17   19   20   18   24   21   22   23
          120 deg rotation - cart. axis [-1,-1,-1]               
     3C2      2    4    3
          180 deg rotation - cart. axis [0,0,1]                  
     6C4      7    8   15   16   12   11
           90 deg rotation - cart. axis [0,0,-1]                 
     6C2'     5    6   14   13   10    9
          180 deg rotation - cart. axis [1,1,0]                  
     i       25
          inversion                                              
     8S6     41   43   44   42   48   45   46   47
          inv. 120 deg rotation - cart. axis [-1,-1,-1]          
     3s_h    26   28   27
          inv. 180 deg rotation - cart. axis [0,0,1]             
     6S4     31   32   39   40   36   35
          inv.  90 deg rotation - cart. axis [0,0,-1]            
     6s_d    29   30   38   37   34   33
          inv. 180 deg rotation - cart. axis [1,1,0]             

   Cartesian axes

     site n.     atom                  positions (alat units)
         1           Cu  tau(   1) = (   0.0000000   0.0000000   0.0000000  )
         2           Cu  tau(   2) = (   0.0000000   0.5000000   0.5000000  )
         3           Cu  tau(   3) = (   0.5000000   0.0000000   0.5000000  )
         4           Cu  tau(   4) = (   0.5000000   0.5000000   0.0000000  )

   Crystallographic axes

     site n.     atom                  positions (cryst. coord.)
         1           Cu  tau(   1) = (  0.0000000  0.0000000  0.0000000  )
         2           Cu  tau(   2) = (  0.0000000  0.5000000  0.5000000  )
         3           Cu  tau(   3) = (  0.5000000  0.0000000  0.5000000  )
         4           Cu  tau(   4) = (  0.5000000  0.5000000  0.0000000  )

     number of k points=    84  Gaussian smearing, width (Ry)=  0.0010
                       cart. coord. in units 2pi/alat
        k(    1) = (   0.0000000   0.0000000   0.0000000), wk =   0.0011574
        k(    2) = (   0.0000000   0.0000000   0.0833333), wk =   0.0069444
        k(    3) = (   0.0000000   0.0000000   0.1666667), wk =   0.0069444
        k(    4) = (   0.0000000   0.0000000   0.2500000), wk =   0.0069444
        k(    5) = (   0.0000000   0.0000000   0.3333333), wk =   0.0069444
        k(    6) = (   0.0000000   0.0000000   0.4166667), wk =   0.0069444
        k(    7) = (   0.0000000   0.0000000  -0.5000000), wk =   0.0034722
        k(    8) = (   0.0000000   0.0833333   0.0833333), wk =   0.0138889
        k(    9) = (   0.0000000   0.0833333   0.1666667), wk =   0.0277778
        k(   10) = (   0.0000000   0.0833333   0.2500000), wk =   0.0277778
        k(   11) = (   0.0000000   0.0833333   0.3333333), wk =   0.0277778
        k(   12) = (   0.0000000   0.0833333   0.4166667), wk =   0.0277778
        k(   13) = (   0.0000000   0.0833333  -0.5000000), wk =   0.0138889
        k(   14) = (   0.0000000   0.1666667   0.1666667), wk =   0.0138889
        k(   15) = (   0.0000000   0.1666667   0.2500000), wk =   0.0277778
        k(   16) = (   0.0000000   0.1666667   0.3333333), wk =   0.0277778
        k(   17) = (   0.0000000   0.1666667   0.4166667), wk =   0.0277778
        k(   18) = (   0.0000000   0.1666667  -0.5000000), wk =   0.0138889
        k(   19) = (   0.0000000   0.2500000   0.2500000), wk =   0.0138889
        k(   20) = (   0.0000000   0.2500000   0.3333333), wk =   0.0277778
        k(   21) = (   0.0000000   0.2500000   0.4166667), wk =   0.0277778
        k(   22) = (   0.0000000   0.2500000  -0.5000000), wk =   0.0138889
        k(   23) = (   0.0000000   0.3333333   0.3333333), wk =   0.0138889
        k(   24) = (   0.0000000   0.3333333   0.4166667), wk =   0.0277778
        k(   25) = (   0.0000000   0.3333333  -0.5000000), wk =   0.0138889
        k(   26) = (   0.0000000   0.4166667   0.4166667), wk =   0.0138889
        k(   27) = (   0.0000000   0.4166667  -0.5000000), wk =   0.0138889
        k(   28) = (   0.0000000  -0.5000000  -0.5000000), wk =   0.0034722
        k(   29) = (   0.0833333   0.0833333   0.0833333), wk =   0.0092593
        k(   30) = (   0.0833333   0.0833333   0.1666667), wk =   0.0277778
        k(   31) = (   0.0833333   0.0833333   0.2500000), wk =   0.0277778
        k(   32) = (   0.0833333   0.0833333   0.3333333), wk =   0.0277778
        k(   33) = (   0.0833333   0.0833333   0.4166667), wk =   0.0277778
        k(   34) = (   0.0833333   0.0833333  -0.5000000), wk =   0.0138889
        k(   35) = (   0.0833333   0.1666667   0.1666667), wk =   0.0277778
        k(   36) = (   0.0833333   0.1666667   0.2500000), wk =   0.0555556
        k(   37) = (   0.0833333   0.1666667   0.3333333), wk =   0.0555556
        k(   38) = (   0.0833333   0.1666667   0.4166667), wk =   0.0555556
        k(   39) = (   0.0833333   0.1666667  -0.5000000), wk =   0.0277778
        k(   40) = (   0.0833333   0.2500000   0.2500000), wk =   0.0277778
        k(   41) = (   0.0833333   0.2500000   0.3333333), wk =   0.0555556
        k(   42) = (   0.0833333   0.2500000   0.4166667), wk =   0.0555556
        k(   43) = (   0.0833333   0.2500000  -0.5000000), wk =   0.0277778
        k(   44) = (   0.0833333   0.3333333   0.3333333), wk =   0.0277778
        k(   45) = (   0.0833333   0.3333333   0.4166667), wk =   0.0555556
        k(   46) = (   0.0833333   0.3333333  -0.5000000), wk =   0.0277778
        k(   47) = (   0.0833333   0.4166667   0.4166667), wk =   0.0277778
        k(   48) = (   0.0833333   0.4166667  -0.5000000), wk =   0.0277778
        k(   49) = (   0.0833333  -0.5000000  -0.5000000), wk =   0.0069444
        k(   50) = (   0.1666667   0.1666667   0.1666667), wk =   0.0092593
        k(   51) = (   0.1666667   0.1666667   0.2500000), wk =   0.0277778
        k(   52) = (   0.1666667   0.1666667   0.3333333), wk =   0.0277778
        k(   53) = (   0.1666667   0.1666667   0.4166667), wk =   0.0277778
        k(   54) = (   0.1666667   0.1666667  -0.5000000), wk =   0.0138889
        k(   55) = (   0.1666667   0.2500000   0.2500000), wk =   0.0277778
        k(   56) = (   0.1666667   0.2500000   0.3333333), wk =   0.0555556
        k(   57) = (   0.1666667   0.2500000   0.4166667), wk =   0.0555556
        k(   58) = (   0.1666667   0.2500000  -0.5000000), wk =   0.0277778
        k(   59) = (   0.1666667   0.3333333   0.3333333), wk =   0.0277778
        k(   60) = (   0.1666667   0.3333333   0.4166667), wk =   0.0555556
        k(   61) = (   0.1666667   0.3333333  -0.5000000), wk =   0.0277778
        k(   62) = (   0.1666667   0.4166667   0.4166667), wk =   0.0277778
        k(   63) = (   0.1666667   0.4166667  -0.5000000), wk =   0.0277778
        k(   64) = (   0.1666667  -0.5000000  -0.5000000), wk =   0.0069444
        k(   65) = (   0.2500000   0.2500000   0.2500000), wk =   0.0092593
        k(   66) = (   0.2500000   0.2500000   0.3333333), wk =   0.0277778
        k(   67) = (   0.2500000   0.2500000   0.4166667), wk =   0.0277778
        k(   68) = (   0.2500000   0.2500000  -0.5000000), wk =   0.0138889
        k(   69) = (   0.2500000   0.3333333   0.3333333), wk =   0.0277778
        k(   70) = (   0.2500000   0.3333333   0.4166667), wk =   0.0555556
        k(   71) = (   0.2500000   0.3333333  -0.5000000), wk =   0.0277778
        k(   72) = (   0.2500000   0.4166667   0.4166667), wk =   0.0277778
        k(   73) = (   0.2500000   0.4166667  -0.5000000), wk =   0.0277778
        k(   74) = (   0.2500000  -0.5000000  -0.5000000), wk =   0.0069444
        k(   75) = (   0.3333333   0.3333333   0.3333333), wk =   0.0092593
        k(   76) = (   0.3333333   0.3333333   0.4166667), wk =   0.0277778
        k(   77) = (   0.3333333   0.3333333  -0.5000000), wk =   0.0138889
        k(   78) = (   0.3333333   0.4166667   0.4166667), wk =   0.0277778
        k(   79) = (   0.3333333   0.4166667  -0.5000000), wk =   0.0277778
        k(   80) = (   0.3333333  -0.5000000  -0.5000000), wk =   0.0069444
        k(   81) = (   0.4166667   0.4166667   0.4166667), wk =   0.0092593
        k(   82) = (   0.4166667   0.4166667  -0.5000000), wk =   0.0138889
        k(   83) = (   0.4166667  -0.5000000  -0.5000000), wk =   0.0069444
        k(   84) = (  -0.5000000  -0.5000000  -0.5000000), wk =   0.0011574

                       cryst. coord.
        k(    1) = (   0.0000000   0.0000000   0.0000000), wk =   0.0011574
        k(    2) = (   0.0000000   0.0000000   0.0833333), wk =   0.0069444
        k(    3) = (   0.0000000   0.0000000   0.1666667), wk =   0.0069444
        k(    4) = (   0.0000000   0.0000000   0.2500000), wk =   0.0069444
        k(    5) = (   0.0000000   0.0000000   0.3333333), wk =   0.0069444
        k(    6) = (   0.0000000   0.0000000   0.4166667), wk =   0.0069444
        k(    7) = (   0.0000000   0.0000000  -0.5000000), wk =   0.0034722
        k(    8) = (   0.0000000   0.0833333   0.0833333), wk =   0.0138889
        k(    9) = (   0.0000000   0.0833333   0.1666667), wk =   0.0277778
        k(   10) = (   0.0000000   0.0833333   0.2500000), wk =   0.0277778
        k(   11) = (   0.0000000   0.0833333   0.3333333), wk =   0.0277778
        k(   12) = (   0.0000000   0.0833333   0.4166667), wk =   0.0277778
        k(   13) = (   0.0000000   0.0833333  -0.5000000), wk =   0.0138889
        k(   14) = (   0.0000000   0.1666667   0.1666667), wk =   0.0138889
        k(   15) = (   0.0000000   0.1666667   0.2500000), wk =   0.0277778
        k(   16) = (   0.0000000   0.1666667   0.3333333), wk =   0.0277778
        k(   17) = (   0.0000000   0.1666667   0.4166667), wk =   0.0277778
        k(   18) = (   0.0000000   0.1666667  -0.5000000), wk =   0.0138889
        k(   19) = (   0.0000000   0.2500000   0.2500000), wk =   0.0138889
        k(   20) = (   0.0000000   0.2500000   0.3333333), wk =   0.0277778
        k(   21) = (   0.0000000   0.2500000   0.4166667), wk =   0.0277778
        k(   22) = (   0.0000000   0.2500000  -0.5000000), wk =   0.0138889
        k(   23) = (   0.0000000   0.3333333   0.3333333), wk =   0.0138889
        k(   24) = (   0.0000000   0.3333333   0.4166667), wk =   0.0277778
        k(   25) = (   0.0000000   0.3333333  -0.5000000), wk =   0.0138889
        k(   26) = (   0.0000000   0.4166667   0.4166667), wk =   0.0138889
        k(   27) = (   0.0000000   0.4166667  -0.5000000), wk =   0.0138889
        k(   28) = (   0.0000000  -0.5000000  -0.5000000), wk =   0.0034722
        k(   29) = (   0.0833333   0.0833333   0.0833333), wk =   0.0092593
        k(   30) = (   0.0833333   0.0833333   0.1666667), wk =   0.0277778
        k(   31) = (   0.0833333   0.0833333   0.2500000), wk =   0.0277778
        k(   32) = (   0.0833333   0.0833333   0.3333333), wk =   0.0277778
        k(   33) = (   0.0833333   0.0833333   0.4166667), wk =   0.0277778
        k(   34) = (   0.0833333   0.0833333  -0.5000000), wk =   0.0138889
        k(   35) = (   0.0833333   0.1666667   0.1666667), wk =   0.0277778
        k(   36) = (   0.0833333   0.1666667   0.2500000), wk =   0.0555556
        k(   37) = (   0.0833333   0.1666667   0.3333333), wk =   0.0555556
        k(   38) = (   0.0833333   0.1666667   0.4166667), wk =   0.0555556
        k(   39) = (   0.0833333   0.1666667  -0.5000000), wk =   0.0277778
        k(   40) = (   0.0833333   0.2500000   0.2500000), wk =   0.0277778
        k(   41) = (   0.0833333   0.2500000   0.3333333), wk =   0.0555556
        k(   42) = (   0.0833333   0.2500000   0.4166667), wk =   0.0555556
        k(   43) = (   0.0833333   0.2500000  -0.5000000), wk =   0.0277778
        k(   44) = (   0.0833333   0.3333333   0.3333333), wk =   0.0277778
        k(   45) = (   0.0833333   0.3333333   0.4166667), wk =   0.0555556
        k(   46) = (   0.0833333   0.3333333  -0.5000000), wk =   0.0277778
        k(   47) = (   0.0833333   0.4166667   0.4166667), wk =   0.0277778
        k(   48) = (   0.0833333   0.4166667  -0.5000000), wk =   0.0277778
        k(   49) = (   0.0833333  -0.5000000  -0.5000000), wk =   0.0069444
        k(   50) = (   0.1666667   0.1666667   0.1666667), wk =   0.0092593
        k(   51) = (   0.1666667   0.1666667   0.2500000), wk =   0.0277778
        k(   52) = (   0.1666667   0.1666667   0.3333333), wk =   0.0277778
        k(   53) = (   0.1666667   0.1666667   0.4166667), wk =   0.0277778
        k(   54) = (   0.1666667   0.1666667  -0.5000000), wk =   0.0138889
        k(   55) = (   0.1666667   0.2500000   0.2500000), wk =   0.0277778
        k(   56) = (   0.1666667   0.2500000   0.3333333), wk =   0.0555556
        k(   57) = (   0.1666667   0.2500000   0.4166667), wk =   0.0555556
        k(   58) = (   0.1666667   0.2500000  -0.5000000), wk =   0.0277778
        k(   59) = (   0.1666667   0.3333333   0.3333333), wk =   0.0277778
        k(   60) = (   0.1666667   0.3333333   0.4166667), wk =   0.0555556
        k(   61) = (   0.1666667   0.3333333  -0.5000000), wk =   0.0277778
        k(   62) = (   0.1666667   0.4166667   0.4166667), wk =   0.0277778
        k(   63) = (   0.1666667   0.4166667  -0.5000000), wk =   0.0277778
        k(   64) = (   0.1666667  -0.5000000  -0.5000000), wk =   0.0069444
        k(   65) = (   0.2500000   0.2500000   0.2500000), wk =   0.0092593
        k(   66) = (   0.2500000   0.2500000   0.3333333), wk =   0.0277778
        k(   67) = (   0.2500000   0.2500000   0.4166667), wk =   0.0277778
        k(   68) = (   0.2500000   0.2500000  -0.5000000), wk =   0.0138889
        k(   69) = (   0.2500000   0.3333333   0.3333333), wk =   0.0277778
        k(   70) = (   0.2500000   0.3333333   0.4166667), wk =   0.0555556
        k(   71) = (   0.2500000   0.3333333  -0.5000000), wk =   0.0277778
        k(   72) = (   0.2500000   0.4166667   0.4166667), wk =   0.0277778
        k(   73) = (   0.2500000   0.4166667  -0.5000000), wk =   0.0277778
        k(   74) = (   0.2500000  -0.5000000  -0.5000000), wk =   0.0069444
        k(   75) = (   0.3333333   0.3333333   0.3333333), wk =   0.0092593
        k(   76) = (   0.3333333   0.3333333   0.4166667), wk =   0.0277778
        k(   77) = (   0.3333333   0.3333333  -0.5000000), wk =   0.0138889
        k(   78) = (   0.3333333   0.4166667   0.4166667), wk =   0.0277778
        k(   79) = (   0.3333333   0.4166667  -0.5000000), wk =   0.0277778
        k(   80) = (   0.3333333  -0.5000000  -0.5000000), wk =   0.0069444
        k(   81) = (   0.4166667   0.4166667   0.4166667), wk =   0.0092593
        k(   82) = (   0.4166667   0.4166667  -0.5000000), wk =   0.0138889
        k(   83) = (   0.4166667  -0.5000000  -0.5000000), wk =   0.0069444
        k(   84) = (  -0.5000000  -0.5000000  -0.5000000), wk =   0.0011574

     Dense  grid:    65117 G-vectors     FFT dimensions: (  50,  50,  50)

     Dynamical RAM for                 wfc:       0.57 MB

     Dynamical RAM for     wfc (w. buffer):      48.68 MB

     Dynamical RAM for           str. fact:       0.10 MB

     Dynamical RAM for           local pot:       0.00 MB

     Dynamical RAM for          nlocal pot:       0.90 MB

     Dynamical RAM for                qrad:       1.83 MB

     Dynamical RAM for          rho,v,vnew:       0.58 MB

     Dynamical RAM for               rhoin:       0.19 MB

     Dynamical RAM for            rho*nmix:       1.59 MB

     Dynamical RAM for           G-vectors:       0.42 MB

     Dynamical RAM for          h,s,v(r/c):       0.39 MB

     Dynamical RAM for          <psi|beta>:       0.05 MB

     Dynamical RAM for                 psi:       1.15 MB

     Dynamical RAM for                hpsi:       1.15 MB

     Dynamical RAM for                spsi:       1.15 MB

     Dynamical RAM for      wfcinit/wfcrot:       1.19 MB

     Dynamical RAM for           addusdens:      18.88 MB

     Estimated static dynamical RAM per process >      53.39 MB

     Estimated max dynamical RAM per process >      73.86 MB

     Estimated total dynamical RAM >     738.56 MB

     The initial density is read from file :
     ./out/Cu.save/charge-density


     starting charge      77.3179, renormalised to      76.0000
     Starting wfcs from file
     Checking if some PAW data can be deallocated... 

     total cpu time spent up to now is        1.7 secs

     Self-consistent Calculation

     iteration #  1     ecut=   130.00 Ry     beta= 0.70
     Davidson diagonalization with overlap

---- Real-time Memory Report at c_bands before calling an iterative solver
            89 MiB given to the printing process from OS
             0 MiB allocation reported by mallinfo(arena+hblkhd)
          1313 MiB available memory on the node where the printing process lives
------------------
     ethr =  1.00E-05,  avg # of iterations =  4.8

     total cpu time spent up to now is       58.0 secs

     total energy              =   -1947.18659684 Ry
     estimated scf accuracy    <       0.59142181 Ry

     iteration #  2     ecut=   130.00 Ry     beta= 0.70
     Davidson diagonalization with overlap

---- Real-time Memory Report at c_bands before calling an iterative solver
           111 MiB given to the printing process from OS
             0 MiB allocation reported by mallinfo(arena+hblkhd)
          1088 MiB available memory on the node where the printing process lives
------------------
     ethr =  7.78E-04,  avg # of iterations =  2.9

     total cpu time spent up to now is       95.1 secs

     total energy              =   -1947.06218682 Ry
     estimated scf accuracy    <       3.33099381 Ry

     iteration #  3     ecut=   130.00 Ry     beta= 0.70
     Davidson diagonalization with overlap

---- Real-time Memory Report at c_bands before calling an iterative solver
           111 MiB given to the printing process from OS
             0 MiB allocation reported by mallinfo(arena+hblkhd)
          1078 MiB available memory on the node where the printing process lives
------------------
     ethr =  7.78E-04,  avg # of iterations =  2.4

     total cpu time spent up to now is      128.3 secs

     total energy              =   -1947.55093662 Ry
     estimated scf accuracy    <       0.00056780 Ry

     iteration #  4     ecut=   130.00 Ry     beta= 0.70
     Davidson diagonalization with overlap

---- Real-time Memory Report at c_bands before calling an iterative solver
           112 MiB given to the printing process from OS
             0 MiB allocation reported by mallinfo(arena+hblkhd)
          1060 MiB available memory on the node where the printing process lives
------------------
     ethr =  7.47E-07,  avg # of iterations =  5.0

     total cpu time spent up to now is      175.0 secs

     total energy              =   -1947.55186096 Ry
     estimated scf accuracy    <       0.00065900 Ry

     iteration #  5     ecut=   130.00 Ry     beta= 0.70
     Davidson diagonalization with overlap

---- Real-time Memory Report at c_bands before calling an iterative solver
           112 MiB given to the printing process from OS
             0 MiB allocation reported by mallinfo(arena+hblkhd)
          1046 MiB available memory on the node where the printing process lives
------------------
     ethr =  7.47E-07,  avg # of iterations =  2.0

     total cpu time spent up to now is      204.9 secs

     total energy              =   -1947.55201130 Ry
     estimated scf accuracy    <       0.00007460 Ry

     iteration #  6     ecut=   130.00 Ry     beta= 0.70
     Davidson diagonalization with overlap

---- Real-time Memory Report at c_bands before calling an iterative solver
           112 MiB given to the printing process from OS
             0 MiB allocation reported by mallinfo(arena+hblkhd)
          1044 MiB available memory on the node where the printing process lives
------------------
     ethr =  9.82E-08,  avg # of iterations =  2.0

     total cpu time spent up to now is      231.1 secs

     total energy              =   -1947.55199764 Ry
     estimated scf accuracy    <       0.00007120 Ry

     iteration #  7     ecut=   130.00 Ry     beta= 0.70
     Davidson diagonalization with overlap

---- Real-time Memory Report at c_bands before calling an iterative solver
           112 MiB given to the printing process from OS
             0 MiB allocation reported by mallinfo(arena+hblkhd)
          1033 MiB available memory on the node where the printing process lives
------------------
     ethr =  9.37E-08,  avg # of iterations =  2.0

     total cpu time spent up to now is      258.9 secs

     total energy              =   -1947.55200716 Ry
     estimated scf accuracy    <       0.00000026 Ry

     iteration #  8     ecut=   130.00 Ry     beta= 0.70
     Davidson diagonalization with overlap

---- Real-time Memory Report at c_bands before calling an iterative solver
           113 MiB given to the printing process from OS
             0 MiB allocation reported by mallinfo(arena+hblkhd)
          1028 MiB available memory on the node where the printing process lives
------------------
     ethr =  3.36E-10,  avg # of iterations =  2.2

     total cpu time spent up to now is      289.5 secs

     total energy              =   -1947.55200718 Ry
     estimated scf accuracy    <       0.00000014 Ry

     iteration #  9     ecut=   130.00 Ry     beta= 0.70
     Davidson diagonalization with overlap

---- Real-time Memory Report at c_bands before calling an iterative solver
           113 MiB given to the printing process from OS
             0 MiB allocation reported by mallinfo(arena+hblkhd)
          1026 MiB available memory on the node where the printing process lives
------------------
     ethr =  1.84E-10,  avg # of iterations =  2.0

     total cpu time spent up to now is      317.6 secs

     End of self-consistent calculation

          k = 0.0000 0.0000 0.0000 (  8217 PWs)   bands (ev):

   -96.7773 -96.7608 -96.7608 -96.7608 -54.1899 -54.1899 -54.1899 -54.1342
   -54.1342 -54.1342 -54.1342 -54.1342 -54.1342 -54.0965 -54.0965 -54.0965
     6.5232  11.0157  11.0157  11.0157  11.4719  11.4719  11.4719  12.8355
    12.8355  12.8355  13.6396  13.6396  14.1774  14.1774  14.1774  14.3352
    14.3352  14.3352  14.3352  14.3352  14.3352  17.2497  17.2497  17.2497
    22.6995  22.6995  22.6995  28.6657  28.6657  28.6657

     occupation numbers 
     1.0000   1.0000   1.0000   1.0000   1.0000   1.0000   1.0000   1.0000
     1.0000   1.0000   1.0000   1.0000   1.0000   1.0000   1.0000   1.0000
     1.0000   1.0000   1.0000   1.0000   1.0000   1.0000   1.0000   1.0000
     1.0000   1.0000   1.0000   1.0000   1.0000   1.0000   1.0000   1.0000
     1.0000   1.0000   1.0000   1.0000   1.0000   0.0000   0.0000   0.0000
     0.0000   0.0000   0.0000   0.0000   0.0000   0.0000

          k = 0.0000 0.0000 0.0833 (  8209 PWs)   bands (ev):

   -96.7771 -96.7611 -96.7608 -96.7608 -54.1889 -54.1889 -54.1883 -54.1352
   -54.1352 -54.1343 -54.1343 -54.1336 -54.1336 -54.0981 -54.0972 -54.0972
     6.6065  11.0133  11.0546  11.0546  11.4939  11.4950  11.4950  12.8110
    12.8551  12.8551  13.6174  13.6485  14.1486  14.1486  14.1680  14.1884
    14.1884  14.3012  14.3012  14.3352  14.3352  16.7333  17.4709  17.4709
    22.7304  22.7304  23.3821  28.1099  28.1099  28.2989

     occupation numbers 
     1.0000   1.0000   1.0000   1.0000   1.0000   1.0000   1.0000   1.0000
     1.0000   1.0000   1.0000   1.0000   1.0000   1.0000   1.0000   1.0000
     1.0000   1.0000   1.0000   1.0000   1.0000   1.0000   1.0000   1.0000
     1.0000   1.0000   1.0000   1.0000   1.0000   1.0000   1.0000   1.0000
     1.0000   1.0000   1.0000   1.0000   1.0000   0.0000   0.0000   0.0000
     0.0000   0.0000   0.0000   0.0000   0.0000   0.0000

          k = 0.0000 0.0000 0.1667 (  8161 PWs)   bands (ev):

   -96.7762 -96.7619 -96.7608 -96.7608 -54.1861 -54.1861 -54.1837 -54.1380
   -54.1380 -54.1344 -54.1343 -54.1317 -54.1317 -54.1029 -54.0990 -54.0990
     6.8549  10.9891  11.1658  11.1658  11.5586  11.5647  11.5647  12.7393
    12.9133  12.9133  13.5533  13.6748  13.8423  13.8423  14.0650  14.0651
    14.1406  14.2040  14.2040  14.3354  14.3354  15.6546  18.0399  18.0399
    22.8261  22.8261  24.9730  26.9428  26.9428  27.4527

     occupation numbers 
     1.0000   1.0000   1.0000   1.0000   1.0000   1.0000   1.0000   1.0000
     1.0000   1.0000   1.0000   1.0000   1.0000   1.0000   1.0000   1.0000
     1.0000   1.0000   1.0000   1.0000   1.0000   1.0000   1.0000   1.0000
     1.0000   1.0000   1.0000   1.0000   1.0000   1.0000   1.0000   1.0000
     1.0000   1.0000   1.0000   1.0000   1.0000   1.0000   0.0000   0.0000
     0.0000   0.0000   0.0000   0.0000   0.0000   0.0000

          k = 0.0000 0.0000 0.2500 (  8165 PWs)   bands (ev):

   -96.7749 -96.7632 -96.7608 -96.7608 -54.1817 -54.1817 -54.1765 -54.1424
   -54.1424 -54.1345 -54.1345 -54.1287 -54.1287 -54.1104 -54.1020 -54.1020
     7.2625  10.8824  11.3321  11.3321  11.6623  11.6821  11.6821  12.6262
    13.0087  13.0087  13.4317  13.4317  13.4554  13.7168  13.9364  13.9364
    14.0561  14.0561  14.0970  14.3356  14.3356  14.5572  18.8204  18.8204
    22.9955  22.9955  25.6330  25.6330  26.4823  26.4823

     occupation numbers 
     1.0000   1.0000   1.0000   1.0000   1.0000   1.0000   1.0000   1.0000
     1.0000   1.0000   1.0000   1.0000   1.0000   1.0000   1.0000   1.0000
     1.0000   1.0000   1.0000   1.0000   1.0000   1.0000   1.0000   1.0000
     1.0000   1.0000   1.0000   1.0000   1.0000   1.0000   1.0000   1.0000
     1.0000   1.0000   1.0000   1.0000   1.0000   1.0000   0.0000   0.0000
     0.0000   0.0000   0.0000   0.0000   0.0000   0.0000

          k = 0.0000 0.0000 0.3333 (  8149 PWs)   bands (ev):

   -96.7732 -96.7649 -96.7608 -96.7608 -54.1760 -54.1760 -54.1669 -54.1481
   -54.1481 -54.1346 -54.1346 -54.1248 -54.1248 -54.1202 -54.1059 -54.1059
     7.8178  10.5797  11.5210  11.5210  11.7988  11.8489  11.8489  12.4802
    13.0271  13.0271  13.1386  13.1386  13.3392  13.7286  13.7717  13.7848
    13.7848  13.8748  13.8748  14.0406  14.3357  14.3358  19.7392  19.7392
    23.2519  23.2519  24.3260  24.3260  25.5705  25.5705

     occupation numbers 
     1.0000   1.0000   1.0000   1.0000   1.0000   1.0000   1.0000   1.0000
     1.0000   1.0000   1.0000   1.0000   1.0000   1.0000   1.0000   1.0000
     1.0000   1.0000   1.0000   1.0000   1.0000   1.0000   1.0000   1.0000
     1.0000   1.0000   1.0000   1.0000   1.0000   1.0000   1.0000   1.0000
     1.0000   1.0000   1.0000   1.0000   1.0000   1.0000   0.0000   0.0000
     0.0000   0.0000   0.0000   0.0000   0.0000   0.0000

          k = 0.0000 0.0000 0.4167 (  8153 PWs)   bands (ev):

   -96.7712 -96.7669 -96.7608 -96.7608 -54.1693 -54.1693 -54.1557 -54.1549
   -54.1549 -54.1347 -54.1347 -54.1316 -54.1202 -54.1202 -54.1105 -54.1105
     8.4983  10.0051  11.6804  11.6804  11.9597  12.0668  12.0668  12.3124
    12.6582  12.6582  13.2325  13.2985  13.2985  13.2998  13.6526  13.6526
    13.6779  13.6779  13.8360  13.9751  14.3359  14.3359  20.7634  20.7634
    23.0677  23.0677  23.6084  23.6084  24.7942  24.7942

     occupation numbers 
     1.0000   1.0000   1.0000   1.0000   1.0000   1.0000   1.0000   1.0000
     1.0000   1.0000   1.0000   1.0000   1.0000   1.0000   1.0000   1.0000
     1.0000   1.0000   1.0000   1.0000   1.0000   1.0000   1.0000   1.0000
     1.0000   1.0000   1.0000   1.0000   1.0000   1.0000   1.0000   1.0000
     1.0000   1.0000   1.0000   1.0000   1.0000   1.0000   0.0000   0.0000
     0.0000   0.0000   0.0000   0.0000   0.0000   0.0000

          k = 0.0000 0.0000-0.5000 (  8136 PWs)   bands (ev):

   -96.7691 -96.7691 -96.7608 -96.7608 -54.1621 -54.1621 -54.1621 -54.1621
   -54.1437 -54.1437 -54.1347 -54.1347 -54.1153 -54.1153 -54.1153 -54.1153
     9.2589   9.2589  11.7451  11.7451  12.1348  12.1348  12.3367  12.3367
    12.3367  12.3367  13.1865  13.1865  13.4815  13.4815  13.4815  13.4815
    13.5978  13.5978  13.9053  13.9054  14.3359  14.3359  21.8765  21.8765
    21.8765  21.8765  23.9607  23.9607  24.2980  24.2980

     occupation numbers 
     1.0000   1.0000   1.0000   1.0000   1.0000   1.0000   1.0000   1.0000
     1.0000   1.0000   1.0000   1.0000   1.0000   1.0000   1.0000   1.0000
     1.0000   1.0000   1.0000   1.0000   1.0000   1.0000   1.0000   1.0000
     1.0000   1.0000   1.0000   1.0000   1.0000   1.0000   1.0000   1.0000
     1.0000   1.0000   1.0000   1.0000   1.0000   1.0000   0.0000   0.0000
     0.0000   0.0000   0.0000   0.0000   0.0000   0.0000

          k = 0.0000 0.0833 0.0833 (  8219 PWs)   bands (ev):

   -96.7768 -96.7611 -96.7611 -96.7608 -54.1880 -54.1875 -54.1874 -54.1371
   -54.1345 -54.1345 -54.1336 -54.1336 -54.1333 -54.1006 -54.0978 -54.0969
     6.6895  11.0532  11.0532  11.0925  11.5165  11.5165  11.5173  12.7972
    12.8644  12.8726  13.6113  13.6434  14.0803  14.1053  14.1053  14.1211
    14.1804  14.1804  14.3012  14.3012  14.3135  16.9516  16.9516  17.6754
    22.7617  23.4241  23.4241  26.9815  28.2238  28.2238

     occupation numbers 
     1.0000   1.0000   1.0000   1.0000   1.0000   1.0000   1.0000   1.0000
     1.0000   1.0000   1.0000   1.0000   1.0000   1.0000   1.0000   1.0000
     1.0000   1.0000   1.0000   1.0000   1.0000   1.0000   1.0000   1.0000
     1.0000   1.0000   1.0000   1.0000   1.0000   1.0000   1.0000   1.0000
     1.0000   1.0000   1.0000   1.0000   1.0000   0.0000   0.0000   0.0000
     0.0000   0.0000   0.0000   0.0000   0.0000   0.0000

          k = 0.0000 0.0833 0.1667 (  8174 PWs)   bands (ev):

   -96.7760 -96.7619 -96.7611 -96.7608 -54.1852 -54.1849 -54.1831 -54.1404
   -54.1373 -54.1336 -54.1327 -54.1326 -54.1316 -54.1058 -54.0997 -54.0981
     6.9368  11.0319  11.1673  11.2012  11.5800  11.5844  11.5849  12.7326
    12.9170  12.9245  13.5559  13.6674  13.7753  13.7765  13.9804  14.0410
    14.0732  14.1491  14.2037  14.3010  14.3017  15.8919  17.4946  18.2144
    22.8579  23.5536  25.0274  25.6488  27.0485  27.5562

     occupation numbers 
     1.0000   1.0000   1.0000   1.0000   1.0000   1.0000   1.0000   1.0000
     1.0000   1.0000   1.0000   1.0000   1.0000   1.0000   1.0000   1.0000
     1.0000   1.0000   1.0000   1.0000   1.0000   1.0000   1.0000   1.0000
     1.0000   1.0000   1.0000   1.0000   1.0000   1.0000   1.0000   1.0000
     1.0000   1.0000   1.0000   1.0000   1.0000   0.0000   0.0000   0.0000
     0.0000   0.0000   0.0000   0.0000   0.0000   0.0000

          k = 0.0000 0.0833 0.2500 (  8180 PWs)   bands (ev):

   -96.7747 -96.7632 -96.7610 -96.7608 -54.1809 -54.1808 -54.1763 -54.1449
   -54.1417 -54.1335 -54.1325 -54.1296 -54.1284 -54.1134 -54.1027 -54.1008
     7.3426  10.9304  11.3384  11.3639  11.6816  11.6966  11.7001  12.6235
    13.0065  13.0107  13.3672  13.3940  13.4664  13.7144  13.7589  13.9173
    13.9440  14.0557  14.0915  14.2990  14.3008  14.8756  18.2153  18.9702
    23.0228  23.7810  24.3558  25.7358  26.5745  27.0375

     occupation numbers 
     1.0000   1.0000   1.0000   1.0000   1.0000   1.0000   1.0000   1.0000
     1.0000   1.0000   1.0000   1.0000   1.0000   1.0000   1.0000   1.0000
     1.0000   1.0000   1.0000   1.0000   1.0000   1.0000   1.0000   1.0000
     1.0000   1.0000   1.0000   1.0000   1.0000   1.0000   1.0000   1.0000
     1.0000   1.0000   1.0000   1.0000   1.0000   1.0000   0.0000   0.0000
     0.0000   0.0000   0.0000   0.0000   0.0000   0.0000

          k = 0.0000 0.0833 0.3333 (  8166 PWs)   bands (ev):

   -96.7730 -96.7649 -96.7610 -96.7609 -54.1757 -54.1751 -54.1673 -54.1503
   -54.1474 -54.1334 -54.1326 -54.1257 -54.1243 -54.1229 -54.1066 -54.1047
     7.8951  10.6343  11.5341  11.5511  11.8153  11.8528  11.8635  12.4815
    12.9699  13.0083  13.1003  13.1397  13.3786  13.4279  13.7716  13.7771
    13.7926  13.8743  13.9825  14.2454  14.2985  14.3005  19.0426  19.8716
    23.0221  23.3993  24.1207  24.4293  25.6531  26.8991

     occupation numbers 
     1.0000   1.0000   1.0000   1.0000   1.0000   1.0000   1.0000   1.0000
     1.0000   1.0000   1.0000   1.0000   1.0000   1.0000   1.0000   1.0000
     1.0000   1.0000   1.0000   1.0000   1.0000   1.0000   1.0000   1.0000
     1.0000   1.0000   1.0000   1.0000   1.0000   1.0000   1.0000   1.0000
     1.0000   1.0000   1.0000   1.0000   1.0000   1.0000   0.0000   0.0000
     0.0000   0.0000   0.0000   0.0000   0.0000   0.0000

          k = 0.0000 0.0833 0.4167 (  8164 PWs)   bands (ev):

   -96.7710 -96.7668 -96.7610 -96.7609 -54.1697 -54.1684 -54.1567 -54.1565
   -54.1541 -54.1338 -54.1332 -54.1328 -54.1211 -54.1195 -54.1112 -54.1093
     8.5717  10.0666  11.7021  11.7120  11.9728  12.0525  12.0766  12.3177
    12.6114  12.6524  13.1268  13.1652  13.2989  13.3955  13.6458  13.6583
    13.6775  13.7632  13.8515  14.0339  14.2988  14.3000  19.9480  20.8837
    21.9651  23.1741  23.6972  24.5592  24.8945  26.0060

     occupation numbers 
     1.0000   1.0000   1.0000   1.0000   1.0000   1.0000   1.0000   1.0000
     1.0000   1.0000   1.0000   1.0000   1.0000   1.0000   1.0000   1.0000
     1.0000   1.0000   1.0000   1.0000   1.0000   1.0000   1.0000   1.0000
     1.0000   1.0000   1.0000   1.0000   1.0000   1.0000   1.0000   1.0000
     1.0000   1.0000   1.0000   1.0000   1.0000   1.0000   0.0000   0.0000
     0.0000   0.0000   0.0000   0.0000   0.0000   0.0000

          k = 0.0000 0.0833-0.5000 (  8136 PWs)   bands (ev):

   -96.7689 -96.7689 -96.7609 -96.7609 -54.1631 -54.1631 -54.1613 -54.1612
   -54.1453 -54.1453 -54.1330 -54.1330 -54.1161 -54.1161 -54.1144 -54.1144
     9.3269   9.3269  11.7747  11.7747  12.1441  12.1441  12.3037  12.3037
    12.3400  12.3400  13.0964  13.0964  13.4814  13.4814  13.5496  13.5496
    13.5980  13.5980  13.9350  13.9350  14.2994  14.2994  20.9221  20.9221
    21.9885  21.9885  24.1877  24.1877  25.2425  25.2425

     occupation numbers 
     1.0000   1.0000   1.0000   1.0000   1.0000   1.0000   1.0000   1.0000
     1.0000   1.0000   1.0000   1.0000   1.0000   1.0000   1.0000   1.0000
     1.0000   1.0000   1.0000   1.0000   1.0000   1.0000   1.0000   1.0000
     1.0000   1.0000   1.0000   1.0000   1.0000   1.0000   1.0000   1.0000
     1.0000   1.0000   1.0000   1.0000   1.0000   1.0000   0.0000   0.0000
     0.0000   0.0000   0.0000   0.0000   0.0000   0.0000

          k = 0.0000 0.1667 0.1667 (  8183 PWs)   bands (ev):

   -96.7752 -96.7618 -96.7618 -96.7609 -54.1825 -54.1814 -54.1814 -54.1446
   -54.1354 -54.1353 -54.1313 -54.1313 -54.1307 -54.1119 -54.1016 -54.0980
     7.1809  11.1550  11.1550  11.3020  11.6436  11.6445  11.6445  12.6935
    12.9485  12.9569  13.5359  13.5749  13.6036  13.6036  13.6755  13.9706
    14.0670  14.0670  14.2030  14.2030  14.2489  16.4201  16.4201  18.6931
    22.9480  24.2044  25.1933  25.1933  27.3593  27.3593

     occupation numbers 
     1.0000   1.0000   1.0000   1.0000   1.0000   1.0000   1.0000   1.0000
     1.0000   1.0000   1.0000   1.0000   1.0000   1.0000   1.0000   1.0000
     1.0000   1.0000   1.0000   1.0000   1.0000   1.0000   1.0000   1.0000
     1.0000   1.0000   1.0000   1.0000   1.0000   1.0000   1.0000   1.0000
     1.0000   1.0000   1.0000   1.0000   1.0000   0.0000   0.0000   0.0000
     0.0000   0.0000   0.0000   0.0000   0.0000   0.0000

          k = 0.0000 0.1667 0.2500 (  8188 PWs)   bands (ev):

   -96.7740 -96.7631 -96.7617 -96.7610 -54.1786 -54.1782 -54.1757 -54.1495
   -54.1397 -54.1323 -54.1308 -54.1294 -54.1276 -54.1198 -54.1047 -54.0997
     7.5809  11.0686  11.3410  11.4538  11.7397  11.7410  11.7529  12.6060
    13.0041  13.0274  13.1996  13.2775  13.3563  13.4729  13.7310  13.8607
    13.9444  14.0202  14.0544  14.2019  14.2185  15.3997  17.0727  19.3932
    22.7245  23.2580  25.4762  26.0382  26.8505  27.2147

     occupation numbers 
     1.0000   1.0000   1.0000   1.0000   1.0000   1.0000   1.0000   1.0000
     1.0000   1.0000   1.0000   1.0000   1.0000   1.0000   1.0000   1.0000
     1.0000   1.0000   1.0000   1.0000   1.0000   1.0000   1.0000   1.0000
     1.0000   1.0000   1.0000   1.0000   1.0000   1.0000   1.0000   1.0000
     1.0000   1.0000   1.0000   1.0000   1.0000   1.0000   0.0000   0.0000
     0.0000   0.0000   0.0000   0.0000   0.0000   0.0000

          k = 0.0000 0.1667 0.3333 (  8170 PWs)   bands (ev):

   -96.7724 -96.7647 -96.7616 -96.7611 -54.1749 -54.1726 -54.1682 -54.1547
   -54.1453 -54.1301 -54.1291 -54.1287 -54.1282 -54.1230 -54.1087 -54.1028
     8.1246  10.7919  11.5578  11.6341  11.8648  11.8678  11.9062  12.4805
    12.8228  12.9497  13.0393  13.0965  13.1485  13.4196  13.7307  13.7972
    13.8183  13.8730  13.9205  14.2005  14.2051  14.6785  17.8026  20.2521
    21.5608  23.4739  24.7332  25.7991  25.9871  28.5244

     occupation numbers 
     1.0000   1.0000   1.0000   1.0000   1.0000   1.0000   1.0000   1.0000
     1.0000   1.0000   1.0000   1.0000   1.0000   1.0000   1.0000   1.0000
     1.0000   1.0000   1.0000   1.0000   1.0000   1.0000   1.0000   1.0000
     1.0000   1.0000   1.0000   1.0000   1.0000   1.0000   1.0000   1.0000
     1.0000   1.0000   1.0000   1.0000   1.0000   1.0000   0.0000   0.0000
     0.0000   0.0000   0.0000   0.0000   0.0000   0.0000

          k = 0.0000 0.1667 0.4167 (  8165 PWs)   bands (ev):

   -96.7705 -96.7665 -96.7615 -96.7612 -54.1704 -54.1660 -54.1601 -54.1592
   -54.1519 -54.1391 -54.1294 -54.1286 -54.1235 -54.1177 -54.1134 -54.1072
     8.7886  10.2455  11.7537  11.8022  12.0118  12.0126  12.1050  12.3312
    12.4906  12.6332  12.9526  13.0130  13.3031  13.4546  13.6214  13.6611
    13.6770  13.7624  13.9288  14.1993  14.2000  14.2796  18.6038  20.4673
    21.2332  23.4865  23.8616  25.0575  26.4540  27.9351

     occupation numbers 
     1.0000   1.0000   1.0000   1.0000   1.0000   1.0000   1.0000   1.0000
     1.0000   1.0000   1.0000   1.0000   1.0000   1.0000   1.0000   1.0000
     1.0000   1.0000   1.0000   1.0000   1.0000   1.0000   1.0000   1.0000
     1.0000   1.0000   1.0000   1.0000   1.0000   1.0000   1.0000   1.0000
     1.0000   1.0000   1.0000   1.0000   1.0000   1.0000   0.0000   0.0000
     0.0000   0.0000   0.0000   0.0000   0.0000   0.0000

          k = 0.0000 0.1667-0.5000 (  8150 PWs)   bands (ev):

   -96.7685 -96.7685 -96.7614 -96.7613 -54.1654 -54.1654 -54.1589 -54.1589
   -54.1493 -54.1493 -54.1289 -54.1289 -54.1185 -54.1185 -54.1123 -54.1123
     9.5267   9.5267  11.8565  11.8565  12.1710  12.1710  12.2138  12.2138
    12.3485  12.3485  12.9523  12.9523  13.4826  13.4826  13.5861  13.5861
    13.5899  13.5899  14.0689  14.0689  14.1988  14.1988  19.4863  19.4863
    22.3158  22.3159  24.3863  24.3864  27.1357  27.1357

     occupation numbers 
     1.0000   1.0000   1.0000   1.0000   1.0000   1.0000   1.0000   1.0000
     1.0000   1.0000   1.0000   1.0000   1.0000   1.0000   1.0000   1.0000
     1.0000   1.0000   1.0000   1.0000   1.0000   1.0000   1.0000   1.0000
     1.0000   1.0000   1.0000   1.0000   1.0000   1.0000   1.0000   1.0000
     1.0000   1.0000   1.0000   1.0000   1.0000   1.0000   0.0000   0.0000
     0.0000   0.0000   0.0000   0.0000   0.0000   0.0000

          k = 0.0000 0.2500 0.2500 (  8174 PWs)   bands (ev):

   -96.7728 -96.7629 -96.7629 -96.7612 -54.1747 -54.1747 -54.1740 -54.1545
   -54.1365 -54.1365 -54.1278 -54.1267 -54.1266 -54.1265 -54.1079 -54.1000
     7.9706  11.2794  11.2794  11.5864  11.8155  11.8370  11.8370  12.5549
    12.9819  12.9819  13.0045  13.0806  13.0865  13.4382  13.7702  13.8054
    13.9065  13.9065  14.0528  14.0528  14.1437  15.9856  15.9856  20.0342
    21.4002  23.4027  26.5246  26.5246  27.2362  27.2362

     occupation numbers 
     1.0000   1.0000   1.0000   1.0000   1.0000   1.0000   1.0000   1.0000
     1.0000   1.0000   1.0000   1.0000   1.0000   1.0000   1.0000   1.0000
     1.0000   1.0000   1.0000   1.0000   1.0000   1.0000   1.0000   1.0000
     1.0000   1.0000   1.0000   1.0000   1.0000   1.0000   1.0000   1.0000
     1.0000   1.0000   1.0000   1.0000   1.0000   0.0000   0.0000   0.0000
     0.0000   0.0000   0.0000   0.0000   0.0000   0.0000

          k = 0.0000 0.2500 0.3333 (  8178 PWs)   bands (ev):

   -96.7714 -96.7643 -96.7626 -96.7614 -54.1730 -54.1692 -54.1685 -54.1594
   -54.1420 -54.1366 -54.1323 -54.1253 -54.1249 -54.1214 -54.1121 -54.1021
     8.4983  11.0336  11.5302  11.7437  11.9073  11.9469  11.9736  12.4649
    12.6505  12.8052  12.8480  12.9899  13.1799  13.3984  13.6609  13.7671
    13.8151  13.8721  13.9306  14.0515  14.0952  15.1580  16.6286  20.1707
    20.8427  23.7067  25.2217  26.2798  27.1744  27.8753

     occupation numbers 
     1.0000   1.0000   1.0000   1.0000   1.0000   1.0000   1.0000   1.0000
     1.0000   1.0000   1.0000   1.0000   1.0000   1.0000   1.0000   1.0000
     1.0000   1.0000   1.0000   1.0000   1.0000   1.0000   1.0000   1.0000
     1.0000   1.0000   1.0000   1.0000   1.0000   1.0000   1.0000   1.0000
     1.0000   1.0000   1.0000   1.0000   1.0000   1.0000   0.0000   0.0000
     0.0000   0.0000   0.0000   0.0000   0.0000   0.0000

          k = 0.0000 0.2500 0.4167 (  8167 PWs)   bands (ev):

   -96.7697 -96.7660 -96.7623 -96.7617 -54.1707 -54.1638 -54.1624 -54.1621
   -54.1484 -54.1457 -54.1274 -54.1243 -54.1239 -54.1170 -54.1158 -54.1056
     9.1389  10.5240  11.7701  11.9199  11.9697  12.0750  12.1486  12.3458
    12.3650  12.5968  12.7611  12.9258  13.3199  13.4233  13.5709  13.6336
    13.6762  13.6790  14.0521  14.0690  14.0934  14.6271  17.3440  19.0915
    21.7844  23.9872  24.1349  25.4157  27.9664  28.6275

     occupation numbers 
     1.0000   1.0000   1.0000   1.0000   1.0000   1.0000   1.0000   1.0000
     1.0000   1.0000   1.0000   1.0000   1.0000   1.0000   1.0000   1.0000
     1.0000   1.0000   1.0000   1.0000   1.0000   1.0000   1.0000   1.0000
     1.0000   1.0000   1.0000   1.0000   1.0000   1.0000   1.0000   1.0000
     1.0000   1.0000   1.0000   1.0000   1.0000   1.0000   0.0000   0.0000
     0.0000   0.0000   0.0000   0.0000   0.0000   0.0000

          k = 0.0000 0.2500-0.5000 (  8152 PWs)   bands (ev):

   -96.7679 -96.7678 -96.7620 -96.7620 -54.1676 -54.1676 -54.1552 -54.1552
   -54.1544 -54.1544 -54.1238 -54.1238 -54.1222 -54.1222 -54.1104 -54.1103
     9.8445   9.8446  11.9324  11.9324  12.1235  12.1235  12.2116  12.2116
    12.3588  12.3588  12.8274  12.8274  13.4902  13.4902  13.5283  13.5283
    13.5551  13.5552  14.0566  14.0566  14.3072  14.3072  18.1560  18.1560
    22.8374  22.8374  24.7007  24.7007  28.8830  28.8830

     occupation numbers 
     1.0000   1.0000   1.0000   1.0000   1.0000   1.0000   1.0000   1.0000
     1.0000   1.0000   1.0000   1.0000   1.0000   1.0000   1.0000   1.0000
     1.0000   1.0000   1.0000   1.0000   1.0000   1.0000   1.0000   1.0000
     1.0000   1.0000   1.0000   1.0000   1.0000   1.0000   1.0000   1.0000
     1.0000   1.0000   1.0000   1.0000   1.0000   1.0000   0.0000   0.0000
     0.0000   0.0000   0.0000   0.0000   0.0000   0.0000

          k = 0.0000 0.3333 0.3333 (  8162 PWs)   bands (ev):

   -96.7701 -96.7639 -96.7639 -96.7618 -54.1699 -54.1699 -54.1635 -54.1632
   -54.1446 -54.1376 -54.1376 -54.1218 -54.1198 -54.1198 -54.1165 -54.1029
     9.0005  11.3233  11.3233  11.8266  11.9960  12.0603  12.0603  12.4225
    12.5606  12.5606  12.7063  12.9419  13.2492  13.3507  13.5707  13.6847
    13.6847  13.8738  13.8738  14.0019  14.1017  15.6909  15.6909  18.9456
    21.6042  24.0546  25.8744  25.8744  26.8299  26.8299

     occupation numbers 
     1.0000   1.0000   1.0000   1.0000   1.0000   1.0000   1.0000   1.0000
     1.0000   1.0000   1.0000   1.0000   1.0000   1.0000   1.0000   1.0000
     1.0000   1.0000   1.0000   1.0000   1.0000   1.0000   1.0000   1.0000
     1.0000   1.0000   1.0000   1.0000   1.0000   1.0000   1.0000   1.0000
     1.0000   1.0000   1.0000   1.0000   1.0000   1.0000   1.0000   0.0000
     0.0000   0.0000   0.0000   0.0000   0.0000   0.0000

          k = 0.0000 0.3333 0.4167 (  8154 PWs)   bands (ev):

   -96.7686 -96.7654 -96.7634 -96.7623 -54.1698 -54.1666 -54.1654 -54.1570
   -54.1524 -54.1438 -54.1325 -54.1216 -54.1197 -54.1189 -54.1143 -54.1054
     9.6026  10.8676  11.6024  11.8552  12.1100  12.1588  12.2019  12.3514
    12.3665  12.5389  12.6087  12.8585  13.3500  13.3619  13.4931  13.5585
    13.5585  13.6879  13.8816  13.9380  14.3206  15.0353  16.3018  17.8992
    22.5061  24.5298  24.6542  25.9126  26.6711  27.5239

     occupation numbers 
     1.0000   1.0000   1.0000   1.0000   1.0000   1.0000   1.0000   1.0000
     1.0000   1.0000   1.0000   1.0000   1.0000   1.0000   1.0000   1.0000
     1.0000   1.0000   1.0000   1.0000   1.0000   1.0000   1.0000   1.0000
     1.0000   1.0000   1.0000   1.0000   1.0000   1.0000   1.0000   1.0000
     1.0000   1.0000   1.0000   1.0000   1.0000   1.0000   0.0000   0.0000
     0.0000   0.0000   0.0000   0.0000   0.0000   0.0000

          k = 0.0000 0.3333-0.5000 (  8140 PWs)   bands (ev):

   -96.7670 -96.7670 -96.7629 -96.7629 -54.1688 -54.1688 -54.1594 -54.1594
   -54.1504 -54.1504 -54.1270 -54.1270 -54.1188 -54.1188 -54.1093 -54.1093
    10.2536  10.2536  11.7945  11.7945  12.2227  12.2227  12.2596  12.2596
    12.3652  12.3652  12.7321  12.7321  13.4292  13.4292  13.4822  13.4822
    13.5122  13.5122  13.9005  13.9006  14.6099  14.6099  17.0259  17.0259
    23.5276  23.5276  25.1458  25.1458  27.5955  27.5955

     occupation numbers 
     1.0000   1.0000   1.0000   1.0000   1.0000   1.0000   1.0000   1.0000
     1.0000   1.0000   1.0000   1.0000   1.0000   1.0000   1.0000   1.0000
     1.0000   1.0000   1.0000   1.0000   1.0000   1.0000   1.0000   1.0000
     1.0000   1.0000   1.0000   1.0000   1.0000   1.0000   1.0000   1.0000
     1.0000   1.0000   1.0000   1.0000   1.0000   1.0000   0.0000   0.0000
     0.0000   0.0000   0.0000   0.0000   0.0000   0.0000

          k = 0.0000 0.4167 0.4167 (  8164 PWs)   bands (ev):

   -96.7673 -96.7647 -96.7646 -96.7631 -54.1683 -54.1676 -54.1676 -54.1586
   -54.1511 -54.1384 -54.1384 -54.1269 -54.1165 -54.1138 -54.1138 -54.1067
    10.1448  11.2216  11.2216  11.7261  12.2573  12.2574  12.2672  12.3389
    12.4586  12.4938  12.4938  12.7785  13.3045  13.4132  13.4404  13.4457
    13.4457  13.7106  13.7106  13.8304  14.6056  15.5227  15.5227  16.9136
    23.3723  25.0577  25.4666  25.4666  26.5518  26.5518

     occupation numbers 
     1.0000   1.0000   1.0000   1.0000   1.0000   1.0000   1.0000   1.0000
     1.0000   1.0000   1.0000   1.0000   1.0000   1.0000   1.0000   1.0000
     1.0000   1.0000   1.0000   1.0000   1.0000   1.0000   1.0000   1.0000
     1.0000   1.0000   1.0000   1.0000   1.0000   1.0000   1.0000   1.0000
     1.0000   1.0000   1.0000   1.0000   1.0000   1.0000   1.0000   0.0000
     0.0000   0.0000   0.0000   0.0000   0.0000   0.0000

          k = 0.0000 0.4167-0.5000 (  8154 PWs)   bands (ev):

   -96.7660 -96.7660 -96.7639 -96.7638 -54.1686 -54.1686 -54.1638 -54.1638
   -54.1448 -54.1447 -54.1327 -54.1326 -54.1145 -54.1145 -54.1096 -54.1096
    10.7094  10.7094  11.5203  11.5203  12.3060  12.3060  12.3612  12.3612
    12.3926  12.3927  12.6509  12.6509  13.3414  13.3414  13.3866  13.3866
    13.5588  13.5588  13.7555  13.7555  14.9827  14.9827  16.1322  16.1322
    24.3637  24.3637  25.7293  25.7293  26.4081  26.4081

     occupation numbers 
     1.0000   1.0000   1.0000   1.0000   1.0000   1.0000   1.0000   1.0000
     1.0000   1.0000   1.0000   1.0000   1.0000   1.0000   1.0000   1.0000
     1.0000   1.0000   1.0000   1.0000   1.0000   1.0000   1.0000   1.0000
     1.0000   1.0000   1.0000   1.0000   1.0000   1.0000   1.0000   1.0000
     1.0000   1.0000   1.0000   1.0000   1.0000   1.0000   0.0000   0.0000
     0.0000   0.0000   0.0000   0.0000   0.0000   0.0000

          k = 0.0000-0.5000-0.5000 (  8116 PWs)   bands (ev):

   -96.7650 -96.7649 -96.7649 -96.7649 -54.1669 -54.1669 -54.1669 -54.1669
   -54.1387 -54.1387 -54.1387 -54.1387 -54.1114 -54.1114 -54.1113 -54.1113
    11.1505  11.1505  11.1506  11.1506  12.3416  12.3416  12.3416  12.3416
    12.5447  12.5447  12.5447  12.5447  13.3221  13.3222  13.3222  13.3222
    13.6390  13.6390  13.6391  13.6391  15.4684  15.4684  15.4685  15.4685
    25.3279  25.3279  25.3279  25.3280  26.4577  26.4577

     occupation numbers 
     1.0000   1.0000   1.0000   1.0000   1.0000   1.0000   1.0000   1.0000
     1.0000   1.0000   1.0000   1.0000   1.0000   1.0000   1.0000   1.0000
     1.0000   1.0000   1.0000   1.0000   1.0000   1.0000   1.0000   1.0000
     1.0000   1.0000   1.0000   1.0000   1.0000   1.0000   1.0000   1.0000
     1.0000   1.0000   1.0000   1.0000   1.0000   1.0000   1.0000   1.0000
     0.0000   0.0000   0.0000   0.0000   0.0000   0.0000

          k = 0.0833 0.0833 0.0833 (  8196 PWs)   bands (ev):

   -96.7765 -96.7611 -96.7611 -96.7611 -54.1866 -54.1866 -54.1866 -54.1363
   -54.1363 -54.1363 -54.1327 -54.1327 -54.1327 -54.1031 -54.0975 -54.0975
     6.7722  11.0919  11.0919  11.0920  11.5384  11.5384  11.5384  12.7844
    12.8807  12.8807  13.6227  13.6227  14.0318  14.0318  14.0318  14.0966
    14.0966  14.0966  14.2970  14.2970  14.2970  17.1490  17.1490  17.1490
    23.4666  23.4666  23.4666  27.0883  27.0883  27.0883

     occupation numbers 
     1.0000   1.0000   1.0000   1.0000   1.0000   1.0000   1.0000   1.0000
     1.0000   1.0000   1.0000   1.0000   1.0000   1.0000   1.0000   1.0000
     1.0000   1.0000   1.0000   1.0000   1.0000   1.0000   1.0000   1.0000
     1.0000   1.0000   1.0000   1.0000   1.0000   1.0000   1.0000   1.0000
     1.0000   1.0000   1.0000   1.0000   1.0000   0.0000   0.0000   0.0000
     0.0000   0.0000   0.0000   0.0000   0.0000   0.0000

          k = 0.0833 0.0833 0.1667 (  8169 PWs)   bands (ev):

   -96.7757 -96.7619 -96.7611 -96.7611 -54.1841 -54.1841 -54.1826 -54.1395
   -54.1395 -54.1341 -54.1321 -54.1321 -54.1309 -54.1086 -54.0993 -54.0984
     7.0183  11.0733  11.2030  11.2030  11.6008  11.6044  11.6044  12.7258
    12.9254  12.9295  13.5644  13.6562  13.7165  13.7165  13.8840  14.0227
    14.0237  14.0238  14.2527  14.2865  14.2865  16.0892  17.6566  17.6566
    23.5971  23.5971  25.0822  25.7506  25.7506  27.4029

     occupation numbers 
     1.0000   1.0000   1.0000   1.0000   1.0000   1.0000   1.0000   1.0000
     1.0000   1.0000   1.0000   1.0000   1.0000   1.0000   1.0000   1.0000
     1.0000   1.0000   1.0000   1.0000   1.0000   1.0000   1.0000   1.0000
     1.0000   1.0000   1.0000   1.0000   1.0000   1.0000   1.0000   1.0000
     1.0000   1.0000   1.0000   1.0000   1.0000   0.0000   0.0000   0.0000
     0.0000   0.0000   0.0000   0.0000   0.0000   0.0000

          k = 0.0833 0.0833 0.2500 (  8168 PWs)   bands (ev):

   -96.7744 -96.7631 -96.7611 -96.7611 -54.1802 -54.1802 -54.1762 -54.1438
   -54.1438 -54.1318 -54.1318 -54.1306 -54.1280 -54.1162 -54.1022 -54.1009
     7.4221  10.9761  11.3697  11.3697  11.7007  11.7144  11.7144  12.6215
    13.0048  13.0100  13.3341  13.3341  13.4823  13.6296  13.7093  13.9033
    13.9101  13.9101  14.1902  14.2779  14.2780  15.0755  18.3490  18.3490
    23.8163  23.8163  24.4600  24.4600  27.0942  27.9148

     occupation numbers 
     1.0000   1.0000   1.0000   1.0000   1.0000   1.0000   1.0000   1.0000
     1.0000   1.0000   1.0000   1.0000   1.0000   1.0000   1.0000   1.0000
     1.0000   1.0000   1.0000   1.0000   1.0000   1.0000   1.0000   1.0000
     1.0000   1.0000   1.0000   1.0000   1.0000   1.0000   1.0000   1.0000
     1.0000   1.0000   1.0000   1.0000   1.0000   1.0000   0.0000   0.0000
     0.0000   0.0000   0.0000   0.0000   0.0000   0.0000

          k = 0.0833 0.0833 0.3333 (  8164 PWs)   bands (ev):

   -96.7728 -96.7648 -96.7611 -96.7611 -54.1752 -54.1752 -54.1678 -54.1491
   -54.1491 -54.1317 -54.1316 -54.1260 -54.1256 -54.1242 -54.1060 -54.1048
     7.9715  10.6860  11.5627  11.5628  11.8321  11.8664  11.8664  12.4838
    12.9566  12.9566  13.0842  13.1203  13.3078  13.4200  13.7512  13.7701
    13.7701  13.7784  14.1155  14.2730  14.2730  14.3688  19.1547  19.1547
    23.2085  23.2085  24.1971  24.1971  26.9866  26.9866

     occupation numbers 
     1.0000   1.0000   1.0000   1.0000   1.0000   1.0000   1.0000   1.0000
     1.0000   1.0000   1.0000   1.0000   1.0000   1.0000   1.0000   1.0000
     1.0000   1.0000   1.0000   1.0000   1.0000   1.0000   1.0000   1.0000
     1.0000   1.0000   1.0000   1.0000   1.0000   1.0000   1.0000   1.0000
     1.0000   1.0000   1.0000   1.0000   1.0000   1.0000   0.0000   0.0000
     0.0000   0.0000   0.0000   0.0000   0.0000   0.0000

          k = 0.0833 0.0833 0.4167 (  8156 PWs)   bands (ev):

   -96.7709 -96.7667 -96.7611 -96.7611 -54.1696 -54.1696 -54.1578 -54.1548
   -54.1548 -54.1361 -54.1316 -54.1316 -54.1207 -54.1198 -54.1104 -54.1097
     8.6438  10.1255  11.7330  11.7330  11.9868  12.0549  12.0549  12.3242
    12.6165  12.6165  13.0853  13.0885  13.2569  13.4786  13.5829  13.6446
    13.6446  13.8588  13.9461  14.0325  14.2706  14.2707  20.0372  20.0372
    22.0963  22.0963  24.6706  24.6706  26.0860  26.0860

     occupation numbers 
     1.0000   1.0000   1.0000   1.0000   1.0000   1.0000   1.0000   1.0000
     1.0000   1.0000   1.0000   1.0000   1.0000   1.0000   1.0000   1.0000
     1.0000   1.0000   1.0000   1.0000   1.0000   1.0000   1.0000   1.0000
     1.0000   1.0000   1.0000   1.0000   1.0000   1.0000   1.0000   1.0000
     1.0000   1.0000   1.0000   1.0000   1.0000   1.0000   0.0000   0.0000
     0.0000   0.0000   0.0000   0.0000   0.0000   0.0000

          k = 0.0833 0.0833-0.5000 (  8152 PWs)   bands (ev):

   -96.7688 -96.7688 -96.7611 -96.7611 -54.1657 -54.1657 -54.1587 -54.1587
   -54.1470 -54.1470 -54.1316 -54.1316 -54.1152 -54.1151 -54.1151 -54.1151
     9.3931   9.3931  11.8052  11.8052  12.1546  12.1546  12.2289  12.2289
    12.3873  12.3873  13.0443  13.0443  13.4141  13.4141  13.5919  13.5919
    13.6667  13.6667  13.9452  13.9452  14.2699  14.2700  20.8106  20.8106
    21.2471  21.2471  25.2243  25.2243  25.3835  25.3836

     occupation numbers 
     1.0000   1.0000   1.0000   1.0000   1.0000   1.0000   1.0000   1.0000
     1.0000   1.0000   1.0000   1.0000   1.0000   1.0000   1.0000   1.0000
     1.0000   1.0000   1.0000   1.0000   1.0000   1.0000   1.0000   1.0000
     1.0000   1.0000   1.0000   1.0000   1.0000   1.0000   1.0000   1.0000
     1.0000   1.0000   1.0000   1.0000   1.0000   1.0000   0.0000   0.0000
     0.0000   0.0000   0.0000   0.0000   0.0000   0.0000

          k = 0.0833 0.1667 0.1667 (  8179 PWs)   bands (ev):

   -96.7750 -96.7618 -96.7618 -96.7611 -54.1818 -54.1810 -54.1810 -54.1434
   -54.1369 -54.1369 -54.1302 -54.1302 -54.1302 -54.1147 -54.1008 -54.0986
     7.2610  11.1917  11.1917  11.3047  11.6628  11.6634  11.6634  12.6891
    12.9534  12.9581  13.5218  13.5507  13.5507  13.5565  13.6588  13.9285
    13.9579  13.9579  14.2470  14.2470  14.2563  16.5659  16.5659  18.0948
    23.7158  24.3127  25.2465  25.2465  26.0529  26.0529

     occupation numbers 
     1.0000   1.0000   1.0000   1.0000   1.0000   1.0000   1.0000   1.0000
     1.0000   1.0000   1.0000   1.0000   1.0000   1.0000   1.0000   1.0000
     1.0000   1.0000   1.0000   1.0000   1.0000   1.0000   1.0000   1.0000
     1.0000   1.0000   1.0000   1.0000   1.0000   1.0000   1.0000   1.0000
     1.0000   1.0000   1.0000   1.0000   1.0000   0.0000   0.0000   0.0000
     0.0000   0.0000   0.0000   0.0000   0.0000   0.0000

          k = 0.0833 0.1667 0.2500 (  8178 PWs)   bands (ev):

   -96.7737 -96.7630 -96.7618 -96.7612 -54.1784 -54.1782 -54.1759 -54.1478
   -54.1409 -54.1329 -54.1296 -54.1288 -54.1271 -54.1226 -54.1037 -54.1001
     7.6585  11.1070  11.3701  11.4575  11.7583  11.7587  11.7676  12.6066
    13.0025  13.0193  13.1756  13.2290  13.3058  13.5022  13.7191  13.8240
    13.8388  13.8693  14.1875  14.2232  14.2261  15.5213  17.1850  18.7211
    22.9142  24.0090  24.7287  25.5473  26.5206  27.2953

     occupation numbers 
     1.0000   1.0000   1.0000   1.0000   1.0000   1.0000   1.0000   1.0000
     1.0000   1.0000   1.0000   1.0000   1.0000   1.0000   1.0000   1.0000
     1.0000   1.0000   1.0000   1.0000   1.0000   1.0000   1.0000   1.0000
[...]
     1.0000   1.0000   1.0000   1.0000   1.0000   1.0000   1.0000   1.0000
     1.0000   1.0000   1.0000   1.0000   1.0000   1.0000   1.0000   1.0000
     1.0000   1.0000   1.0000   1.0000   1.0000   1.0000   0.0000   0.0000
     0.0000   0.0000   0.0000   0.0000   0.0000   0.0000

          k = 0.2500 0.3333 0.3333 (  8156 PWs)   bands (ev):

   -96.7689 -96.7639 -96.7639 -96.7630 -54.1827 -54.1808 -54.1808 -54.1623
   -54.1345 -54.1283 -54.1282 -54.1190 -54.1185 -54.1184 -54.1086 -54.1057
     9.5169  11.2599  11.2599  11.4601  12.2657  12.3117  12.3117  12.6432
    12.7666  12.7666  12.8415  12.9363  12.9594  13.2324  13.2324  13.2488
    13.7849  13.9691  14.1847  14.2000  14.2001  16.0030  16.0030  17.3895
    20.1863  21.7568  21.7568  25.4683  29.0486  30.8125

     occupation numbers 
     1.0000   1.0000   1.0000   1.0000   1.0000   1.0000   1.0000   1.0000
     1.0000   1.0000   1.0000   1.0000   1.0000   1.0000   1.0000   1.0000
     1.0000   1.0000   1.0000   1.0000   1.0000   1.0000   1.0000   1.0000
     1.0000   1.0000   1.0000   1.0000   1.0000   1.0000   1.0000   1.0000
     1.0000   1.0000   1.0000   1.0000   1.0000   0.0000   0.0000   0.0000
     0.0000   0.0000   0.0000   0.0000   0.0000   0.0000

          k = 0.2500 0.3333 0.4167 (  8158 PWs)   bands (ev):

   -96.7677 -96.7651 -96.7637 -96.7632 -54.1843 -54.1833 -54.1792 -54.1696
   -54.1325 -54.1292 -54.1210 -54.1174 -54.1172 -54.1150 -54.1117 -54.1076
     9.9973  10.9151  11.3130  11.4095  12.3661  12.4047  12.4963  12.6853
    12.7708  12.8239  12.8730  12.8950  12.9721  13.1158  13.1745  13.1765
    13.8796  14.1454  14.1505  14.1515  14.1534  15.0987  16.4737  17.3806
    19.7604  20.7653  22.4807  24.3372  29.6581  31.1333

     occupation numbers 
     1.0000   1.0000   1.0000   1.0000   1.0000   1.0000   1.0000   1.0000
     1.0000   1.0000   1.0000   1.0000   1.0000   1.0000   1.0000   1.0000
     1.0000   1.0000   1.0000   1.0000   1.0000   1.0000   1.0000   1.0000
     1.0000   1.0000   1.0000   1.0000   1.0000   1.0000   1.0000   1.0000
     1.0000   1.0000   1.0000   1.0000   1.0000   1.0000   0.0000   0.0000
     0.0000   0.0000   0.0000   0.0000   0.0000   0.0000

          k = 0.2500 0.3333-0.5000 (  8136 PWs)   bands (ev):

   -96.7664 -96.7664 -96.7635 -96.7635 -54.1845 -54.1845 -54.1754 -54.1754
   -54.1307 -54.1307 -54.1167 -54.1167 -54.1157 -54.1157 -54.1111 -54.1111
    10.4820  10.4820  11.3608  11.3608  12.4143  12.4143  12.6461  12.6461
    12.7976  12.7976  12.8981  12.8981  13.0265  13.0265  13.1486  13.1486
    14.0409  14.0409  14.1258  14.1258  14.4808  14.4808  16.9897  16.9897
    20.0387  20.0387  23.3415  23.3415  30.3939  30.3940

     occupation numbers 
     1.0000   1.0000   1.0000   1.0000   1.0000   1.0000   1.0000   1.0000
     1.0000   1.0000   1.0000   1.0000   1.0000   1.0000   1.0000   1.0000
     1.0000   1.0000   1.0000   1.0000   1.0000   1.0000   1.0000   1.0000
     1.0000   1.0000   1.0000   1.0000   1.0000   1.0000   1.0000   1.0000
     1.0000   1.0000   1.0000   1.0000   1.0000   1.0000   0.0000   0.0000
     0.0000   0.0000   0.0000   0.0000   0.0000   0.0000

          k = 0.2500 0.4167 0.4167 (  8139 PWs)   bands (ev):

   -96.7667 -96.7647 -96.7646 -96.7637 -54.1857 -54.1831 -54.1831 -54.1759
   -54.1288 -54.1231 -54.1231 -54.1151 -54.1148 -54.1137 -54.1137 -54.1082
    10.3678  11.0396  11.0396  11.2792  12.4883  12.5847  12.5847  12.8296
    12.8397  12.8754  12.8754  12.9487  12.9937  13.0716  13.0716  13.0855
    13.8830  14.0911  14.0911  14.1004  14.4154  15.5200  15.5200  16.7581
    19.9638  21.4342  21.4342  23.2241  30.2860  31.9156

     occupation numbers 
     1.0000   1.0000   1.0000   1.0000   1.0000   1.0000   1.0000   1.0000
     1.0000   1.0000   1.0000   1.0000   1.0000   1.0000   1.0000   1.0000
     1.0000   1.0000   1.0000   1.0000   1.0000   1.0000   1.0000   1.0000
     1.0000   1.0000   1.0000   1.0000   1.0000   1.0000   1.0000   1.0000
     1.0000   1.0000   1.0000   1.0000   1.0000   1.0000   1.0000   0.0000
     0.0000   0.0000   0.0000   0.0000   0.0000   0.0000

          k = 0.2500 0.4167-0.5000 (  8138 PWs)   bands (ev):

   -96.7657 -96.7657 -96.7642 -96.7642 -54.1853 -54.1853 -54.1805 -54.1805
   -54.1258 -54.1258 -54.1185 -54.1185 -54.1137 -54.1137 -54.1104 -54.1104
    10.7232  10.7232  11.1579  11.1579  12.5657  12.5657  12.7362  12.7362
    12.8949  12.8949  12.9915  12.9915  12.9923  12.9923  13.0553  13.0553
    13.9804  13.9804  14.0673  14.0673  14.8330  14.8330  16.0799  16.0799
    20.5789  20.5789  22.2562  22.2562  31.0474  31.0474

     occupation numbers 
     1.0000   1.0000   1.0000   1.0000   1.0000   1.0000   1.0000   1.0000
     1.0000   1.0000   1.0000   1.0000   1.0000   1.0000   1.0000   1.0000
     1.0000   1.0000   1.0000   1.0000   1.0000   1.0000   1.0000   1.0000
     1.0000   1.0000   1.0000   1.0000   1.0000   1.0000   1.0000   1.0000
     1.0000   1.0000   1.0000   1.0000   1.0000   1.0000   0.0000   0.0000
     0.0000   0.0000   0.0000   0.0000   0.0000   0.0000

          k = 0.2500-0.5000-0.5000 (  8140 PWs)   bands (ev):

   -96.7649 -96.7649 -96.7649 -96.7649 -54.1839 -54.1839 -54.1839 -54.1839
   -54.1218 -54.1218 -54.1218 -54.1218 -54.1114 -54.1114 -54.1113 -54.1113
    10.9481  10.9481  10.9481  10.9481  12.6790  12.6790  12.6790  12.6790
    12.9853  12.9854  12.9854  12.9854  13.0244  13.0244  13.0244  13.0244
    13.9946  13.9946  13.9946  13.9946  15.3467  15.3467  15.3467  15.3467
    21.3319  21.3319  21.3319  21.3319  31.8337  31.8337

     occupation numbers 
     1.0000   1.0000   1.0000   1.0000   1.0000   1.0000   1.0000   1.0000
     1.0000   1.0000   1.0000   1.0000   1.0000   1.0000   1.0000   1.0000
     1.0000   1.0000   1.0000   1.0000   1.0000   1.0000   1.0000   1.0000
     1.0000   1.0000   1.0000   1.0000   1.0000   1.0000   1.0000   1.0000
     1.0000   1.0000   1.0000   1.0000   1.0000   1.0000   1.0000   1.0000
     0.0000   0.0000   0.0000   0.0000   0.0000   0.0000

          k = 0.3333 0.3333 0.3333 (  8156 PWs)   bands (ev):

   -96.7680 -96.7639 -96.7639 -96.7639 -54.1849 -54.1849 -54.1849 -54.1701
   -54.1256 -54.1256 -54.1256 -54.1171 -54.1171 -54.1171 -54.1076 -54.1076
     9.8647  11.2206  11.2206  11.2206  12.4415  12.4415  12.4415  12.8210
    12.9092  12.9092  12.9092  12.9141  12.9141  13.1196  13.1196  13.1196
    13.9321  13.9321  14.2144  14.2144  14.2144  16.2377  16.2377  16.2377
    20.6573  20.6573  20.6573  24.2104  31.2822  31.2822

     occupation numbers 
     1.0000   1.0000   1.0000   1.0000   1.0000   1.0000   1.0000   1.0000
     1.0000   1.0000   1.0000   1.0000   1.0000   1.0000   1.0000   1.0000
     1.0000   1.0000   1.0000   1.0000   1.0000   1.0000   1.0000   1.0000
     1.0000   1.0000   1.0000   1.0000   1.0000   1.0000   1.0000   1.0000
     1.0000   1.0000   1.0000   1.0000   1.0000   0.0000   0.0000   0.0000
     0.0000   0.0000   0.0000   0.0000   0.0000   0.0000

          k = 0.3333 0.3333 0.4167 (  8144 PWs)   bands (ev):

   -96.7670 -96.7649 -96.7639 -96.7639 -54.1875 -54.1875 -54.1845 -54.1768
   -54.1244 -54.1244 -54.1181 -54.1157 -54.1157 -54.1148 -54.1099 -54.1089
    10.2421  10.9366  11.1912  11.1912  12.5211  12.5211  12.6203  12.8637
    12.9083  12.9737  12.9802  13.0147  13.0371  13.0371  13.0718  13.0718
    14.0494  14.0564  14.1855  14.1855  14.2027  15.2419  16.4737  16.4737
    19.8833  19.8833  21.3179  23.0990  31.8665  31.8665

     occupation numbers 
     1.0000   1.0000   1.0000   1.0000   1.0000   1.0000   1.0000   1.0000
     1.0000   1.0000   1.0000   1.0000   1.0000   1.0000   1.0000   1.0000
     1.0000   1.0000   1.0000   1.0000   1.0000   1.0000   1.0000   1.0000
     1.0000   1.0000   1.0000   1.0000   1.0000   1.0000   1.0000   1.0000
     1.0000   1.0000   1.0000   1.0000   1.0000   1.0000   0.0000   0.0000
     0.0000   0.0000   0.0000   0.0000   0.0000   0.0000

          k = 0.3333 0.3333-0.5000 (  8142 PWs)   bands (ev):

   -96.7660 -96.7659 -96.7639 -96.7639 -54.1884 -54.1884 -54.1818 -54.1818
   -54.1240 -54.1240 -54.1151 -54.1151 -54.1124 -54.1124 -54.1124 -54.1123
    10.6080  10.6080  11.1805  11.1805  12.5456  12.5457  12.7682  12.7682
    12.9425  12.9425  13.0181  13.0182  13.0267  13.0267  13.1276  13.1277
    14.1488  14.1488  14.1643  14.1643  14.4862  14.4862  16.5838  16.5838
    19.5900  19.5900  22.1344  22.1344  32.3836  32.3836

     occupation numbers 
     1.0000   1.0000   1.0000   1.0000   1.0000   1.0000   1.0000   1.0000
     1.0000   1.0000   1.0000   1.0000   1.0000   1.0000   1.0000   1.0000
     1.0000   1.0000   1.0000   1.0000   1.0000   1.0000   1.0000   1.0000
     1.0000   1.0000   1.0000   1.0000   1.0000   1.0000   1.0000   1.0000
     1.0000   1.0000   1.0000   1.0000   1.0000   1.0000   0.0000   0.0000
     0.0000   0.0000   0.0000   0.0000   0.0000   0.0000

          k = 0.3333 0.4167 0.4167 (  8156 PWs)   bands (ev):

   -96.7663 -96.7647 -96.7646 -96.7641 -54.1899 -54.1884 -54.1884 -54.1828
   -54.1212 -54.1181 -54.1181 -54.1141 -54.1135 -54.1135 -54.1115 -54.1092
    10.4941  10.9674  10.9674  11.0910  12.6120  12.6650  12.6650  12.8446
    12.8719  12.9530  12.9530  12.9701  13.2198  13.2198  13.2579  13.2809
    14.0186  14.1713  14.1780  14.1780  14.2658  15.5123  15.5123  16.2724
    19.5372  20.3881  20.3881  22.0229  32.4795  33.8537

     occupation numbers 
     1.0000   1.0000   1.0000   1.0000   1.0000   1.0000   1.0000   1.0000
     1.0000   1.0000   1.0000   1.0000   1.0000   1.0000   1.0000   1.0000
     1.0000   1.0000   1.0000   1.0000   1.0000   1.0000   1.0000   1.0000
     1.0000   1.0000   1.0000   1.0000   1.0000   1.0000   1.0000   1.0000
     1.0000   1.0000   1.0000   1.0000   1.0000   1.0000   1.0000   0.0000
     0.0000   0.0000   0.0000   0.0000   0.0000   0.0000

          k = 0.3333 0.4167-0.5000 (  8142 PWs)   bands (ev):

   -96.7655 -96.7654 -96.7644 -96.7644 -54.1902 -54.1902 -54.1867 -54.1867
   -54.1193 -54.1193 -54.1141 -54.1141 -54.1131 -54.1131 -54.1109 -54.1109
    10.7365  10.7365  11.0168  11.0168  12.6615  12.6615  12.7755  12.7755
    12.8919  12.8919  12.9362  12.9362  13.3397  13.3397  13.3411  13.3411
    14.1118  14.1118  14.1510  14.1510  14.7225  14.7225  15.8926  15.8926
    19.7542  19.7542  21.1153  21.1153  33.1980  33.1980

     occupation numbers 
     1.0000   1.0000   1.0000   1.0000   1.0000   1.0000   1.0000   1.0000
     1.0000   1.0000   1.0000   1.0000   1.0000   1.0000   1.0000   1.0000
     1.0000   1.0000   1.0000   1.0000   1.0000   1.0000   1.0000   1.0000
     1.0000   1.0000   1.0000   1.0000   1.0000   1.0000   1.0000   1.0000
     1.0000   1.0000   1.0000   1.0000   1.0000   1.0000   0.0000   0.0000
     0.0000   0.0000   0.0000   0.0000   0.0000   0.0000

          k = 0.3333-0.5000-0.5000 (  8156 PWs)   bands (ev):

   -96.7649 -96.7649 -96.7649 -96.7649 -54.1896 -54.1896 -54.1896 -54.1896
   -54.1162 -54.1162 -54.1162 -54.1162 -54.1114 -54.1114 -54.1113 -54.1113
    10.8704  10.8704  10.8704  10.8704  12.7429  12.7429  12.7429  12.7429
    12.8867  12.8867  12.8867  12.8867  13.4629  13.4629  13.4629  13.4629
    14.1025  14.1025  14.1025  14.1026  15.2057  15.2057  15.2057  15.2057
    20.3060  20.3060  20.3060  20.3060  33.9572  33.9572

     occupation numbers 
     1.0000   1.0000   1.0000   1.0000   1.0000   1.0000   1.0000   1.0000
     1.0000   1.0000   1.0000   1.0000   1.0000   1.0000   1.0000   1.0000
     1.0000   1.0000   1.0000   1.0000   1.0000   1.0000   1.0000   1.0000
     1.0000   1.0000   1.0000   1.0000   1.0000   1.0000   1.0000   1.0000
     1.0000   1.0000   1.0000   1.0000   1.0000   1.0000   1.0000   1.0000
     0.0000   0.0000   0.0000   0.0000   0.0000   0.0000

          k = 0.4167 0.4167 0.4167 (  8168 PWs)   bands (ev):

   -96.7657 -96.7647 -96.7646 -96.7646 -54.1918 -54.1918 -54.1918 -54.1880
   -54.1154 -54.1153 -54.1153 -54.1129 -54.1129 -54.1129 -54.1103 -54.1103
    10.6259  10.9193  10.9193  10.9193  12.7186  12.7186  12.7186  12.8348
    12.8348  12.8859  12.8859  12.8859  13.5298  13.5298  13.5298  13.8342
    14.1214  14.1214  14.2004  14.2004  14.2004  15.5008  15.5008  15.5008
    19.6903  19.6903  19.6903  21.0145  34.6712  34.6712

     occupation numbers 
     1.0000   1.0000   1.0000   1.0000   1.0000   1.0000   1.0000   1.0000
     1.0000   1.0000   1.0000   1.0000   1.0000   1.0000   1.0000   1.0000
     1.0000   1.0000   1.0000   1.0000   1.0000   1.0000   1.0000   1.0000
     1.0000   1.0000   1.0000   1.0000   1.0000   1.0000   1.0000   1.0000
     1.0000   1.0000   1.0000   1.0000   1.0000   1.0000   1.0000   1.0000
     0.0000   0.0000   0.0000   0.0000   0.0000   0.0000

          k = 0.4167 0.4167-0.5000 (  8152 PWs)   bands (ev):

   -96.7652 -96.7652 -96.7646 -96.7646 -54.1930 -54.1930 -54.1911 -54.1911
   -54.1148 -54.1147 -54.1123 -54.1123 -54.1116 -54.1116 -54.1116 -54.1116
    10.7656  10.7656  10.9025  10.9025  12.7390  12.7390  12.7940  12.7941
    12.8396  12.8396  12.8606  12.8606  13.6745  13.6745  13.7873  13.7873
    14.1836  14.1836  14.1870  14.1870  14.6781  14.6781  15.4945  15.4945
    19.4413  19.4413  20.2217  20.2217  35.1137  35.1138

     occupation numbers 
     1.0000   1.0000   1.0000   1.0000   1.0000   1.0000   1.0000   1.0000
     1.0000   1.0000   1.0000   1.0000   1.0000   1.0000   1.0000   1.0000
     1.0000   1.0000   1.0000   1.0000   1.0000   1.0000   1.0000   1.0000
     1.0000   1.0000   1.0000   1.0000   1.0000   1.0000   1.0000   1.0000
     1.0000   1.0000   1.0000   1.0000   1.0000   1.0000   1.0000   1.0000
     0.0000   0.0000   0.0000   0.0000   0.0000   0.0000

          k = 0.4167-0.5000-0.5000 (  8156 PWs)   bands (ev):

   -96.7649 -96.7649 -96.7649 -96.7649 -54.1933 -54.1933 -54.1933 -54.1933
   -54.1126 -54.1126 -54.1126 -54.1126 -54.1114 -54.1114 -54.1113 -54.1113
    10.8191  10.8191  10.8191  10.8191  12.7873  12.7873  12.7873  12.7873
    12.8244  12.8244  12.8244  12.8245  13.9218  13.9218  13.9218  13.9218
    14.1717  14.1717  14.1717  14.1717  14.9811  14.9811  14.9811  14.9811
    19.6334  19.6334  19.6334  19.6334  35.9477  35.9477

     occupation numbers 
     1.0000   1.0000   1.0000   1.0000   1.0000   1.0000   1.0000   1.0000
     1.0000   1.0000   1.0000   1.0000   1.0000   1.0000   1.0000   1.0000
     1.0000   1.0000   1.0000   1.0000   1.0000   1.0000   1.0000   1.0000
     1.0000   1.0000   1.0000   1.0000   1.0000   1.0000   1.0000   1.0000
     1.0000   1.0000   1.0000   1.0000   1.0000   1.0000   1.0000   1.0000
     0.0000   0.0000   0.0000   0.0000   0.0000   0.0000

          k =-0.5000-0.5000-0.5000 (  8144 PWs)   bands (ev):

   -96.7649 -96.7649 -96.7649 -96.7649 -54.1945 -54.1945 -54.1945 -54.1945
   -54.1114 -54.1114 -54.1114 -54.1113 -54.1113 -54.1113 -54.1113 -54.1113
    10.8013  10.8013  10.8013  10.8013  12.8032  12.8032  12.8032  12.8032
    12.8032  12.8032  12.8032  12.8032  14.1954  14.1954  14.1954  14.1954
    14.1954  14.1954  14.1954  14.1954  14.7972  14.7972  14.7972  14.7972
    19.3972  19.3972  19.3972  19.3972  36.7342  36.7342

     occupation numbers 
     1.0000   1.0000   1.0000   1.0000   1.0000   1.0000   1.0000   1.0000
     1.0000   1.0000   1.0000   1.0000   1.0000   1.0000   1.0000   1.0000
     1.0000   1.0000   1.0000   1.0000   1.0000   1.0000   1.0000   1.0000
     1.0000   1.0000   1.0000   1.0000   1.0000   1.0000   1.0000   1.0000
     1.0000   1.0000   1.0000   1.0000   1.0000   1.0000   1.0000   1.0000
     0.0000   0.0000   0.0000   0.0000   0.0000   0.0000

     the Fermi energy is    15.8223 ev

!    total energy              =   -1947.55200719 Ry
     total all-electron energy =    -13239.898422 Ry
     estimated scf accuracy    <          3.4E-09 Ry
     smearing contrib. (-TS)   =      -0.00001403 Ry
     internal energy E=F+TS    =   -1947.55199316 Ry

     The total energy is F=E-TS. E is the sum of the following terms:
     one-electron contribution =    -997.56528837 Ry
     hartree contribution      =     560.45065684 Ry
     xc contribution           =    -153.20173841 Ry
     ewald contribution        =    -961.81851944 Ry
     one-center paw contrib.   =    -395.41710377 Ry
      -> PAW hartree energy AE =     319.27947464 Ry
      -> PAW hartree energy PS =    -321.25260968 Ry
      -> PAW xc energy AE      =    -133.83611089 Ry
      -> PAW xc energy PS      =      36.95497029 Ry
      -> total E_H with PAW    =     558.47752180 Ry
      -> total E_XC with PAW   =    -250.08287902 Ry

     convergence has been achieved in   9 iterations

     Writing all to output data dir ./out/Cu.save/

     init_run     :      1.29s CPU      1.54s WALL (       1 calls)
     electrons    :    305.80s CPU    315.86s WALL (       1 calls)

     Called by init_run:
     wfcinit      :      0.75s CPU      0.94s WALL (       1 calls)
     potinit      :      0.18s CPU      0.22s WALL (       1 calls)
     hinit0       :      0.20s CPU      0.20s WALL (       1 calls)

     Called by electrons:
     c_bands      :    278.96s CPU    287.49s WALL (       9 calls)
     sum_band     :     24.46s CPU     25.95s WALL (       9 calls)
     v_of_rho     :      0.15s CPU      0.16s WALL (      10 calls)
     v_h          :      0.01s CPU      0.01s WALL (      10 calls)
     v_xc         :      0.14s CPU      0.14s WALL (      10 calls)
     newd         :      0.78s CPU      0.81s WALL (      10 calls)
     PAW_pot      :      1.63s CPU      1.69s WALL (      10 calls)
     mix_rho      :      0.05s CPU      0.06s WALL (       9 calls)

     Called by c_bands:
     init_us_2    :      1.89s CPU      1.89s WALL (    1512 calls)
     init_us_2:cp :      1.88s CPU      1.89s WALL (    1512 calls)
     cegterg      :    273.36s CPU    281.87s WALL (     756 calls)

     Called by sum_band:
     sum_band:wei :      0.02s CPU      0.02s WALL (       9 calls)
     sum_band:loo :     23.89s CPU     25.36s WALL (       9 calls)
     sum_band:buf :      0.77s CPU      0.78s WALL (     756 calls)
     sum_band:ini :      0.83s CPU      0.84s WALL (     756 calls)
     sum_band:cal :      8.85s CPU      9.06s WALL (     756 calls)
     sum_band:bec :      0.14s CPU      0.14s WALL (     756 calls)
     addusdens    :      0.52s CPU      0.54s WALL (       9 calls)
                                        0.00s GPU  (       9 calls)
     addusd:skk   :      0.01s CPU      0.01s WALL (       9 calls)
                                        0.00s GPU  (       9 calls)

     Called by *egterg:
     cdiaghg      :     18.02s CPU     18.04s WALL (    2798 calls)
     cegterg:over :     34.42s CPU     34.68s WALL (    2126 calls)
     cegterg:upda :     17.99s CPU     18.01s WALL (    2126 calls)
     cegterg:last :     50.39s CPU     50.40s WALL (    1777 calls)
     h_psi        :    115.15s CPU    123.19s WALL (    2882 calls)
     s_psi        :     21.34s CPU     21.39s WALL (    2882 calls)
     g_psi        :      1.17s CPU      1.18s WALL (    2126 calls)

     Called by h_psi:
     h_psi:calbec :     23.58s CPU     24.30s WALL (    2882 calls)
     vloc_psi     :     69.43s CPU     76.70s WALL (    2882 calls)
     add_vuspsi   :     21.02s CPU     21.07s WALL (    2882 calls)

     General routines
     calbec       :     32.41s CPU     33.34s WALL (    3638 calls)
     fft          :      0.17s CPU      0.18s WALL (     110 calls)
     ffts         :      0.00s CPU      0.00s WALL (       9 calls)
     fftw         :     69.51s CPU     76.72s WALL (  227850 calls)

     Parallel routines

     PAW routines
     PAW_pot      :      1.63s CPU      1.69s WALL (      10 calls)
     PAW_symme    :      0.01s CPU      0.01s WALL (      18 calls)

     PWSCF        :   5m 7.97s CPU   5m19.15s WALL


   This run was terminated on:  20:38:32  15Feb2024            

=------------------------------------------------------------------------------=
   JOB DONE.
=------------------------------------------------------------------------------=
