### Running on host: unam-asus

     Program PWSCF v.7.2 starts on 13Mar2024 at 17:18:39 

     This program is part of the open-source Quantum ESPRESSO suite
     for quantum simulation of materials; please cite
         "P. Giannozzi et al., J. Phys.:Condens. Matter 21 395502 (2009);
         "P. Giannozzi et al., J. Phys.:Condens. Matter 29 465901 (2017);
         "P. Giannozzi et al., J. Chem. Phys. 152 154105 (2020);
          URL http://www.quantum-espresso.org", 
     in publications or presentations arising from this work. More details at
     http://www.quantum-espresso.org/quote

     Parallel version (MPI), running on    10 processors

     MPI processes distributed on     1 nodes
     737 MiB available memory on the printing compute node when the environment starts

     Reading input from scf.m-p.degauss-0.007.in

     Current dimensions of program PWSCF are:
     Max number of different atomic species (ntypx) = 10
     Max number of k-points (npk) =  40000
     Max angular momentum in pseudopotentials (lmaxx) =  4
     file Co.pbe-spn-kjpaw_psl.0.3.1.UPF: wavefunction(s)  3P 3D renormalized
     Message from routine setup:
     using ibrav=0 with symmetry is DISCOURAGED, use correct ibrav instead

     R & G space division:  proc/nbgrp/npool/nimage =      10
     Subspace diagonalization in iterative solution of the eigenvalue problem:
     a serial algorithm will be used


     Parallelization info
     --------------------
     sticks:   dense  smooth     PW     G-vecs:    dense   smooth      PW
     Min          66      66     19                 2317     2244     363
     Max          68      67     20                 2324     2246     370
     Sum         673     661    199                23199    22443    3693

     Using Slab Decomposition



     bravais-lattice index     =            0
     lattice parameter (alat)  =       4.6714  a.u.
     unit-cell volume          =     143.6064 (a.u.)^3
     number of atoms/cell      =            2
     number of atomic types    =            1
     number of electrons       =        34.00
     number of Kohn-Sham states=           21
     kinetic-energy cutoff     =     110.0000  Ry
     charge density cutoff     =     450.0000  Ry
     scf convergence threshold =      8.0E-08
     mixing beta               =       0.4000
     number of iterations used =            8  plain     mixing
     Exchange-correlation= SLA  PW   PBX  PBC
                           (   1   4   3   4   0   0   0)

     celldm(1)=   4.671403  celldm(2)=   0.000000  celldm(3)=   0.000000
     celldm(4)=   0.000000  celldm(5)=   0.000000  celldm(6)=   0.000000

     crystal axes: (cart. coord. in units of alat)
               a(1) = (   1.000000   0.000000   0.000000 )  
               a(2) = (  -0.500000   0.866025   0.000000 )  
               a(3) = (   0.000000   0.000000   1.626676 )  

     reciprocal axes: (cart. coord. in units 2 pi/alat)
               b(1) = (  1.000000  0.577350 -0.000000 )  
               b(2) = (  0.000000  1.154701  0.000000 )  
               b(3) = (  0.000000 -0.000000  0.614750 )  


     PseudoPot. # 1 for Co read from file:
     /home/abdul/git_repo/ZnS/pseudo/QE/Co.pbe-spn-kjpaw_psl.0.3.1.UPF
     MD5 check sum: b0a1ad65bf214e88c1f3d33b20c7d919
     Pseudo is Projector augmented-wave + core cor, Zval = 17.0
     Generated using &quot;atomic&quot; code by A. Dal Corso  v.6.2.2
     Shape of augmentation charge: PSQ
     Using radial grid of 1193 points,  6 beta functions with: 
                l(1) =   0
                l(2) =   0
                l(3) =   1
                l(4) =   1
                l(5) =   2
                l(6) =   2
     Q(r) pseudized with 0 coefficients 


     atomic species   valence    mass     pseudopotential
        Co            17.00    58.93300     Co( 1.00)

     Starting magnetic structure 
     atomic species   magnetization
        Co           0.294

     24 Sym. Ops., with inversion, found (12 have fractional translation)


                                    s                        frac. trans.

      isym =  1     identity                                     

 cryst.   s( 1) = (     1          0          0      )
                  (     0          1          0      )
                  (     0          0          1      )

 cart.    s( 1) = (  1.0000000  0.0000000  0.0000000 )
                  (  0.0000000  1.0000000  0.0000000 )
                  (  0.0000000  0.0000000  1.0000000 )


      isym =  2     180 deg rotation - cart. axis [0,0,1]        

 cryst.   s( 2) = (    -1          0          0      )    f =(  0.0000000 )
                  (     0         -1          0      )       (  0.0000000 )
                  (     0          0          1      )       ( -0.5000000 )

 cart.    s( 2) = ( -1.0000000  0.0000000  0.0000000 )    f =(  0.0000000 )
                  (  0.0000000 -1.0000000  0.0000000 )       (  0.0000000 )
                  (  0.0000000  0.0000000  1.0000000 )       ( -0.8133382 )


      isym =  3     180 deg rotation - cart. axis [0,1,0]        

 cryst.   s( 3) = (    -1          0          0      )    f =(  0.0000000 )
                  (     1          1          0      )       (  0.0000000 )
                  (     0          0         -1      )       (  0.5000000 )

 cart.    s( 3) = ( -1.0000000  0.0000000  0.0000000 )    f =(  0.0000000 )
                  (  0.0000000  1.0000000  0.0000000 )       (  0.0000000 )
                  (  0.0000000  0.0000000 -1.0000000 )       (  0.8133382 )


      isym =  4     180 deg rotation - cart. axis [1,0,0]        

 cryst.   s( 4) = (     1          0          0      )
                  (    -1         -1          0      )
                  (     0          0         -1      )

 cart.    s( 4) = (  1.0000000  0.0000000  0.0000000 )
                  (  0.0000000 -1.0000000  0.0000000 )
                  (  0.0000000  0.0000000 -1.0000000 )


      isym =  5      60 deg rotation - cryst. axis [0,0,1]       

 cryst.   s( 5) = (     1          1          0      )    f =(  0.0000000 )
                  (    -1          0          0      )       ( -0.0000000 )
                  (     0          0          1      )       ( -0.5000000 )

 cart.    s( 5) = (  0.5000000 -0.8660254  0.0000000 )    f =(  0.0000000 )
                  (  0.8660254  0.5000000  0.0000000 )       ( -0.0000000 )
                  (  0.0000000  0.0000000  1.0000000 )       ( -0.8133382 )


      isym =  6      60 deg rotation - cryst. axis [0,0,-1]      

 cryst.   s( 6) = (     0         -1          0      )    f =(  0.0000000 )
                  (     1          1          0      )       ( -0.0000000 )
                  (     0          0          1      )       ( -0.5000000 )

 cart.    s( 6) = (  0.5000000  0.8660254  0.0000000 )    f =(  0.0000000 )
                  ( -0.8660254  0.5000000  0.0000000 )       ( -0.0000000 )
                  (  0.0000000  0.0000000  1.0000000 )       ( -0.8133382 )


      isym =  7     120 deg rotation - cryst. axis [0,0,1]       

 cryst.   s( 7) = (     0          1          0      )
                  (    -1         -1          0      )
                  (     0          0          1      )

 cart.    s( 7) = ( -0.5000000 -0.8660254  0.0000000 )
                  (  0.8660254 -0.5000000  0.0000000 )
                  (  0.0000000  0.0000000  1.0000000 )


      isym =  8     120 deg rotation - cryst. axis [0,0,-1]      

 cryst.   s( 8) = (    -1         -1          0      )
                  (     1          0          0      )
                  (     0          0          1      )

 cart.    s( 8) = ( -0.5000000  0.8660254  0.0000000 )
                  ( -0.8660254 -0.5000000  0.0000000 )
                  (  0.0000000  0.0000000  1.0000000 )


      isym =  9     180 deg rotation - cryst. axis [1,-1,0]      

 cryst.   s( 9) = (     0         -1          0      )    f =(  0.0000000 )
                  (    -1          0          0      )       (  0.0000000 )
                  (     0          0         -1      )       (  0.5000000 )

 cart.    s( 9) = (  0.5000000 -0.8660254  0.0000000 )    f =(  0.0000000 )
                  ( -0.8660254 -0.5000000  0.0000000 )       (  0.0000000 )
                  (  0.0000000  0.0000000 -1.0000000 )       (  0.8133382 )


      isym = 10     180 deg rotation - cryst. axis [2,1,0]       

 cryst.   s(10) = (     1          1          0      )    f =(  0.0000000 )
                  (     0         -1          0      )       ( -0.0000000 )
                  (     0          0         -1      )       (  0.5000000 )

 cart.    s(10) = (  0.5000000  0.8660254  0.0000000 )    f =(  0.0000000 )
                  (  0.8660254 -0.5000000  0.0000000 )       ( -0.0000000 )
                  (  0.0000000  0.0000000 -1.0000000 )       (  0.8133382 )


      isym = 11     180 deg rotation - cryst. axis [0,1,0]       

 cryst.   s(11) = (    -1         -1          0      )
                  (     0          1          0      )
                  (     0          0         -1      )

 cart.    s(11) = ( -0.5000000 -0.8660254  0.0000000 )
                  ( -0.8660254  0.5000000  0.0000000 )
                  (  0.0000000  0.0000000 -1.0000000 )


      isym = 12     180 deg rotation - cryst. axis [1,1,0]       

 cryst.   s(12) = (     0          1          0      )
                  (     1          0          0      )
                  (     0          0         -1      )

 cart.    s(12) = ( -0.5000000  0.8660254  0.0000000 )
                  (  0.8660254  0.5000000  0.0000000 )
                  (  0.0000000  0.0000000 -1.0000000 )


      isym = 13     inversion                                    

 cryst.   s(13) = (    -1          0          0      )
                  (     0         -1          0      )
                  (     0          0         -1      )

 cart.    s(13) = ( -1.0000000  0.0000000  0.0000000 )
                  (  0.0000000 -1.0000000  0.0000000 )
                  (  0.0000000  0.0000000 -1.0000000 )


      isym = 14     inv. 180 deg rotation - cart. axis [0,0,1]   

 cryst.   s(14) = (     1          0          0      )    f =(  0.0000000 )
                  (     0          1          0      )       (  0.0000000 )
                  (     0          0         -1      )       (  0.5000000 )

 cart.    s(14) = (  1.0000000  0.0000000  0.0000000 )    f =(  0.0000000 )
                  (  0.0000000  1.0000000  0.0000000 )       (  0.0000000 )
                  (  0.0000000  0.0000000 -1.0000000 )       (  0.8133382 )


      isym = 15     inv. 180 deg rotation - cart. axis [0,1,0]   

 cryst.   s(15) = (     1          0          0      )    f =(  0.0000000 )
                  (    -1         -1          0      )       (  0.0000000 )
                  (     0          0          1      )       ( -0.5000000 )

 cart.    s(15) = (  1.0000000  0.0000000  0.0000000 )    f =(  0.0000000 )
                  (  0.0000000 -1.0000000  0.0000000 )       (  0.0000000 )
                  (  0.0000000  0.0000000  1.0000000 )       ( -0.8133382 )


      isym = 16     inv. 180 deg rotation - cart. axis [1,0,0]   

 cryst.   s(16) = (    -1          0          0      )
                  (     1          1          0      )
                  (     0          0          1      )

 cart.    s(16) = ( -1.0000000  0.0000000  0.0000000 )
                  (  0.0000000  1.0000000  0.0000000 )
                  (  0.0000000  0.0000000  1.0000000 )


      isym = 17     inv.  60 deg rotation - cryst. axis [0,0,1]  

 cryst.   s(17) = (    -1         -1          0      )    f =(  0.0000000 )
                  (     1          0          0      )       (  0.0000000 )
                  (     0          0         -1      )       (  0.5000000 )

 cart.    s(17) = ( -0.5000000  0.8660254  0.0000000 )    f =(  0.0000000 )
                  ( -0.8660254 -0.5000000  0.0000000 )       (  0.0000000 )
                  (  0.0000000  0.0000000 -1.0000000 )       (  0.8133382 )


      isym = 18     inv.  60 deg rotation - cryst. axis [0,0,-1] 

 cryst.   s(18) = (     0          1          0      )    f =(  0.0000000 )
                  (    -1         -1          0      )       ( -0.0000000 )
                  (     0          0         -1      )       (  0.5000000 )

 cart.    s(18) = ( -0.5000000 -0.8660254  0.0000000 )    f =(  0.0000000 )
                  (  0.8660254 -0.5000000  0.0000000 )       ( -0.0000000 )
                  (  0.0000000  0.0000000 -1.0000000 )       (  0.8133382 )


      isym = 19     inv. 120 deg rotation - cryst. axis [0,0,1]  

 cryst.   s(19) = (     0         -1          0      )
                  (     1          1          0      )
                  (     0          0         -1      )

 cart.    s(19) = (  0.5000000  0.8660254  0.0000000 )
                  ( -0.8660254  0.5000000  0.0000000 )
                  (  0.0000000  0.0000000 -1.0000000 )


      isym = 20     inv. 120 deg rotation - cryst. axis [0,0,-1] 

 cryst.   s(20) = (     1          1          0      )
                  (    -1          0          0      )
                  (     0          0         -1      )

 cart.    s(20) = (  0.5000000 -0.8660254  0.0000000 )
                  (  0.8660254  0.5000000  0.0000000 )
                  (  0.0000000  0.0000000 -1.0000000 )


      isym = 21     inv. 180 deg rotation - cryst. axis [1,-1,0] 

 cryst.   s(21) = (     0          1          0      )    f =(  0.0000000 )
                  (     1          0          0      )       ( -0.0000000 )
                  (     0          0          1      )       ( -0.5000000 )

 cart.    s(21) = ( -0.5000000  0.8660254  0.0000000 )    f =(  0.0000000 )
                  (  0.8660254  0.5000000  0.0000000 )       ( -0.0000000 )
                  (  0.0000000  0.0000000  1.0000000 )       ( -0.8133382 )


      isym = 22     inv. 180 deg rotation - cryst. axis [2,1,0]  

 cryst.   s(22) = (    -1         -1          0      )    f =(  0.0000000 )
                  (     0          1          0      )       ( -0.0000000 )
                  (     0          0          1      )       ( -0.5000000 )

 cart.    s(22) = ( -0.5000000 -0.8660254  0.0000000 )    f =(  0.0000000 )
                  ( -0.8660254  0.5000000  0.0000000 )       ( -0.0000000 )
                  (  0.0000000  0.0000000  1.0000000 )       ( -0.8133382 )


      isym = 23     inv. 180 deg rotation - cryst. axis [0,1,0]  

 cryst.   s(23) = (     1          1          0      )
                  (     0         -1          0      )
                  (     0          0          1      )

 cart.    s(23) = (  0.5000000  0.8660254  0.0000000 )
                  (  0.8660254 -0.5000000  0.0000000 )
                  (  0.0000000  0.0000000  1.0000000 )


      isym = 24     inv. 180 deg rotation - cryst. axis [1,1,0]  

 cryst.   s(24) = (     0         -1          0      )
                  (    -1          0          0      )
                  (     0          0          1      )

 cart.    s(24) = (  0.5000000 -0.8660254  0.0000000 )
                  ( -0.8660254 -0.5000000  0.0000000 )
                  (  0.0000000  0.0000000  1.0000000 )


   Cartesian axes

     site n.     atom                  positions (alat units)
         1           Co  tau(   1) = (  -0.0000000   0.5773503   0.4066691  )
         2           Co  tau(   2) = (   0.5000000   0.2886751   1.2200074  )

   Crystallographic axes

     site n.     atom                  positions (cryst. coord.)
         1           Co  tau(   1) = (  0.3333333  0.6666667  0.2500000  )
         2           Co  tau(   2) = (  0.6666667  0.3333333  0.7500000  )

     number of k points=    76  Methfessel-Paxton smearing, width (Ry)=  0.0070
                       cart. coord. in units 2pi/alat
        k(    1) = (   0.0000000   0.0000000   0.0000000), wk =   0.0011574
        k(    2) = (   0.0000000   0.0000000   0.1024584), wk =   0.0023148
        k(    3) = (   0.0000000   0.0000000   0.2049168), wk =   0.0023148
        k(    4) = (   0.0000000   0.0000000  -0.3073752), wk =   0.0011574
        k(    5) = (   0.0000000   0.0962250   0.0000000), wk =   0.0069444
        k(    6) = (   0.0000000   0.0962250   0.1024584), wk =   0.0138889
        k(    7) = (   0.0000000   0.0962250   0.2049168), wk =   0.0138889
        k(    8) = (   0.0000000   0.0962250  -0.3073752), wk =   0.0069444
        k(    9) = (   0.0000000   0.1924501   0.0000000), wk =   0.0069444
        k(   10) = (   0.0000000   0.1924501   0.1024584), wk =   0.0138889
        k(   11) = (   0.0000000   0.1924501   0.2049168), wk =   0.0138889
        k(   12) = (   0.0000000   0.1924501  -0.3073752), wk =   0.0069444
        k(   13) = (   0.0000000   0.2886751   0.0000000), wk =   0.0069444
        k(   14) = (   0.0000000   0.2886751   0.1024584), wk =   0.0138889
        k(   15) = (   0.0000000   0.2886751   0.2049168), wk =   0.0138889
        k(   16) = (   0.0000000   0.2886751  -0.3073752), wk =   0.0069444
        k(   17) = (   0.0000000   0.3849002   0.0000000), wk =   0.0069444
        k(   18) = (   0.0000000   0.3849002   0.1024584), wk =   0.0138889
        k(   19) = (   0.0000000   0.3849002   0.2049168), wk =   0.0138889
        k(   20) = (   0.0000000   0.3849002  -0.3073752), wk =   0.0069444
        k(   21) = (   0.0000000   0.4811252   0.0000000), wk =   0.0069444
        k(   22) = (   0.0000000   0.4811252   0.1024584), wk =   0.0138889
        k(   23) = (   0.0000000   0.4811252   0.2049168), wk =   0.0138889
        k(   24) = (   0.0000000   0.4811252  -0.3073752), wk =   0.0069444
        k(   25) = (   0.0000000  -0.5773503   0.0000000), wk =   0.0034722
        k(   26) = (   0.0000000  -0.5773503   0.1024584), wk =   0.0069444
        k(   27) = (   0.0000000  -0.5773503   0.2049168), wk =   0.0069444
        k(   28) = (   0.0000000  -0.5773503  -0.3073752), wk =   0.0034722
        k(   29) = (   0.0833333   0.1443376   0.0000000), wk =   0.0069444
        k(   30) = (   0.0833333   0.1443376   0.1024584), wk =   0.0138889
        k(   31) = (   0.0833333   0.1443376   0.2049168), wk =   0.0138889
        k(   32) = (   0.0833333   0.1443376  -0.3073752), wk =   0.0069444
        k(   33) = (   0.0833333   0.2405626   0.0000000), wk =   0.0138889
        k(   34) = (   0.0833333   0.2405626   0.1024584), wk =   0.0277778
        k(   35) = (   0.0833333   0.2405626   0.2049168), wk =   0.0277778
        k(   36) = (   0.0833333   0.2405626  -0.3073752), wk =   0.0138889
        k(   37) = (   0.0833333   0.3367877   0.0000000), wk =   0.0138889
        k(   38) = (   0.0833333   0.3367877   0.1024584), wk =   0.0277778
        k(   39) = (   0.0833333   0.3367877   0.2049168), wk =   0.0277778
        k(   40) = (   0.0833333   0.3367877  -0.3073752), wk =   0.0138889
        k(   41) = (   0.0833333   0.4330127   0.0000000), wk =   0.0138889
        k(   42) = (   0.0833333   0.4330127   0.1024584), wk =   0.0277778
        k(   43) = (   0.0833333   0.4330127   0.2049168), wk =   0.0277778
        k(   44) = (   0.0833333   0.4330127  -0.3073752), wk =   0.0138889
        k(   45) = (   0.0833333   0.5292377   0.0000000), wk =   0.0138889
        k(   46) = (   0.0833333   0.5292377   0.1024584), wk =   0.0277778
        k(   47) = (   0.0833333   0.5292377   0.2049168), wk =   0.0277778
        k(   48) = (   0.0833333   0.5292377  -0.3073752), wk =   0.0138889
        k(   49) = (   0.1666667   0.2886751   0.0000000), wk =   0.0069444
        k(   50) = (   0.1666667   0.2886751   0.1024584), wk =   0.0138889
        k(   51) = (   0.1666667   0.2886751   0.2049168), wk =   0.0138889
        k(   52) = (   0.1666667   0.2886751  -0.3073752), wk =   0.0069444
        k(   53) = (   0.1666667   0.3849002   0.0000000), wk =   0.0138889
        k(   54) = (   0.1666667   0.3849002   0.1024584), wk =   0.0277778
        k(   55) = (   0.1666667   0.3849002   0.2049168), wk =   0.0277778
        k(   56) = (   0.1666667   0.3849002  -0.3073752), wk =   0.0138889
        k(   57) = (   0.1666667   0.4811252   0.0000000), wk =   0.0138889
        k(   58) = (   0.1666667   0.4811252   0.1024584), wk =   0.0277778
        k(   59) = (   0.1666667   0.4811252   0.2049168), wk =   0.0277778
        k(   60) = (   0.1666667   0.4811252  -0.3073752), wk =   0.0138889
        k(   61) = (   0.1666667   0.5773503   0.0000000), wk =   0.0069444
        k(   62) = (   0.1666667   0.5773503   0.1024584), wk =   0.0138889
        k(   63) = (   0.1666667   0.5773503   0.2049168), wk =   0.0138889
        k(   64) = (   0.1666667   0.5773503  -0.3073752), wk =   0.0069444
        k(   65) = (   0.2500000   0.4330127   0.0000000), wk =   0.0069444
        k(   66) = (   0.2500000   0.4330127   0.1024584), wk =   0.0138889
        k(   67) = (   0.2500000   0.4330127   0.2049168), wk =   0.0138889
        k(   68) = (   0.2500000   0.4330127  -0.3073752), wk =   0.0069444
        k(   69) = (   0.2500000   0.5292377   0.0000000), wk =   0.0138889
        k(   70) = (   0.2500000   0.5292377   0.1024584), wk =   0.0277778
        k(   71) = (   0.2500000   0.5292377   0.2049168), wk =   0.0277778
        k(   72) = (   0.2500000   0.5292377  -0.3073752), wk =   0.0138889
        k(   73) = (   0.3333333   0.5773503   0.0000000), wk =   0.0023148
        k(   74) = (   0.3333333   0.5773503   0.1024584), wk =   0.0046296
        k(   75) = (   0.3333333   0.5773503   0.2049168), wk =   0.0046296
        k(   76) = (   0.3333333   0.5773503  -0.3073752), wk =   0.0023148

                       cryst. coord.
        k(    1) = (   0.0000000   0.0000000   0.0000000), wk =   0.0011574
        k(    2) = (   0.0000000   0.0000000   0.1666667), wk =   0.0023148
        k(    3) = (   0.0000000   0.0000000   0.3333333), wk =   0.0023148
        k(    4) = (   0.0000000   0.0000000  -0.5000000), wk =   0.0011574
        k(    5) = (   0.0000000   0.0833333   0.0000000), wk =   0.0069444
        k(    6) = (   0.0000000   0.0833333   0.1666667), wk =   0.0138889
        k(    7) = (   0.0000000   0.0833333   0.3333333), wk =   0.0138889
        k(    8) = (   0.0000000   0.0833333  -0.5000000), wk =   0.0069444
        k(    9) = (   0.0000000   0.1666667   0.0000000), wk =   0.0069444
        k(   10) = (   0.0000000   0.1666667   0.1666667), wk =   0.0138889
        k(   11) = (   0.0000000   0.1666667   0.3333333), wk =   0.0138889
        k(   12) = (   0.0000000   0.1666667  -0.5000000), wk =   0.0069444
        k(   13) = (   0.0000000   0.2500000   0.0000000), wk =   0.0069444
        k(   14) = (   0.0000000   0.2500000   0.1666667), wk =   0.0138889
        k(   15) = (   0.0000000   0.2500000   0.3333333), wk =   0.0138889
        k(   16) = (   0.0000000   0.2500000  -0.5000000), wk =   0.0069444
        k(   17) = (   0.0000000   0.3333333   0.0000000), wk =   0.0069444
        k(   18) = (   0.0000000   0.3333333   0.1666667), wk =   0.0138889
        k(   19) = (   0.0000000   0.3333333   0.3333333), wk =   0.0138889
        k(   20) = (   0.0000000   0.3333333  -0.5000000), wk =   0.0069444
        k(   21) = (   0.0000000   0.4166667   0.0000000), wk =   0.0069444
        k(   22) = (   0.0000000   0.4166667   0.1666667), wk =   0.0138889
        k(   23) = (   0.0000000   0.4166667   0.3333333), wk =   0.0138889
        k(   24) = (   0.0000000   0.4166667  -0.5000000), wk =   0.0069444
        k(   25) = (   0.0000000  -0.5000000   0.0000000), wk =   0.0034722
        k(   26) = (   0.0000000  -0.5000000   0.1666667), wk =   0.0069444
        k(   27) = (   0.0000000  -0.5000000   0.3333333), wk =   0.0069444
        k(   28) = (   0.0000000  -0.5000000  -0.5000000), wk =   0.0034722
        k(   29) = (   0.0833333   0.0833333   0.0000000), wk =   0.0069444
        k(   30) = (   0.0833333   0.0833333   0.1666667), wk =   0.0138889
        k(   31) = (   0.0833333   0.0833333   0.3333333), wk =   0.0138889
        k(   32) = (   0.0833333   0.0833333  -0.5000000), wk =   0.0069444
        k(   33) = (   0.0833333   0.1666667   0.0000000), wk =   0.0138889
        k(   34) = (   0.0833333   0.1666667   0.1666667), wk =   0.0277778
        k(   35) = (   0.0833333   0.1666667   0.3333333), wk =   0.0277778
        k(   36) = (   0.0833333   0.1666667  -0.5000000), wk =   0.0138889
        k(   37) = (   0.0833333   0.2500000   0.0000000), wk =   0.0138889
        k(   38) = (   0.0833333   0.2500000   0.1666667), wk =   0.0277778
        k(   39) = (   0.0833333   0.2500000   0.3333333), wk =   0.0277778
        k(   40) = (   0.0833333   0.2500000  -0.5000000), wk =   0.0138889
        k(   41) = (   0.0833333   0.3333333   0.0000000), wk =   0.0138889
        k(   42) = (   0.0833333   0.3333333   0.1666667), wk =   0.0277778
        k(   43) = (   0.0833333   0.3333333   0.3333333), wk =   0.0277778
        k(   44) = (   0.0833333   0.3333333  -0.5000000), wk =   0.0138889
        k(   45) = (   0.0833333   0.4166667   0.0000000), wk =   0.0138889
        k(   46) = (   0.0833333   0.4166667   0.1666667), wk =   0.0277778
        k(   47) = (   0.0833333   0.4166667   0.3333333), wk =   0.0277778
        k(   48) = (   0.0833333   0.4166667  -0.5000000), wk =   0.0138889
        k(   49) = (   0.1666667   0.1666667   0.0000000), wk =   0.0069444
        k(   50) = (   0.1666667   0.1666667   0.1666667), wk =   0.0138889
        k(   51) = (   0.1666667   0.1666667   0.3333333), wk =   0.0138889
        k(   52) = (   0.1666667   0.1666667  -0.5000000), wk =   0.0069444
        k(   53) = (   0.1666667   0.2500000   0.0000000), wk =   0.0138889
        k(   54) = (   0.1666667   0.2500000   0.1666667), wk =   0.0277778
        k(   55) = (   0.1666667   0.2500000   0.3333333), wk =   0.0277778
        k(   56) = (   0.1666667   0.2500000  -0.5000000), wk =   0.0138889
        k(   57) = (   0.1666667   0.3333333   0.0000000), wk =   0.0138889
        k(   58) = (   0.1666667   0.3333333   0.1666667), wk =   0.0277778
        k(   59) = (   0.1666667   0.3333333   0.3333333), wk =   0.0277778
        k(   60) = (   0.1666667   0.3333333  -0.5000000), wk =   0.0138889
        k(   61) = (   0.1666667   0.4166667   0.0000000), wk =   0.0069444
        k(   62) = (   0.1666667   0.4166667   0.1666667), wk =   0.0138889
        k(   63) = (   0.1666667   0.4166667   0.3333333), wk =   0.0138889
        k(   64) = (   0.1666667   0.4166667  -0.5000000), wk =   0.0069444
        k(   65) = (   0.2500000   0.2500000   0.0000000), wk =   0.0069444
        k(   66) = (   0.2500000   0.2500000   0.1666667), wk =   0.0138889
        k(   67) = (   0.2500000   0.2500000   0.3333333), wk =   0.0138889
        k(   68) = (   0.2500000   0.2500000  -0.5000000), wk =   0.0069444
        k(   69) = (   0.2500000   0.3333333   0.0000000), wk =   0.0138889
        k(   70) = (   0.2500000   0.3333333   0.1666667), wk =   0.0277778
        k(   71) = (   0.2500000   0.3333333   0.3333333), wk =   0.0277778
        k(   72) = (   0.2500000   0.3333333  -0.5000000), wk =   0.0138889
        k(   73) = (   0.3333333   0.3333333   0.0000000), wk =   0.0023148
        k(   74) = (   0.3333333   0.3333333   0.1666667), wk =   0.0046296
        k(   75) = (   0.3333333   0.3333333   0.3333333), wk =   0.0046296
        k(   76) = (   0.3333333   0.3333333  -0.5000000), wk =   0.0023148

     Dense  grid:    23199 G-vectors     FFT dimensions: (  32,  32,  54)

     Smooth grid:    22443 G-vectors     FFT dimensions: (  32,  32,  54)

     Dynamical RAM for                 wfc:       0.09 MB

     Dynamical RAM for     wfc (w. buffer):      13.68 MB

     Dynamical RAM for           str. fact:       0.04 MB

     Dynamical RAM for           local pot:       0.00 MB

     Dynamical RAM for          nlocal pot:       0.15 MB

     Dynamical RAM for                qrad:       1.70 MB

     Dynamical RAM for          rho,v,vnew:       0.49 MB

     Dynamical RAM for               rhoin:       0.16 MB

     Dynamical RAM for            rho*nmix:       1.13 MB

     Dynamical RAM for           G-vectors:       0.15 MB

     Dynamical RAM for          h,s,v(r/c):       0.08 MB

     Dynamical RAM for          <psi|beta>:       0.01 MB

     Dynamical RAM for                 psi:       0.18 MB

     Dynamical RAM for                hpsi:       0.18 MB

     Dynamical RAM for                spsi:       0.18 MB

     Dynamical RAM for      wfcinit/wfcrot:       0.19 MB

     Dynamical RAM for           addusdens:       6.68 MB

     Estimated static dynamical RAM per process >      16.73 MB

     Estimated max dynamical RAM per process >      24.55 MB

     Estimated total dynamical RAM >     245.46 MB

     Check: negative core charge=   -0.000043
     Generating pointlists ...
     new r_m :   0.4114 (alat units)  1.9220 (a.u.) for type    1

     The initial density is read from file :
     ./out/Co.save/charge-density

     Starting wfcs from file
     Checking if some PAW data can be deallocated... 

     total cpu time spent up to now is        1.3 secs

     Self-consistent Calculation

     iteration #  1     ecut=   110.00 Ry     beta= 0.40
     Davidson diagonalization with overlap

---- Real-time Memory Report at c_bands before calling an iterative solver
            56 MiB given to the printing process from OS
             0 MiB allocation reported by mallinfo(arena+hblkhd)
           461 MiB available memory on the node where the printing process lives
------------------
     ethr =  1.00E-05,  avg # of iterations =  1.0

     Threshold (ethr) on eigenvalues was too large:
     Diagonalizing with lowered threshold

     Davidson diagonalization with overlap

---- Real-time Memory Report at c_bands before calling an iterative solver
            60 MiB given to the printing process from OS
             0 MiB allocation reported by mallinfo(arena+hblkhd)
           398 MiB available memory on the node where the printing process lives
------------------
     ethr =  6.23E-09,  avg # of iterations =  1.0

     total cpu time spent up to now is       10.2 secs

     total energy              =    -753.42246942 Ry
     estimated scf accuracy    <       0.00000211 Ry

     total magnetization       =    -0.00 Bohr mag/cell
     absolute magnetization    =     0.00 Bohr mag/cell

     iteration #  2     ecut=   110.00 Ry     beta= 0.40
     Davidson diagonalization with overlap

---- Real-time Memory Report at c_bands before calling an iterative solver
            73 MiB given to the printing process from OS
             0 MiB allocation reported by mallinfo(arena+hblkhd)
           357 MiB available memory on the node where the printing process lives
------------------
     ethr =  6.19E-09,  avg # of iterations =  1.0

     total cpu time spent up to now is       14.8 secs

     total energy              =    -753.42246971 Ry
     estimated scf accuracy    <       0.00000019 Ry

     total magnetization       =    -0.00 Bohr mag/cell
     absolute magnetization    =     0.00 Bohr mag/cell

     iteration #  3     ecut=   110.00 Ry     beta= 0.40
     Davidson diagonalization with overlap

---- Real-time Memory Report at c_bands before calling an iterative solver
            74 MiB given to the printing process from OS
             0 MiB allocation reported by mallinfo(arena+hblkhd)
           508 MiB available memory on the node where the printing process lives
------------------
     ethr =  5.51E-10,  avg # of iterations =  2.4

     total cpu time spent up to now is       20.5 secs

     total energy              =    -753.42246978 Ry
     estimated scf accuracy    <       0.00000014 Ry

     total magnetization       =    -0.01 Bohr mag/cell
     absolute magnetization    =     0.01 Bohr mag/cell

     iteration #  4     ecut=   110.00 Ry     beta= 0.40
     Davidson diagonalization with overlap

---- Real-time Memory Report at c_bands before calling an iterative solver
            74 MiB given to the printing process from OS
             0 MiB allocation reported by mallinfo(arena+hblkhd)
           428 MiB available memory on the node where the printing process lives
------------------
     ethr =  4.15E-10,  avg # of iterations =  1.7

     total cpu time spent up to now is       25.6 secs

     total energy              =    -753.42246970 Ry
     estimated scf accuracy    <       0.00000019 Ry

     total magnetization       =    -0.01 Bohr mag/cell
     absolute magnetization    =     0.01 Bohr mag/cell

     iteration #  5     ecut=   110.00 Ry     beta= 0.40
     Davidson diagonalization with overlap

---- Real-time Memory Report at c_bands before calling an iterative solver
            74 MiB given to the printing process from OS
             0 MiB allocation reported by mallinfo(arena+hblkhd)
           428 MiB available memory on the node where the printing process lives
------------------
     ethr =  4.15E-10,  avg # of iterations =  1.3

     total cpu time spent up to now is       30.5 secs

     total energy              =    -753.42246958 Ry
     estimated scf accuracy    <       0.00000011 Ry

     total magnetization       =    -0.00 Bohr mag/cell
     absolute magnetization    =     0.00 Bohr mag/cell

     iteration #  6     ecut=   110.00 Ry     beta= 0.40
     Davidson diagonalization with overlap

---- Real-time Memory Report at c_bands before calling an iterative solver
            74 MiB given to the printing process from OS
             0 MiB allocation reported by mallinfo(arena+hblkhd)
           424 MiB available memory on the node where the printing process lives
------------------
     ethr =  3.24E-10,  avg # of iterations =  1.4

     Magnetic moment per site  (integrated on atomic sphere of radius R)
     atom   1 (R=0.411)  charge= 15.5888  magn= -0.0001
     atom   2 (R=0.411)  charge= 15.5888  magn= -0.0001

     total cpu time spent up to now is       35.4 secs

     End of self-consistent calculation

 ------ SPIN UP ------------


          k = 0.0000 0.0000 0.0000 (  2803 PWs)   bands (ev):

   -76.0887 -76.0267 -39.5205 -39.2104 -39.2104 -39.1616 -39.1597 -39.1597
    10.0099  14.2790  17.1658  17.2271  17.2271  17.5678  17.5678  17.9867
    17.9867  18.7786  19.1577  19.1577  25.9625

     occupation numbers 
     1.0000   1.0000   1.0000   1.0000   1.0000   1.0000   1.0000   1.0000
     1.0000   1.0000   1.0000   1.0000   1.0000   1.0000   1.0000   1.0000
     1.0000   1.0001  -0.0303  -0.0303  -0.0000

          k = 0.0000 0.0000 0.1025 (  2797 PWs)   bands (ev):

   -76.0846 -76.0309 -39.4968 -39.2070 -39.2070 -39.1860 -39.1631 -39.1631
    10.2897  14.1455  17.0847  17.1637  17.1637  17.4900  17.4900  17.9882
    18.1555  18.1555  19.1400  19.1400  27.3834

     occupation numbers 
     1.0000   1.0000   1.0000   1.0000   1.0000   1.0000   1.0000   1.0000
     1.0000   1.0000   1.0000   1.0000   1.0000   1.0000   1.0000   1.0000
     1.0000   1.0000  -0.0067  -0.0067  -0.0000

          k = 0.0000 0.0000 0.2049 (  2816 PWs)   bands (ev):

   -76.0733 -76.0423 -39.4318 -39.2524 -39.1977 -39.1977 -39.1724 -39.1724
    11.0949  13.5038  16.8876  16.9756  17.1093  17.1093  17.3181  17.3181
    18.4957  18.4957  19.0454  19.0454  30.4948

     occupation numbers 
     1.0000   1.0000   1.0000   1.0000   1.0000   1.0000   1.0000   1.0000
     1.0000   1.0000   1.0000   1.0000   1.0000   1.0000   1.0000   1.0000
     1.0000   1.0000   0.5998   0.5998  -0.0000

          k = 0.0000 0.0000-0.3074 (  2834 PWs)   bands (ev):

   -76.0578 -76.0578 -39.3424 -39.3424 -39.1851 -39.1851 -39.1851 -39.1851
    12.2915  12.2915  16.7319  16.7319  17.1651  17.1651  17.1651  17.1651
    18.8239  18.8239  18.8239  18.8239  34.2576

     occupation numbers 
     1.0000   1.0000   1.0000   1.0000   1.0000   1.0000   1.0000   1.0000
     1.0000   1.0000   1.0000   1.0000   1.0000   1.0000   1.0000   1.0000
     1.0015   1.0015   1.0015   1.0015  -0.0000

          k = 0.0000 0.0962 0.0000 (  2801 PWs)   bands (ev):

   -76.0851 -76.0250 -39.5126 -39.2281 -39.2161 -39.1780 -39.1647 -39.1626
    10.2567  14.4385  16.9516  17.3500  17.3953  17.5096  17.6769  17.6770
    17.9080  18.0244  19.1908  20.3785  25.9904

     occupation numbers 
     1.0000   1.0000   1.0000   1.0000   1.0000   1.0000   1.0000   1.0000
     1.0000   1.0000   1.0000   1.0000   1.0000   1.0000   1.0000   1.0000
     1.0000   1.0000  -0.0315  -0.0000  -0.0000

          k = 0.0000 0.0962 0.1025 (  2795 PWs)   bands (ev):

   -76.0811 -76.0291 -39.4902 -39.2241 -39.2125 -39.1984 -39.1713 -39.1662
    10.5324  14.3197  16.9505  17.1759  17.2182  17.2704  17.5925  17.6675
    18.1042  18.1348  19.1648  19.8447  27.4802

     occupation numbers 
     1.0000   1.0000   1.0000   1.0000   1.0000   1.0000   1.0000   1.0000
     1.0000   1.0000   1.0000   1.0000   1.0000   1.0000   1.0000   1.0000
     1.0000   1.0000  -0.0341  -0.0000  -0.0000

          k = 0.0000 0.0962 0.2049 (  2799 PWs)   bands (ev):

   -76.0701 -76.0401 -39.4290 -39.2601 -39.2131 -39.2028 -39.1831 -39.1760
    11.3256  13.7003  16.6583  16.8737  17.0144  17.2080  17.3930  17.4191
    18.4657  18.5061  19.0515  19.2893  30.6424

     occupation numbers 
     1.0000   1.0000   1.0000   1.0000   1.0000   1.0000   1.0000   1.0000
     1.0000   1.0000   1.0000   1.0000   1.0000   1.0000   1.0000   1.0000
     1.0000   1.0000   0.5460  -0.0015  -0.0000

          k = 0.0000 0.0962-0.3074 (  2812 PWs)   bands (ev):

   -76.0551 -76.0551 -39.3448 -39.3448 -39.1982 -39.1982 -39.1894 -39.1894
    12.5044  12.5044  16.6141  16.6141  17.1495  17.1495  17.2646  17.2646
    18.8106  18.8106  18.9022  18.9022  34.4252

     occupation numbers 
     1.0000   1.0000   1.0000   1.0000   1.0000   1.0000   1.0000   1.0000
     1.0000   1.0000   1.0000   1.0000   1.0000   1.0000   1.0000   1.0000
     1.0008   1.0008   1.0220   1.0220  -0.0000

          k = 0.0000 0.1925 0.0000 (  2803 PWs)   bands (ev):

   -76.0751 -76.0205 -39.4901 -39.2766 -39.2314 -39.2276 -39.1742 -39.1710
    10.9722  14.8403  16.6402  16.7591  17.3003  17.6981  17.7146  17.7192
    17.8261  17.9836  19.2603  21.9771  26.0937

     occupation numbers 
     1.0000   1.0000   1.0000   1.0000   1.0000   1.0000   1.0000   1.0000
     1.0000   1.0000   1.0000   1.0000   1.0000   1.0000   1.0000   1.0000
     1.0000   1.0000  -0.0050  -0.0000  -0.0000

          k = 0.0000 0.1925 0.1025 (  2796 PWs)   bands (ev):

   -76.0715 -76.0242 -39.4723 -39.2707 -39.2433 -39.2274 -39.1826 -39.1751
    11.2329  14.7687  16.4703  16.6789  17.1832  17.5095  17.5322  17.8582
    18.0688  18.1401  19.2161  21.0104  27.8001

     occupation numbers 
     1.0000   1.0000   1.0000   1.0000   1.0000   1.0000   1.0000   1.0000
     1.0000   1.0000   1.0000   1.0000   1.0000   1.0000   1.0000   1.0000
     1.0000   1.0000  -0.0197  -0.0000  -0.0000

          k = 0.0000 0.1925 0.2049 (  2793 PWs)   bands (ev):

   -76.0615 -76.0342 -39.4236 -39.2916 -39.2517 -39.2163 -39.2029 -39.1861
    11.9810  14.2171  16.1963  16.7572  16.8555  17.3463  17.4518  17.6992
    18.4298  18.5769  19.0637  19.8543  31.0857

     occupation numbers 
     1.0000   1.0000   1.0000   1.0000   1.0000   1.0000   1.0000   1.0000
     1.0000   1.0000   1.0000   1.0000   1.0000   1.0000   1.0000   1.0000
     1.0000   1.0000   0.4386  -0.0000  -0.0000

          k = 0.0000 0.1925-0.3074 (  2798 PWs)   bands (ev):

   -76.0478 -76.0478 -39.3571 -39.3571 -39.2281 -39.2281 -39.2012 -39.2012
    13.0883  13.0883  16.3959  16.3959  17.0616  17.0616  17.5307  17.5307
    18.7894  18.7894  19.1171  19.1171  34.8854

     occupation numbers 
     1.0000   1.0000   1.0000   1.0000   1.0000   1.0000   1.0000   1.0000
     1.0000   1.0000   1.0000   1.0000   1.0000   1.0000   1.0000   1.0000
     1.0003   1.0003   0.0655   0.0655  -0.0000

          k = 0.0000 0.2887 0.0000 (  2792 PWs)   bands (ev):

   -76.0609 -76.0148 -39.4564 -39.3435 -39.2941 -39.2517 -39.1901 -39.1830
    12.0668  15.1955  16.0213  16.4070  17.1696  17.4830  17.6139  18.1687
    18.2060  18.4252  19.3247  23.7636  26.3009

     occupation numbers 
     1.0000   1.0000   1.0000   1.0000   1.0000   1.0000   1.0000   1.0000
     1.0000   1.0000   1.0000   1.0000   1.0000   1.0000   1.0000   1.0000
     1.0000   1.0000  -0.0003  -0.0000  -0.0000

          k = 0.0000 0.2887 0.1025 (  2789 PWs)   bands (ev):

   -76.0578 -76.0179 -39.4497 -39.3315 -39.3070 -39.2471 -39.1961 -39.1876
    12.2905  15.1898  15.8659  16.4662  17.0213  17.5207  17.5758  18.2511
    18.3213  18.3835  19.2637  22.2415  28.3874

     occupation numbers 
     1.0000   1.0000   1.0000   1.0000   1.0000   1.0000   1.0000   1.0000
     1.0000   1.0000   1.0000   1.0000   1.0000   1.0000   1.0000   1.0000
     1.0000   1.0000  -0.0044  -0.0000  -0.0000

          k = 0.0000 0.2887 0.2049 (  2788 PWs)   bands (ev):

   -76.0494 -76.0264 -39.4278 -39.3491 -39.2915 -39.2346 -39.2163 -39.2002
    12.9221  14.7419  15.8765  16.5230  16.8433  17.3818  17.6439  18.0967
    18.5511  18.7285  19.0877  20.5396  31.7047

     occupation numbers 
     1.0000   1.0000   1.0000   1.0000   1.0000   1.0000   1.0000   1.0000
     1.0000   1.0000   1.0000   1.0000   1.0000   1.0000   1.0000   1.0000
     1.0000   1.0000   0.2400  -0.0000  -0.0000

          k = 0.0000 0.2887-0.3074 (  2802 PWs)   bands (ev):

   -76.0379 -76.0379 -39.3916 -39.3916 -39.2509 -39.2509 -39.2174 -39.2174
    13.8281  13.8281  16.2167  16.2167  17.0667  17.0667  17.8512  17.8512
    18.8287  18.8287  19.4149  19.4149  33.9118

     occupation numbers 
     1.0000   1.0000   1.0000   1.0000   1.0000   1.0000   1.0000   1.0000
     1.0000   1.0000   1.0000   1.0000   1.0000   1.0000   1.0000   1.0000
     1.0018   1.0018  -0.0000  -0.0000  -0.0000

          k = 0.0000 0.3849 0.0000 (  2806 PWs)   bands (ev):

   -76.0457 -76.0101 -39.4170 -39.4109 -39.3593 -39.2715 -39.2117 -39.1954
    13.3208  15.1626  15.5001  16.4165  17.2749  17.2852  17.4090  18.7527
    18.8595  18.9053  19.3678  25.7012  26.2871

     occupation numbers 
     1.0000   1.0000   1.0000   1.0000   1.0000   1.0000   1.0000   1.0000
     1.0000   1.0000   1.0000   1.0000   1.0000   1.0000   1.0000   1.0000
     1.0063   1.0235  -0.0000  -0.0000  -0.0000

          k = 0.0000 0.3849 0.1025 (  2796 PWs)   bands (ev):

   -76.0433 -76.0125 -39.4469 -39.3817 -39.3569 -39.2664 -39.2135 -39.2006
    13.4526  15.1531  15.5201  16.3511  17.1748  17.3726  17.6731  18.7681
    18.8139  18.8230  19.3070  23.4004  28.4918

     occupation numbers 
     1.0000   1.0000   1.0000   1.0000   1.0000   1.0000   1.0000   1.0000
     1.0000   1.0000   1.0000   1.0000   1.0000   1.0000   1.0000   1.0001
     1.0009   1.0014  -0.0006  -0.0000  -0.0000

          k = 0.0000 0.3849 0.2049 (  2801 PWs)   bands (ev):

   -76.0368 -76.0190 -39.4564 -39.4111 -39.3053 -39.2525 -39.2262 -39.2145
    13.8152  14.8492  15.7300  16.2997  17.2162  17.6486  17.8564  18.4724
    18.8895  18.9678  19.1744  21.2914  29.6506

     occupation numbers 
     1.0000   1.0000   1.0000   1.0000   1.0000   1.0000   1.0000   1.0000
     1.0000   1.0000   1.0000   1.0000   1.0000   1.0000   1.0000   1.0000
     1.0162   1.0167  -0.0354  -0.0000  -0.0000

          k = 0.0000 0.3849-0.3074 (  2796 PWs)   bands (ev):

   -76.0279 -76.0279 -39.4420 -39.4420 -39.2575 -39.2575 -39.2335 -39.2335
    14.3237  14.3237  16.0678  16.0678  17.5708  17.5708  18.0481  18.0481
    19.0256  19.0256  19.7878  19.7878  30.7470

     occupation numbers 
     1.0000   1.0000   1.0000   1.0000   1.0000   1.0000   1.0000   1.0000
     1.0000   1.0000   1.0000   1.0000   1.0000   1.0000   1.0000   1.0000
     0.7608   0.7608  -0.0000  -0.0000  -0.0000

          k = 0.0000 0.4811 0.0000 (  2796 PWs)   bands (ev):

   -76.0333 -76.0080 -39.4606 -39.4063 -39.3807 -39.2857 -39.2351 -39.2047
    14.2903  14.9540  15.1919  16.6381  17.1330  17.2618  17.5075  19.1644
    19.3059  19.3903  19.9053  24.5298  27.6883

     occupation numbers 
     1.0000   1.0000   1.0000   1.0000   1.0000   1.0000   1.0000   1.0000
     1.0000   1.0000   1.0000   1.0000   1.0000   1.0000   1.0000  -0.0339
    -0.0007  -0.0000  -0.0000  -0.0000  -0.0000

          k = 0.0000 0.4811 0.1025 (  2806 PWs)   bands (ev):

   -76.0316 -76.0097 -39.4772 -39.4235 -39.3494 -39.2803 -39.2323 -39.2102
    14.2321  14.9289  15.4684  16.1951  17.2530  17.4854  17.9566  19.0999
    19.1980  19.3865  19.7269  23.6782  27.1717

     occupation numbers 
     1.0000   1.0000   1.0000   1.0000   1.0000   1.0000   1.0000   1.0000
     1.0000   1.0000   1.0000   1.0000   1.0000   1.0000   1.0000   0.1567
    -0.0284  -0.0000  -0.0000  -0.0000  -0.0000

          k = 0.0000 0.4811 0.2049 (  2797 PWs)   bands (ev):

   -76.0270 -76.0143 -39.4915 -39.4567 -39.2987 -39.2655 -39.2353 -39.2250
    14.2491  14.7841  15.7070  16.0770  17.5941  17.6683  18.6535  18.9611
    19.2325  19.2704  19.3481  21.9602  27.3573

     occupation numbers 
     1.0000   1.0000   1.0000   1.0000   1.0000   1.0000   1.0000   1.0000
     1.0000   1.0000   1.0000   1.0000   1.0000   1.0000   1.0000   1.0256
    -0.0127  -0.0034  -0.0001  -0.0000  -0.0000

          k = 0.0000 0.4811-0.3074 (  2810 PWs)   bands (ev):

   -76.0206 -76.0206 -39.4839 -39.4839 -39.2571 -39.2571 -39.2453 -39.2453
    14.4618  14.4618  15.9424  15.9424  18.0970  18.0970  18.3676  18.3676
    19.2905  19.2905  20.3640  20.3640  28.1016

     occupation numbers 
     1.0000   1.0000   1.0000   1.0000   1.0000   1.0000   1.0000   1.0000
     1.0000   1.0000   1.0000   1.0000   1.0000   1.0000   1.0000   1.0000
    -0.0014  -0.0014  -0.0000  -0.0000  -0.0000

          k = 0.0000-0.5774 0.0000 (  2794 PWs)   bands (ev):

   -76.0281 -76.0078 -39.4788 -39.4234 -39.3636 -39.2909 -39.2473 -39.2082
    14.6682  14.7895  15.0901  16.8413  17.0829  17.2084  17.5911  19.3130
    19.3970  19.4700  20.9439  22.9013  28.9561

     occupation numbers 
     1.0000   1.0000   1.0000   1.0000   1.0000   1.0000   1.0000   1.0000
     1.0000   1.0000   1.0000   1.0000   1.0000   1.0000   1.0000  -0.0005
    -0.0000  -0.0000  -0.0000  -0.0000  -0.0000

          k = 0.0000-0.5774 0.1025 (  2804 PWs)   bands (ev):

   -76.0267 -76.0092 -39.4924 -39.4399 -39.3385 -39.2854 -39.2421 -39.2137
    14.4295  14.8274  15.5276  16.1304  17.2091  17.5801  18.1708  19.1683
    19.3602  19.4617  20.6561  22.6826  28.1851

     occupation numbers 
     1.0000   1.0000   1.0000   1.0000   1.0000   1.0000   1.0000   1.0000
     1.0000   1.0000   1.0000   1.0000   1.0000   1.0000   1.0000  -0.0350
    -0.0000  -0.0000  -0.0000  -0.0000  -0.0000

          k = 0.0000-0.5774 0.2049 (  2794 PWs)   bands (ev):

   -76.0230 -76.0129 -39.5062 -39.4734 -39.2930 -39.2703 -39.2399 -39.2289
    14.3231  14.7562  15.7533  15.9616  17.5688  17.8259  18.6915  19.3502
    19.3773  19.4391  19.9389  21.9773  27.2374

     occupation numbers 
     1.0000   1.0000   1.0000   1.0000   1.0000   1.0000   1.0000   1.0000
     1.0000   1.0000   1.0000   1.0000   1.0000   1.0000   1.0000  -0.0001
    -0.0000  -0.0000  -0.0000  -0.0000  -0.0000

          k = 0.0000-0.5774-0.3074 (  2808 PWs)   bands (ev):

   -76.0180 -76.0180 -39.4998 -39.4998 -39.2564 -39.2564 -39.2496 -39.2496
    14.4739  14.4739  15.8944  15.8944  18.1006  18.1006  18.6872  18.6872
    19.4080  19.4080  20.8419  20.8419  26.9113

     occupation numbers 
     1.0000   1.0000   1.0000   1.0000   1.0000   1.0000   1.0000   1.0000
     1.0000   1.0000   1.0000   1.0000   1.0000   1.0000   1.0000   1.0000
    -0.0000  -0.0000  -0.0000  -0.0000  -0.0000

          k = 0.0833 0.1443 0.0000 (  2791 PWs)   bands (ev):

   -76.0783 -76.0219 -39.4974 -39.2582 -39.2345 -39.2048 -39.1710 -39.1706
    10.7386  14.7245  16.7120  17.0091  17.3835  17.5599  17.6008  17.6745
    17.9151  17.9675  19.2304  21.5322  26.0580

     occupation numbers 
     1.0000   1.0000   1.0000   1.0000   1.0000   1.0000   1.0000   1.0000
     1.0000   1.0000   1.0000   1.0000   1.0000   1.0000   1.0000   1.0000
     1.0000   1.0000  -0.0136  -0.0000  -0.0000

          k = 0.0833 0.1443 0.1025 (  2794 PWs)   bands (ev):

   -76.0745 -76.0257 -39.4780 -39.2529 -39.2366 -39.2167 -39.1785 -39.1745
    11.0048  14.6370  16.6637  16.7426  17.2344  17.4461  17.5090  17.7677
    18.0904  18.1283  19.1945  20.6898  27.6907

     occupation numbers 
     1.0000   1.0000   1.0000   1.0000   1.0000   1.0000   1.0000   1.0000
     1.0000   1.0000   1.0000   1.0000   1.0000   1.0000   1.0000   1.0000
     1.0000   1.0000  -0.0299  -0.0000  -0.0000

          k = 0.0833 0.1443 0.2049 (  2799 PWs)   bands (ev):

   -76.0642 -76.0360 -39.4247 -39.2799 -39.2384 -39.2159 -39.1943 -39.1849
    11.7700  14.0620  16.3136  16.8164  16.8703  17.3353  17.4053  17.6104
    18.4559  18.5327  19.0607  19.6888  30.9409

     occupation numbers 
     1.0000   1.0000   1.0000   1.0000   1.0000   1.0000   1.0000   1.0000
     1.0000   1.0000   1.0000   1.0000   1.0000   1.0000   1.0000   1.0000
     1.0000   1.0000   0.4651  -0.0000  -0.0000

          k = 0.0833 0.1443-0.3074 (  2814 PWs)   bands (ev):

   -76.0501 -76.0501 -39.3519 -39.3519 -39.2194 -39.2194 -39.1980 -39.1980
    12.9054  12.9054  16.4556  16.4556  17.0729  17.0729  17.4573  17.4573
    18.7951  18.7951  19.0504  19.0504  34.7488

     occupation numbers 
     1.0000   1.0000   1.0000   1.0000   1.0000   1.0000   1.0000   1.0000
     1.0000   1.0000   1.0000   1.0000   1.0000   1.0000   1.0000   1.0000
     1.0004   1.0004   0.5558   0.5558  -0.0000

          k = 0.0833 0.2406 0.0000 (  2778 PWs)   bands (ev):

   -76.0662 -76.0168 -39.4692 -39.3116 -39.2803 -39.2355 -39.1843 -39.1838
    11.6502  15.1462  16.2850  16.3934  17.2281  17.4171  17.8250  17.8364
    18.0587  18.3579  19.2782  23.1226  26.2357

     occupation numbers 
     1.0000   1.0000   1.0000   1.0000   1.0000   1.0000   1.0000   1.0000
     1.0000   1.0000   1.0000   1.0000   1.0000   1.0000   1.0000   1.0000
     1.0000   1.0000  -0.0024  -0.0000  -0.0000

          k = 0.0833 0.2406 0.1025 (  2785 PWs)   bands (ev):

   -76.0629 -76.0201 -39.4570 -39.3034 -39.2883 -39.2385 -39.1910 -39.1869
    11.8920  15.1243  16.0628  16.4466  17.1217  17.3849  17.6422  17.9837
    18.2640  18.3474  19.2337  21.8225  28.1671

     occupation numbers 
     1.0000   1.0000   1.0000   1.0000   1.0000   1.0000   1.0000   1.0000
     1.0000   1.0000   1.0000   1.0000   1.0000   1.0000   1.0000   1.0000
     1.0000   1.0000  -0.0123  -0.0000  -0.0000

          k = 0.0833 0.2406 0.2049 (  2785 PWs)   bands (ev):

   -76.0539 -76.0292 -39.4230 -39.3255 -39.2757 -39.2358 -39.2071 -39.1987
    12.5811  14.6256  15.9664  16.5648  16.8162  17.2429  17.6125  17.9467
    18.5407  18.6538  19.0909  20.3059  31.5272

     occupation numbers 
     1.0000   1.0000   1.0000   1.0000   1.0000   1.0000   1.0000   1.0000
     1.0000   1.0000   1.0000   1.0000   1.0000   1.0000   1.0000   1.0000
     1.0000   1.0000   0.2169  -0.0000  -0.0000

          k = 0.0833 0.2406-0.3074 (  2792 PWs)   bands (ev):

   -76.0415 -76.0415 -39.3749 -39.3749 -39.2455 -39.2455 -39.2126 -39.2126
    13.5896  13.5896  16.2866  16.2866  16.9452  16.9452  17.7596  17.7596
    18.8322  18.8322  19.3095  19.3095  35.1517

     occupation numbers 
     1.0000   1.0000   1.0000   1.0000   1.0000   1.0000   1.0000   1.0000
     1.0000   1.0000   1.0000   1.0000   1.0000   1.0000   1.0000   1.0000
     1.0021   1.0021  -0.0006  -0.0006  -0.0000

          k = 0.0833 0.3368 0.0000 (  2797 PWs)   bands (ev):

   -76.0514 -76.0117 -39.4324 -39.3772 -39.3368 -39.2640 -39.2029 -39.1990
    12.8525  15.3267  15.7153  16.2481  17.2035  17.2129  17.6052  18.2713
    18.6076  18.9423  19.3178  24.9481  26.5057

     occupation numbers 
     1.0000   1.0000   1.0000   1.0000   1.0000   1.0000   1.0000   1.0000
     1.0000   1.0000   1.0000   1.0000   1.0000   1.0000   1.0000   1.0000
     1.0000   1.0354  -0.0004  -0.0000  -0.0000

          k = 0.0833 0.3368 0.1025 (  2792 PWs)   bands (ev):

   -76.0488 -76.0143 -39.4398 -39.3613 -39.3397 -39.2629 -39.2088 -39.1999
    13.0358  15.3478  15.6207  16.3140  16.9985  17.4216  17.5473  18.3103
    18.7004  18.8194  19.3068  23.0257  28.8591

     occupation numbers 
     1.0000   1.0000   1.0000   1.0000   1.0000   1.0000   1.0000   1.0000
     1.0000   1.0000   1.0000   1.0000   1.0000   1.0000   1.0000   1.0000
     1.0000   1.0012  -0.0006  -0.0000  -0.0000

          k = 0.0833 0.3368 0.2049 (  2794 PWs)   bands (ev):

   -76.0415 -76.0216 -39.4383 -39.3845 -39.3015 -39.2550 -39.2234 -39.2099
    13.5425  14.9427  15.8033  16.4074  16.8581  17.3484  17.6694  18.2997
    18.7889  18.9370  19.2353  21.0519  31.2473

     occupation numbers 
     1.0000   1.0000   1.0000   1.0000   1.0000   1.0000   1.0000   1.0000
     1.0000   1.0000   1.0000   1.0000   1.0000   1.0000   1.0000   1.0000
     1.0003   1.0353  -0.0117  -0.0000  -0.0000

          k = 0.0833 0.3368-0.3074 (  2794 PWs)   bands (ev):

   -76.0316 -76.0316 -39.4175 -39.4175 -39.2615 -39.2615 -39.2274 -39.2274
    14.2439  14.2439  16.1717  16.1717  17.0516  17.0516  17.9754  17.9754
    19.0416  19.0416  19.6809  19.6809  32.4346

     occupation numbers 
     1.0000   1.0000   1.0000   1.0000   1.0000   1.0000   1.0000   1.0000
     1.0000   1.0000   1.0000   1.0000   1.0000   1.0000   1.0000   1.0000
     0.6330   0.6330  -0.0000  -0.0000  -0.0000

          k = 0.0833 0.4330 0.0000 (  2799 PWs)   bands (ev):

   -76.0374 -76.0084 -39.4352 -39.3935 -39.3859 -39.2866 -39.2264 -39.2117
    14.0174  15.1540  15.3349  16.3647  17.0717  17.3769  17.4171  18.8274
    19.0786  19.3417  19.6975  25.8119  26.9218

     occupation numbers 
     1.0000   1.0000   1.0000   1.0000   1.0000   1.0000   1.0000   1.0000
     1.0000   1.0000   1.0000   1.0000   1.0000   1.0000   1.0000   1.0017
     0.3110  -0.0001  -0.0000  -0.0000  -0.0000

          k = 0.0833 0.4330 0.1025 (  2803 PWs)   bands (ev):

   -76.0355 -76.0104 -39.4568 -39.4048 -39.3541 -39.2825 -39.2281 -39.2130
    14.0624  15.1392  15.4588  16.2327  17.1240  17.4521  17.6240  18.7817
    19.1274  19.1421  19.7099  24.0095  27.6852

     occupation numbers 
     1.0000   1.0000   1.0000   1.0000   1.0000   1.0000   1.0000   1.0000
     1.0000   1.0000   1.0000   1.0000   1.0000   1.0000   1.0000   1.0002
     0.0262  -0.0108  -0.0000  -0.0000  -0.0000

          k = 0.0833 0.4330 0.2049 (  2793 PWs)   bands (ev):

   -76.0302 -76.0157 -39.4712 -39.4356 -39.3056 -39.2682 -39.2400 -39.2186
    14.2292  14.9181  15.7168  16.2385  17.1773  17.6555  17.9610  18.5262
    18.9806  19.3154  19.7055  21.9211  28.4121

     occupation numbers 
     1.0000   1.0000   1.0000   1.0000   1.0000   1.0000   1.0000   1.0000
     1.0000   1.0000   1.0000   1.0000   1.0000   1.0000   1.0000   1.0000
     0.9898  -0.0004  -0.0000  -0.0000  -0.0000

          k = 0.0833 0.4330-0.3074 (  2796 PWs)   bands (ev):

   -76.0229 -76.0229 -39.4626 -39.4626 -39.2707 -39.2707 -39.2363 -39.2363
    14.5383  14.5383  16.0509  16.0509  17.5639  17.5639  18.1213  18.1213
    19.2662  19.2662  20.3574  20.3574  29.4246

     occupation numbers 
     1.0000   1.0000   1.0000   1.0000   1.0000   1.0000   1.0000   1.0000
     1.0000   1.0000   1.0000   1.0000   1.0000   1.0000   1.0000   1.0000
    -0.0040  -0.0040  -0.0000  -0.0000  -0.0000

          k = 0.0833 0.5292 0.0000 (  2793 PWs)   bands (ev):

   -76.0281 -76.0078 -39.4689 -39.4144 -39.3639 -39.2992 -39.2471 -39.2191
    14.6757  14.9548  15.1463  16.6305  17.0344  17.2115  17.5898  19.2494
    19.3307  19.3518  20.8160  23.6327  28.7879

     occupation numbers 
     1.0000   1.0000   1.0000   1.0000   1.0000   1.0000   1.0000   1.0000
     1.0000   1.0000   1.0000   1.0000   1.0000   1.0000   1.0000  -0.0074
    -0.0002  -0.0001  -0.0000  -0.0000  -0.0000

          k = 0.0833 0.5292 0.1025 (  2806 PWs)   bands (ev):

   -76.0268 -76.0092 -39.4825 -39.4313 -39.3410 -39.2915 -39.2449 -39.2212
    14.4992  14.9649  15.5460  16.1214  17.0781  17.6431  17.8476  19.1057
    19.2751  19.3663  20.7011  23.3181  27.6514

     occupation numbers 
     1.0000   1.0000   1.0000   1.0000   1.0000   1.0000   1.0000   1.0000
     1.0000   1.0000   1.0000   1.0000   1.0000   1.0000   1.0000   0.1221
    -0.0028  -0.0000  -0.0000  -0.0000  -0.0000

          k = 0.0833 0.5292 0.2049 (  2803 PWs)   bands (ev):

   -76.0230 -76.0129 -39.4964 -39.4645 -39.3049 -39.2686 -39.2531 -39.2245
    14.4253  14.8827  15.7557  16.0765  17.2108  17.9629  18.3665  18.7089
    19.2306  19.4470  20.5899  22.3840  27.0291

     occupation numbers 
     1.0000   1.0000   1.0000   1.0000   1.0000   1.0000   1.0000   1.0000
     1.0000   1.0000   1.0000   1.0000   1.0000   1.0000   1.0000   1.0000
    -0.0135  -0.0000  -0.0000  -0.0000  -0.0000

          k = 0.0833 0.5292-0.3074 (  2794 PWs)   bands (ev):

   -76.0180 -76.0180 -39.4904 -39.4904 -39.2766 -39.2766 -39.2390 -39.2390
    14.5895  14.5895  15.9693  15.9693  17.7815  17.7815  18.4964  18.4964
    19.3095  19.3095  21.2506  21.2506  27.2987

     occupation numbers 
     1.0000   1.0000   1.0000   1.0000   1.0000   1.0000   1.0000   1.0000
     1.0000   1.0000   1.0000   1.0000   1.0000   1.0000   1.0000   1.0000
    -0.0006  -0.0006  -0.0000  -0.0000  -0.0000

          k = 0.1667 0.2887 0.0000 (  2788 PWs)   bands (ev):

   -76.0535 -76.0123 -39.4378 -39.3505 -39.3410 -39.2555 -39.2080 -39.1999
    12.6890  15.4905  15.8284  16.0574  17.1233  17.2183  17.7160  18.0204
    18.5888  18.9618  19.2738  24.6959  26.5639

     occupation numbers 
     1.0000   1.0000   1.0000   1.0000   1.0000   1.0000   1.0000   1.0000
     1.0000   1.0000   1.0000   1.0000   1.0000   1.0000   1.0000   1.0000
     1.0000   1.0247  -0.0029  -0.0000  -0.0000

          k = 0.1667 0.2887 0.1025 (  2789 PWs)   bands (ev):

   -76.0507 -76.0151 -39.4386 -39.3482 -39.3321 -39.2618 -39.2123 -39.1999
    12.8893  15.5516  15.6675  16.1181  17.0568  17.2360  17.5994  18.1163
    18.7140  18.8134  19.3076  22.9035  28.8591

     occupation numbers 
     1.0000   1.0000   1.0000   1.0000   1.0000   1.0000   1.0000   1.0000
     1.0000   1.0000   1.0000   1.0000   1.0000   1.0000   1.0000   1.0000
     1.0000   1.0009  -0.0006  -0.0000  -0.0000

          k = 0.1667 0.2887 0.2049 (  2793 PWs)   bands (ev):

   -76.0432 -76.0226 -39.4302 -39.3730 -39.2937 -39.2645 -39.2226 -39.2091
    13.4487  15.0335  15.8913  16.2817  16.8297  17.0851  17.6234  18.2242
    18.7935  18.9311  19.2978  20.9939  32.1964

     occupation numbers 
     1.0000   1.0000   1.0000   1.0000   1.0000   1.0000   1.0000   1.0000
     1.0000   1.0000   1.0000   1.0000   1.0000   1.0000   1.0000   1.0000
     1.0003   1.0342  -0.0010  -0.0000  -0.0000

          k = 0.1667 0.2887-0.3074 (  2794 PWs)   bands (ev):

   -76.0329 -76.0329 -39.4059 -39.4059 -39.2649 -39.2649 -39.2258 -39.2258
    14.2357  14.2357  16.2448  16.2448  16.7831  16.7831  17.9193  17.9193
    19.0963  19.0963  19.6634  19.6634  34.1146

     occupation numbers 
     1.0000   1.0000   1.0000   1.0000   1.0000   1.0000   1.0000   1.0000
     1.0000   1.0000   1.0000   1.0000   1.0000   1.0000   1.0000   1.0000
     0.1795   0.1795  -0.0000  -0.0000  -0.0000

          k = 0.1667 0.3849 0.0000 (  2800 PWs)   bands (ev):

   -76.0398 -76.0088 -39.4023 -39.4004 -39.3784 -39.2863 -39.2309 -39.2219
    13.8816  15.4820  15.5066  15.9618  16.9406  17.3626  17.4966  18.3577
    19.0721  19.2659  19.7431  26.5431  26.8837

     occupation numbers 
     1.0000   1.0000   1.0000   1.0000   1.0000   1.0000   1.0000   1.0000
     1.0000   1.0000   1.0000   1.0000   1.0000   1.0000   1.0000   1.0000
     0.3655  -0.0040  -0.0000  -0.0000  -0.0000

          k = 0.1667 0.3849 0.1025 (  2799 PWs)   bands (ev):

   -76.0377 -76.0109 -39.4343 -39.3964 -39.3458 -39.2914 -39.2369 -39.2153
    13.9953  15.3846  15.6063  16.0612  16.9510  17.3438  17.4454  18.3996
    19.0258  19.1689  19.8358  24.1266  29.0586

     occupation numbers 
     1.0000   1.0000   1.0000   1.0000   1.0000   1.0000   1.0000   1.0000
     1.0000   1.0000   1.0000   1.0000   1.0000   1.0000   1.0000   1.0000
     0.7598  -0.0351  -0.0000  -0.0000  -0.0000

          k = 0.1667 0.3849 0.2049 (  2799 PWs)   bands (ev):

   -76.0320 -76.0165 -39.4491 -39.4179 -39.3054 -39.2875 -39.2450 -39.2152
    14.3012  15.1104  15.8745  16.2869  16.8424  17.1199  17.6085  18.3756
    18.9042  19.3384  19.9633  21.9894  30.0610

     occupation numbers 
     1.0000   1.0000   1.0000   1.0000   1.0000   1.0000   1.0000   1.0000
     1.0000   1.0000   1.0000   1.0000   1.0000   1.0000   1.0000   1.0000
     1.0230  -0.0001  -0.0000  -0.0000  -0.0000

          k = 0.1667 0.3849-0.3074 (  2794 PWs)   bands (ev):

   -76.0243 -76.0243 -39.4411 -39.4411 -39.2869 -39.2869 -39.2319 -39.2319
    14.7111  14.7111  16.2255  16.2255  16.8712  16.8712  17.9356  17.9356
    19.3274  19.3274  20.4981  20.4981  31.1952

     occupation numbers 
     1.0000   1.0000   1.0000   1.0000   1.0000   1.0000   1.0000   1.0000
     1.0000   1.0000   1.0000   1.0000   1.0000   1.0000   1.0000   1.0000
    -0.0002  -0.0002  -0.0000  -0.0000  -0.0000

          k = 0.1667 0.4811 0.0000 (  2800 PWs)   bands (ev):

   -76.0282 -76.0077 -39.4432 -39.3974 -39.3643 -39.3151 -39.2466 -39.2465
    14.7835  15.2731  15.2869  16.1667  16.8916  17.2516  17.5859  18.8059
    19.2593  19.3120  20.8051  25.2312  28.5356

     occupation numbers 
     1.0000   1.0000   1.0000   1.0000   1.0000   1.0000   1.0000   1.0000
     1.0000   1.0000   1.0000   1.0000   1.0000   1.0000   1.0000   1.0006
    -0.0052  -0.0005  -0.0000  -0.0000  -0.0000

          k = 0.1667 0.4811 0.1025 (  2801 PWs)   bands (ev):

   -76.0268 -76.0091 -39.4565 -39.4163 -39.3440 -39.3068 -39.2581 -39.2313
    14.7059  15.3103  15.4837  16.0873  16.9252  17.3151  17.6591  18.7956
    19.0425  19.3813  20.8686  24.6172  27.4804

     occupation numbers 
     1.0000   1.0000   1.0000   1.0000   1.0000   1.0000   1.0000   1.0000
     1.0000   1.0000   1.0000   1.0000   1.0000   1.0000   1.0000   1.0004
     0.6245  -0.0000  -0.0000  -0.0000  -0.0000

          k = 0.1667 0.4811 0.2049 (  2801 PWs)   bands (ev):

   -76.0231 -76.0128 -39.4718 -39.4457 -39.3259 -39.2887 -39.2582 -39.2224
    14.7074  15.1683  15.7692  16.3170  16.7864  17.3971  17.8823  18.4775
    19.0043  19.4692  21.0976  23.0996  27.5990

     occupation numbers 
     1.0000   1.0000   1.0000   1.0000   1.0000   1.0000   1.0000   1.0000
     1.0000   1.0000   1.0000   1.0000   1.0000   1.0000   1.0000   1.0000
     0.8963  -0.0000  -0.0000  -0.0000  -0.0000

          k = 0.1667 0.4811-0.3074 (  2792 PWs)   bands (ev):

   -76.0180 -76.0180 -39.4683 -39.4683 -39.3054 -39.3054 -39.2326 -39.2326
    14.8835  14.8835  16.1493  16.1493  17.1209  17.1209  18.1000  18.1000
    19.3274  19.3274  21.7797  21.7797  28.4472

     occupation numbers 
     1.0000   1.0000   1.0000   1.0000   1.0000   1.0000   1.0000   1.0000
     1.0000   1.0000   1.0000   1.0000   1.0000   1.0000   1.0000   1.0000
    -0.0002  -0.0002  -0.0000  -0.0000  -0.0000

          k = 0.1667 0.5774 0.0000 (  2798 PWs)   bands (ev):

   -76.0231 -76.0082 -39.4580 -39.4032 -39.3461 -39.3270 -39.2607 -39.2520
    15.0710  15.1718  15.2039  16.3454  16.9254  17.1104  17.6835  19.1151
    19.2566  19.2853  21.9075  23.5048  29.9217

     occupation numbers 
     1.0000   1.0000   1.0000   1.0000   1.0000   1.0000   1.0000   1.0000
     1.0000   1.0000   1.0000   1.0000   1.0000   1.0000   1.0000   0.0742
    -0.0057  -0.0018  -0.0000  -0.0000  -0.0000

          k = 0.1667 0.5774 0.1025 (  2801 PWs)   bands (ev):

   -76.0221 -76.0092 -39.4687 -39.4210 -39.3478 -39.3001 -39.2705 -39.2388
    14.8183  15.2389  15.6708  16.0172  16.8591  17.4070  17.7665  19.0143
    19.1130  19.3431  21.9689  23.4234  28.6955

     occupation numbers 
     1.0000   1.0000   1.0000   1.0000   1.0000   1.0000   1.0000   1.0000
     1.0000   1.0000   1.0000   1.0000   1.0000   1.0000   1.0000   0.8386
     0.0843  -0.0001  -0.0000  -0.0000  -0.0000

          k = 0.1667 0.5774 0.2049 (  2802 PWs)   bands (ev):

   -76.0194 -76.0119 -39.4822 -39.4544 -39.3348 -39.2889 -39.2601 -39.2262
    14.7512  15.2043  15.8225  16.2600  16.6974  17.5980  18.0278  18.5479
    19.1362  19.3888  22.1849  23.1375  27.5137

     occupation numbers 
     1.0000   1.0000   1.0000   1.0000   1.0000   1.0000   1.0000   1.0000
     1.0000   1.0000   1.0000   1.0000   1.0000   1.0000   1.0000   1.0000
     0.0016  -0.0000  -0.0000  -0.0000  -0.0000

          k = 0.1667 0.5774-0.3074 (  2790 PWs)   bands (ev):

   -76.0156 -76.0156 -39.4783 -39.4783 -39.3125 -39.3125 -39.2324 -39.2324
    14.9126  14.9126  16.1186  16.1186  17.1785  17.1785  18.2920  18.2920
    19.2626  19.2626  22.6398  22.6398  27.0859

     occupation numbers 
     1.0000   1.0000   1.0000   1.0000   1.0000   1.0000   1.0000   1.0000
     1.0000   1.0000   1.0000   1.0000   1.0000   1.0000   1.0000   1.0000
    -0.0046  -0.0046  -0.0000  -0.0000  -0.0000

          k = 0.2500 0.4330 0.0000 (  2814 PWs)   bands (ev):

   -76.0282 -76.0077 -39.4208 -39.3978 -39.3646 -39.3170 -39.2669 -39.2464
    14.8685  15.3465  15.6849  15.6954  16.8059  17.2774  17.5915  18.5576
    19.2118  19.3155  20.8354  26.9138  27.7428

     occupation numbers 
     1.0000   1.0000   1.0000   1.0000   1.0000   1.0000   1.0000   1.0000
     1.0000   1.0000   1.0000   1.0000   1.0000   1.0000   1.0000   1.0000
    -0.0217  -0.0004  -0.0000  -0.0000  -0.0000

          k = 0.2500 0.4330 0.1025 (  2811 PWs)   bands (ev):

   -76.0268 -76.0091 -39.4281 -39.4246 -39.3290 -39.3288 -39.2693 -39.2336
    14.9030  15.2827  15.7318  15.8840  16.9038  17.1114  17.5926  18.6005
    18.9848  19.3892  20.9481  25.3784  28.0279

     occupation numbers 
     1.0000   1.0000   1.0000   1.0000   1.0000   1.0000   1.0000   1.0000
     1.0000   1.0000   1.0000   1.0000   1.0000   1.0000   1.0000   1.0000
     0.9778  -0.0000  -0.0000  -0.0000  -0.0000

          k = 0.2500 0.4330 0.2049 (  2801 PWs)   bands (ev):

   -76.0231 -76.0128 -39.4523 -39.4393 -39.3340 -39.3080 -39.2574 -39.2220
    14.9860  15.1944  15.9302  16.2667  16.7480  16.9553  17.6525  18.3813
    18.9682  19.4776  21.2549  23.4055  28.8090

     occupation numbers 
     1.0000   1.0000   1.0000   1.0000   1.0000   1.0000   1.0000   1.0000
     1.0000   1.0000   1.0000   1.0000   1.0000   1.0000   1.0000   1.0000
     1.0162  -0.0000  -0.0000  -0.0000  -0.0000

          k = 0.2500 0.4330-0.3074 (  2786 PWs)   bands (ev):

   -76.0180 -76.0180 -39.4543 -39.4543 -39.3213 -39.3213 -39.2308 -39.2308
    15.0925  15.0925  16.2746  16.2746  16.7317  16.7317  17.9096  17.9096
    19.3498  19.3498  21.9766  21.9766  29.8286

     occupation numbers 
     1.0000   1.0000   1.0000   1.0000   1.0000   1.0000   1.0000   1.0000
     1.0000   1.0000   1.0000   1.0000   1.0000   1.0000   1.0000   1.0000
    -0.0001  -0.0001  -0.0000  -0.0000  -0.0000

          k = 0.2500 0.5292 0.0000 (  2824 PWs)   bands (ev):

   -76.0196 -76.0090 -39.4348 -39.3881 -39.3500 -39.3326 -39.2901 -39.2718
    15.2903  15.3478  15.5258  15.9385  16.8175  17.0485  17.7777  18.8599
    19.1800  19.2484  22.3410  24.8179  27.0724

     occupation numbers 
     1.0000   1.0000   1.0000   1.0000   1.0000   1.0000   1.0000   1.0000
     1.0000   1.0000   1.0000   1.0000   1.0000   1.0000   1.0000   1.0064
    -0.0348  -0.0077  -0.0000  -0.0000  -0.0000

          k = 0.2500 0.5292 0.1025 (  2807 PWs)   bands (ev):

   -76.0189 -76.0097 -39.4401 -39.4101 -39.3668 -39.3090 -39.2895 -39.2517
    15.1773  15.5500  15.6260  15.9061  16.8195  17.0026  17.7883  18.8753
    18.9533  19.3000  22.5169  24.8079  27.1089

     occupation numbers 
     1.0000   1.0000   1.0000   1.0000   1.0000   1.0000   1.0000   1.0000
     1.0000   1.0000   1.0000   1.0000   1.0000   1.0000   1.0000   1.0107
     1.0319  -0.0009  -0.0000  -0.0000  -0.0000

          k = 0.2500 0.5292 0.2049 (  2801 PWs)   bands (ev):

   -76.0169 -76.0117 -39.4547 -39.4391 -39.3667 -39.3235 -39.2528 -39.2300
    15.1861  15.5218  15.8502  16.1803  16.6237  16.9579  17.8487  18.4092
    19.0510  19.3497  22.9619  24.4543  27.0996

     occupation numbers 
     1.0000   1.0000   1.0000   1.0000   1.0000   1.0000   1.0000   1.0000
     1.0000   1.0000   1.0000   1.0000   1.0000   1.0000   1.0000   1.0000
     0.5507  -0.0001  -0.0000  -0.0000  -0.0000

          k = 0.2500 0.5292-0.3074 (  2802 PWs)   bands (ev):

   -76.0143 -76.0143 -39.4570 -39.4570 -39.3470 -39.3470 -39.2292 -39.2292
    15.3213  15.3213  16.1924  16.1924  16.7101  16.7101  18.0174  18.0174
    19.2539  19.2539  23.6514  23.6514  27.6497

     occupation numbers 
     1.0000   1.0000   1.0000   1.0000   1.0000   1.0000   1.0000   1.0000
     1.0000   1.0000   1.0000   1.0000   1.0000   1.0000   1.0000   1.0000
    -0.0063  -0.0063  -0.0000  -0.0000  -0.0000

          k = 0.3333 0.5774 0.0000 (  2826 PWs)   bands (ev):

   -76.0130 -76.0130 -39.4238 -39.3720 -39.3720 -39.3174 -39.3010 -39.3010
    15.3119  15.5986  15.5986  15.8387  16.8750  16.8750  17.8822  19.0224
    19.0224  19.1485  23.9598  24.8260  24.8260

     occupation numbers 
     1.0000   1.0000   1.0000   1.0000   1.0000   1.0000   1.0000   1.0000
     1.0000   1.0000   1.0000   1.0000   1.0000   1.0000   1.0000   0.7839
     0.7839  -0.0209  -0.0000  -0.0000  -0.0000

          k = 0.3333 0.5774 0.1025 (  2814 PWs)   bands (ev):

   -76.0130 -76.0130 -39.4167 -39.3987 -39.3987 -39.3246 -39.2742 -39.2742
    15.4003  15.6430  15.6430  15.8627  16.8217  16.8217  17.8573  18.8932
    19.0705  19.0705  24.3694  24.8827  24.8827

     occupation numbers 
     1.0000   1.0000   1.0000   1.0000   1.0000   1.0000   1.0000   1.0000
     1.0000   1.0000   1.0000   1.0000   1.0000   1.0000   1.0000   1.0178
     0.3786   0.3786  -0.0000  -0.0000  -0.0000

          k = 0.3333 0.5774 0.2049 (  2802 PWs)   bands (ev):

   -76.0130 -76.0130 -39.4317 -39.4317 -39.3973 -39.3441 -39.2408 -39.2408
    15.6189  15.7394  15.7394  15.8941  16.7142  16.7142  17.8367  18.3756
    19.1610  19.1610  25.0224  25.0224  25.3953

     occupation numbers 
     1.0000   1.0000   1.0000   1.0000   1.0000   1.0000   1.0000   1.0000
     1.0000   1.0000   1.0000   1.0000   1.0000   1.0000   1.0000   1.0000
    -0.0324  -0.0324  -0.0000  -0.0000  -0.0000

          k = 0.3333 0.5774-0.3074 (  2772 PWs)   bands (ev):

   -76.0130 -76.0130 -39.4445 -39.4445 -39.3707 -39.3707 -39.2279 -39.2279
    15.7926  15.7926  15.8273  15.8273  16.6583  16.6583  17.9718  17.9718
    19.2037  19.2037  25.1110  25.1110  26.7803

     occupation numbers 
     1.0000   1.0000   1.0000   1.0000   1.0000   1.0000   1.0000   1.0000
     1.0000   1.0000   1.0000   1.0000   1.0000   1.0000   1.0000   1.0000
    -0.0257  -0.0257  -0.0000  -0.0000  -0.0000

 ------ SPIN DOWN ----------


          k = 0.0000 0.0000 0.0000 (  2803 PWs)   bands (ev):

   -76.0888 -76.0268 -39.5205 -39.2104 -39.2104 -39.1617 -39.1597 -39.1597
    10.0100  14.2790  17.1658  17.2270  17.2270  17.5678  17.5678  17.9866
    17.9866  18.7786  19.1576  19.1576  25.9625

     occupation numbers 
     1.0000   1.0000   1.0000   1.0000   1.0000   1.0000   1.0000   1.0000
     1.0000   1.0000   1.0000   1.0000   1.0000   1.0000   1.0000   1.0000
     1.0000   1.0001  -0.0302  -0.0302  -0.0000

          k = 0.0000 0.0000 0.1025 (  2797 PWs)   bands (ev):

   -76.0846 -76.0310 -39.4969 -39.2070 -39.2070 -39.1861 -39.1631 -39.1631
    10.2897  14.1455  17.0846  17.1636  17.1636  17.4899  17.4899  17.9882
    18.1554  18.1554  19.1399  19.1399  27.3834

     occupation numbers 
     1.0000   1.0000   1.0000   1.0000   1.0000   1.0000   1.0000   1.0000
     1.0000   1.0000   1.0000   1.0000   1.0000   1.0000   1.0000   1.0000
     1.0000   1.0000  -0.0065  -0.0065  -0.0000

          k = 0.0000 0.0000 0.2049 (  2816 PWs)   bands (ev):

   -76.0733 -76.0423 -39.4319 -39.2524 -39.1978 -39.1978 -39.1724 -39.1724
    11.0949  13.5038  16.8876  16.9756  17.1092  17.1092  17.3181  17.3181
    18.4956  18.4956  19.0453  19.0453  30.4948

     occupation numbers 
     1.0000   1.0000   1.0000   1.0000   1.0000   1.0000   1.0000   1.0000
     1.0000   1.0000   1.0000   1.0000   1.0000   1.0000   1.0000   1.0000
     1.0000   1.0000   0.6005   0.6005  -0.0000

          k = 0.0000 0.0000-0.3074 (  2834 PWs)   bands (ev):

   -76.0578 -76.0578 -39.3425 -39.3425 -39.1851 -39.1851 -39.1851 -39.1851
    12.2915  12.2915  16.7319  16.7319  17.1651  17.1651  17.1651  17.1651
    18.8238  18.8238  18.8238  18.8238  34.2576

     occupation numbers 
     1.0000   1.0000   1.0000   1.0000   1.0000   1.0000   1.0000   1.0000
     1.0000   1.0000   1.0000   1.0000   1.0000   1.0000   1.0000   1.0000
     1.0015   1.0015   1.0015   1.0015  -0.0000

          k = 0.0000 0.0962 0.0000 (  2801 PWs)   bands (ev):

   -76.0852 -76.0251 -39.5127 -39.2281 -39.2162 -39.1780 -39.1648 -39.1627
    10.2567  14.4385  16.9516  17.3500  17.3953  17.5096  17.6769  17.6770
    17.9079  18.0243  19.1907  20.3785  25.9904

     occupation numbers 
     1.0000   1.0000   1.0000   1.0000   1.0000   1.0000   1.0000   1.0000
     1.0000   1.0000   1.0000   1.0000   1.0000   1.0000   1.0000   1.0000
     1.0000   1.0000  -0.0315  -0.0000  -0.0000

          k = 0.0000 0.0962 0.1025 (  2795 PWs)   bands (ev):

   -76.0811 -76.0291 -39.4903 -39.2242 -39.2126 -39.1984 -39.1713 -39.1663
    10.5324  14.3197  16.9505  17.1759  17.2181  17.2704  17.5925  17.6675
    18.1042  18.1347  19.1647  19.8446  27.4802

     occupation numbers 
     1.0000   1.0000   1.0000   1.0000   1.0000   1.0000   1.0000   1.0000
     1.0000   1.0000   1.0000   1.0000   1.0000   1.0000   1.0000   1.0000
     1.0000   1.0000  -0.0340  -0.0000  -0.0000

          k = 0.0000 0.0962 0.2049 (  2799 PWs)   bands (ev):

   -76.0702 -76.0401 -39.4290 -39.2602 -39.2132 -39.2028 -39.1832 -39.1761
    11.3256  13.7003  16.6583  16.8737  17.0144  17.2079  17.3930  17.4191
    18.4656  18.5060  19.0515  19.2892  30.6424

     occupation numbers 
     1.0000   1.0000   1.0000   1.0000   1.0000   1.0000   1.0000   1.0000
     1.0000   1.0000   1.0000   1.0000   1.0000   1.0000   1.0000   1.0000
     1.0000   1.0000   0.5466  -0.0015  -0.0000

          k = 0.0000 0.0962-0.3074 (  2812 PWs)   bands (ev):

   -76.0552 -76.0552 -39.3449 -39.3449 -39.1983 -39.1983 -39.1894 -39.1894
    12.5044  12.5044  16.6141  16.6141  17.1494  17.1494  17.2645  17.2645
    18.8106  18.8106  18.9021  18.9021  34.4252

     occupation numbers 
     1.0000   1.0000   1.0000   1.0000   1.0000   1.0000   1.0000   1.0000
     1.0000   1.0000   1.0000   1.0000   1.0000   1.0000   1.0000   1.0000
     1.0008   1.0008   1.0220   1.0220  -0.0000

          k = 0.0000 0.1925 0.0000 (  2803 PWs)   bands (ev):

   -76.0752 -76.0206 -39.4902 -39.2767 -39.2314 -39.2276 -39.1743 -39.1711
    10.9722  14.8403  16.6402  16.7591  17.3002  17.6981  17.7146  17.7192
    17.8261  17.9835  19.2602  21.9771  26.0936

     occupation numbers 
     1.0000   1.0000   1.0000   1.0000   1.0000   1.0000   1.0000   1.0000
     1.0000   1.0000   1.0000   1.0000   1.0000   1.0000   1.0000   1.0000
     1.0000   1.0000  -0.0050  -0.0000  -0.0000

          k = 0.0000 0.1925 0.1025 (  2796 PWs)   bands (ev):

   -76.0715 -76.0242 -39.4724 -39.2708 -39.2434 -39.2274 -39.1827 -39.1751
    11.2329  14.7686  16.4703  16.6789  17.1832  17.5095  17.5322  17.8582
    18.0688  18.1401  19.2160  21.0104  27.8001

     occupation numbers 
     1.0000   1.0000   1.0000   1.0000   1.0000   1.0000   1.0000   1.0000
     1.0000   1.0000   1.0000   1.0000   1.0000   1.0000   1.0000   1.0000
     1.0000   1.0000  -0.0198  -0.0000  -0.0000

          k = 0.0000 0.1925 0.2049 (  2793 PWs)   bands (ev):

   -76.0615 -76.0342 -39.4237 -39.2916 -39.2518 -39.2164 -39.2030 -39.1862
    11.9810  14.2171  16.1963  16.7571  16.8555  17.3463  17.4518  17.6991
    18.4297  18.5768  19.0636  19.8543  31.0857

     occupation numbers 
     1.0000   1.0000   1.0000   1.0000   1.0000   1.0000   1.0000   1.0000
     1.0000   1.0000   1.0000   1.0000   1.0000   1.0000   1.0000   1.0000
     1.0000   1.0000   0.4392  -0.0000  -0.0000

          k = 0.0000 0.1925-0.3074 (  2798 PWs)   bands (ev):

   -76.0479 -76.0479 -39.3572 -39.3572 -39.2281 -39.2281 -39.2013 -39.2013
    13.0883  13.0883  16.3959  16.3959  17.0616  17.0616  17.5306  17.5306
    18.7894  18.7894  19.1170  19.1170  34.8854

     occupation numbers 
     1.0000   1.0000   1.0000   1.0000   1.0000   1.0000   1.0000   1.0000
     1.0000   1.0000   1.0000   1.0000   1.0000   1.0000   1.0000   1.0000
     1.0003   1.0003   0.0658   0.0658  -0.0000

          k = 0.0000 0.2887 0.0000 (  2792 PWs)   bands (ev):

   -76.0610 -76.0149 -39.4565 -39.3435 -39.2941 -39.2517 -39.1902 -39.1831
    12.0668  15.1954  16.0212  16.4070  17.1696  17.4829  17.6138  18.1687
    18.2060  18.4252  19.3246  23.7635  26.3009

     occupation numbers 
     1.0000   1.0000   1.0000   1.0000   1.0000   1.0000   1.0000   1.0000
     1.0000   1.0000   1.0000   1.0000   1.0000   1.0000   1.0000   1.0000
     1.0000   1.0000  -0.0003  -0.0000  -0.0000

          k = 0.0000 0.2887 0.1025 (  2789 PWs)   bands (ev):

   -76.0579 -76.0180 -39.4497 -39.3316 -39.3071 -39.2471 -39.1961 -39.1877
    12.2905  15.1898  15.8658  16.4662  17.0213  17.5207  17.5758  18.2511
    18.3213  18.3834  19.2636  22.2415  28.3874

     occupation numbers 
     1.0000   1.0000   1.0000   1.0000   1.0000   1.0000   1.0000   1.0000
     1.0000   1.0000   1.0000   1.0000   1.0000   1.0000   1.0000   1.0000
     1.0000   1.0000  -0.0044  -0.0000  -0.0000

          k = 0.0000 0.2887 0.2049 (  2788 PWs)   bands (ev):

   -76.0495 -76.0264 -39.4279 -39.3491 -39.2916 -39.2346 -39.2164 -39.2003
    12.9221  14.7419  15.8764  16.5230  16.8432  17.3818  17.6439  18.0967
    18.5511  18.7284  19.0877  20.5396  31.7047

     occupation numbers 
     1.0000   1.0000   1.0000   1.0000   1.0000   1.0000   1.0000   1.0000
     1.0000   1.0000   1.0000   1.0000   1.0000   1.0000   1.0000   1.0000
     1.0000   1.0000   0.2405  -0.0000  -0.0000

          k = 0.0000 0.2887-0.3074 (  2802 PWs)   bands (ev):

   -76.0379 -76.0379 -39.3917 -39.3917 -39.2510 -39.2510 -39.2175 -39.2175
    13.8281  13.8281  16.2167  16.2167  17.0667  17.0667  17.8512  17.8512
    18.8287  18.8287  19.4149  19.4149  33.9118

     occupation numbers 
     1.0000   1.0000   1.0000   1.0000   1.0000   1.0000   1.0000   1.0000
     1.0000   1.0000   1.0000   1.0000   1.0000   1.0000   1.0000   1.0000
     1.0018   1.0018  -0.0000  -0.0000  -0.0000

          k = 0.0000 0.3849 0.0000 (  2806 PWs)   bands (ev):

   -76.0458 -76.0102 -39.4171 -39.4110 -39.3593 -39.2715 -39.2118 -39.1955
    13.3208  15.1625  15.5001  16.4165  17.2748  17.2852  17.4089  18.7526
    18.8595  18.9053  19.3678  25.7012  26.2871

     occupation numbers 
     1.0000   1.0000   1.0000   1.0000   1.0000   1.0000   1.0000   1.0000
     1.0000   1.0000   1.0000   1.0000   1.0000   1.0000   1.0000   1.0000
     1.0063   1.0235  -0.0000  -0.0000  -0.0000

          k = 0.0000 0.3849 0.1025 (  2796 PWs)   bands (ev):

   -76.0434 -76.0126 -39.4470 -39.3817 -39.3570 -39.2664 -39.2136 -39.2006
    13.4526  15.1531  15.5200  16.3511  17.1748  17.3726  17.6730  18.7680
    18.8138  18.8230  19.3070  23.4004  28.4918

     occupation numbers 
     1.0000   1.0000   1.0000   1.0000   1.0000   1.0000   1.0000   1.0000
     1.0000   1.0000   1.0000   1.0000   1.0000   1.0000   1.0000   1.0001
     1.0009   1.0014  -0.0006  -0.0000  -0.0000

          k = 0.0000 0.3849 0.2049 (  2801 PWs)   bands (ev):

   -76.0369 -76.0191 -39.4565 -39.4111 -39.3054 -39.2526 -39.2262 -39.2146
    13.8152  14.8491  15.7300  16.2996  17.2162  17.6485  17.8563  18.4724
    18.8895  18.9678  19.1744  21.2914  29.6506

[...]
    19.3307  19.3517  20.8159  23.6326  28.7879

     occupation numbers 
     1.0000   1.0000   1.0000   1.0000   1.0000   1.0000   1.0000   1.0000
     1.0000   1.0000   1.0000   1.0000   1.0000   1.0000   1.0000  -0.0074
    -0.0002  -0.0001  -0.0000  -0.0000  -0.0000

          k = 0.0833 0.5292 0.1025 (  2806 PWs)   bands (ev):

   -76.0268 -76.0092 -39.4825 -39.4314 -39.3410 -39.2915 -39.2450 -39.2212
    14.4991  14.9649  15.5460  16.1213  17.0781  17.6430  17.8476  19.1056
    19.2751  19.3662  20.7011  23.3181  27.6513

     occupation numbers 
     1.0000   1.0000   1.0000   1.0000   1.0000   1.0000   1.0000   1.0000
     1.0000   1.0000   1.0000   1.0000   1.0000   1.0000   1.0000   0.1225
    -0.0028  -0.0000  -0.0000  -0.0000  -0.0000

          k = 0.0833 0.5292 0.2049 (  2803 PWs)   bands (ev):

   -76.0231 -76.0129 -39.4965 -39.4645 -39.3050 -39.2686 -39.2532 -39.2246
    14.4252  14.8827  15.7557  16.0764  17.2107  17.9628  18.3665  18.7089
    19.2305  19.4469  20.5899  22.3840  27.0290

     occupation numbers 
     1.0000   1.0000   1.0000   1.0000   1.0000   1.0000   1.0000   1.0000
     1.0000   1.0000   1.0000   1.0000   1.0000   1.0000   1.0000   1.0000
    -0.0135  -0.0000  -0.0000  -0.0000  -0.0000

          k = 0.0833 0.5292-0.3074 (  2794 PWs)   bands (ev):

   -76.0180 -76.0180 -39.4904 -39.4904 -39.2766 -39.2766 -39.2390 -39.2390
    14.5895  14.5895  15.9693  15.9693  17.7814  17.7814  18.4964  18.4964
    19.3095  19.3095  21.2506  21.2506  27.2987

     occupation numbers 
     1.0000   1.0000   1.0000   1.0000   1.0000   1.0000   1.0000   1.0000
     1.0000   1.0000   1.0000   1.0000   1.0000   1.0000   1.0000   1.0000
    -0.0006  -0.0006  -0.0000  -0.0000  -0.0000

          k = 0.1667 0.2887 0.0000 (  2788 PWs)   bands (ev):

   -76.0535 -76.0124 -39.4378 -39.3506 -39.3410 -39.2555 -39.2080 -39.2000
    12.6890  15.4905  15.8283  16.0574  17.1232  17.2182  17.7159  18.0204
    18.5888  18.9618  19.2737  24.6959  26.5639

     occupation numbers 
     1.0000   1.0000   1.0000   1.0000   1.0000   1.0000   1.0000   1.0000
     1.0000   1.0000   1.0000   1.0000   1.0000   1.0000   1.0000   1.0000
     1.0000   1.0248  -0.0029  -0.0000  -0.0000

          k = 0.1667 0.2887 0.1025 (  2789 PWs)   bands (ev):

   -76.0508 -76.0151 -39.4386 -39.3482 -39.3322 -39.2618 -39.2123 -39.1999
    12.8894  15.5516  15.6674  16.1181  17.0568  17.2359  17.5993  18.1162
    18.7140  18.8134  19.3076  22.9035  28.8591

     occupation numbers 
     1.0000   1.0000   1.0000   1.0000   1.0000   1.0000   1.0000   1.0000
     1.0000   1.0000   1.0000   1.0000   1.0000   1.0000   1.0000   1.0000
     1.0000   1.0009  -0.0006  -0.0000  -0.0000

          k = 0.1667 0.2887 0.2049 (  2793 PWs)   bands (ev):

   -76.0433 -76.0227 -39.4303 -39.3730 -39.2938 -39.2646 -39.2227 -39.2091
    13.4487  15.0335  15.8913  16.2817  16.8297  17.0851  17.6234  18.2242
    18.7934  18.9310  19.2978  20.9939  32.1964

     occupation numbers 
     1.0000   1.0000   1.0000   1.0000   1.0000   1.0000   1.0000   1.0000
     1.0000   1.0000   1.0000   1.0000   1.0000   1.0000   1.0000   1.0000
     1.0003   1.0342  -0.0010  -0.0000  -0.0000

          k = 0.1667 0.2887-0.3074 (  2794 PWs)   bands (ev):

   -76.0330 -76.0330 -39.4059 -39.4059 -39.2650 -39.2650 -39.2259 -39.2259
    14.2357  14.2357  16.2448  16.2448  16.7830  16.7830  17.9193  17.9193
    19.0963  19.0963  19.6633  19.6633  34.1146

     occupation numbers 
     1.0000   1.0000   1.0000   1.0000   1.0000   1.0000   1.0000   1.0000
     1.0000   1.0000   1.0000   1.0000   1.0000   1.0000   1.0000   1.0000
     0.1798   0.1798  -0.0000  -0.0000  -0.0000

          k = 0.1667 0.3849 0.0000 (  2800 PWs)   bands (ev):

   -76.0398 -76.0089 -39.4023 -39.4005 -39.3784 -39.2864 -39.2310 -39.2219
    13.8816  15.4820  15.5065  15.9617  16.9405  17.3626  17.4966  18.3577
    19.0720  19.2659  19.7431  26.5431  26.8837

     occupation numbers 
     1.0000   1.0000   1.0000   1.0000   1.0000   1.0000   1.0000   1.0000
     1.0000   1.0000   1.0000   1.0000   1.0000   1.0000   1.0000   1.0000
     0.3658  -0.0040  -0.0000  -0.0000  -0.0000

          k = 0.1667 0.3849 0.1025 (  2799 PWs)   bands (ev):

   -76.0377 -76.0109 -39.4344 -39.3964 -39.3459 -39.2914 -39.2369 -39.2154
    13.9953  15.3846  15.6063  16.0611  16.9509  17.3437  17.4454  18.3996
    19.0257  19.1689  19.8357  24.1266  29.0586

     occupation numbers 
     1.0000   1.0000   1.0000   1.0000   1.0000   1.0000   1.0000   1.0000
     1.0000   1.0000   1.0000   1.0000   1.0000   1.0000   1.0000   1.0000
     0.7603  -0.0351  -0.0000  -0.0000  -0.0000

          k = 0.1667 0.3849 0.2049 (  2799 PWs)   bands (ev):

   -76.0321 -76.0166 -39.4491 -39.4180 -39.3055 -39.2875 -39.2450 -39.2153
    14.3012  15.1104  15.8744  16.2869  16.8424  17.1199  17.6084  18.3755
    18.9042  19.3383  19.9632  21.9894  30.0610

     occupation numbers 
     1.0000   1.0000   1.0000   1.0000   1.0000   1.0000   1.0000   1.0000
     1.0000   1.0000   1.0000   1.0000   1.0000   1.0000   1.0000   1.0000
     1.0230  -0.0001  -0.0000  -0.0000  -0.0000

          k = 0.1667 0.3849-0.3074 (  2794 PWs)   bands (ev):

   -76.0243 -76.0243 -39.4412 -39.4412 -39.2870 -39.2870 -39.2320 -39.2320
    14.7111  14.7111  16.2255  16.2255  16.8712  16.8712  17.9355  17.9355
    19.3273  19.3273  20.4981  20.4981  31.1952

     occupation numbers 
     1.0000   1.0000   1.0000   1.0000   1.0000   1.0000   1.0000   1.0000
     1.0000   1.0000   1.0000   1.0000   1.0000   1.0000   1.0000   1.0000
    -0.0002  -0.0002  -0.0000  -0.0000  -0.0000

          k = 0.1667 0.4811 0.0000 (  2800 PWs)   bands (ev):

   -76.0282 -76.0078 -39.4432 -39.3974 -39.3644 -39.3152 -39.2467 -39.2465
    14.7835  15.2730  15.2869  16.1667  16.8915  17.2516  17.5859  18.8058
    19.2592  19.3119  20.8051  25.2312  28.5356

     occupation numbers 
     1.0000   1.0000   1.0000   1.0000   1.0000   1.0000   1.0000   1.0000
     1.0000   1.0000   1.0000   1.0000   1.0000   1.0000   1.0000   1.0006
    -0.0052  -0.0005  -0.0000  -0.0000  -0.0000

          k = 0.1667 0.4811 0.1025 (  2801 PWs)   bands (ev):

   -76.0269 -76.0092 -39.4566 -39.4164 -39.3441 -39.3068 -39.2581 -39.2314
    14.7059  15.3103  15.4837  16.0873  16.9251  17.3150  17.6590  18.7956
    19.0425  19.3812  20.8686  24.6172  27.4803

     occupation numbers 
     1.0000   1.0000   1.0000   1.0000   1.0000   1.0000   1.0000   1.0000
     1.0000   1.0000   1.0000   1.0000   1.0000   1.0000   1.0000   1.0004
     0.6251  -0.0000  -0.0000  -0.0000  -0.0000

          k = 0.1667 0.4811 0.2049 (  2801 PWs)   bands (ev):

   -76.0231 -76.0129 -39.4719 -39.4458 -39.3259 -39.2888 -39.2582 -39.2224
    14.7073  15.1683  15.7692  16.3170  16.7864  17.3971  17.8822  18.4775
    19.0043  19.4691  21.0976  23.0996  27.5989

     occupation numbers 
     1.0000   1.0000   1.0000   1.0000   1.0000   1.0000   1.0000   1.0000
     1.0000   1.0000   1.0000   1.0000   1.0000   1.0000   1.0000   1.0000
     0.8966  -0.0000  -0.0000  -0.0000  -0.0000

          k = 0.1667 0.4811-0.3074 (  2792 PWs)   bands (ev):

   -76.0180 -76.0180 -39.4683 -39.4683 -39.3054 -39.3054 -39.2327 -39.2327
    14.8835  14.8835  16.1493  16.1493  17.1208  17.1208  18.0999  18.0999
    19.3274  19.3274  21.7797  21.7797  28.4472

     occupation numbers 
     1.0000   1.0000   1.0000   1.0000   1.0000   1.0000   1.0000   1.0000
     1.0000   1.0000   1.0000   1.0000   1.0000   1.0000   1.0000   1.0000
    -0.0002  -0.0002  -0.0000  -0.0000  -0.0000

          k = 0.1667 0.5774 0.0000 (  2798 PWs)   bands (ev):

   -76.0231 -76.0083 -39.4580 -39.4033 -39.3462 -39.3271 -39.2608 -39.2521
    15.0710  15.1718  15.2038  16.3454  16.9254  17.1103  17.6835  19.1151
    19.2565  19.2852  21.9074  23.5048  29.9251

     occupation numbers 
     1.0000   1.0000   1.0000   1.0000   1.0000   1.0000   1.0000   1.0000
     1.0000   1.0000   1.0000   1.0000   1.0000   1.0000   1.0000   0.0743
    -0.0058  -0.0018  -0.0000  -0.0000  -0.0000

          k = 0.1667 0.5774 0.1025 (  2801 PWs)   bands (ev):

   -76.0221 -76.0093 -39.4688 -39.4211 -39.3479 -39.3002 -39.2706 -39.2388
    14.8182  15.2389  15.6708  16.0171  16.8590  17.4069  17.7664  19.0142
    19.1129  19.3431  21.9689  23.4234  28.6956

     occupation numbers 
     1.0000   1.0000   1.0000   1.0000   1.0000   1.0000   1.0000   1.0000
     1.0000   1.0000   1.0000   1.0000   1.0000   1.0000   1.0000   0.8391
     0.0845  -0.0001  -0.0000  -0.0000  -0.0000

          k = 0.1667 0.5774 0.2049 (  2802 PWs)   bands (ev):

   -76.0194 -76.0120 -39.4822 -39.4544 -39.3349 -39.2890 -39.2602 -39.2263
    14.7512  15.2043  15.8225  16.2600  16.6974  17.5980  18.0278  18.5478
    19.1362  19.3888  22.1849  23.1375  27.5136

     occupation numbers 
     1.0000   1.0000   1.0000   1.0000   1.0000   1.0000   1.0000   1.0000
     1.0000   1.0000   1.0000   1.0000   1.0000   1.0000   1.0000   1.0000
     0.0017  -0.0000  -0.0000  -0.0000  -0.0000

          k = 0.1667 0.5774-0.3074 (  2790 PWs)   bands (ev):

   -76.0157 -76.0157 -39.4784 -39.4784 -39.3125 -39.3125 -39.2324 -39.2324
    14.9126  14.9126  16.1186  16.1186  17.1785  17.1785  18.2920  18.2920
    19.2625  19.2625  22.6398  22.6398  27.0859

     occupation numbers 
     1.0000   1.0000   1.0000   1.0000   1.0000   1.0000   1.0000   1.0000
     1.0000   1.0000   1.0000   1.0000   1.0000   1.0000   1.0000   1.0000
    -0.0046  -0.0046  -0.0000  -0.0000  -0.0000

          k = 0.2500 0.4330 0.0000 (  2814 PWs)   bands (ev):

   -76.0283 -76.0078 -39.4209 -39.3978 -39.3646 -39.3171 -39.2670 -39.2465
    14.8685  15.3465  15.6849  15.6954  16.8059  17.2774  17.5915  18.5575
    19.2118  19.3154  20.8354  26.9138  27.7428

     occupation numbers 
     1.0000   1.0000   1.0000   1.0000   1.0000   1.0000   1.0000   1.0000
     1.0000   1.0000   1.0000   1.0000   1.0000   1.0000   1.0000   1.0000
    -0.0218  -0.0004  -0.0000  -0.0000  -0.0000

          k = 0.2500 0.4330 0.1025 (  2811 PWs)   bands (ev):

   -76.0269 -76.0091 -39.4281 -39.4247 -39.3290 -39.3289 -39.2693 -39.2337
    14.9030  15.2827  15.7318  15.8840  16.9037  17.1114  17.5926  18.6004
    18.9847  19.3892  20.9481  25.3784  28.0279

     occupation numbers 
     1.0000   1.0000   1.0000   1.0000   1.0000   1.0000   1.0000   1.0000
     1.0000   1.0000   1.0000   1.0000   1.0000   1.0000   1.0000   1.0000
     0.9780  -0.0000  -0.0000  -0.0000  -0.0000

          k = 0.2500 0.4330 0.2049 (  2801 PWs)   bands (ev):

   -76.0231 -76.0129 -39.4524 -39.4394 -39.3340 -39.3081 -39.2575 -39.2220
    14.9860  15.1944  15.9302  16.2667  16.7480  16.9553  17.6525  18.3813
    18.9681  19.4775  21.2549  23.4055  28.8089

     occupation numbers 
     1.0000   1.0000   1.0000   1.0000   1.0000   1.0000   1.0000   1.0000
     1.0000   1.0000   1.0000   1.0000   1.0000   1.0000   1.0000   1.0000
     1.0163  -0.0000  -0.0000  -0.0000  -0.0000

          k = 0.2500 0.4330-0.3074 (  2786 PWs)   bands (ev):

   -76.0180 -76.0180 -39.4544 -39.4544 -39.3214 -39.3214 -39.2309 -39.2309
    15.0925  15.0925  16.2745  16.2745  16.7316  16.7316  17.9096  17.9096
    19.3498  19.3498  21.9766  21.9766  29.8286

     occupation numbers 
     1.0000   1.0000   1.0000   1.0000   1.0000   1.0000   1.0000   1.0000
     1.0000   1.0000   1.0000   1.0000   1.0000   1.0000   1.0000   1.0000
    -0.0001  -0.0001  -0.0000  -0.0000  -0.0000

          k = 0.2500 0.5292 0.0000 (  2824 PWs)   bands (ev):

   -76.0197 -76.0091 -39.4348 -39.3882 -39.3500 -39.3327 -39.2901 -39.2719
    15.2902  15.3478  15.5258  15.9385  16.8174  17.0485  17.7777  18.8599
    19.1800  19.2483  22.3409  24.8179  27.0724

     occupation numbers 
     1.0000   1.0000   1.0000   1.0000   1.0000   1.0000   1.0000   1.0000
     1.0000   1.0000   1.0000   1.0000   1.0000   1.0000   1.0000   1.0064
    -0.0348  -0.0077  -0.0000  -0.0000  -0.0000

          k = 0.2500 0.5292 0.1025 (  2807 PWs)   bands (ev):

   -76.0189 -76.0098 -39.4401 -39.4101 -39.3669 -39.3091 -39.2895 -39.2518
    15.1773  15.5500  15.6260  15.9060  16.8194  17.0025  17.7883  18.8752
    18.9533  19.3000  22.5168  24.8079  27.1089

     occupation numbers 
     1.0000   1.0000   1.0000   1.0000   1.0000   1.0000   1.0000   1.0000
     1.0000   1.0000   1.0000   1.0000   1.0000   1.0000   1.0000   1.0107
     1.0319  -0.0009  -0.0000  -0.0000  -0.0000

          k = 0.2500 0.5292 0.2049 (  2801 PWs)   bands (ev):

   -76.0170 -76.0117 -39.4547 -39.4392 -39.3667 -39.3235 -39.2528 -39.2300
    15.1860  15.5218  15.8502  16.1802  16.6237  16.9579  17.8487  18.4091
    19.0510  19.3497  22.9619  24.4543  27.0996

     occupation numbers 
     1.0000   1.0000   1.0000   1.0000   1.0000   1.0000   1.0000   1.0000
     1.0000   1.0000   1.0000   1.0000   1.0000   1.0000   1.0000   1.0000
     0.5511  -0.0001  -0.0000  -0.0000  -0.0000

          k = 0.2500 0.5292-0.3074 (  2802 PWs)   bands (ev):

   -76.0144 -76.0144 -39.4571 -39.4571 -39.3471 -39.3471 -39.2293 -39.2293
    15.3213  15.3213  16.1923  16.1923  16.7100  16.7100  18.0174  18.0174
    19.2539  19.2539  23.6514  23.6514  27.6497

     occupation numbers 
     1.0000   1.0000   1.0000   1.0000   1.0000   1.0000   1.0000   1.0000
     1.0000   1.0000   1.0000   1.0000   1.0000   1.0000   1.0000   1.0000
    -0.0063  -0.0063  -0.0000  -0.0000  -0.0000

          k = 0.3333 0.5774 0.0000 (  2826 PWs)   bands (ev):

   -76.0130 -76.0130 -39.4238 -39.3721 -39.3721 -39.3174 -39.3011 -39.3011
    15.3118  15.5985  15.5985  15.8387  16.8750  16.8750  17.8821  19.0224
    19.0224  19.1484  23.9598  24.8260  24.8260

     occupation numbers 
     1.0000   1.0000   1.0000   1.0000   1.0000   1.0000   1.0000   1.0000
     1.0000   1.0000   1.0000   1.0000   1.0000   1.0000   1.0000   0.7842
     0.7842  -0.0208  -0.0000  -0.0000  -0.0000

          k = 0.3333 0.5774 0.1025 (  2814 PWs)   bands (ev):

   -76.0130 -76.0130 -39.4167 -39.3987 -39.3987 -39.3246 -39.2743 -39.2743
    15.4002  15.6430  15.6430  15.8626  16.8217  16.8217  17.8573  18.8931
    19.0705  19.0705  24.3694  24.8827  24.8827

     occupation numbers 
     1.0000   1.0000   1.0000   1.0000   1.0000   1.0000   1.0000   1.0000
     1.0000   1.0000   1.0000   1.0000   1.0000   1.0000   1.0000   1.0178
     0.3790   0.3790  -0.0000  -0.0000  -0.0000

          k = 0.3333 0.5774 0.2049 (  2802 PWs)   bands (ev):

   -76.0130 -76.0130 -39.4318 -39.4318 -39.3973 -39.3442 -39.2409 -39.2409
    15.6189  15.7393  15.7393  15.8941  16.7142  16.7142  17.8367  18.3755
    19.1609  19.1609  25.0224  25.0224  25.3953

     occupation numbers 
     1.0000   1.0000   1.0000   1.0000   1.0000   1.0000   1.0000   1.0000
     1.0000   1.0000   1.0000   1.0000   1.0000   1.0000   1.0000   1.0000
    -0.0323  -0.0323  -0.0000  -0.0000  -0.0000

          k = 0.3333 0.5774-0.3074 (  2772 PWs)   bands (ev):

   -76.0130 -76.0130 -39.4445 -39.4445 -39.3708 -39.3708 -39.2280 -39.2280
    15.7926  15.7926  15.8273  15.8273  16.6582  16.6582  17.9718  17.9718
    19.2036  19.2036  25.1110  25.1110  26.7802

     occupation numbers 
     1.0000   1.0000   1.0000   1.0000   1.0000   1.0000   1.0000   1.0000
     1.0000   1.0000   1.0000   1.0000   1.0000   1.0000   1.0000   1.0000
    -0.0257  -0.0257  -0.0000  -0.0000  -0.0000

     the Fermi energy is    19.0567 ev

!    total energy              =    -753.42246968 Ry
     total all-electron energy =     -5573.779161 Ry
     estimated scf accuracy    <          4.6E-09 Ry
     smearing contrib. (-TS)   =      -0.00013996 Ry
     internal energy E=F+TS    =    -753.42232972 Ry

     The total energy is F=E-TS. E is the sum of the following terms:
     one-electron contribution =    -278.70177584 Ry
     hartree contribution      =     163.35455057 Ry
     xc contribution           =     -61.25558202 Ry
     ewald contribution        =    -401.63724122 Ry
     one-center paw contrib.   =    -175.18228121 Ry
      -> PAW hartree energy AE =     222.04576734 Ry
      -> PAW hartree energy PS =    -220.98792005 Ry
      -> PAW xc energy AE      =    -117.59986299 Ry
      -> PAW xc energy PS      =      28.95087509 Ry
      -> total E_H with PAW    =     164.41239787 Ry
      -> total E_XC with PAW   =    -149.90456992 Ry

     total magnetization       =    -0.00 Bohr mag/cell
     absolute magnetization    =     0.00 Bohr mag/cell

     convergence has been achieved in   6 iterations

     Writing all to output data dir ./out/Co.save/

     init_run     :      1.04s CPU      1.18s WALL (       1 calls)
     electrons    :     33.13s CPU     34.13s WALL (       1 calls)

     Called by init_run:
     wfcinit      :      0.49s CPU      0.54s WALL (       1 calls)
     potinit      :      0.27s CPU      0.35s WALL (       1 calls)
     hinit0       :      0.22s CPU      0.22s WALL (       1 calls)

     Called by electrons:
     c_bands      :     26.81s CPU     27.36s WALL (       7 calls)
     sum_band     :      4.32s CPU      4.45s WALL (       7 calls)
     v_of_rho     :      0.09s CPU      0.09s WALL (       7 calls)
     v_h          :      0.00s CPU      0.00s WALL (       7 calls)
     v_xc         :      0.08s CPU      0.09s WALL (       7 calls)
     newd         :      0.19s CPU      0.20s WALL (       7 calls)
     PAW_pot      :      1.99s CPU      2.35s WALL (       7 calls)
     mix_rho      :      0.02s CPU      0.02s WALL (       7 calls)

     Called by c_bands:
     init_us_2    :      0.40s CPU      0.41s WALL (    2128 calls)
     init_us_2:cp :      0.39s CPU      0.40s WALL (    2128 calls)
     cegterg      :     25.63s CPU     26.17s WALL (    1064 calls)

     Called by sum_band:
     sum_band:wei :      0.04s CPU      0.04s WALL (       7 calls)
     sum_band:loo :      4.01s CPU      4.13s WALL (       7 calls)
     sum_band:buf :      0.05s CPU      0.05s WALL (    1064 calls)
     sum_band:ini :      0.17s CPU      0.17s WALL (    1064 calls)
     sum_band:cal :      0.84s CPU      0.87s WALL (    1064 calls)
     sum_band:bec :      0.04s CPU      0.04s WALL (    1064 calls)
     addusdens    :      0.25s CPU      0.26s WALL (       7 calls)
                                        0.00s GPU  (       7 calls)
     addusd:skk   :      0.00s CPU      0.00s WALL (       7 calls)
                                        0.00s GPU  (       7 calls)

     Called by *egterg:
     cdiaghg      :      2.02s CPU      2.05s WALL (    2250 calls)
     cegterg:over :      2.30s CPU      2.37s WALL (    1490 calls)
     cegterg:upda :      0.98s CPU      0.98s WALL (    1490 calls)
     cegterg:last :      1.75s CPU      1.76s WALL (    1429 calls)
     h_psi        :     15.05s CPU     15.42s WALL (    2554 calls)
     s_psi        :      1.64s CPU      1.69s WALL (    2554 calls)
     g_psi        :      0.15s CPU      0.15s WALL (    1490 calls)

     Called by h_psi:
     h_psi:calbec :      1.90s CPU      1.97s WALL (    2554 calls)
     vloc_psi     :     11.38s CPU     11.62s WALL (    2554 calls)
     add_vuspsi   :      1.65s CPU      1.70s WALL (    2554 calls)

     General routines
     calbec       :      2.73s CPU      2.83s WALL (    3618 calls)
     fft          :      0.15s CPU      0.16s WALL (     171 calls)
     ffts         :      0.01s CPU      0.01s WALL (      28 calls)
     fftw         :     11.17s CPU     11.42s WALL (  114170 calls)
     interpolate  :      0.01s CPU      0.01s WALL (      14 calls)

     Parallel routines

     PAW routines
     PAW_pot      :      1.99s CPU      2.35s WALL (       7 calls)
     PAW_symme    :      0.01s CPU      0.01s WALL (      13 calls)

     PWSCF        :     34.64s CPU     36.05s WALL


   This run was terminated on:  17:19:15  13Mar2024            

=------------------------------------------------------------------------------=
   JOB DONE.
=------------------------------------------------------------------------------=
