### Running on host: unam-asus

     Program PWSCF v.7.2 starts on 13Mar2024 at 17:19:31 

     This program is part of the open-source Quantum ESPRESSO suite
     for quantum simulation of materials; please cite
         "P. Giannozzi et al., J. Phys.:Condens. Matter 21 395502 (2009);
         "P. Giannozzi et al., J. Phys.:Condens. Matter 29 465901 (2017);
         "P. Giannozzi et al., J. Chem. Phys. 152 154105 (2020);
          URL http://www.quantum-espresso.org", 
     in publications or presentations arising from this work. More details at
     http://www.quantum-espresso.org/quote

     Parallel version (MPI), running on    10 processors

     MPI processes distributed on     1 nodes
     798 MiB available memory on the printing compute node when the environment starts

     Reading input from scf.m-p.degauss-0.001.in

     Current dimensions of program PWSCF are:
     Max number of different atomic species (ntypx) = 10
     Max number of k-points (npk) =  40000
     Max angular momentum in pseudopotentials (lmaxx) =  4
     file Co.pbe-spn-kjpaw_psl.0.3.1.UPF: wavefunction(s)  3P 3D renormalized
     Message from routine setup:
     using ibrav=0 with symmetry is DISCOURAGED, use correct ibrav instead

     R & G space division:  proc/nbgrp/npool/nimage =      10
     Subspace diagonalization in iterative solution of the eigenvalue problem:
     a serial algorithm will be used


     Parallelization info
     --------------------
     sticks:   dense  smooth     PW     G-vecs:    dense   smooth      PW
     Min          66      66     19                 2317     2244     363
     Max          68      67     20                 2324     2246     370
     Sum         673     661    199                23199    22443    3693

     Using Slab Decomposition



     bravais-lattice index     =            0
     lattice parameter (alat)  =       4.6714  a.u.
     unit-cell volume          =     143.6064 (a.u.)^3
     number of atoms/cell      =            2
     number of atomic types    =            1
     number of electrons       =        34.00
     number of Kohn-Sham states=           21
     kinetic-energy cutoff     =     110.0000  Ry
     charge density cutoff     =     450.0000  Ry
     scf convergence threshold =      8.0E-08
     mixing beta               =       0.4000
     number of iterations used =            8  plain     mixing
     Exchange-correlation= SLA  PW   PBX  PBC
                           (   1   4   3   4   0   0   0)

     celldm(1)=   4.671403  celldm(2)=   0.000000  celldm(3)=   0.000000
     celldm(4)=   0.000000  celldm(5)=   0.000000  celldm(6)=   0.000000

     crystal axes: (cart. coord. in units of alat)
               a(1) = (   1.000000   0.000000   0.000000 )  
               a(2) = (  -0.500000   0.866025   0.000000 )  
               a(3) = (   0.000000   0.000000   1.626676 )  

     reciprocal axes: (cart. coord. in units 2 pi/alat)
               b(1) = (  1.000000  0.577350 -0.000000 )  
               b(2) = (  0.000000  1.154701  0.000000 )  
               b(3) = (  0.000000 -0.000000  0.614750 )  


     PseudoPot. # 1 for Co read from file:
     /home/abdul/git_repo/ZnS/pseudo/QE/Co.pbe-spn-kjpaw_psl.0.3.1.UPF
     MD5 check sum: b0a1ad65bf214e88c1f3d33b20c7d919
     Pseudo is Projector augmented-wave + core cor, Zval = 17.0
     Generated using &quot;atomic&quot; code by A. Dal Corso  v.6.2.2
     Shape of augmentation charge: PSQ
     Using radial grid of 1193 points,  6 beta functions with: 
                l(1) =   0
                l(2) =   0
                l(3) =   1
                l(4) =   1
                l(5) =   2
                l(6) =   2
     Q(r) pseudized with 0 coefficients 


     atomic species   valence    mass     pseudopotential
        Co            17.00    58.93300     Co( 1.00)

     Starting magnetic structure 
     atomic species   magnetization
        Co           0.294

     24 Sym. Ops., with inversion, found (12 have fractional translation)


                                    s                        frac. trans.

      isym =  1     identity                                     

 cryst.   s( 1) = (     1          0          0      )
                  (     0          1          0      )
                  (     0          0          1      )

 cart.    s( 1) = (  1.0000000  0.0000000  0.0000000 )
                  (  0.0000000  1.0000000  0.0000000 )
                  (  0.0000000  0.0000000  1.0000000 )


      isym =  2     180 deg rotation - cart. axis [0,0,1]        

 cryst.   s( 2) = (    -1          0          0      )    f =(  0.0000000 )
                  (     0         -1          0      )       (  0.0000000 )
                  (     0          0          1      )       ( -0.5000000 )

 cart.    s( 2) = ( -1.0000000  0.0000000  0.0000000 )    f =(  0.0000000 )
                  (  0.0000000 -1.0000000  0.0000000 )       (  0.0000000 )
                  (  0.0000000  0.0000000  1.0000000 )       ( -0.8133382 )


      isym =  3     180 deg rotation - cart. axis [0,1,0]        

 cryst.   s( 3) = (    -1          0          0      )    f =(  0.0000000 )
                  (     1          1          0      )       (  0.0000000 )
                  (     0          0         -1      )       (  0.5000000 )

 cart.    s( 3) = ( -1.0000000  0.0000000  0.0000000 )    f =(  0.0000000 )
                  (  0.0000000  1.0000000  0.0000000 )       (  0.0000000 )
                  (  0.0000000  0.0000000 -1.0000000 )       (  0.8133382 )


      isym =  4     180 deg rotation - cart. axis [1,0,0]        

 cryst.   s( 4) = (     1          0          0      )
                  (    -1         -1          0      )
                  (     0          0         -1      )

 cart.    s( 4) = (  1.0000000  0.0000000  0.0000000 )
                  (  0.0000000 -1.0000000  0.0000000 )
                  (  0.0000000  0.0000000 -1.0000000 )


      isym =  5      60 deg rotation - cryst. axis [0,0,1]       

 cryst.   s( 5) = (     1          1          0      )    f =(  0.0000000 )
                  (    -1          0          0      )       ( -0.0000000 )
                  (     0          0          1      )       ( -0.5000000 )

 cart.    s( 5) = (  0.5000000 -0.8660254  0.0000000 )    f =(  0.0000000 )
                  (  0.8660254  0.5000000  0.0000000 )       ( -0.0000000 )
                  (  0.0000000  0.0000000  1.0000000 )       ( -0.8133382 )


      isym =  6      60 deg rotation - cryst. axis [0,0,-1]      

 cryst.   s( 6) = (     0         -1          0      )    f =(  0.0000000 )
                  (     1          1          0      )       ( -0.0000000 )
                  (     0          0          1      )       ( -0.5000000 )

 cart.    s( 6) = (  0.5000000  0.8660254  0.0000000 )    f =(  0.0000000 )
                  ( -0.8660254  0.5000000  0.0000000 )       ( -0.0000000 )
                  (  0.0000000  0.0000000  1.0000000 )       ( -0.8133382 )


      isym =  7     120 deg rotation - cryst. axis [0,0,1]       

 cryst.   s( 7) = (     0          1          0      )
                  (    -1         -1          0      )
                  (     0          0          1      )

 cart.    s( 7) = ( -0.5000000 -0.8660254  0.0000000 )
                  (  0.8660254 -0.5000000  0.0000000 )
                  (  0.0000000  0.0000000  1.0000000 )


      isym =  8     120 deg rotation - cryst. axis [0,0,-1]      

 cryst.   s( 8) = (    -1         -1          0      )
                  (     1          0          0      )
                  (     0          0          1      )

 cart.    s( 8) = ( -0.5000000  0.8660254  0.0000000 )
                  ( -0.8660254 -0.5000000  0.0000000 )
                  (  0.0000000  0.0000000  1.0000000 )


      isym =  9     180 deg rotation - cryst. axis [1,-1,0]      

 cryst.   s( 9) = (     0         -1          0      )    f =(  0.0000000 )
                  (    -1          0          0      )       (  0.0000000 )
                  (     0          0         -1      )       (  0.5000000 )

 cart.    s( 9) = (  0.5000000 -0.8660254  0.0000000 )    f =(  0.0000000 )
                  ( -0.8660254 -0.5000000  0.0000000 )       (  0.0000000 )
                  (  0.0000000  0.0000000 -1.0000000 )       (  0.8133382 )


      isym = 10     180 deg rotation - cryst. axis [2,1,0]       

 cryst.   s(10) = (     1          1          0      )    f =(  0.0000000 )
                  (     0         -1          0      )       ( -0.0000000 )
                  (     0          0         -1      )       (  0.5000000 )

 cart.    s(10) = (  0.5000000  0.8660254  0.0000000 )    f =(  0.0000000 )
                  (  0.8660254 -0.5000000  0.0000000 )       ( -0.0000000 )
                  (  0.0000000  0.0000000 -1.0000000 )       (  0.8133382 )


      isym = 11     180 deg rotation - cryst. axis [0,1,0]       

 cryst.   s(11) = (    -1         -1          0      )
                  (     0          1          0      )
                  (     0          0         -1      )

 cart.    s(11) = ( -0.5000000 -0.8660254  0.0000000 )
                  ( -0.8660254  0.5000000  0.0000000 )
                  (  0.0000000  0.0000000 -1.0000000 )


      isym = 12     180 deg rotation - cryst. axis [1,1,0]       

 cryst.   s(12) = (     0          1          0      )
                  (     1          0          0      )
                  (     0          0         -1      )

 cart.    s(12) = ( -0.5000000  0.8660254  0.0000000 )
                  (  0.8660254  0.5000000  0.0000000 )
                  (  0.0000000  0.0000000 -1.0000000 )


      isym = 13     inversion                                    

 cryst.   s(13) = (    -1          0          0      )
                  (     0         -1          0      )
                  (     0          0         -1      )

 cart.    s(13) = ( -1.0000000  0.0000000  0.0000000 )
                  (  0.0000000 -1.0000000  0.0000000 )
                  (  0.0000000  0.0000000 -1.0000000 )


      isym = 14     inv. 180 deg rotation - cart. axis [0,0,1]   

 cryst.   s(14) = (     1          0          0      )    f =(  0.0000000 )
                  (     0          1          0      )       (  0.0000000 )
                  (     0          0         -1      )       (  0.5000000 )

 cart.    s(14) = (  1.0000000  0.0000000  0.0000000 )    f =(  0.0000000 )
                  (  0.0000000  1.0000000  0.0000000 )       (  0.0000000 )
                  (  0.0000000  0.0000000 -1.0000000 )       (  0.8133382 )


      isym = 15     inv. 180 deg rotation - cart. axis [0,1,0]   

 cryst.   s(15) = (     1          0          0      )    f =(  0.0000000 )
                  (    -1         -1          0      )       (  0.0000000 )
                  (     0          0          1      )       ( -0.5000000 )

 cart.    s(15) = (  1.0000000  0.0000000  0.0000000 )    f =(  0.0000000 )
                  (  0.0000000 -1.0000000  0.0000000 )       (  0.0000000 )
                  (  0.0000000  0.0000000  1.0000000 )       ( -0.8133382 )


      isym = 16     inv. 180 deg rotation - cart. axis [1,0,0]   

 cryst.   s(16) = (    -1          0          0      )
                  (     1          1          0      )
                  (     0          0          1      )

 cart.    s(16) = ( -1.0000000  0.0000000  0.0000000 )
                  (  0.0000000  1.0000000  0.0000000 )
                  (  0.0000000  0.0000000  1.0000000 )


      isym = 17     inv.  60 deg rotation - cryst. axis [0,0,1]  

 cryst.   s(17) = (    -1         -1          0      )    f =(  0.0000000 )
                  (     1          0          0      )       (  0.0000000 )
                  (     0          0         -1      )       (  0.5000000 )

 cart.    s(17) = ( -0.5000000  0.8660254  0.0000000 )    f =(  0.0000000 )
                  ( -0.8660254 -0.5000000  0.0000000 )       (  0.0000000 )
                  (  0.0000000  0.0000000 -1.0000000 )       (  0.8133382 )


      isym = 18     inv.  60 deg rotation - cryst. axis [0,0,-1] 

 cryst.   s(18) = (     0          1          0      )    f =(  0.0000000 )
                  (    -1         -1          0      )       ( -0.0000000 )
                  (     0          0         -1      )       (  0.5000000 )

 cart.    s(18) = ( -0.5000000 -0.8660254  0.0000000 )    f =(  0.0000000 )
                  (  0.8660254 -0.5000000  0.0000000 )       ( -0.0000000 )
                  (  0.0000000  0.0000000 -1.0000000 )       (  0.8133382 )


      isym = 19     inv. 120 deg rotation - cryst. axis [0,0,1]  

 cryst.   s(19) = (     0         -1          0      )
                  (     1          1          0      )
                  (     0          0         -1      )

 cart.    s(19) = (  0.5000000  0.8660254  0.0000000 )
                  ( -0.8660254  0.5000000  0.0000000 )
                  (  0.0000000  0.0000000 -1.0000000 )


      isym = 20     inv. 120 deg rotation - cryst. axis [0,0,-1] 

 cryst.   s(20) = (     1          1          0      )
                  (    -1          0          0      )
                  (     0          0         -1      )

 cart.    s(20) = (  0.5000000 -0.8660254  0.0000000 )
                  (  0.8660254  0.5000000  0.0000000 )
                  (  0.0000000  0.0000000 -1.0000000 )


      isym = 21     inv. 180 deg rotation - cryst. axis [1,-1,0] 

 cryst.   s(21) = (     0          1          0      )    f =(  0.0000000 )
                  (     1          0          0      )       ( -0.0000000 )
                  (     0          0          1      )       ( -0.5000000 )

 cart.    s(21) = ( -0.5000000  0.8660254  0.0000000 )    f =(  0.0000000 )
                  (  0.8660254  0.5000000  0.0000000 )       ( -0.0000000 )
                  (  0.0000000  0.0000000  1.0000000 )       ( -0.8133382 )


      isym = 22     inv. 180 deg rotation - cryst. axis [2,1,0]  

 cryst.   s(22) = (    -1         -1          0      )    f =(  0.0000000 )
                  (     0          1          0      )       ( -0.0000000 )
                  (     0          0          1      )       ( -0.5000000 )

 cart.    s(22) = ( -0.5000000 -0.8660254  0.0000000 )    f =(  0.0000000 )
                  ( -0.8660254  0.5000000  0.0000000 )       ( -0.0000000 )
                  (  0.0000000  0.0000000  1.0000000 )       ( -0.8133382 )


      isym = 23     inv. 180 deg rotation - cryst. axis [0,1,0]  

 cryst.   s(23) = (     1          1          0      )
                  (     0         -1          0      )
                  (     0          0          1      )

 cart.    s(23) = (  0.5000000  0.8660254  0.0000000 )
                  (  0.8660254 -0.5000000  0.0000000 )
                  (  0.0000000  0.0000000  1.0000000 )


      isym = 24     inv. 180 deg rotation - cryst. axis [1,1,0]  

 cryst.   s(24) = (     0         -1          0      )
                  (    -1          0          0      )
                  (     0          0          1      )

 cart.    s(24) = (  0.5000000 -0.8660254  0.0000000 )
                  ( -0.8660254 -0.5000000  0.0000000 )
                  (  0.0000000  0.0000000  1.0000000 )


   Cartesian axes

     site n.     atom                  positions (alat units)
         1           Co  tau(   1) = (  -0.0000000   0.5773503   0.4066691  )
         2           Co  tau(   2) = (   0.5000000   0.2886751   1.2200074  )

   Crystallographic axes

     site n.     atom                  positions (cryst. coord.)
         1           Co  tau(   1) = (  0.3333333  0.6666667  0.2500000  )
         2           Co  tau(   2) = (  0.6666667  0.3333333  0.7500000  )

     number of k points=    76  Methfessel-Paxton smearing, width (Ry)=  0.0010
                       cart. coord. in units 2pi/alat
        k(    1) = (   0.0000000   0.0000000   0.0000000), wk =   0.0011574
        k(    2) = (   0.0000000   0.0000000   0.1024584), wk =   0.0023148
        k(    3) = (   0.0000000   0.0000000   0.2049168), wk =   0.0023148
        k(    4) = (   0.0000000   0.0000000  -0.3073752), wk =   0.0011574
        k(    5) = (   0.0000000   0.0962250   0.0000000), wk =   0.0069444
        k(    6) = (   0.0000000   0.0962250   0.1024584), wk =   0.0138889
        k(    7) = (   0.0000000   0.0962250   0.2049168), wk =   0.0138889
        k(    8) = (   0.0000000   0.0962250  -0.3073752), wk =   0.0069444
        k(    9) = (   0.0000000   0.1924501   0.0000000), wk =   0.0069444
        k(   10) = (   0.0000000   0.1924501   0.1024584), wk =   0.0138889
        k(   11) = (   0.0000000   0.1924501   0.2049168), wk =   0.0138889
        k(   12) = (   0.0000000   0.1924501  -0.3073752), wk =   0.0069444
        k(   13) = (   0.0000000   0.2886751   0.0000000), wk =   0.0069444
        k(   14) = (   0.0000000   0.2886751   0.1024584), wk =   0.0138889
        k(   15) = (   0.0000000   0.2886751   0.2049168), wk =   0.0138889
        k(   16) = (   0.0000000   0.2886751  -0.3073752), wk =   0.0069444
        k(   17) = (   0.0000000   0.3849002   0.0000000), wk =   0.0069444
        k(   18) = (   0.0000000   0.3849002   0.1024584), wk =   0.0138889
        k(   19) = (   0.0000000   0.3849002   0.2049168), wk =   0.0138889
        k(   20) = (   0.0000000   0.3849002  -0.3073752), wk =   0.0069444
        k(   21) = (   0.0000000   0.4811252   0.0000000), wk =   0.0069444
        k(   22) = (   0.0000000   0.4811252   0.1024584), wk =   0.0138889
        k(   23) = (   0.0000000   0.4811252   0.2049168), wk =   0.0138889
        k(   24) = (   0.0000000   0.4811252  -0.3073752), wk =   0.0069444
        k(   25) = (   0.0000000  -0.5773503   0.0000000), wk =   0.0034722
        k(   26) = (   0.0000000  -0.5773503   0.1024584), wk =   0.0069444
        k(   27) = (   0.0000000  -0.5773503   0.2049168), wk =   0.0069444
        k(   28) = (   0.0000000  -0.5773503  -0.3073752), wk =   0.0034722
        k(   29) = (   0.0833333   0.1443376   0.0000000), wk =   0.0069444
        k(   30) = (   0.0833333   0.1443376   0.1024584), wk =   0.0138889
        k(   31) = (   0.0833333   0.1443376   0.2049168), wk =   0.0138889
        k(   32) = (   0.0833333   0.1443376  -0.3073752), wk =   0.0069444
        k(   33) = (   0.0833333   0.2405626   0.0000000), wk =   0.0138889
        k(   34) = (   0.0833333   0.2405626   0.1024584), wk =   0.0277778
        k(   35) = (   0.0833333   0.2405626   0.2049168), wk =   0.0277778
        k(   36) = (   0.0833333   0.2405626  -0.3073752), wk =   0.0138889
        k(   37) = (   0.0833333   0.3367877   0.0000000), wk =   0.0138889
        k(   38) = (   0.0833333   0.3367877   0.1024584), wk =   0.0277778
        k(   39) = (   0.0833333   0.3367877   0.2049168), wk =   0.0277778
        k(   40) = (   0.0833333   0.3367877  -0.3073752), wk =   0.0138889
        k(   41) = (   0.0833333   0.4330127   0.0000000), wk =   0.0138889
        k(   42) = (   0.0833333   0.4330127   0.1024584), wk =   0.0277778
        k(   43) = (   0.0833333   0.4330127   0.2049168), wk =   0.0277778
        k(   44) = (   0.0833333   0.4330127  -0.3073752), wk =   0.0138889
        k(   45) = (   0.0833333   0.5292377   0.0000000), wk =   0.0138889
        k(   46) = (   0.0833333   0.5292377   0.1024584), wk =   0.0277778
        k(   47) = (   0.0833333   0.5292377   0.2049168), wk =   0.0277778
        k(   48) = (   0.0833333   0.5292377  -0.3073752), wk =   0.0138889
        k(   49) = (   0.1666667   0.2886751   0.0000000), wk =   0.0069444
        k(   50) = (   0.1666667   0.2886751   0.1024584), wk =   0.0138889
        k(   51) = (   0.1666667   0.2886751   0.2049168), wk =   0.0138889
        k(   52) = (   0.1666667   0.2886751  -0.3073752), wk =   0.0069444
        k(   53) = (   0.1666667   0.3849002   0.0000000), wk =   0.0138889
        k(   54) = (   0.1666667   0.3849002   0.1024584), wk =   0.0277778
        k(   55) = (   0.1666667   0.3849002   0.2049168), wk =   0.0277778
        k(   56) = (   0.1666667   0.3849002  -0.3073752), wk =   0.0138889
        k(   57) = (   0.1666667   0.4811252   0.0000000), wk =   0.0138889
        k(   58) = (   0.1666667   0.4811252   0.1024584), wk =   0.0277778
        k(   59) = (   0.1666667   0.4811252   0.2049168), wk =   0.0277778
        k(   60) = (   0.1666667   0.4811252  -0.3073752), wk =   0.0138889
        k(   61) = (   0.1666667   0.5773503   0.0000000), wk =   0.0069444
        k(   62) = (   0.1666667   0.5773503   0.1024584), wk =   0.0138889
        k(   63) = (   0.1666667   0.5773503   0.2049168), wk =   0.0138889
        k(   64) = (   0.1666667   0.5773503  -0.3073752), wk =   0.0069444
        k(   65) = (   0.2500000   0.4330127   0.0000000), wk =   0.0069444
        k(   66) = (   0.2500000   0.4330127   0.1024584), wk =   0.0138889
        k(   67) = (   0.2500000   0.4330127   0.2049168), wk =   0.0138889
        k(   68) = (   0.2500000   0.4330127  -0.3073752), wk =   0.0069444
        k(   69) = (   0.2500000   0.5292377   0.0000000), wk =   0.0138889
        k(   70) = (   0.2500000   0.5292377   0.1024584), wk =   0.0277778
        k(   71) = (   0.2500000   0.5292377   0.2049168), wk =   0.0277778
        k(   72) = (   0.2500000   0.5292377  -0.3073752), wk =   0.0138889
        k(   73) = (   0.3333333   0.5773503   0.0000000), wk =   0.0023148
        k(   74) = (   0.3333333   0.5773503   0.1024584), wk =   0.0046296
        k(   75) = (   0.3333333   0.5773503   0.2049168), wk =   0.0046296
        k(   76) = (   0.3333333   0.5773503  -0.3073752), wk =   0.0023148

                       cryst. coord.
        k(    1) = (   0.0000000   0.0000000   0.0000000), wk =   0.0011574
        k(    2) = (   0.0000000   0.0000000   0.1666667), wk =   0.0023148
        k(    3) = (   0.0000000   0.0000000   0.3333333), wk =   0.0023148
        k(    4) = (   0.0000000   0.0000000  -0.5000000), wk =   0.0011574
        k(    5) = (   0.0000000   0.0833333   0.0000000), wk =   0.0069444
        k(    6) = (   0.0000000   0.0833333   0.1666667), wk =   0.0138889
        k(    7) = (   0.0000000   0.0833333   0.3333333), wk =   0.0138889
        k(    8) = (   0.0000000   0.0833333  -0.5000000), wk =   0.0069444
        k(    9) = (   0.0000000   0.1666667   0.0000000), wk =   0.0069444
        k(   10) = (   0.0000000   0.1666667   0.1666667), wk =   0.0138889
        k(   11) = (   0.0000000   0.1666667   0.3333333), wk =   0.0138889
        k(   12) = (   0.0000000   0.1666667  -0.5000000), wk =   0.0069444
        k(   13) = (   0.0000000   0.2500000   0.0000000), wk =   0.0069444
        k(   14) = (   0.0000000   0.2500000   0.1666667), wk =   0.0138889
        k(   15) = (   0.0000000   0.2500000   0.3333333), wk =   0.0138889
        k(   16) = (   0.0000000   0.2500000  -0.5000000), wk =   0.0069444
        k(   17) = (   0.0000000   0.3333333   0.0000000), wk =   0.0069444
        k(   18) = (   0.0000000   0.3333333   0.1666667), wk =   0.0138889
        k(   19) = (   0.0000000   0.3333333   0.3333333), wk =   0.0138889
        k(   20) = (   0.0000000   0.3333333  -0.5000000), wk =   0.0069444
        k(   21) = (   0.0000000   0.4166667   0.0000000), wk =   0.0069444
        k(   22) = (   0.0000000   0.4166667   0.1666667), wk =   0.0138889
        k(   23) = (   0.0000000   0.4166667   0.3333333), wk =   0.0138889
        k(   24) = (   0.0000000   0.4166667  -0.5000000), wk =   0.0069444
        k(   25) = (   0.0000000  -0.5000000   0.0000000), wk =   0.0034722
        k(   26) = (   0.0000000  -0.5000000   0.1666667), wk =   0.0069444
        k(   27) = (   0.0000000  -0.5000000   0.3333333), wk =   0.0069444
        k(   28) = (   0.0000000  -0.5000000  -0.5000000), wk =   0.0034722
        k(   29) = (   0.0833333   0.0833333   0.0000000), wk =   0.0069444
        k(   30) = (   0.0833333   0.0833333   0.1666667), wk =   0.0138889
        k(   31) = (   0.0833333   0.0833333   0.3333333), wk =   0.0138889
        k(   32) = (   0.0833333   0.0833333  -0.5000000), wk =   0.0069444
        k(   33) = (   0.0833333   0.1666667   0.0000000), wk =   0.0138889
        k(   34) = (   0.0833333   0.1666667   0.1666667), wk =   0.0277778
        k(   35) = (   0.0833333   0.1666667   0.3333333), wk =   0.0277778
        k(   36) = (   0.0833333   0.1666667  -0.5000000), wk =   0.0138889
        k(   37) = (   0.0833333   0.2500000   0.0000000), wk =   0.0138889
        k(   38) = (   0.0833333   0.2500000   0.1666667), wk =   0.0277778
        k(   39) = (   0.0833333   0.2500000   0.3333333), wk =   0.0277778
        k(   40) = (   0.0833333   0.2500000  -0.5000000), wk =   0.0138889
        k(   41) = (   0.0833333   0.3333333   0.0000000), wk =   0.0138889
        k(   42) = (   0.0833333   0.3333333   0.1666667), wk =   0.0277778
        k(   43) = (   0.0833333   0.3333333   0.3333333), wk =   0.0277778
        k(   44) = (   0.0833333   0.3333333  -0.5000000), wk =   0.0138889
        k(   45) = (   0.0833333   0.4166667   0.0000000), wk =   0.0138889
        k(   46) = (   0.0833333   0.4166667   0.1666667), wk =   0.0277778
        k(   47) = (   0.0833333   0.4166667   0.3333333), wk =   0.0277778
        k(   48) = (   0.0833333   0.4166667  -0.5000000), wk =   0.0138889
        k(   49) = (   0.1666667   0.1666667   0.0000000), wk =   0.0069444
        k(   50) = (   0.1666667   0.1666667   0.1666667), wk =   0.0138889
        k(   51) = (   0.1666667   0.1666667   0.3333333), wk =   0.0138889
        k(   52) = (   0.1666667   0.1666667  -0.5000000), wk =   0.0069444
        k(   53) = (   0.1666667   0.2500000   0.0000000), wk =   0.0138889
        k(   54) = (   0.1666667   0.2500000   0.1666667), wk =   0.0277778
        k(   55) = (   0.1666667   0.2500000   0.3333333), wk =   0.0277778
        k(   56) = (   0.1666667   0.2500000  -0.5000000), wk =   0.0138889
        k(   57) = (   0.1666667   0.3333333   0.0000000), wk =   0.0138889
        k(   58) = (   0.1666667   0.3333333   0.1666667), wk =   0.0277778
        k(   59) = (   0.1666667   0.3333333   0.3333333), wk =   0.0277778
        k(   60) = (   0.1666667   0.3333333  -0.5000000), wk =   0.0138889
        k(   61) = (   0.1666667   0.4166667   0.0000000), wk =   0.0069444
        k(   62) = (   0.1666667   0.4166667   0.1666667), wk =   0.0138889
        k(   63) = (   0.1666667   0.4166667   0.3333333), wk =   0.0138889
        k(   64) = (   0.1666667   0.4166667  -0.5000000), wk =   0.0069444
        k(   65) = (   0.2500000   0.2500000   0.0000000), wk =   0.0069444
        k(   66) = (   0.2500000   0.2500000   0.1666667), wk =   0.0138889
        k(   67) = (   0.2500000   0.2500000   0.3333333), wk =   0.0138889
        k(   68) = (   0.2500000   0.2500000  -0.5000000), wk =   0.0069444
        k(   69) = (   0.2500000   0.3333333   0.0000000), wk =   0.0138889
        k(   70) = (   0.2500000   0.3333333   0.1666667), wk =   0.0277778
        k(   71) = (   0.2500000   0.3333333   0.3333333), wk =   0.0277778
        k(   72) = (   0.2500000   0.3333333  -0.5000000), wk =   0.0138889
        k(   73) = (   0.3333333   0.3333333   0.0000000), wk =   0.0023148
        k(   74) = (   0.3333333   0.3333333   0.1666667), wk =   0.0046296
        k(   75) = (   0.3333333   0.3333333   0.3333333), wk =   0.0046296
        k(   76) = (   0.3333333   0.3333333  -0.5000000), wk =   0.0023148

     Dense  grid:    23199 G-vectors     FFT dimensions: (  32,  32,  54)

     Smooth grid:    22443 G-vectors     FFT dimensions: (  32,  32,  54)

     Dynamical RAM for                 wfc:       0.09 MB

     Dynamical RAM for     wfc (w. buffer):      13.68 MB

     Dynamical RAM for           str. fact:       0.04 MB

     Dynamical RAM for           local pot:       0.00 MB

     Dynamical RAM for          nlocal pot:       0.15 MB

     Dynamical RAM for                qrad:       1.70 MB

     Dynamical RAM for          rho,v,vnew:       0.49 MB

     Dynamical RAM for               rhoin:       0.16 MB

     Dynamical RAM for            rho*nmix:       1.13 MB

     Dynamical RAM for           G-vectors:       0.15 MB

     Dynamical RAM for          h,s,v(r/c):       0.08 MB

     Dynamical RAM for          <psi|beta>:       0.01 MB

     Dynamical RAM for                 psi:       0.18 MB

     Dynamical RAM for                hpsi:       0.18 MB

     Dynamical RAM for                spsi:       0.18 MB

     Dynamical RAM for      wfcinit/wfcrot:       0.19 MB

     Dynamical RAM for           addusdens:       6.68 MB

     Estimated static dynamical RAM per process >      16.73 MB

     Estimated max dynamical RAM per process >      24.55 MB

     Estimated total dynamical RAM >     245.46 MB

     Check: negative core charge=   -0.000043
     Generating pointlists ...
     new r_m :   0.4114 (alat units)  1.9220 (a.u.) for type    1

     The initial density is read from file :
     ./out/Co.save/charge-density

     Starting wfcs from file
     Checking if some PAW data can be deallocated... 

     total cpu time spent up to now is        1.4 secs

     Self-consistent Calculation

     iteration #  1     ecut=   110.00 Ry     beta= 0.40
     Davidson diagonalization with overlap

---- Real-time Memory Report at c_bands before calling an iterative solver
            56 MiB given to the printing process from OS
             0 MiB allocation reported by mallinfo(arena+hblkhd)
           541 MiB available memory on the node where the printing process lives
------------------
     ethr =  1.00E-05,  avg # of iterations =  1.0

     Threshold (ethr) on eigenvalues was too large:
     Diagonalizing with lowered threshold

     Davidson diagonalization with overlap

---- Real-time Memory Report at c_bands before calling an iterative solver
            60 MiB given to the printing process from OS
             0 MiB allocation reported by mallinfo(arena+hblkhd)
           458 MiB available memory on the node where the printing process lives
------------------
     ethr =  2.79E-09,  avg # of iterations =  1.0

     total cpu time spent up to now is       10.2 secs

     total energy              =    -753.42237423 Ry
     estimated scf accuracy    <       0.00000091 Ry

     total magnetization       =    -0.00 Bohr mag/cell
     absolute magnetization    =     0.00 Bohr mag/cell

     iteration #  2     ecut=   110.00 Ry     beta= 0.40
     Davidson diagonalization with overlap

---- Real-time Memory Report at c_bands before calling an iterative solver
            73 MiB given to the printing process from OS
             0 MiB allocation reported by mallinfo(arena+hblkhd)
           421 MiB available memory on the node where the printing process lives
------------------
     ethr =  2.69E-09,  avg # of iterations =  1.1

     total cpu time spent up to now is       14.9 secs

     total energy              =    -753.42237433 Ry
     estimated scf accuracy    <       0.00000040 Ry

     total magnetization       =    -0.00 Bohr mag/cell
     absolute magnetization    =     0.00 Bohr mag/cell

     iteration #  3     ecut=   110.00 Ry     beta= 0.40
     Davidson diagonalization with overlap

---- Real-time Memory Report at c_bands before calling an iterative solver
            74 MiB given to the printing process from OS
             0 MiB allocation reported by mallinfo(arena+hblkhd)
           426 MiB available memory on the node where the printing process lives
------------------
     ethr =  1.17E-09,  avg # of iterations =  1.0

     total cpu time spent up to now is       19.4 secs

     total energy              =    -753.42237435 Ry
     estimated scf accuracy    <       0.00000067 Ry

     total magnetization       =    -0.01 Bohr mag/cell
     absolute magnetization    =     0.01 Bohr mag/cell

     iteration #  4     ecut=   110.00 Ry     beta= 0.40
     Davidson diagonalization with overlap

---- Real-time Memory Report at c_bands before calling an iterative solver
            74 MiB given to the printing process from OS
             0 MiB allocation reported by mallinfo(arena+hblkhd)
           424 MiB available memory on the node where the printing process lives
------------------
     ethr =  1.17E-09,  avg # of iterations =  1.0

     total cpu time spent up to now is       24.0 secs

     total energy              =    -753.42237410 Ry
     estimated scf accuracy    <       0.00000051 Ry

     total magnetization       =    -0.01 Bohr mag/cell
     absolute magnetization    =     0.01 Bohr mag/cell

     iteration #  5     ecut=   110.00 Ry     beta= 0.40
     Davidson diagonalization with overlap

---- Real-time Memory Report at c_bands before calling an iterative solver
            74 MiB given to the printing process from OS
             0 MiB allocation reported by mallinfo(arena+hblkhd)
           400 MiB available memory on the node where the printing process lives
------------------
     ethr =  1.17E-09,  avg # of iterations =  1.0

     Magnetic moment per site  (integrated on atomic sphere of radius R)
     atom   1 (R=0.411)  charge= 15.5889  magn= -0.0003
     atom   2 (R=0.411)  charge= 15.5889  magn= -0.0003

     total cpu time spent up to now is       28.6 secs

     End of self-consistent calculation

 ------ SPIN UP ------------


          k = 0.0000 0.0000 0.0000 (  2803 PWs)   bands (ev):

   -76.0885 -76.0266 -39.5162 -39.2123 -39.2123 -39.1616 -39.1616 -39.1573
    10.0099  14.2801  17.1682  17.2247  17.2247  17.5654  17.5654  17.9883
    17.9883  18.7796  19.1593  19.1593  25.9629

     occupation numbers 
     1.0000   1.0000   1.0000   1.0000   1.0000   1.0000   1.0000   1.0000
     1.0000   1.0000   1.0000   1.0000   1.0000   1.0000   1.0000   1.0000
     1.0000   1.0000  -0.0000  -0.0000  -0.0000

          k = 0.0000 0.0000 0.1025 (  2797 PWs)   bands (ev):

   -76.0844 -76.0307 -39.4925 -39.2089 -39.2089 -39.1817 -39.1650 -39.1650
    10.2897  14.1464  17.0870  17.1617  17.1617  17.4877  17.4877  17.9895
    18.1567  18.1567  19.1415  19.1415  27.3838

     occupation numbers 
     1.0000   1.0000   1.0000   1.0000   1.0000   1.0000   1.0000   1.0000
     1.0000   1.0000   1.0000   1.0000   1.0000   1.0000   1.0000   1.0000
     1.0000   1.0000  -0.0000  -0.0000  -0.0000

          k = 0.0000 0.0000 0.2049 (  2816 PWs)   bands (ev):

   -76.0731 -76.0421 -39.4275 -39.2480 -39.1997 -39.1997 -39.1743 -39.1743
    11.0949  13.5042  16.8899  16.9775  17.1075  17.1075  17.3161  17.3161
    18.4966  18.4966  19.0466  19.0466  30.4951

     occupation numbers 
     1.0000   1.0000   1.0000   1.0000   1.0000   1.0000   1.0000   1.0000
     1.0000   1.0000   1.0000   1.0000   1.0000   1.0000   1.0000   1.0000
     1.0000   1.0000   0.9128   0.9128  -0.0000

          k = 0.0000 0.0000-0.3074 (  2834 PWs)   bands (ev):

   -76.0576 -76.0576 -39.3381 -39.3381 -39.1870 -39.1870 -39.1870 -39.1870
    12.2915  12.2915  16.7341  16.7341  17.1633  17.1633  17.1633  17.1633
    18.8249  18.8249  18.8249  18.8249  34.2578

     occupation numbers 
     1.0000   1.0000   1.0000   1.0000   1.0000   1.0000   1.0000   1.0000
     1.0000   1.0000   1.0000   1.0000   1.0000   1.0000   1.0000   1.0000
     1.0000   1.0000   1.0000   1.0000  -0.0000

          k = 0.0000 0.0962 0.0000 (  2801 PWs)   bands (ev):

   -76.0849 -76.0249 -39.5083 -39.2300 -39.2180 -39.1799 -39.1646 -39.1604
    10.2567  14.4396  16.9510  17.3476  17.3956  17.5075  17.6746  17.6783
    17.9096  18.0259  19.1924  20.3799  25.9907

     occupation numbers 
     1.0000   1.0000   1.0000   1.0000   1.0000   1.0000   1.0000   1.0000
     1.0000   1.0000   1.0000   1.0000   1.0000   1.0000   1.0000   1.0000
     1.0000   1.0000  -0.0000  -0.0000  -0.0000

          k = 0.0000 0.0962 0.1025 (  2795 PWs)   bands (ev):

   -76.0809 -76.0289 -39.4860 -39.2260 -39.2145 -39.1967 -39.1705 -39.1681
    10.5324  14.3207  16.9501  17.1760  17.2185  17.2686  17.5903  17.6668
    18.1053  18.1360  19.1663  19.8462  27.4805

     occupation numbers 
     1.0000   1.0000   1.0000   1.0000   1.0000   1.0000   1.0000   1.0000
     1.0000   1.0000   1.0000   1.0000   1.0000   1.0000   1.0000   1.0000
     1.0000   1.0000  -0.0000  -0.0000  -0.0000

          k = 0.0000 0.0962 0.2049 (  2799 PWs)   bands (ev):

   -76.0700 -76.0399 -39.4247 -39.2564 -39.2150 -39.2047 -39.1844 -39.1779
    11.3256  13.7007  16.6596  16.8759  17.0127  17.2063  17.3915  17.4172
    18.4665  18.5071  19.0527  19.2907  30.6428

     occupation numbers 
     1.0000   1.0000   1.0000   1.0000   1.0000   1.0000   1.0000   1.0000
     1.0000   1.0000   1.0000   1.0000   1.0000   1.0000   1.0000   1.0000
     1.0000   1.0000   0.6138  -0.0000  -0.0000

          k = 0.0000 0.0962-0.3074 (  2812 PWs)   bands (ev):

   -76.0549 -76.0549 -39.3407 -39.3407 -39.1999 -39.1999 -39.1913 -39.1913
    12.5044  12.5044  16.6159  16.6159  17.1480  17.1480  17.2629  17.2629
    18.8115  18.8115  18.9033  18.9033  34.4254

     occupation numbers 
     1.0000   1.0000   1.0000   1.0000   1.0000   1.0000   1.0000   1.0000
     1.0000   1.0000   1.0000   1.0000   1.0000   1.0000   1.0000   1.0000
     1.0000   1.0000   1.0000   1.0000  -0.0000

          k = 0.0000 0.1925 0.0000 (  2803 PWs)   bands (ev):

   -76.0749 -76.0203 -39.4858 -39.2785 -39.2333 -39.2295 -39.1730 -39.1699
    10.9722  14.8415  16.6390  16.7604  17.2984  17.6957  17.7162  17.7200
    17.8277  17.9811  19.2619  21.9786  26.0938

     occupation numbers 
     1.0000   1.0000   1.0000   1.0000   1.0000   1.0000   1.0000   1.0000
     1.0000   1.0000   1.0000   1.0000   1.0000   1.0000   1.0000   1.0000
     1.0000   1.0000  -0.0000  -0.0000  -0.0000

          k = 0.0000 0.1925 0.1025 (  2796 PWs)   bands (ev):

   -76.0713 -76.0240 -39.4681 -39.2725 -39.2440 -39.2293 -39.1795 -39.1770
    11.2329  14.7696  16.4712  16.6776  17.1838  17.5088  17.5315  17.8564
    18.0683  18.1414  19.2175  21.0119  27.8004

     occupation numbers 
     1.0000   1.0000   1.0000   1.0000   1.0000   1.0000   1.0000   1.0000
     1.0000   1.0000   1.0000   1.0000   1.0000   1.0000   1.0000   1.0000
     1.0000   1.0000  -0.0000  -0.0000  -0.0000

          k = 0.0000 0.1925 0.2049 (  2793 PWs)   bands (ev):

   -76.0613 -76.0340 -39.4197 -39.2900 -39.2532 -39.2183 -39.2021 -39.1881
    11.9810  14.2175  16.1974  16.7562  16.8567  17.3449  17.4508  17.6974
    18.4299  18.5781  19.0646  19.8558  31.0860

     occupation numbers 
     1.0000   1.0000   1.0000   1.0000   1.0000   1.0000   1.0000   1.0000
     1.0000   1.0000   1.0000   1.0000   1.0000   1.0000   1.0000   1.0000
     1.0000   1.0000   0.0264  -0.0000  -0.0000

          k = 0.0000 0.1925-0.3074 (  2798 PWs)   bands (ev):

   -76.0477 -76.0477 -39.3540 -39.3540 -39.2288 -39.2288 -39.2032 -39.2032
    13.0884  13.0884  16.3971  16.3971  17.0605  17.0605  17.5293  17.5293
    18.7899  18.7899  19.1184  19.1184  34.8857

     occupation numbers 
     1.0000   1.0000   1.0000   1.0000   1.0000   1.0000   1.0000   1.0000
     1.0000   1.0000   1.0000   1.0000   1.0000   1.0000   1.0000   1.0000
     1.0000   1.0000  -0.0000  -0.0000  -0.0000

          k = 0.0000 0.2887 0.0000 (  2792 PWs)   bands (ev):

   -76.0607 -76.0147 -39.4521 -39.3454 -39.2960 -39.2536 -39.1858 -39.1850
    12.0667  15.1960  16.0226  16.4060  17.1684  17.4846  17.6154  18.1698
    18.2036  18.4227  19.3264  23.7650  26.3009

     occupation numbers 
     1.0000   1.0000   1.0000   1.0000   1.0000   1.0000   1.0000   1.0000
     1.0000   1.0000   1.0000   1.0000   1.0000   1.0000   1.0000   1.0000
     1.0000   1.0000  -0.0000  -0.0000  -0.0000

          k = 0.0000 0.2887 0.1025 (  2789 PWs)   bands (ev):

   -76.0577 -76.0178 -39.4460 -39.3329 -39.3083 -39.2490 -39.1924 -39.1896
    12.2905  15.1902  15.8669  16.4652  17.0215  17.5220  17.5760  18.2490
    18.3226  18.3813  19.2650  22.2427  28.3877

     occupation numbers 
     1.0000   1.0000   1.0000   1.0000   1.0000   1.0000   1.0000   1.0000
     1.0000   1.0000   1.0000   1.0000   1.0000   1.0000   1.0000   1.0000
     1.0000   1.0000  -0.0000  -0.0000  -0.0000

          k = 0.0000 0.2887 0.2049 (  2788 PWs)   bands (ev):

   -76.0492 -76.0262 -39.4253 -39.3491 -39.2917 -39.2365 -39.2139 -39.2022
    12.9221  14.7422  15.8773  16.5223  16.8440  17.3812  17.6444  18.0954
    18.5497  18.7298  19.0882  20.5410  31.7050

     occupation numbers 
     1.0000   1.0000   1.0000   1.0000   1.0000   1.0000   1.0000   1.0000
     1.0000   1.0000   1.0000   1.0000   1.0000   1.0000   1.0000   1.0000
     1.0000   1.0000  -0.0013  -0.0000  -0.0000

          k = 0.0000 0.2887-0.3074 (  2802 PWs)   bands (ev):

   -76.0377 -76.0377 -39.3904 -39.3904 -39.2498 -39.2498 -39.2193 -39.2193
    13.8282  13.8282  16.2172  16.2172  17.0663  17.0663  17.8508  17.8508
    18.8282  18.8282  19.4164  19.4164  33.9118

     occupation numbers 
     1.0000   1.0000   1.0000   1.0000   1.0000   1.0000   1.0000   1.0000
     1.0000   1.0000   1.0000   1.0000   1.0000   1.0000   1.0000   1.0000
     1.0000   1.0000  -0.0000  -0.0000  -0.0000

          k = 0.0000 0.3849 0.0000 (  2806 PWs)   bands (ev):

   -76.0455 -76.0100 -39.4128 -39.4127 -39.3612 -39.2734 -39.2074 -39.1974
    13.3206  15.1620  15.5014  16.4158  17.2765  17.2855  17.4105  18.7501
    18.8604  18.9027  19.3695  25.7026  26.2870

     occupation numbers 
     1.0000   1.0000   1.0000   1.0000   1.0000   1.0000   1.0000   1.0000
     1.0000   1.0000   1.0000   1.0000   1.0000   1.0000   1.0000   1.0000
     1.0000   1.0000  -0.0000  -0.0000  -0.0000

          k = 0.0000 0.3849 0.1025 (  2796 PWs)   bands (ev):

   -76.0432 -76.0123 -39.4460 -39.3824 -39.3562 -39.2683 -39.2096 -39.2025
    13.4524  15.1526  15.5210  16.3507  17.1759  17.3741  17.6734  18.7660
    18.8118  18.8241  19.3078  23.4013  28.4921

     occupation numbers 
     1.0000   1.0000   1.0000   1.0000   1.0000   1.0000   1.0000   1.0000
     1.0000   1.0000   1.0000   1.0000   1.0000   1.0000   1.0000   1.0000
     1.0000   1.0000  -0.0000  -0.0000  -0.0000

          k = 0.0000 0.3849 0.2049 (  2801 PWs)   bands (ev):

   -76.0367 -76.0189 -39.4559 -39.4117 -39.3035 -39.2544 -39.2231 -39.2164
    13.8152  14.8492  15.7303  16.2994  17.2173  17.6499  17.8562  18.4723
    18.8873  18.9692  19.1736  21.2924  29.6505

     occupation numbers 
     1.0000   1.0000   1.0000   1.0000   1.0000   1.0000   1.0000   1.0000
     1.0000   1.0000   1.0000   1.0000   1.0000   1.0000   1.0000   1.0000
     1.0000   1.0000  -0.0000  -0.0000  -0.0000

          k = 0.0000 0.3849-0.3074 (  2796 PWs)   bands (ev):

   -76.0278 -76.0278 -39.4420 -39.4420 -39.2551 -39.2551 -39.2355 -39.2355
    14.3238  14.3238  16.0679  16.0679  17.5711  17.5711  18.0489  18.0489
    19.0238  19.0238  19.7890  19.7890  30.7469

     occupation numbers 
     1.0000   1.0000   1.0000   1.0000   1.0000   1.0000   1.0000   1.0000
     1.0000   1.0000   1.0000   1.0000   1.0000   1.0000   1.0000   1.0000
     1.0032   1.0032  -0.0000  -0.0000  -0.0000

          k = 0.0000 0.4811 0.0000 (  2796 PWs)   bands (ev):

   -76.0331 -76.0078 -39.4625 -39.4082 -39.3763 -39.2876 -39.2307 -39.2067
    14.2896  14.9529  15.1932  16.6382  17.1346  17.2632  17.5087  19.1618
    19.3033  19.3919  19.9059  24.5298  27.6897

     occupation numbers 
     1.0000   1.0000   1.0000   1.0000   1.0000   1.0000   1.0000   1.0000
     1.0000   1.0000   1.0000   1.0000   1.0000   1.0000   1.0000  -0.0000
    -0.0000  -0.0000  -0.0000  -0.0000  -0.0000

          k = 0.0000 0.4811 0.1025 (  2806 PWs)   bands (ev):

   -76.0314 -76.0095 -39.4781 -39.4250 -39.3462 -39.2822 -39.2284 -39.2121
    14.2318  14.9280  15.4691  16.1957  17.2545  17.4868  17.9573  19.0997
    19.1958  19.3853  19.7276  23.6784  27.1720

     occupation numbers 
     1.0000   1.0000   1.0000   1.0000   1.0000   1.0000   1.0000   1.0000
     1.0000   1.0000   1.0000   1.0000   1.0000   1.0000   1.0000  -0.0000
    -0.0000  -0.0000  -0.0000  -0.0000  -0.0000

          k = 0.0000 0.4811 0.2049 (  2797 PWs)   bands (ev):

   -76.0268 -76.0141 -39.4920 -39.4576 -39.2958 -39.2675 -39.2319 -39.2270
    14.2491  14.7836  15.7076  16.0767  17.5956  17.6699  18.6547  18.9610
    19.2300  19.2719  19.3459  21.9607  27.3573

     occupation numbers 
     1.0000   1.0000   1.0000   1.0000   1.0000   1.0000   1.0000   1.0000
     1.0000   1.0000   1.0000   1.0000   1.0000   1.0000   1.0000   1.0000
    -0.0000  -0.0000  -0.0000  -0.0000  -0.0000

          k = 0.0000 0.4811-0.3074 (  2810 PWs)   bands (ev):

   -76.0205 -76.0205 -39.4844 -39.4844 -39.2542 -39.2542 -39.2472 -39.2472
    14.4617  14.4617  15.9424  15.9424  18.0984  18.0984  18.3687  18.3687
    19.2881  19.2881  20.3646  20.3646  28.1016

     occupation numbers 
     1.0000   1.0000   1.0000   1.0000   1.0000   1.0000   1.0000   1.0000
     1.0000   1.0000   1.0000   1.0000   1.0000   1.0000   1.0000   1.0000
    -0.0000  -0.0000  -0.0000  -0.0000  -0.0000

          k = 0.0000-0.5774 0.0000 (  2794 PWs)   bands (ev):

   -76.0279 -76.0077 -39.4807 -39.4253 -39.3593 -39.2928 -39.2430 -39.2101
    14.6672  14.7882  15.0914  16.8420  17.0844  17.2098  17.5924  19.3103
    19.3986  19.4673  20.9443  22.9013  28.9576

     occupation numbers 
     1.0000   1.0000   1.0000   1.0000   1.0000   1.0000   1.0000   1.0000
     1.0000   1.0000   1.0000   1.0000   1.0000   1.0000   1.0000  -0.0000
    -0.0000  -0.0000  -0.0000  -0.0000  -0.0000

          k = 0.0000-0.5774 0.1025 (  2804 PWs)   bands (ev):

   -76.0266 -76.0090 -39.4936 -39.4415 -39.3349 -39.2873 -39.2382 -39.2157
    14.4293  14.8260  15.5278  16.1317  17.2107  17.5816  18.1718  19.1691
    19.3583  19.4591  20.6566  22.6826  28.1859

     occupation numbers 
     1.0000   1.0000   1.0000   1.0000   1.0000   1.0000   1.0000   1.0000
     1.0000   1.0000   1.0000   1.0000   1.0000   1.0000   1.0000  -0.0000
    -0.0000  -0.0000  -0.0000  -0.0000  -0.0000

          k = 0.0000-0.5774 0.2049 (  2794 PWs)   bands (ev):

   -76.0229 -76.0127 -39.5069 -39.4743 -39.2899 -39.2722 -39.2366 -39.2308
    14.3231  14.7552  15.7542  15.9612  17.5703  17.8278  18.6930  19.3515
    19.3748  19.4365  19.9391  21.9774  27.2376

     occupation numbers 
     1.0000   1.0000   1.0000   1.0000   1.0000   1.0000   1.0000   1.0000
     1.0000   1.0000   1.0000   1.0000   1.0000   1.0000   1.0000  -0.0000
    -0.0000  -0.0000  -0.0000  -0.0000  -0.0000

          k = 0.0000-0.5774-0.3074 (  2808 PWs)   bands (ev):

   -76.0178 -76.0178 -39.5004 -39.5004 -39.2533 -39.2533 -39.2516 -39.2516
    14.4738  14.4738  15.8944  15.8944  18.1022  18.1022  18.6888  18.6888
    19.4054  19.4054  20.8420  20.8420  26.9113

     occupation numbers 
     1.0000   1.0000   1.0000   1.0000   1.0000   1.0000   1.0000   1.0000
     1.0000   1.0000   1.0000   1.0000   1.0000   1.0000   1.0000   1.0000
    -0.0000  -0.0000  -0.0000  -0.0000  -0.0000

          k = 0.0833 0.1443 0.0000 (  2791 PWs)   bands (ev):

   -76.0781 -76.0217 -39.4931 -39.2601 -39.2364 -39.2067 -39.1725 -39.1667
    10.7385  14.7257  16.7108  17.0104  17.3812  17.5608  17.5984  17.6761
    17.9129  17.9690  19.2320  21.5336  26.0583

     occupation numbers 
     1.0000   1.0000   1.0000   1.0000   1.0000   1.0000   1.0000   1.0000
     1.0000   1.0000   1.0000   1.0000   1.0000   1.0000   1.0000   1.0000
     1.0000   1.0000  -0.0000  -0.0000  -0.0000

          k = 0.0833 0.1443 0.1025 (  2794 PWs)   bands (ev):

   -76.0744 -76.0255 -39.4737 -39.2547 -39.2378 -39.2175 -39.1764 -39.1760
    11.0048  14.6380  16.6645  16.7413  17.2359  17.4445  17.5075  17.7660
    18.0911  18.1290  19.1960  20.6913  27.6909

     occupation numbers 
     1.0000   1.0000   1.0000   1.0000   1.0000   1.0000   1.0000   1.0000
     1.0000   1.0000   1.0000   1.0000   1.0000   1.0000   1.0000   1.0000
     1.0000   1.0000  -0.0000  -0.0000  -0.0000

          k = 0.0833 0.1443 0.2049 (  2799 PWs)   bands (ev):

   -76.0641 -76.0359 -39.4207 -39.2777 -39.2400 -39.2173 -39.1945 -39.1868
    11.7700  14.0624  16.3148  16.8159  16.8711  17.3340  17.4038  17.6087
    18.4563  18.5337  19.0617  19.6903  30.9412

     occupation numbers 
     1.0000   1.0000   1.0000   1.0000   1.0000   1.0000   1.0000   1.0000
     1.0000   1.0000   1.0000   1.0000   1.0000   1.0000   1.0000   1.0000
     1.0000   1.0000   0.1161  -0.0000  -0.0000

          k = 0.0833 0.1443-0.3074 (  2814 PWs)   bands (ev):

   -76.0500 -76.0500 -39.3484 -39.3484 -39.2206 -39.2206 -39.1999 -39.1999
    12.9055  12.9055  16.4569  16.4569  17.0717  17.0717  17.4559  17.4559
    18.7957  18.7957  19.0517  19.0517  34.7491

     occupation numbers 
     1.0000   1.0000   1.0000   1.0000   1.0000   1.0000   1.0000   1.0000
     1.0000   1.0000   1.0000   1.0000   1.0000   1.0000   1.0000   1.0000
     1.0000   1.0000   0.6691   0.6691  -0.0000

          k = 0.0833 0.2406 0.0000 (  2778 PWs)   bands (ev):

   -76.0660 -76.0166 -39.4650 -39.3135 -39.2822 -39.2374 -39.1862 -39.1795
    11.6501  15.1472  16.2863  16.3920  17.2261  17.4187  17.8266  17.8373
    18.0564  18.3560  19.2799  23.1241  26.2358

     occupation numbers 
     1.0000   1.0000   1.0000   1.0000   1.0000   1.0000   1.0000   1.0000
     1.0000   1.0000   1.0000   1.0000   1.0000   1.0000   1.0000   1.0000
     1.0000   1.0000  -0.0000  -0.0000  -0.0000

          k = 0.0833 0.2406 0.1025 (  2785 PWs)   bands (ev):

   -76.0627 -76.0200 -39.4530 -39.3050 -39.2897 -39.2400 -39.1912 -39.1852
    11.8919  15.1252  16.0638  16.4452  17.1223  17.3842  17.6427  17.9836
    18.2629  18.3465  19.2350  21.8239  28.1673

     occupation numbers 
     1.0000   1.0000   1.0000   1.0000   1.0000   1.0000   1.0000   1.0000
     1.0000   1.0000   1.0000   1.0000   1.0000   1.0000   1.0000   1.0000
     1.0000   1.0000  -0.0000  -0.0000  -0.0000

          k = 0.0833 0.2406 0.2049 (  2785 PWs)   bands (ev):

   -76.0537 -76.0290 -39.4197 -39.3252 -39.2765 -39.2369 -39.2065 -39.2000
    12.5812  14.6260  15.9673  16.5631  16.8178  17.2418  17.6123  17.9456
    18.5400  18.6549  19.0915  20.3074  31.5275

     occupation numbers 
     1.0000   1.0000   1.0000   1.0000   1.0000   1.0000   1.0000   1.0000
     1.0000   1.0000   1.0000   1.0000   1.0000   1.0000   1.0000   1.0000
     1.0000   1.0000  -0.0004  -0.0000  -0.0000

          k = 0.0833 0.2406-0.3074 (  2792 PWs)   bands (ev):

   -76.0414 -76.0414 -39.3729 -39.3729 -39.2454 -39.2454 -39.2143 -39.2143
    13.5898  13.5898  16.2873  16.2873  16.9444  16.9444  17.7589  17.7589
    18.8321  18.8321  19.3110  19.3110  35.1519

     occupation numbers 
     1.0000   1.0000   1.0000   1.0000   1.0000   1.0000   1.0000   1.0000
     1.0000   1.0000   1.0000   1.0000   1.0000   1.0000   1.0000   1.0000
     1.0000   1.0000  -0.0000  -0.0000  -0.0000

          k = 0.0833 0.3368 0.0000 (  2797 PWs)   bands (ev):

   -76.0513 -76.0115 -39.4281 -39.3791 -39.3387 -39.2659 -39.2010 -39.1985
    12.8524  15.3266  15.7166  16.2471  17.2050  17.2120  17.6068  18.2716
    18.6053  18.9406  19.3195  24.9495  26.5055

     occupation numbers 
     1.0000   1.0000   1.0000   1.0000   1.0000   1.0000   1.0000   1.0000
     1.0000   1.0000   1.0000   1.0000   1.0000   1.0000   1.0000   1.0000
     1.0000   1.0000  -0.0000  -0.0000  -0.0000

          k = 0.0833 0.3368 0.1025 (  2792 PWs)   bands (ev):

   -76.0486 -76.0142 -39.4372 -39.3622 -39.3405 -39.2645 -39.2084 -39.1985
    13.0357  15.3477  15.6216  16.3132  16.9991  17.4218  17.5482  18.3106
    18.6986  18.8188  19.3075  23.0267  28.8594

     occupation numbers 
     1.0000   1.0000   1.0000   1.0000   1.0000   1.0000   1.0000   1.0000
     1.0000   1.0000   1.0000   1.0000   1.0000   1.0000   1.0000   1.0000
     1.0000   1.0000  -0.0000  -0.0000  -0.0000

          k = 0.0833 0.3368 0.2049 (  2794 PWs)   bands (ev):

   -76.0413 -76.0215 -39.4369 -39.3850 -39.3006 -39.2562 -39.2235 -39.2095
    13.5425  14.9430  15.8035  16.4065  16.8590  17.3482  17.6701  18.2996
    18.7890  18.9365  19.2348  21.0530  31.2473

     occupation numbers 
     1.0000   1.0000   1.0000   1.0000   1.0000   1.0000   1.0000   1.0000
     1.0000   1.0000   1.0000   1.0000   1.0000   1.0000   1.0000   1.0000
     1.0000   1.0000  -0.0000  -0.0000  -0.0000

          k = 0.0833 0.3368-0.3074 (  2794 PWs)   bands (ev):

   -76.0314 -76.0314 -39.4170 -39.4170 -39.2604 -39.2604 -39.2285 -39.2285
    14.2441  14.2441  16.1716  16.1716  17.0515  17.0515  17.9759  17.9759
    19.0406  19.0406  19.6820  19.6820  32.4345

     occupation numbers 
     1.0000   1.0000   1.0000   1.0000   1.0000   1.0000   1.0000   1.0000
     1.0000   1.0000   1.0000   1.0000   1.0000   1.0000   1.0000   1.0000
     1.0276   1.0276  -0.0000  -0.0000  -0.0000

          k = 0.0833 0.4330 0.0000 (  2799 PWs)   bands (ev):

   -76.0373 -76.0083 -39.4372 -39.3892 -39.3879 -39.2885 -39.2221 -39.2136
    14.0170  15.1531  15.3362  16.3642  17.0732  17.3784  17.4175  18.8266
    19.0765  19.3433  19.6966  25.8118  26.9232

     occupation numbers 
     1.0000   1.0000   1.0000   1.0000   1.0000   1.0000   1.0000   1.0000
     1.0000   1.0000   1.0000   1.0000   1.0000   1.0000   1.0000   1.0000
    -0.0225  -0.0000  -0.0000  -0.0000  -0.0000

          k = 0.0833 0.4330 0.1025 (  2803 PWs)   bands (ev):

   -76.0353 -76.0102 -39.4572 -39.4060 -39.3517 -39.2842 -39.2263 -39.2130
    14.0621  15.1386  15.4595  16.2325  17.1253  17.4532  17.6242  18.7813
    19.1288  19.1403  19.7091  24.0100  27.6854

     occupation numbers 
     1.0000   1.0000   1.0000   1.0000   1.0000   1.0000   1.0000   1.0000
     1.0000   1.0000   1.0000   1.0000   1.0000   1.0000   1.0000   1.0000
    -0.0000  -0.0000  -0.0000  -0.0000  -0.0000

          k = 0.0833 0.4330 0.2049 (  2793 PWs)   bands (ev):

   -76.0300 -76.0155 -39.4714 -39.4363 -39.3038 -39.2691 -39.2401 -39.2176
    14.2292  14.9180  15.7169  16.2381  17.1786  17.6563  17.9608  18.5269
    18.9812  19.3148  19.7041  21.9217  28.4120

     occupation numbers 
     1.0000   1.0000   1.0000   1.0000   1.0000   1.0000   1.0000   1.0000
     1.0000   1.0000   1.0000   1.0000   1.0000   1.0000   1.0000   1.0000
     1.0000  -0.0000  -0.0000  -0.0000  -0.0000

          k = 0.0833 0.4330-0.3074 (  2796 PWs)   bands (ev):

   -76.0228 -76.0228 -39.4629 -39.4629 -39.2700 -39.2700 -39.2362 -39.2362
    14.5384  14.5384  16.0507  16.0507  17.5644  17.5644  18.1219  18.1219
    19.2658  19.2658  20.3575  20.3575  29.4246

     occupation numbers 
     1.0000   1.0000   1.0000   1.0000   1.0000   1.0000   1.0000   1.0000
     1.0000   1.0000   1.0000   1.0000   1.0000   1.0000   1.0000   1.0000
    -0.0000  -0.0000  -0.0000  -0.0000  -0.0000

          k = 0.0833 0.5292 0.0000 (  2793 PWs)   bands (ev):

   -76.0280 -76.0076 -39.4708 -39.4163 -39.3596 -39.3011 -39.2427 -39.2210
    14.6748  14.9537  15.1475  16.6308  17.0359  17.2130  17.5907  19.2477
    19.3286  19.3534  20.8158  23.6326  28.7893

     occupation numbers 
     1.0000   1.0000   1.0000   1.0000   1.0000   1.0000   1.0000   1.0000
     1.0000   1.0000   1.0000   1.0000   1.0000   1.0000   1.0000  -0.0000
    -0.0000  -0.0000  -0.0000  -0.0000  -0.0000

          k = 0.0833 0.5292 0.1025 (  2806 PWs)   bands (ev):

   -76.0266 -76.0090 -39.4837 -39.4328 -39.3378 -39.2930 -39.2421 -39.2220
    14.4990  14.9637  15.5463  16.1223  17.0796  17.6442  17.8480  19.1065
    19.2741  19.3648  20.7008  23.3181  27.6517

     occupation numbers 
     1.0000   1.0000   1.0000   1.0000   1.0000   1.0000   1.0000   1.0000
     1.0000   1.0000   1.0000   1.0000   1.0000   1.0000   1.0000  -0.0000
    -0.0000  -0.0000  -0.0000  -0.0000  -0.0000

          k = 0.0833 0.5292 0.2049 (  2803 PWs)   bands (ev):

   -76.0229 -76.0127 -39.4971 -39.4654 -39.3037 -39.2686 -39.2528 -39.2236
    14.4254  14.8819  15.7564  16.0760  17.2123  17.9641  18.3668  18.7086
    19.2299  19.4474  20.5890  22.3839  27.0291

     occupation numbers 
     1.0000   1.0000   1.0000   1.0000   1.0000   1.0000   1.0000   1.0000
     1.0000   1.0000   1.0000   1.0000   1.0000   1.0000   1.0000   1.0000
    -0.0000  -0.0000  -0.0000  -0.0000  -0.0000

          k = 0.0833 0.5292-0.3074 (  2794 PWs)   bands (ev):

   -76.0178 -76.0178 -39.4910 -39.4910 -39.2765 -39.2765 -39.2380 -39.2380
    14.5894  14.5894  15.9692  15.9692  17.7827  17.7827  18.4963  18.4963
    19.3095  19.3095  21.2502  21.2502  27.2987

     occupation numbers 
     1.0000   1.0000   1.0000   1.0000   1.0000   1.0000   1.0000   1.0000
     1.0000   1.0000   1.0000   1.0000   1.0000   1.0000   1.0000   1.0000
    -0.0000  -0.0000  -0.0000  -0.0000  -0.0000

          k = 0.1667 0.2887 0.0000 (  2788 PWs)   bands (ev):

   -76.0533 -76.0121 -39.4335 -39.3524 -39.3429 -39.2574 -39.2099 -39.1956
    12.6890  15.4912  15.8297  16.0558  17.1248  17.2163  17.7175  18.0214
    18.5868  18.9601  19.2754  24.6973  26.5637

     occupation numbers 
     1.0000   1.0000   1.0000   1.0000   1.0000   1.0000   1.0000   1.0000
     1.0000   1.0000   1.0000   1.0000   1.0000   1.0000   1.0000   1.0000
     1.0000   1.0000  -0.0000  -0.0000  -0.0000

          k = 0.1667 0.2887 0.1025 (  2789 PWs)   bands (ev):

   -76.0506 -76.0149 -39.4353 -39.3497 -39.3330 -39.2631 -39.2142 -39.1965
    12.8893  15.5523  15.6684  16.1165  17.0583  17.2343  17.6006  18.1172
    18.7123  18.8130  19.3081  22.9046  28.8593

     occupation numbers 
     1.0000   1.0000   1.0000   1.0000   1.0000   1.0000   1.0000   1.0000
     1.0000   1.0000   1.0000   1.0000   1.0000   1.0000   1.0000   1.0000
     1.0000   1.0000  -0.0000  -0.0000  -0.0000

          k = 0.1667 0.2887 0.2049 (  2793 PWs)   bands (ev):

   -76.0430 -76.0224 -39.4283 -39.3734 -39.2934 -39.2653 -39.2245 -39.2074
    13.4488  15.0341  15.8918  16.2799  16.8313  17.0843  17.6240  18.2244
    18.7947  18.9297  19.2973  20.9951  32.1967

     occupation numbers 
     1.0000   1.0000   1.0000   1.0000   1.0000   1.0000   1.0000   1.0000
     1.0000   1.0000   1.0000   1.0000   1.0000   1.0000   1.0000   1.0000
     1.0000   1.0000  -0.0000  -0.0000  -0.0000

          k = 0.1667 0.2887-0.3074 (  2794 PWs)   bands (ev):

   -76.0327 -76.0327 -39.4051 -39.4051 -39.2646 -39.2646 -39.2264 -39.2264
    14.2360  14.2360  16.2444  16.2444  16.7832  16.7832  17.9197  17.9197
    19.0956  19.0956  19.6643  19.6643  34.1141

     occupation numbers 
     1.0000   1.0000   1.0000   1.0000   1.0000   1.0000   1.0000   1.0000
     1.0000   1.0000   1.0000   1.0000   1.0000   1.0000   1.0000   1.0000
    -0.0001  -0.0001  -0.0000  -0.0000  -0.0000

          k = 0.1667 0.3849 0.0000 (  2800 PWs)   bands (ev):

   -76.0396 -76.0086 -39.4042 -39.3961 -39.3803 -39.2882 -39.2328 -39.2175
    13.8814  15.4833  15.5060  15.9608  16.9421  17.3614  17.4981  18.3584
    19.0705  19.2676  19.7417  26.5445  26.8833

     occupation numbers 
     1.0000   1.0000   1.0000   1.0000   1.0000   1.0000   1.0000   1.0000
     1.0000   1.0000   1.0000   1.0000   1.0000   1.0000   1.0000   1.0000
    -0.0351  -0.0000  -0.0000  -0.0000  -0.0000

          k = 0.1667 0.3849 0.1025 (  2799 PWs)   bands (ev):

   -76.0375 -76.0107 -39.4335 -39.3977 -39.3446 -39.2927 -39.2385 -39.2122
    13.9952  15.3857  15.6056  16.0605  16.9521  17.3438  17.4458  18.4006
    19.0270  19.1676  19.8346  24.1272  29.0588

     occupation numbers 
     1.0000   1.0000   1.0000   1.0000   1.0000   1.0000   1.0000   1.0000
     1.0000   1.0000   1.0000   1.0000   1.0000   1.0000   1.0000   1.0000
     1.0074  -0.0000  -0.0000  -0.0000  -0.0000

          k = 0.1667 0.3849 0.2049 (  2799 PWs)   bands (ev):

   -76.0318 -76.0164 -39.4486 -39.4187 -39.3048 -39.2876 -39.2462 -39.2132
    14.3014  15.1111  15.8736  16.2859  16.8433  17.1202  17.6086  18.3766
    18.9057  19.3377  19.9620  21.9899  30.0608

     occupation numbers 
     1.0000   1.0000   1.0000   1.0000   1.0000   1.0000   1.0000   1.0000
     1.0000   1.0000   1.0000   1.0000   1.0000   1.0000   1.0000   1.0000
     1.0000  -0.0000  -0.0000  -0.0000  -0.0000

          k = 0.1667 0.3849-0.3074 (  2794 PWs)   bands (ev):

   -76.0241 -76.0241 -39.4412 -39.4412 -39.2873 -39.2873 -39.2311 -39.2311
    14.7115  14.7115  16.2243  16.2243  16.8718  16.8718  17.9362  17.9362
    19.3278  19.3278  20.4977  20.4977  31.1950

     occupation numbers 
     1.0000   1.0000   1.0000   1.0000   1.0000   1.0000   1.0000   1.0000
     1.0000   1.0000   1.0000   1.0000   1.0000   1.0000   1.0000   1.0000
    -0.0000  -0.0000  -0.0000  -0.0000  -0.0000

          k = 0.1667 0.4811 0.0000 (  2800 PWs)   bands (ev):

   -76.0280 -76.0076 -39.4451 -39.3993 -39.3600 -39.3170 -39.2484 -39.2423
    14.7829  15.2744  15.2858  16.1661  16.8931  17.2531  17.5855  18.8056
    19.2609  19.3108  20.8041  25.2310  28.5370

     occupation numbers 
     1.0000   1.0000   1.0000   1.0000   1.0000   1.0000   1.0000   1.0000
     1.0000   1.0000   1.0000   1.0000   1.0000   1.0000   1.0000   1.0000
    -0.0000  -0.0000  -0.0000  -0.0000  -0.0000

          k = 0.1667 0.4811 0.1025 (  2801 PWs)   bands (ev):

   -76.0266 -76.0089 -39.4576 -39.4175 -39.3423 -39.3071 -39.2587 -39.2289
    14.7058  15.3097  15.4841  16.0872  16.9263  17.3157  17.6589  18.7958
    19.0439  19.3806  20.8676  24.6171  27.4805

     occupation numbers 
     1.0000   1.0000   1.0000   1.0000   1.0000   1.0000   1.0000   1.0000
     1.0000   1.0000   1.0000   1.0000   1.0000   1.0000   1.0000   1.0000
     0.9851  -0.0000  -0.0000  -0.0000  -0.0000

          k = 0.1667 0.4811 0.2049 (  2801 PWs)   bands (ev):

   -76.0229 -76.0127 -39.4723 -39.4465 -39.3262 -39.2887 -39.2578 -39.2203
    14.7076  15.1683  15.7690  16.3163  16.7876  17.3969  17.8820  18.4782
    19.0056  19.4695  21.0965  23.0994  27.5989

     occupation numbers 
     1.0000   1.0000   1.0000   1.0000   1.0000   1.0000   1.0000   1.0000
     1.0000   1.0000   1.0000   1.0000   1.0000   1.0000   1.0000   1.0000
     1.0000  -0.0000  -0.0000  -0.0000  -0.0000

          k = 0.1667 0.4811-0.3074 (  2792 PWs)   bands (ev):

   -76.0178 -76.0178 -39.4687 -39.4687 -39.3061 -39.3061 -39.2310 -39.2310
    14.8838  14.8838  16.1487  16.1487  17.1213  17.1213  18.0999  18.0999
    19.3287  19.3287  21.7790  21.7790  28.4471

     occupation numbers 
     1.0000   1.0000   1.0000   1.0000   1.0000   1.0000   1.0000   1.0000
     1.0000   1.0000   1.0000   1.0000   1.0000   1.0000   1.0000   1.0000
    -0.0000  -0.0000  -0.0000  -0.0000  -0.0000

          k = 0.1667 0.5774 0.0000 (  2798 PWs)   bands (ev):

   -76.0229 -76.0080 -39.4599 -39.4051 -39.3418 -39.3289 -39.2564 -39.2540
    15.0702  15.1706  15.2052  16.3451  16.9269  17.1118  17.6835  19.1138
    19.2582  19.2847  21.9068  23.5046  29.7442

     occupation numbers 
     1.0000   1.0000   1.0000   1.0000   1.0000   1.0000   1.0000   1.0000
     1.0000   1.0000   1.0000   1.0000   1.0000   1.0000   1.0000  -0.0000
    -0.0000  -0.0000  -0.0000  -0.0000  -0.0000

          k = 0.1667 0.5774 0.1025 (  2801 PWs)   bands (ev):

   -76.0219 -76.0090 -39.4700 -39.4224 -39.3470 -39.2992 -39.2703 -39.2371
    14.8185  15.2376  15.6710  16.0179  16.8602  17.4072  17.7667  19.0156
    19.1120  19.3434  21.9682  23.4231  28.6958

     occupation numbers 
     1.0000   1.0000   1.0000   1.0000   1.0000   1.0000   1.0000   1.0000
     1.0000   1.0000   1.0000   1.0000   1.0000   1.0000   1.0000   1.0002
    -0.0000  -0.0000  -0.0000  -0.0000  -0.0000

          k = 0.1667 0.5774 0.2049 (  2802 PWs)   bands (ev):

   -76.0192 -76.0118 -39.4828 -39.4551 -39.3353 -39.2896 -39.2585 -39.2242
    14.7516  15.2036  15.8231  16.2593  16.6987  17.5976  18.0278  18.5482
    19.1363  19.3904  22.1841  23.1370  27.5138

     occupation numbers 
     1.0000   1.0000   1.0000   1.0000   1.0000   1.0000   1.0000   1.0000
     1.0000   1.0000   1.0000   1.0000   1.0000   1.0000   1.0000   1.0000
    -0.0000  -0.0000  -0.0000  -0.0000  -0.0000

          k = 0.1667 0.5774-0.3074 (  2790 PWs)   bands (ev):

   -76.0155 -76.0155 -39.4789 -39.4789 -39.3133 -39.3133 -39.2305 -39.2305
    14.9128  14.9128  16.1184  16.1184  17.1790  17.1790  18.2912  18.2912
    19.2643  19.2643  22.6390  22.6390  27.0858

     occupation numbers 
     1.0000   1.0000   1.0000   1.0000   1.0000   1.0000   1.0000   1.0000
     1.0000   1.0000   1.0000   1.0000   1.0000   1.0000   1.0000   1.0000
    -0.0000  -0.0000  -0.0000  -0.0000  -0.0000

          k = 0.2500 0.4330 0.0000 (  2814 PWs)   bands (ev):

   -76.0280 -76.0075 -39.4227 -39.3997 -39.3603 -39.3189 -39.2689 -39.2421
    14.8683  15.3478  15.6833  15.6952  16.8074  17.2789  17.5900  18.5585
    19.2134  19.3146  20.8342  26.9137  27.7422

     occupation numbers 
     1.0000   1.0000   1.0000   1.0000   1.0000   1.0000   1.0000   1.0000
     1.0000   1.0000   1.0000   1.0000   1.0000   1.0000   1.0000   1.0000
    -0.0000  -0.0000  -0.0000  -0.0000  -0.0000

          k = 0.2500 0.4330 0.1025 (  2811 PWs)   bands (ev):

   -76.0267 -76.0089 -39.4282 -39.4263 -39.3301 -39.3266 -39.2709 -39.2303
    14.9029  15.2837  15.7302  15.8840  16.9047  17.1124  17.5914  18.6017
    18.9862  19.3887  20.9469  25.3785  28.0273

     occupation numbers 
     1.0000   1.0000   1.0000   1.0000   1.0000   1.0000   1.0000   1.0000
     1.0000   1.0000   1.0000   1.0000   1.0000   1.0000   1.0000   1.0000
     1.0000  -0.0000  -0.0000  -0.0000  -0.0000

          k = 0.2500 0.4330 0.2049 (  2801 PWs)   bands (ev):

   -76.0229 -76.0127 -39.4523 -39.4402 -39.3350 -39.3083 -39.2568 -39.2196
    14.9864  15.1952  15.9287  16.2663  16.7485  16.9555  17.6519  18.3822
    18.9700  19.4779  21.2538  23.4054  28.8084

     occupation numbers 
     1.0000   1.0000   1.0000   1.0000   1.0000   1.0000   1.0000   1.0000
     1.0000   1.0000   1.0000   1.0000   1.0000   1.0000   1.0000   1.0000
     1.0000  -0.0000  -0.0000  -0.0000  -0.0000

          k = 0.2500 0.4330-0.3074 (  2786 PWs)   bands (ev):

   -76.0178 -76.0178 -39.4545 -39.4545 -39.3224 -39.3224 -39.2290 -39.2290
    15.0932  15.0932  16.2732  16.2732  16.7321  16.7321  17.9098  17.9098
    19.3512  19.3512  21.9759  21.9759  29.8279

     occupation numbers 
     1.0000   1.0000   1.0000   1.0000   1.0000   1.0000   1.0000   1.0000
     1.0000   1.0000   1.0000   1.0000   1.0000   1.0000   1.0000   1.0000
    -0.0000  -0.0000  -0.0000  -0.0000  -0.0000

          k = 0.2500 0.5292 0.0000 (  2824 PWs)   bands (ev):

   -76.0194 -76.0089 -39.4367 -39.3900 -39.3519 -39.3283 -39.2920 -39.2675
    15.2916  15.3474  15.5248  15.9376  16.8190  17.0500  17.7761  18.8603
    19.1816  19.2482  22.3400  24.8176  27.0721

     occupation numbers 
     1.0000   1.0000   1.0000   1.0000   1.0000   1.0000   1.0000   1.0000
     1.0000   1.0000   1.0000   1.0000   1.0000   1.0000   1.0000   1.0000
    -0.0000  -0.0000  -0.0000  -0.0000  -0.0000

          k = 0.2500 0.5292 0.1025 (  2807 PWs)   bands (ev):

   -76.0187 -76.0096 -39.4414 -39.4110 -39.3676 -39.3088 -39.2886 -39.2487
    15.1779  15.5503  15.6249  15.9059  16.8203  17.0032  17.7869  18.8762
    18.9546  19.3004  22.5160  24.8075  27.1085

     occupation numbers 
     1.0000   1.0000   1.0000   1.0000   1.0000   1.0000   1.0000   1.0000
     1.0000   1.0000   1.0000   1.0000   1.0000   1.0000   1.0000   1.0000
     1.0000  -0.0000  -0.0000  -0.0000  -0.0000

          k = 0.2500 0.5292 0.2049 (  2801 PWs)   bands (ev):

   -76.0168 -76.0115 -39.4551 -39.4396 -39.3679 -39.3248 -39.2508 -39.2276
    15.1867  15.5221  15.8495  16.1810  16.6231  16.9574  17.8476  18.4097
    19.0528  19.3511  22.9611  24.4538  27.0992

     occupation numbers 
     1.0000   1.0000   1.0000   1.0000   1.0000   1.0000   1.0000   1.0000
     1.0000   1.0000   1.0000   1.0000   1.0000   1.0000   1.0000   1.0000
     0.6040  -0.0000  -0.0000  -0.0000  -0.0000

          k = 0.2500 0.5292-0.3074 (  2802 PWs)   bands (ev):

   -76.0141 -76.0141 -39.4573 -39.4573 -39.3484 -39.3484 -39.2271 -39.2271
    15.3219  15.3219  16.1924  16.1924  16.7092  16.7092  18.0169  18.0169
    19.2560  19.2560  23.6507  23.6507  27.6493

     occupation numbers 
     1.0000   1.0000   1.0000   1.0000   1.0000   1.0000   1.0000   1.0000
     1.0000   1.0000   1.0000   1.0000   1.0000   1.0000   1.0000   1.0000
    -0.0000  -0.0000  -0.0000  -0.0000  -0.0000

          k = 0.3333 0.5774 0.0000 (  2826 PWs)   bands (ev):

   -76.0128 -76.0128 -39.4257 -39.3739 -39.3739 -39.3193 -39.2967 -39.2967
    15.3132  15.5982  15.5982  15.8369  16.8765  16.8765  17.8797  19.0230
    19.0230  19.1501  23.9585  24.8259  24.8259

     occupation numbers 
     1.0000   1.0000   1.0000   1.0000   1.0000   1.0000   1.0000   1.0000
     1.0000   1.0000   1.0000   1.0000   1.0000   1.0000   1.0000   1.0026
     1.0026  -0.0000  -0.0000  -0.0000  -0.0000

          k = 0.3333 0.5774 0.1025 (  2814 PWs)   bands (ev):

   -76.0128 -76.0128 -39.4186 -39.3993 -39.3993 -39.3265 -39.2712 -39.2712
    15.4015  15.6430  15.6430  15.8611  16.8225  16.8225  17.8550  18.8945
    19.0716  19.0716  24.3682  24.8825  24.8825

     occupation numbers 
     1.0000   1.0000   1.0000   1.0000   1.0000   1.0000   1.0000   1.0000
     1.0000   1.0000   1.0000   1.0000   1.0000   1.0000   1.0000   1.0000
    -0.0353  -0.0353  -0.0000  -0.0000  -0.0000

          k = 0.3333 0.5774 0.2049 (  2802 PWs)   bands (ev):

   -76.0128 -76.0128 -39.4317 -39.4317 -39.3992 -39.3460 -39.2384 -39.2384
    15.6197  15.7403  15.7403  15.8930  16.7133  16.7133  17.8349  18.3760
    19.1629  19.1629  25.0218  25.0218  25.3944

     occupation numbers 
     1.0000   1.0000   1.0000   1.0000   1.0000   1.0000   1.0000   1.0000
     1.0000   1.0000   1.0000   1.0000   1.0000   1.0000   1.0000   1.0000
    -0.0000  -0.0000  -0.0000  -0.0000  -0.0000

          k = 0.3333 0.5774-0.3074 (  2772 PWs)   bands (ev):

   -76.0128 -76.0128 -39.4443 -39.4443 -39.3726 -39.3726 -39.2257 -39.2257
    15.7942  15.7942  15.8272  15.8272  16.6564  16.6564  17.9711  17.9711
    19.2060  19.2060  25.1102  25.1102  26.7795

     occupation numbers 
     1.0000   1.0000   1.0000   1.0000   1.0000   1.0000   1.0000   1.0000
     1.0000   1.0000   1.0000   1.0000   1.0000   1.0000   1.0000   1.0000
    -0.0000  -0.0000  -0.0000  -0.0000  -0.0000

 ------ SPIN DOWN ----------


          k = 0.0000 0.0000 0.0000 (  2803 PWs)   bands (ev):

   -76.0887 -76.0267 -39.5163 -39.2124 -39.2124 -39.1617 -39.1617 -39.1574
    10.0100  14.2802  17.1682  17.2246  17.2246  17.5653  17.5653  17.9882
    17.9882  18.7797  19.1592  19.1592  25.9629

     occupation numbers 
     1.0000   1.0000   1.0000   1.0000   1.0000   1.0000   1.0000   1.0000
     1.0000   1.0000   1.0000   1.0000   1.0000   1.0000   1.0000   1.0000
     1.0000   1.0000  -0.0000  -0.0000  -0.0000

          k = 0.0000 0.0000 0.1025 (  2797 PWs)   bands (ev):

   -76.0845 -76.0309 -39.4926 -39.2090 -39.2090 -39.1818 -39.1651 -39.1651
    10.2898  14.1465  17.0870  17.1616  17.1616  17.4876  17.4876  17.9895
    18.1566  18.1566  19.1413  19.1413  27.3838

     occupation numbers 
     1.0000   1.0000   1.0000   1.0000   1.0000   1.0000   1.0000   1.0000
     1.0000   1.0000   1.0000   1.0000   1.0000   1.0000   1.0000   1.0000
     1.0000   1.0000  -0.0000  -0.0000  -0.0000

          k = 0.0000 0.0000 0.2049 (  2816 PWs)   bands (ev):

   -76.0732 -76.0422 -39.4276 -39.2481 -39.1998 -39.1998 -39.1744 -39.1744
    11.0950  13.5043  16.8899  16.9775  17.1074  17.1074  17.3161  17.3161
    18.4965  18.4965  19.0464  19.0464  30.4951

     occupation numbers 
     1.0000   1.0000   1.0000   1.0000   1.0000   1.0000   1.0000   1.0000
     1.0000   1.0000   1.0000   1.0000   1.0000   1.0000   1.0000   1.0000
     1.0000   1.0000   0.9172   0.9172  -0.0000

          k = 0.0000 0.0000-0.3074 (  2834 PWs)   bands (ev):

   -76.0577 -76.0577 -39.3382 -39.3382 -39.1871 -39.1871 -39.1871 -39.1871
    12.2916  12.2916  16.7341  16.7341  17.1633  17.1633  17.1633  17.1633
    18.8248  18.8248  18.8248  18.8248  34.2579

     occupation numbers 
     1.0000   1.0000   1.0000   1.0000   1.0000   1.0000   1.0000   1.0000
     1.0000   1.0000   1.0000   1.0000   1.0000   1.0000   1.0000   1.0000
     1.0000   1.0000   1.0000   1.0000  -0.0000

          k = 0.0000 0.0962 0.0000 (  2801 PWs)   bands (ev):

   -76.0851 -76.0250 -39.5084 -39.2301 -39.2181 -39.1800 -39.1647 -39.1605
    10.2568  14.4397  16.9510  17.3475  17.3956  17.5074  17.6745  17.6783
    17.9095  18.0258  19.1923  20.3799  25.9907

     occupation numbers 
     1.0000   1.0000   1.0000   1.0000   1.0000   1.0000   1.0000   1.0000
     1.0000   1.0000   1.0000   1.0000   1.0000   1.0000   1.0000   1.0000
     1.0000   1.0000  -0.0000  -0.0000  -0.0000

          k = 0.0000 0.0962 0.1025 (  2795 PWs)   bands (ev):

   -76.0810 -76.0290 -39.4861 -39.2262 -39.2146 -39.1968 -39.1706 -39.1683
    10.5325  14.3207  16.9500  17.1760  17.2185  17.2685  17.5902  17.6668
    18.1052  18.1359  19.1661  19.8461  27.4805

     occupation numbers 
     1.0000   1.0000   1.0000   1.0000   1.0000   1.0000   1.0000   1.0000
     1.0000   1.0000   1.0000   1.0000   1.0000   1.0000   1.0000   1.0000
     1.0000   1.0000  -0.0000  -0.0000  -0.0000

          k = 0.0000 0.0962 0.2049 (  2799 PWs)   bands (ev):

   -76.0701 -76.0400 -39.4248 -39.2566 -39.2151 -39.2048 -39.1845 -39.1781
    11.3257  13.7008  16.6596  16.8759  17.0127  17.2063  17.3914  17.4171
    18.4663  18.5070  19.0525  19.2906  30.6428

     occupation numbers 
     1.0000   1.0000   1.0000   1.0000   1.0000   1.0000   1.0000   1.0000
     1.0000   1.0000   1.0000   1.0000   1.0000   1.0000   1.0000   1.0000
     1.0000   1.0000   0.6217  -0.0000  -0.0000

          k = 0.0000 0.0962-0.3074 (  2812 PWs)   bands (ev):

   -76.0551 -76.0551 -39.3408 -39.3408 -39.2000 -39.2000 -39.1914 -39.1914
    12.5045  12.5045  16.6159  16.6159  17.1479  17.1479  17.2628  17.2628
    18.8114  18.8114  18.9032  18.9032  34.4255

     occupation numbers 
     1.0000   1.0000   1.0000   1.0000   1.0000   1.0000   1.0000   1.0000
     1.0000   1.0000   1.0000   1.0000   1.0000   1.0000   1.0000   1.0000
     1.0000   1.0000   1.0000   1.0000  -0.0000

          k = 0.0000 0.1925 0.0000 (  2803 PWs)   bands (ev):

   -76.0750 -76.0205 -39.4859 -39.2787 -39.2334 -39.2296 -39.1731 -39.1700
    10.9723  14.8415  16.6390  16.7604  17.2984  17.6956  17.7161  17.7200
    17.8276  17.9810  19.2618  21.9786  26.0939

     occupation numbers 
     1.0000   1.0000   1.0000   1.0000   1.0000   1.0000   1.0000   1.0000
     1.0000   1.0000   1.0000   1.0000   1.0000   1.0000   1.0000   1.0000
     1.0000   1.0000  -0.0000  -0.0000  -0.0000

          k = 0.0000 0.1925 0.1025 (  2796 PWs)   bands (ev):

   -76.0714 -76.0241 -39.4682 -39.2726 -39.2442 -39.2294 -39.1796 -39.1771
    11.2330  14.7696  16.4712  16.6776  17.1838  17.5087  17.5314  17.8563
    18.0682  18.1413  19.2173  21.0118  27.8004

     occupation numbers 
     1.0000   1.0000   1.0000   1.0000   1.0000   1.0000   1.0000   1.0000
     1.0000   1.0000   1.0000   1.0000   1.0000   1.0000   1.0000   1.0000
     1.0000   1.0000  -0.0000  -0.0000  -0.0000

          k = 0.0000 0.1925 0.2049 (  2793 PWs)   bands (ev):

   -76.0614 -76.0341 -39.4198 -39.2902 -39.2533 -39.2184 -39.2022 -39.1882
    11.9811  14.2176  16.1974  16.7561  16.8566  17.3449  17.4507  17.6973
    18.4298  18.5780  19.0645  19.8557  31.0860

     occupation numbers 
     1.0000   1.0000   1.0000   1.0000   1.0000   1.0000   1.0000   1.0000
     1.0000   1.0000   1.0000   1.0000   1.0000   1.0000   1.0000   1.0000
     1.0000   1.0000   0.0294  -0.0000  -0.0000

          k = 0.0000 0.1925-0.3074 (  2798 PWs)   bands (ev):

   -76.0478 -76.0478 -39.3541 -39.3541 -39.2289 -39.2289 -39.2033 -39.2033
    13.0884  13.0884  16.3971  16.3971  17.0605  17.0605  17.5293  17.5293
    18.7898  18.7898  19.1183  19.1183  34.8857

     occupation numbers 
     1.0000   1.0000   1.0000   1.0000   1.0000   1.0000   1.0000   1.0000
     1.0000   1.0000   1.0000   1.0000   1.0000   1.0000   1.0000   1.0000
     1.0000   1.0000  -0.0000  -0.0000  -0.0000

          k = 0.0000 0.2887 0.0000 (  2792 PWs)   bands (ev):

   -76.0609 -76.0148 -39.4522 -39.3455 -39.2961 -39.2537 -39.1859 -39.1851
    12.0668  15.1960  16.0225  16.4060  17.1684  17.4845  17.6153  18.1697
    18.2035  18.4226  19.3262  23.7650  26.3009

     occupation numbers 
     1.0000   1.0000   1.0000   1.0000   1.0000   1.0000   1.0000   1.0000
     1.0000   1.0000   1.0000   1.0000   1.0000   1.0000   1.0000   1.0000
     1.0000   1.0000  -0.0000  -0.0000  -0.0000

          k = 0.0000 0.2887 0.1025 (  2789 PWs)   bands (ev):

   -76.0578 -76.0179 -39.4461 -39.3330 -39.3084 -39.2491 -39.1925 -39.1897
    12.2905  15.1902  15.8669  16.4651  17.0215  17.5218  17.5759  18.2489
    18.3225  18.3812  19.2649  22.2427  28.3877

     occupation numbers 
     1.0000   1.0000   1.0000   1.0000   1.0000   1.0000   1.0000   1.0000
     1.0000   1.0000   1.0000   1.0000   1.0000   1.0000   1.0000   1.0000
     1.0000   1.0000  -0.0000  -0.0000  -0.0000

          k = 0.0000 0.2887 0.2049 (  2788 PWs)   bands (ev):

   -76.0494 -76.0263 -39.4254 -39.3492 -39.2918 -39.2366 -39.2140 -39.2023
    12.9222  14.7422  15.8773  16.5222  16.8440  17.3811  17.6443  18.0953
    18.5496  18.7297  19.0881  20.5409  31.7050

     occupation numbers 
     1.0000   1.0000   1.0000   1.0000   1.0000   1.0000   1.0000   1.0000
     1.0000   1.0000   1.0000   1.0000   1.0000   1.0000   1.0000   1.0000
     1.0000   1.0000  -0.0014  -0.0000  -0.0000

          k = 0.0000 0.2887-0.3074 (  2802 PWs)   bands (ev):

   -76.0378 -76.0378 -39.3905 -39.3905 -39.2499 -39.2499 -39.2195 -39.2195
    13.8283  13.8283  16.2172  16.2172  17.0662  17.0662  17.8507  17.8507
    18.8281  18.8281  19.4163  19.4163  33.9119

     occupation numbers 
     1.0000   1.0000   1.0000   1.0000   1.0000   1.0000   1.0000   1.0000
     1.0000   1.0000   1.0000   1.0000   1.0000   1.0000   1.0000   1.0000
     1.0000   1.0000  -0.0000  -0.0000  -0.0000

          k = 0.0000 0.3849 0.0000 (  2806 PWs)   bands (ev):

   -76.0457 -76.0101 -39.4129 -39.4128 -39.3613 -39.2735 -39.2075 -39.1975
    13.3206  15.1619  15.5014  16.4158  17.2764  17.2855  17.4104  18.7500
    18.8604  18.9026  19.3693  25.7026  26.2870

     occupation numbers 
     1.0000   1.0000   1.0000   1.0000   1.0000   1.0000   1.0000   1.0000
     1.0000   1.0000   1.0000   1.0000   1.0000   1.0000   1.0000   1.0000
     1.0000   1.0000  -0.0000  -0.0000  -0.0000

          k = 0.0000 0.3849 0.1025 (  2796 PWs)   bands (ev):

   -76.0433 -76.0125 -39.4461 -39.3825 -39.3563 -39.2684 -39.2097 -39.2026
    13.4525  15.1526  15.5210  16.3507  17.1759  17.3740  17.6734  18.7659
    18.8117  18.8241  19.3077  23.4013  28.4921

     occupation numbers 
     1.0000   1.0000   1.0000   1.0000   1.0000   1.0000   1.0000   1.0000
     1.0000   1.0000   1.0000   1.0000   1.0000   1.0000   1.0000   1.0000
     1.0000   1.0000  -0.0000  -0.0000  -0.0000

          k = 0.0000 0.3849 0.2049 (  2801 PWs)   bands (ev):

   -76.0368 -76.0190 -39.4561 -39.4118 -39.3036 -39.2546 -39.2232 -39.2166
    13.8152  14.8491  15.7303  16.2993  17.2173  17.6498  17.8562  18.4722
    18.8872  18.9692  19.1735  21.2924  29.6505

     occupation numbers 
     1.0000   1.0000   1.0000   1.0000   1.0000   1.0000   1.0000   1.0000
     1.0000   1.0000   1.0000   1.0000   1.0000   1.0000   1.0000   1.0000
     1.0000   1.0000  -0.0000  -0.0000  -0.0000

          k = 0.0000 0.3849-0.3074 (  2796 PWs)   bands (ev):

   -76.0279 -76.0279 -39.4421 -39.4421 -39.2552 -39.2552 -39.2356 -39.2356
    14.3238  14.3238  16.0678  16.0678  17.5711  17.5711  18.0488  18.0488
    19.0237  19.0237  19.7889  19.7889  30.7470

     occupation numbers 
     1.0000   1.0000   1.0000   1.0000   1.0000   1.0000   1.0000   1.0000
     1.0000   1.0000   1.0000   1.0000   1.0000   1.0000   1.0000   1.0000
     1.0031   1.0031  -0.0000  -0.0000  -0.0000

[...]
    19.3285  19.3533  20.8158  23.6326  28.7894

     occupation numbers 
     1.0000   1.0000   1.0000   1.0000   1.0000   1.0000   1.0000   1.0000
     1.0000   1.0000   1.0000   1.0000   1.0000   1.0000   1.0000  -0.0000
    -0.0000  -0.0000  -0.0000  -0.0000  -0.0000

          k = 0.0833 0.5292 0.1025 (  2806 PWs)   bands (ev):

   -76.0267 -76.0091 -39.4838 -39.4329 -39.3379 -39.2931 -39.2422 -39.2222
    14.4990  14.9637  15.5463  16.1222  17.0795  17.6442  17.8479  19.1064
    19.2740  19.3647  20.7008  23.3181  27.6517

     occupation numbers 
     1.0000   1.0000   1.0000   1.0000   1.0000   1.0000   1.0000   1.0000
     1.0000   1.0000   1.0000   1.0000   1.0000   1.0000   1.0000  -0.0000
    -0.0000  -0.0000  -0.0000  -0.0000  -0.0000

          k = 0.0833 0.5292 0.2049 (  2803 PWs)   bands (ev):

   -76.0230 -76.0128 -39.4972 -39.4655 -39.3038 -39.2687 -39.2529 -39.2237
    14.4253  14.8819  15.7564  16.0760  17.2122  17.9640  18.3667  18.7085
    19.2298  19.4473  20.5890  22.3839  27.0291

     occupation numbers 
     1.0000   1.0000   1.0000   1.0000   1.0000   1.0000   1.0000   1.0000
     1.0000   1.0000   1.0000   1.0000   1.0000   1.0000   1.0000   1.0000
    -0.0000  -0.0000  -0.0000  -0.0000  -0.0000

          k = 0.0833 0.5292-0.3074 (  2794 PWs)   bands (ev):

   -76.0179 -76.0179 -39.4911 -39.4911 -39.2766 -39.2766 -39.2381 -39.2381
    14.5894  14.5894  15.9691  15.9691  17.7826  17.7826  18.4963  18.4963
    19.3094  19.3094  21.2502  21.2502  27.2987

     occupation numbers 
     1.0000   1.0000   1.0000   1.0000   1.0000   1.0000   1.0000   1.0000
     1.0000   1.0000   1.0000   1.0000   1.0000   1.0000   1.0000   1.0000
    -0.0000  -0.0000  -0.0000  -0.0000  -0.0000

          k = 0.1667 0.2887 0.0000 (  2788 PWs)   bands (ev):

   -76.0534 -76.0123 -39.4336 -39.3526 -39.3430 -39.2575 -39.2101 -39.1957
    12.6890  15.4912  15.8296  16.0558  17.1247  17.2163  17.7174  18.0214
    18.5868  18.9601  19.2753  24.6973  26.5637

     occupation numbers 
     1.0000   1.0000   1.0000   1.0000   1.0000   1.0000   1.0000   1.0000
     1.0000   1.0000   1.0000   1.0000   1.0000   1.0000   1.0000   1.0000
     1.0000   1.0000  -0.0000  -0.0000  -0.0000

          k = 0.1667 0.2887 0.1025 (  2789 PWs)   bands (ev):

   -76.0507 -76.0150 -39.4354 -39.3498 -39.3331 -39.2632 -39.2143 -39.1966
    12.8894  15.5523  15.6684  16.1165  17.0582  17.2343  17.6005  18.1172
    18.7122  18.8129  19.3079  22.9045  28.8594

     occupation numbers 
     1.0000   1.0000   1.0000   1.0000   1.0000   1.0000   1.0000   1.0000
     1.0000   1.0000   1.0000   1.0000   1.0000   1.0000   1.0000   1.0000
     1.0000   1.0000  -0.0000  -0.0000  -0.0000

          k = 0.1667 0.2887 0.2049 (  2793 PWs)   bands (ev):

   -76.0432 -76.0226 -39.4284 -39.3735 -39.2935 -39.2655 -39.2246 -39.2075
    13.4488  15.0341  15.8918  16.2798  16.8313  17.0842  17.6239  18.2243
    18.7946  18.9297  19.2972  20.9950  32.1968

     occupation numbers 
     1.0000   1.0000   1.0000   1.0000   1.0000   1.0000   1.0000   1.0000
     1.0000   1.0000   1.0000   1.0000   1.0000   1.0000   1.0000   1.0000
     1.0000   1.0000  -0.0000  -0.0000  -0.0000

          k = 0.1667 0.2887-0.3074 (  2794 PWs)   bands (ev):

   -76.0329 -76.0329 -39.4052 -39.4052 -39.2647 -39.2647 -39.2266 -39.2266
    14.2360  14.2360  16.2444  16.2444  16.7831  16.7831  17.9196  17.9196
    19.0955  19.0955  19.6643  19.6643  34.1142

     occupation numbers 
     1.0000   1.0000   1.0000   1.0000   1.0000   1.0000   1.0000   1.0000
     1.0000   1.0000   1.0000   1.0000   1.0000   1.0000   1.0000   1.0000
    -0.0001  -0.0001  -0.0000  -0.0000  -0.0000

          k = 0.1667 0.3849 0.0000 (  2800 PWs)   bands (ev):

   -76.0397 -76.0088 -39.4043 -39.3962 -39.3804 -39.2884 -39.2330 -39.2176
    13.8815  15.4833  15.5060  15.9608  16.9420  17.3614  17.4980  18.3583
    19.0704  19.2674  19.7416  26.5446  26.8834

     occupation numbers 
     1.0000   1.0000   1.0000   1.0000   1.0000   1.0000   1.0000   1.0000
     1.0000   1.0000   1.0000   1.0000   1.0000   1.0000   1.0000   1.0000
    -0.0350  -0.0000  -0.0000  -0.0000  -0.0000

          k = 0.1667 0.3849 0.1025 (  2799 PWs)   bands (ev):

   -76.0376 -76.0108 -39.4336 -39.3978 -39.3447 -39.2928 -39.2386 -39.2123
    13.9952  15.3856  15.6056  16.0604  16.9520  17.3437  17.4457  18.4005
    19.0269  19.1675  19.8345  24.1272  29.0588

     occupation numbers 
     1.0000   1.0000   1.0000   1.0000   1.0000   1.0000   1.0000   1.0000
     1.0000   1.0000   1.0000   1.0000   1.0000   1.0000   1.0000   1.0000
     1.0072  -0.0000  -0.0000  -0.0000  -0.0000

          k = 0.1667 0.3849 0.2049 (  2799 PWs)   bands (ev):

   -76.0320 -76.0165 -39.4487 -39.4188 -39.3049 -39.2877 -39.2464 -39.2133
    14.3014  15.1111  15.8736  16.2859  16.8433  17.1202  17.6085  18.3765
    18.9056  19.3376  19.9619  21.9899  30.0608

     occupation numbers 
     1.0000   1.0000   1.0000   1.0000   1.0000   1.0000   1.0000   1.0000
     1.0000   1.0000   1.0000   1.0000   1.0000   1.0000   1.0000   1.0000
     1.0000  -0.0000  -0.0000  -0.0000  -0.0000

          k = 0.1667 0.3849-0.3074 (  2794 PWs)   bands (ev):

   -76.0242 -76.0242 -39.4413 -39.4413 -39.2874 -39.2874 -39.2312 -39.2312
    14.7116  14.7116  16.2243  16.2243  16.8718  16.8718  17.9361  17.9361
    19.3278  19.3278  20.4977  20.4977  31.1950

     occupation numbers 
     1.0000   1.0000   1.0000   1.0000   1.0000   1.0000   1.0000   1.0000
     1.0000   1.0000   1.0000   1.0000   1.0000   1.0000   1.0000   1.0000
    -0.0000  -0.0000  -0.0000  -0.0000  -0.0000

          k = 0.1667 0.4811 0.0000 (  2800 PWs)   bands (ev):

   -76.0281 -76.0077 -39.4452 -39.3994 -39.3601 -39.3171 -39.2485 -39.2424
    14.7830  15.2743  15.2858  16.1662  16.8930  17.2530  17.5855  18.8055
    19.2608  19.3107  20.8041  25.2310  28.5371

     occupation numbers 
     1.0000   1.0000   1.0000   1.0000   1.0000   1.0000   1.0000   1.0000
     1.0000   1.0000   1.0000   1.0000   1.0000   1.0000   1.0000   1.0000
    -0.0000  -0.0000  -0.0000  -0.0000  -0.0000

          k = 0.1667 0.4811 0.1025 (  2801 PWs)   bands (ev):

   -76.0268 -76.0091 -39.4577 -39.4176 -39.3424 -39.3072 -39.2588 -39.2290
    14.7059  15.3097  15.4840  16.0872  16.9262  17.3156  17.6589  18.7958
    19.0438  19.3805  20.8676  24.6172  27.4805

     occupation numbers 
     1.0000   1.0000   1.0000   1.0000   1.0000   1.0000   1.0000   1.0000
     1.0000   1.0000   1.0000   1.0000   1.0000   1.0000   1.0000   1.0000
     0.9875  -0.0000  -0.0000  -0.0000  -0.0000

          k = 0.1667 0.4811 0.2049 (  2801 PWs)   bands (ev):

   -76.0230 -76.0128 -39.4724 -39.4466 -39.3263 -39.2889 -39.2579 -39.2204
    14.7076  15.1683  15.7690  16.3162  16.7876  17.3969  17.8819  18.4781
    19.0055  19.4694  21.0965  23.0995  27.5989

     occupation numbers 
     1.0000   1.0000   1.0000   1.0000   1.0000   1.0000   1.0000   1.0000
     1.0000   1.0000   1.0000   1.0000   1.0000   1.0000   1.0000   1.0000
     1.0000  -0.0000  -0.0000  -0.0000  -0.0000

          k = 0.1667 0.4811-0.3074 (  2792 PWs)   bands (ev):

   -76.0179 -76.0179 -39.4688 -39.4688 -39.3062 -39.3062 -39.2311 -39.2311
    14.8838  14.8838  16.1487  16.1487  17.1212  17.1212  18.0998  18.0998
    19.3286  19.3286  21.7790  21.7790  28.4471

     occupation numbers 
     1.0000   1.0000   1.0000   1.0000   1.0000   1.0000   1.0000   1.0000
     1.0000   1.0000   1.0000   1.0000   1.0000   1.0000   1.0000   1.0000
    -0.0000  -0.0000  -0.0000  -0.0000  -0.0000

          k = 0.1667 0.5774 0.0000 (  2798 PWs)   bands (ev):

   -76.0230 -76.0082 -39.4600 -39.4053 -39.3419 -39.3291 -39.2565 -39.2541
    15.0702  15.1706  15.2051  16.3451  16.9268  17.1117  17.6834  19.1137
    19.2580  19.2847  21.9068  23.5046  29.9264

     occupation numbers 
     1.0000   1.0000   1.0000   1.0000   1.0000   1.0000   1.0000   1.0000
     1.0000   1.0000   1.0000   1.0000   1.0000   1.0000   1.0000  -0.0000
    -0.0000  -0.0000  -0.0000  -0.0000  -0.0000

          k = 0.1667 0.5774 0.1025 (  2801 PWs)   bands (ev):

   -76.0220 -76.0092 -39.4701 -39.4225 -39.3471 -39.2993 -39.2705 -39.2372
    14.8185  15.2375  15.6710  16.0179  16.8601  17.4071  17.7666  19.0155
    19.1119  19.3433  21.9682  23.4231  28.6959

     occupation numbers 
     1.0000   1.0000   1.0000   1.0000   1.0000   1.0000   1.0000   1.0000
     1.0000   1.0000   1.0000   1.0000   1.0000   1.0000   1.0000   1.0002
    -0.0000  -0.0000  -0.0000  -0.0000  -0.0000

          k = 0.1667 0.5774 0.2049 (  2802 PWs)   bands (ev):

   -76.0193 -76.0119 -39.4829 -39.4553 -39.3354 -39.2898 -39.2586 -39.2243
    14.7516  15.2036  15.8231  16.2592  16.6986  17.5975  18.0277  18.5481
    19.1363  19.3903  22.1841  23.1370  27.5138

     occupation numbers 
     1.0000   1.0000   1.0000   1.0000   1.0000   1.0000   1.0000   1.0000
     1.0000   1.0000   1.0000   1.0000   1.0000   1.0000   1.0000   1.0000
    -0.0000  -0.0000  -0.0000  -0.0000  -0.0000

          k = 0.1667 0.5774-0.3074 (  2790 PWs)   bands (ev):

   -76.0156 -76.0156 -39.4790 -39.4790 -39.3134 -39.3134 -39.2307 -39.2307
    14.9128  14.9128  16.1183  16.1183  17.1789  17.1789  18.2911  18.2911
    19.2642  19.2642  22.6390  22.6390  27.0858

     occupation numbers 
     1.0000   1.0000   1.0000   1.0000   1.0000   1.0000   1.0000   1.0000
     1.0000   1.0000   1.0000   1.0000   1.0000   1.0000   1.0000   1.0000
    -0.0000  -0.0000  -0.0000  -0.0000  -0.0000

          k = 0.2500 0.4330 0.0000 (  2814 PWs)   bands (ev):

   -76.0282 -76.0077 -39.4228 -39.3998 -39.3604 -39.3191 -39.2690 -39.2422
    14.8683  15.3478  15.6832  15.6952  16.8073  17.2788  17.5900  18.5584
    19.2133  19.3145  20.8342  26.9137  27.7422

     occupation numbers 
     1.0000   1.0000   1.0000   1.0000   1.0000   1.0000   1.0000   1.0000
     1.0000   1.0000   1.0000   1.0000   1.0000   1.0000   1.0000   1.0000
    -0.0000  -0.0000  -0.0000  -0.0000  -0.0000

          k = 0.2500 0.4330 0.1025 (  2811 PWs)   bands (ev):

   -76.0268 -76.0090 -39.4283 -39.4264 -39.3302 -39.3267 -39.2711 -39.2304
    14.9030  15.2837  15.7302  15.8839  16.9047  17.1124  17.5914  18.6017
    18.9860  19.3886  20.9469  25.3785  28.0273

     occupation numbers 
     1.0000   1.0000   1.0000   1.0000   1.0000   1.0000   1.0000   1.0000
     1.0000   1.0000   1.0000   1.0000   1.0000   1.0000   1.0000   1.0000
     1.0000  -0.0000  -0.0000  -0.0000  -0.0000

          k = 0.2500 0.4330 0.2049 (  2801 PWs)   bands (ev):

   -76.0230 -76.0128 -39.4524 -39.4403 -39.3351 -39.3084 -39.2569 -39.2197
    14.9864  15.1952  15.9287  16.2662  16.7484  16.9554  17.6519  18.3821
    18.9700  19.4778  21.2537  23.4054  28.8084

     occupation numbers 
     1.0000   1.0000   1.0000   1.0000   1.0000   1.0000   1.0000   1.0000
     1.0000   1.0000   1.0000   1.0000   1.0000   1.0000   1.0000   1.0000
     1.0000  -0.0000  -0.0000  -0.0000  -0.0000

          k = 0.2500 0.4330-0.3074 (  2786 PWs)   bands (ev):

   -76.0179 -76.0179 -39.4547 -39.4547 -39.3225 -39.3225 -39.2291 -39.2291
    15.0932  15.0932  16.2731  16.2731  16.7321  16.7321  17.9097  17.9097
    19.3512  19.3512  21.9759  21.9759  29.8280

     occupation numbers 
     1.0000   1.0000   1.0000   1.0000   1.0000   1.0000   1.0000   1.0000
     1.0000   1.0000   1.0000   1.0000   1.0000   1.0000   1.0000   1.0000
    -0.0000  -0.0000  -0.0000  -0.0000  -0.0000

          k = 0.2500 0.5292 0.0000 (  2824 PWs)   bands (ev):

   -76.0196 -76.0090 -39.4368 -39.3902 -39.3520 -39.3284 -39.2921 -39.2676
    15.2915  15.3474  15.5248  15.9376  16.8189  17.0499  17.7760  18.8602
    19.1815  19.2482  22.3400  24.8177  27.0722

     occupation numbers 
     1.0000   1.0000   1.0000   1.0000   1.0000   1.0000   1.0000   1.0000
     1.0000   1.0000   1.0000   1.0000   1.0000   1.0000   1.0000   1.0000
    -0.0000  -0.0000  -0.0000  -0.0000  -0.0000

          k = 0.2500 0.5292 0.1025 (  2807 PWs)   bands (ev):

   -76.0188 -76.0097 -39.4415 -39.4111 -39.3677 -39.3089 -39.2887 -39.2488
    15.1779  15.5503  15.6249  15.9059  16.8202  17.0031  17.7869  18.8761
    18.9545  19.3003  22.5160  24.8076  27.1085

     occupation numbers 
     1.0000   1.0000   1.0000   1.0000   1.0000   1.0000   1.0000   1.0000
     1.0000   1.0000   1.0000   1.0000   1.0000   1.0000   1.0000   1.0000
     1.0000  -0.0000  -0.0000  -0.0000  -0.0000

          k = 0.2500 0.5292 0.2049 (  2801 PWs)   bands (ev):

   -76.0169 -76.0116 -39.4552 -39.4397 -39.3680 -39.3249 -39.2509 -39.2277
    15.1867  15.5221  15.8495  16.1809  16.6231  16.9573  17.8475  18.4096
    19.0528  19.3510  22.9611  24.4538  27.0992

     occupation numbers 
     1.0000   1.0000   1.0000   1.0000   1.0000   1.0000   1.0000   1.0000
     1.0000   1.0000   1.0000   1.0000   1.0000   1.0000   1.0000   1.0000
     0.6073  -0.0000  -0.0000  -0.0000  -0.0000

          k = 0.2500 0.5292-0.3074 (  2802 PWs)   bands (ev):

   -76.0143 -76.0143 -39.4574 -39.4574 -39.3485 -39.3485 -39.2272 -39.2272
    15.3218  15.3218  16.1924  16.1924  16.7092  16.7092  18.0168  18.0168
    19.2559  19.2559  23.6507  23.6507  27.6493

     occupation numbers 
     1.0000   1.0000   1.0000   1.0000   1.0000   1.0000   1.0000   1.0000
     1.0000   1.0000   1.0000   1.0000   1.0000   1.0000   1.0000   1.0000
    -0.0000  -0.0000  -0.0000  -0.0000  -0.0000

          k = 0.3333 0.5774 0.0000 (  2826 PWs)   bands (ev):

   -76.0129 -76.0129 -39.4258 -39.3740 -39.3740 -39.3195 -39.2968 -39.2968
    15.3131  15.5982  15.5982  15.8369  16.8764  16.8764  17.8796  19.0230
    19.0230  19.1500  23.9585  24.8260  24.8260

     occupation numbers 
     1.0000   1.0000   1.0000   1.0000   1.0000   1.0000   1.0000   1.0000
     1.0000   1.0000   1.0000   1.0000   1.0000   1.0000   1.0000   1.0025
     1.0025  -0.0000  -0.0000  -0.0000  -0.0000

          k = 0.3333 0.5774 0.1025 (  2814 PWs)   bands (ev):

   -76.0129 -76.0129 -39.4187 -39.3994 -39.3994 -39.3266 -39.2713 -39.2713
    15.4014  15.6430  15.6430  15.8611  16.8224  16.8224  17.8549  18.8944
    19.0716  19.0716  24.3682  24.8825  24.8825

     occupation numbers 
     1.0000   1.0000   1.0000   1.0000   1.0000   1.0000   1.0000   1.0000
     1.0000   1.0000   1.0000   1.0000   1.0000   1.0000   1.0000   1.0000
    -0.0353  -0.0353  -0.0000  -0.0000  -0.0000

          k = 0.3333 0.5774 0.2049 (  2802 PWs)   bands (ev):

   -76.0129 -76.0129 -39.4318 -39.4318 -39.3993 -39.3462 -39.2386 -39.2386
    15.6196  15.7403  15.7403  15.8930  16.7133  16.7133  17.8349  18.3759
    19.1629  19.1629  25.0219  25.0219  25.3944

     occupation numbers 
     1.0000   1.0000   1.0000   1.0000   1.0000   1.0000   1.0000   1.0000
     1.0000   1.0000   1.0000   1.0000   1.0000   1.0000   1.0000   1.0000
    -0.0000  -0.0000  -0.0000  -0.0000  -0.0000

          k = 0.3333 0.5774-0.3074 (  2772 PWs)   bands (ev):

   -76.0129 -76.0129 -39.4444 -39.4444 -39.3728 -39.3728 -39.2258 -39.2258
    15.7942  15.7942  15.8271  15.8271  16.6563  16.6563  17.9710  17.9710
    19.2060  19.2060  25.1103  25.1103  26.7795

     occupation numbers 
     1.0000   1.0000   1.0000   1.0000   1.0000   1.0000   1.0000   1.0000
     1.0000   1.0000   1.0000   1.0000   1.0000   1.0000   1.0000   1.0000
    -0.0000  -0.0000  -0.0000  -0.0000  -0.0000

     the Fermi energy is    19.0545 ev

!    total energy              =    -753.42237422 Ry
     total all-electron energy =     -5573.779065 Ry
     estimated scf accuracy    <       0.00000005 Ry
     smearing contrib. (-TS)   =      -0.00000648 Ry
     internal energy E=F+TS    =    -753.42236775 Ry

     The total energy is F=E-TS. E is the sum of the following terms:
     one-electron contribution =    -278.70600660 Ry
     hartree contribution      =     163.35940382 Ry
     xc contribution           =     -61.25621228 Ry
     ewald contribution        =    -401.63724122 Ry
     one-center paw contrib.   =    -175.18231146 Ry
      -> PAW hartree energy AE =     222.05072315 Ry
      -> PAW hartree energy PS =    -220.99285769 Ry
      -> PAW xc energy AE      =    -117.60033727 Ry
      -> PAW xc energy PS      =      28.95131607 Ry
      -> total E_H with PAW    =     164.41726928 Ry
      -> total E_XC with PAW   =    -149.90523347 Ry

     total magnetization       =    -0.00 Bohr mag/cell
     absolute magnetization    =     0.00 Bohr mag/cell

     convergence has been achieved in   5 iterations

     Writing all to output data dir ./out/Co.save/

     init_run     :      1.00s CPU      1.18s WALL (       1 calls)
     electrons    :     26.49s CPU     27.23s WALL (       1 calls)

     Called by init_run:
     wfcinit      :      0.43s CPU      0.50s WALL (       1 calls)
     potinit      :      0.31s CPU      0.39s WALL (       1 calls)
     hinit0       :      0.21s CPU      0.22s WALL (       1 calls)

     Called by electrons:
     c_bands      :     21.14s CPU     21.53s WALL (       6 calls)
     sum_band     :      3.69s CPU      3.78s WALL (       6 calls)
     v_of_rho     :      0.08s CPU      0.08s WALL (       6 calls)
     v_h          :      0.00s CPU      0.00s WALL (       6 calls)
     v_xc         :      0.07s CPU      0.08s WALL (       6 calls)
     newd         :      0.15s CPU      0.17s WALL (       6 calls)
     PAW_pot      :      1.73s CPU      2.05s WALL (       6 calls)
     mix_rho      :      0.01s CPU      0.01s WALL (       6 calls)

     Called by c_bands:
     init_us_2    :      0.34s CPU      0.35s WALL (    1824 calls)
     init_us_2:cp :      0.34s CPU      0.34s WALL (    1824 calls)
     cegterg      :     20.16s CPU     20.55s WALL (     912 calls)

     Called by sum_band:
     sum_band:wei :      0.03s CPU      0.03s WALL (       6 calls)
     sum_band:loo :      3.43s CPU      3.51s WALL (       6 calls)
     sum_band:buf :      0.05s CPU      0.05s WALL (     912 calls)
     sum_band:ini :      0.15s CPU      0.15s WALL (     912 calls)
     sum_band:cal :      0.73s CPU      0.75s WALL (     912 calls)
     sum_band:bec :      0.04s CPU      0.04s WALL (     912 calls)
     addusdens    :      0.22s CPU      0.23s WALL (       6 calls)
                                        0.00s GPU  (       6 calls)
     addusd:skk   :      0.00s CPU      0.00s WALL (       6 calls)
                                        0.00s GPU  (       6 calls)

     Called by *egterg:
     cdiaghg      :      1.49s CPU      1.51s WALL (    1545 calls)
     cegterg:over :      1.87s CPU      1.91s WALL (     937 calls)
     cegterg:upda :      0.79s CPU      0.80s WALL (     937 calls)
     cegterg:last :      0.81s CPU      0.82s WALL (     923 calls)
     h_psi        :     12.37s CPU     12.64s WALL (    1849 calls)
     s_psi        :      1.38s CPU      1.41s WALL (    1849 calls)
     g_psi        :      0.12s CPU      0.12s WALL (     937 calls)

     Called by h_psi:
     h_psi:calbec :      1.56s CPU      1.61s WALL (    1849 calls)
     vloc_psi     :      9.33s CPU      9.51s WALL (    1849 calls)
     add_vuspsi   :      1.38s CPU      1.41s WALL (    1849 calls)

     General routines
     calbec       :      2.28s CPU      2.35s WALL (    2761 calls)
     fft          :      0.14s CPU      0.15s WALL (     146 calls)
     ffts         :      0.00s CPU      0.00s WALL (      24 calls)
     fftw         :      9.18s CPU      9.39s WALL (   95810 calls)
     interpolate  :      0.01s CPU      0.01s WALL (      12 calls)

     Parallel routines

     PAW routines
     PAW_pot      :      1.73s CPU      2.05s WALL (       6 calls)
     PAW_symme    :      0.01s CPU      0.01s WALL (      11 calls)

     PWSCF        :     27.99s CPU     29.28s WALL


   This run was terminated on:  17:20: 1  13Mar2024            

=------------------------------------------------------------------------------=
   JOB DONE.
=------------------------------------------------------------------------------=
