### Running on host: unam-asus

     Program PWSCF v.7.2 starts on 13Mar2024 at 17:17:51 

     This program is part of the open-source Quantum ESPRESSO suite
     for quantum simulation of materials; please cite
         "P. Giannozzi et al., J. Phys.:Condens. Matter 21 395502 (2009);
         "P. Giannozzi et al., J. Phys.:Condens. Matter 29 465901 (2017);
         "P. Giannozzi et al., J. Chem. Phys. 152 154105 (2020);
          URL http://www.quantum-espresso.org", 
     in publications or presentations arising from this work. More details at
     http://www.quantum-espresso.org/quote

     Parallel version (MPI), running on    10 processors

     MPI processes distributed on     1 nodes
     699 MiB available memory on the printing compute node when the environment starts

     Reading input from scf.gauss.degauss-0.001.in

     Current dimensions of program PWSCF are:
     Max number of different atomic species (ntypx) = 10
     Max number of k-points (npk) =  40000
     Max angular momentum in pseudopotentials (lmaxx) =  4
     file Co.pbe-spn-kjpaw_psl.0.3.1.UPF: wavefunction(s)  3P 3D renormalized
     Message from routine setup:
     using ibrav=0 with symmetry is DISCOURAGED, use correct ibrav instead

     R & G space division:  proc/nbgrp/npool/nimage =      10
     Subspace diagonalization in iterative solution of the eigenvalue problem:
     a serial algorithm will be used


     Parallelization info
     --------------------
     sticks:   dense  smooth     PW     G-vecs:    dense   smooth      PW
     Min          66      66     19                 2317     2244     363
     Max          68      67     20                 2324     2246     370
     Sum         673     661    199                23199    22443    3693

     Using Slab Decomposition



     bravais-lattice index     =            0
     lattice parameter (alat)  =       4.6714  a.u.
     unit-cell volume          =     143.6064 (a.u.)^3
     number of atoms/cell      =            2
     number of atomic types    =            1
     number of electrons       =        34.00
     number of Kohn-Sham states=           21
     kinetic-energy cutoff     =     110.0000  Ry
     charge density cutoff     =     450.0000  Ry
     scf convergence threshold =      8.0E-08
     mixing beta               =       0.4000
     number of iterations used =            8  plain     mixing
     Exchange-correlation= SLA  PW   PBX  PBC
                           (   1   4   3   4   0   0   0)

     celldm(1)=   4.671403  celldm(2)=   0.000000  celldm(3)=   0.000000
     celldm(4)=   0.000000  celldm(5)=   0.000000  celldm(6)=   0.000000

     crystal axes: (cart. coord. in units of alat)
               a(1) = (   1.000000   0.000000   0.000000 )  
               a(2) = (  -0.500000   0.866025   0.000000 )  
               a(3) = (   0.000000   0.000000   1.626676 )  

     reciprocal axes: (cart. coord. in units 2 pi/alat)
               b(1) = (  1.000000  0.577350 -0.000000 )  
               b(2) = (  0.000000  1.154701  0.000000 )  
               b(3) = (  0.000000 -0.000000  0.614750 )  


     PseudoPot. # 1 for Co read from file:
     /home/abdul/git_repo/ZnS/pseudo/QE/Co.pbe-spn-kjpaw_psl.0.3.1.UPF
     MD5 check sum: b0a1ad65bf214e88c1f3d33b20c7d919
     Pseudo is Projector augmented-wave + core cor, Zval = 17.0
     Generated using &quot;atomic&quot; code by A. Dal Corso  v.6.2.2
     Shape of augmentation charge: PSQ
     Using radial grid of 1193 points,  6 beta functions with: 
                l(1) =   0
                l(2) =   0
                l(3) =   1
                l(4) =   1
                l(5) =   2
                l(6) =   2
     Q(r) pseudized with 0 coefficients 


     atomic species   valence    mass     pseudopotential
        Co            17.00    58.93300     Co( 1.00)

     Starting magnetic structure 
     atomic species   magnetization
        Co           0.294

     24 Sym. Ops., with inversion, found (12 have fractional translation)


                                    s                        frac. trans.

      isym =  1     identity                                     

 cryst.   s( 1) = (     1          0          0      )
                  (     0          1          0      )
                  (     0          0          1      )

 cart.    s( 1) = (  1.0000000  0.0000000  0.0000000 )
                  (  0.0000000  1.0000000  0.0000000 )
                  (  0.0000000  0.0000000  1.0000000 )


      isym =  2     180 deg rotation - cart. axis [0,0,1]        

 cryst.   s( 2) = (    -1          0          0      )    f =(  0.0000000 )
                  (     0         -1          0      )       (  0.0000000 )
                  (     0          0          1      )       ( -0.5000000 )

 cart.    s( 2) = ( -1.0000000  0.0000000  0.0000000 )    f =(  0.0000000 )
                  (  0.0000000 -1.0000000  0.0000000 )       (  0.0000000 )
                  (  0.0000000  0.0000000  1.0000000 )       ( -0.8133382 )


      isym =  3     180 deg rotation - cart. axis [0,1,0]        

 cryst.   s( 3) = (    -1          0          0      )    f =(  0.0000000 )
                  (     1          1          0      )       (  0.0000000 )
                  (     0          0         -1      )       (  0.5000000 )

 cart.    s( 3) = ( -1.0000000  0.0000000  0.0000000 )    f =(  0.0000000 )
                  (  0.0000000  1.0000000  0.0000000 )       (  0.0000000 )
                  (  0.0000000  0.0000000 -1.0000000 )       (  0.8133382 )


      isym =  4     180 deg rotation - cart. axis [1,0,0]        

 cryst.   s( 4) = (     1          0          0      )
                  (    -1         -1          0      )
                  (     0          0         -1      )

 cart.    s( 4) = (  1.0000000  0.0000000  0.0000000 )
                  (  0.0000000 -1.0000000  0.0000000 )
                  (  0.0000000  0.0000000 -1.0000000 )


      isym =  5      60 deg rotation - cryst. axis [0,0,1]       

 cryst.   s( 5) = (     1          1          0      )    f =(  0.0000000 )
                  (    -1          0          0      )       ( -0.0000000 )
                  (     0          0          1      )       ( -0.5000000 )

 cart.    s( 5) = (  0.5000000 -0.8660254  0.0000000 )    f =(  0.0000000 )
                  (  0.8660254  0.5000000  0.0000000 )       ( -0.0000000 )
                  (  0.0000000  0.0000000  1.0000000 )       ( -0.8133382 )


      isym =  6      60 deg rotation - cryst. axis [0,0,-1]      

 cryst.   s( 6) = (     0         -1          0      )    f =(  0.0000000 )
                  (     1          1          0      )       ( -0.0000000 )
                  (     0          0          1      )       ( -0.5000000 )

 cart.    s( 6) = (  0.5000000  0.8660254  0.0000000 )    f =(  0.0000000 )
                  ( -0.8660254  0.5000000  0.0000000 )       ( -0.0000000 )
                  (  0.0000000  0.0000000  1.0000000 )       ( -0.8133382 )


      isym =  7     120 deg rotation - cryst. axis [0,0,1]       

 cryst.   s( 7) = (     0          1          0      )
                  (    -1         -1          0      )
                  (     0          0          1      )

 cart.    s( 7) = ( -0.5000000 -0.8660254  0.0000000 )
                  (  0.8660254 -0.5000000  0.0000000 )
                  (  0.0000000  0.0000000  1.0000000 )


      isym =  8     120 deg rotation - cryst. axis [0,0,-1]      

 cryst.   s( 8) = (    -1         -1          0      )
                  (     1          0          0      )
                  (     0          0          1      )

 cart.    s( 8) = ( -0.5000000  0.8660254  0.0000000 )
                  ( -0.8660254 -0.5000000  0.0000000 )
                  (  0.0000000  0.0000000  1.0000000 )


      isym =  9     180 deg rotation - cryst. axis [1,-1,0]      

 cryst.   s( 9) = (     0         -1          0      )    f =(  0.0000000 )
                  (    -1          0          0      )       (  0.0000000 )
                  (     0          0         -1      )       (  0.5000000 )

 cart.    s( 9) = (  0.5000000 -0.8660254  0.0000000 )    f =(  0.0000000 )
                  ( -0.8660254 -0.5000000  0.0000000 )       (  0.0000000 )
                  (  0.0000000  0.0000000 -1.0000000 )       (  0.8133382 )


      isym = 10     180 deg rotation - cryst. axis [2,1,0]       

 cryst.   s(10) = (     1          1          0      )    f =(  0.0000000 )
                  (     0         -1          0      )       ( -0.0000000 )
                  (     0          0         -1      )       (  0.5000000 )

 cart.    s(10) = (  0.5000000  0.8660254  0.0000000 )    f =(  0.0000000 )
                  (  0.8660254 -0.5000000  0.0000000 )       ( -0.0000000 )
                  (  0.0000000  0.0000000 -1.0000000 )       (  0.8133382 )


      isym = 11     180 deg rotation - cryst. axis [0,1,0]       

 cryst.   s(11) = (    -1         -1          0      )
                  (     0          1          0      )
                  (     0          0         -1      )

 cart.    s(11) = ( -0.5000000 -0.8660254  0.0000000 )
                  ( -0.8660254  0.5000000  0.0000000 )
                  (  0.0000000  0.0000000 -1.0000000 )


      isym = 12     180 deg rotation - cryst. axis [1,1,0]       

 cryst.   s(12) = (     0          1          0      )
                  (     1          0          0      )
                  (     0          0         -1      )

 cart.    s(12) = ( -0.5000000  0.8660254  0.0000000 )
                  (  0.8660254  0.5000000  0.0000000 )
                  (  0.0000000  0.0000000 -1.0000000 )


      isym = 13     inversion                                    

 cryst.   s(13) = (    -1          0          0      )
                  (     0         -1          0      )
                  (     0          0         -1      )

 cart.    s(13) = ( -1.0000000  0.0000000  0.0000000 )
                  (  0.0000000 -1.0000000  0.0000000 )
                  (  0.0000000  0.0000000 -1.0000000 )


      isym = 14     inv. 180 deg rotation - cart. axis [0,0,1]   

 cryst.   s(14) = (     1          0          0      )    f =(  0.0000000 )
                  (     0          1          0      )       (  0.0000000 )
                  (     0          0         -1      )       (  0.5000000 )

 cart.    s(14) = (  1.0000000  0.0000000  0.0000000 )    f =(  0.0000000 )
                  (  0.0000000  1.0000000  0.0000000 )       (  0.0000000 )
                  (  0.0000000  0.0000000 -1.0000000 )       (  0.8133382 )


      isym = 15     inv. 180 deg rotation - cart. axis [0,1,0]   

 cryst.   s(15) = (     1          0          0      )    f =(  0.0000000 )
                  (    -1         -1          0      )       (  0.0000000 )
                  (     0          0          1      )       ( -0.5000000 )

 cart.    s(15) = (  1.0000000  0.0000000  0.0000000 )    f =(  0.0000000 )
                  (  0.0000000 -1.0000000  0.0000000 )       (  0.0000000 )
                  (  0.0000000  0.0000000  1.0000000 )       ( -0.8133382 )


      isym = 16     inv. 180 deg rotation - cart. axis [1,0,0]   

 cryst.   s(16) = (    -1          0          0      )
                  (     1          1          0      )
                  (     0          0          1      )

 cart.    s(16) = ( -1.0000000  0.0000000  0.0000000 )
                  (  0.0000000  1.0000000  0.0000000 )
                  (  0.0000000  0.0000000  1.0000000 )


      isym = 17     inv.  60 deg rotation - cryst. axis [0,0,1]  

 cryst.   s(17) = (    -1         -1          0      )    f =(  0.0000000 )
                  (     1          0          0      )       (  0.0000000 )
                  (     0          0         -1      )       (  0.5000000 )

 cart.    s(17) = ( -0.5000000  0.8660254  0.0000000 )    f =(  0.0000000 )
                  ( -0.8660254 -0.5000000  0.0000000 )       (  0.0000000 )
                  (  0.0000000  0.0000000 -1.0000000 )       (  0.8133382 )


      isym = 18     inv.  60 deg rotation - cryst. axis [0,0,-1] 

 cryst.   s(18) = (     0          1          0      )    f =(  0.0000000 )
                  (    -1         -1          0      )       ( -0.0000000 )
                  (     0          0         -1      )       (  0.5000000 )

 cart.    s(18) = ( -0.5000000 -0.8660254  0.0000000 )    f =(  0.0000000 )
                  (  0.8660254 -0.5000000  0.0000000 )       ( -0.0000000 )
                  (  0.0000000  0.0000000 -1.0000000 )       (  0.8133382 )


      isym = 19     inv. 120 deg rotation - cryst. axis [0,0,1]  

 cryst.   s(19) = (     0         -1          0      )
                  (     1          1          0      )
                  (     0          0         -1      )

 cart.    s(19) = (  0.5000000  0.8660254  0.0000000 )
                  ( -0.8660254  0.5000000  0.0000000 )
                  (  0.0000000  0.0000000 -1.0000000 )


      isym = 20     inv. 120 deg rotation - cryst. axis [0,0,-1] 

 cryst.   s(20) = (     1          1          0      )
                  (    -1          0          0      )
                  (     0          0         -1      )

 cart.    s(20) = (  0.5000000 -0.8660254  0.0000000 )
                  (  0.8660254  0.5000000  0.0000000 )
                  (  0.0000000  0.0000000 -1.0000000 )


      isym = 21     inv. 180 deg rotation - cryst. axis [1,-1,0] 

 cryst.   s(21) = (     0          1          0      )    f =(  0.0000000 )
                  (     1          0          0      )       ( -0.0000000 )
                  (     0          0          1      )       ( -0.5000000 )

 cart.    s(21) = ( -0.5000000  0.8660254  0.0000000 )    f =(  0.0000000 )
                  (  0.8660254  0.5000000  0.0000000 )       ( -0.0000000 )
                  (  0.0000000  0.0000000  1.0000000 )       ( -0.8133382 )


      isym = 22     inv. 180 deg rotation - cryst. axis [2,1,0]  

 cryst.   s(22) = (    -1         -1          0      )    f =(  0.0000000 )
                  (     0          1          0      )       ( -0.0000000 )
                  (     0          0          1      )       ( -0.5000000 )

 cart.    s(22) = ( -0.5000000 -0.8660254  0.0000000 )    f =(  0.0000000 )
                  ( -0.8660254  0.5000000  0.0000000 )       ( -0.0000000 )
                  (  0.0000000  0.0000000  1.0000000 )       ( -0.8133382 )


      isym = 23     inv. 180 deg rotation - cryst. axis [0,1,0]  

 cryst.   s(23) = (     1          1          0      )
                  (     0         -1          0      )
                  (     0          0          1      )

 cart.    s(23) = (  0.5000000  0.8660254  0.0000000 )
                  (  0.8660254 -0.5000000  0.0000000 )
                  (  0.0000000  0.0000000  1.0000000 )


      isym = 24     inv. 180 deg rotation - cryst. axis [1,1,0]  

 cryst.   s(24) = (     0         -1          0      )
                  (    -1          0          0      )
                  (     0          0          1      )

 cart.    s(24) = (  0.5000000 -0.8660254  0.0000000 )
                  ( -0.8660254 -0.5000000  0.0000000 )
                  (  0.0000000  0.0000000  1.0000000 )


   Cartesian axes

     site n.     atom                  positions (alat units)
         1           Co  tau(   1) = (  -0.0000000   0.5773503   0.4066691  )
         2           Co  tau(   2) = (   0.5000000   0.2886751   1.2200074  )

   Crystallographic axes

     site n.     atom                  positions (cryst. coord.)
         1           Co  tau(   1) = (  0.3333333  0.6666667  0.2500000  )
         2           Co  tau(   2) = (  0.6666667  0.3333333  0.7500000  )

     number of k points=    76  Gaussian smearing, width (Ry)=  0.0010
                       cart. coord. in units 2pi/alat
        k(    1) = (   0.0000000   0.0000000   0.0000000), wk =   0.0011574
        k(    2) = (   0.0000000   0.0000000   0.1024584), wk =   0.0023148
        k(    3) = (   0.0000000   0.0000000   0.2049168), wk =   0.0023148
        k(    4) = (   0.0000000   0.0000000  -0.3073752), wk =   0.0011574
        k(    5) = (   0.0000000   0.0962250   0.0000000), wk =   0.0069444
        k(    6) = (   0.0000000   0.0962250   0.1024584), wk =   0.0138889
        k(    7) = (   0.0000000   0.0962250   0.2049168), wk =   0.0138889
        k(    8) = (   0.0000000   0.0962250  -0.3073752), wk =   0.0069444
        k(    9) = (   0.0000000   0.1924501   0.0000000), wk =   0.0069444
        k(   10) = (   0.0000000   0.1924501   0.1024584), wk =   0.0138889
        k(   11) = (   0.0000000   0.1924501   0.2049168), wk =   0.0138889
        k(   12) = (   0.0000000   0.1924501  -0.3073752), wk =   0.0069444
        k(   13) = (   0.0000000   0.2886751   0.0000000), wk =   0.0069444
        k(   14) = (   0.0000000   0.2886751   0.1024584), wk =   0.0138889
        k(   15) = (   0.0000000   0.2886751   0.2049168), wk =   0.0138889
        k(   16) = (   0.0000000   0.2886751  -0.3073752), wk =   0.0069444
        k(   17) = (   0.0000000   0.3849002   0.0000000), wk =   0.0069444
        k(   18) = (   0.0000000   0.3849002   0.1024584), wk =   0.0138889
        k(   19) = (   0.0000000   0.3849002   0.2049168), wk =   0.0138889
        k(   20) = (   0.0000000   0.3849002  -0.3073752), wk =   0.0069444
        k(   21) = (   0.0000000   0.4811252   0.0000000), wk =   0.0069444
        k(   22) = (   0.0000000   0.4811252   0.1024584), wk =   0.0138889
        k(   23) = (   0.0000000   0.4811252   0.2049168), wk =   0.0138889
        k(   24) = (   0.0000000   0.4811252  -0.3073752), wk =   0.0069444
        k(   25) = (   0.0000000  -0.5773503   0.0000000), wk =   0.0034722
        k(   26) = (   0.0000000  -0.5773503   0.1024584), wk =   0.0069444
        k(   27) = (   0.0000000  -0.5773503   0.2049168), wk =   0.0069444
        k(   28) = (   0.0000000  -0.5773503  -0.3073752), wk =   0.0034722
        k(   29) = (   0.0833333   0.1443376   0.0000000), wk =   0.0069444
        k(   30) = (   0.0833333   0.1443376   0.1024584), wk =   0.0138889
        k(   31) = (   0.0833333   0.1443376   0.2049168), wk =   0.0138889
        k(   32) = (   0.0833333   0.1443376  -0.3073752), wk =   0.0069444
        k(   33) = (   0.0833333   0.2405626   0.0000000), wk =   0.0138889
        k(   34) = (   0.0833333   0.2405626   0.1024584), wk =   0.0277778
        k(   35) = (   0.0833333   0.2405626   0.2049168), wk =   0.0277778
        k(   36) = (   0.0833333   0.2405626  -0.3073752), wk =   0.0138889
        k(   37) = (   0.0833333   0.3367877   0.0000000), wk =   0.0138889
        k(   38) = (   0.0833333   0.3367877   0.1024584), wk =   0.0277778
        k(   39) = (   0.0833333   0.3367877   0.2049168), wk =   0.0277778
        k(   40) = (   0.0833333   0.3367877  -0.3073752), wk =   0.0138889
        k(   41) = (   0.0833333   0.4330127   0.0000000), wk =   0.0138889
        k(   42) = (   0.0833333   0.4330127   0.1024584), wk =   0.0277778
        k(   43) = (   0.0833333   0.4330127   0.2049168), wk =   0.0277778
        k(   44) = (   0.0833333   0.4330127  -0.3073752), wk =   0.0138889
        k(   45) = (   0.0833333   0.5292377   0.0000000), wk =   0.0138889
        k(   46) = (   0.0833333   0.5292377   0.1024584), wk =   0.0277778
        k(   47) = (   0.0833333   0.5292377   0.2049168), wk =   0.0277778
        k(   48) = (   0.0833333   0.5292377  -0.3073752), wk =   0.0138889
        k(   49) = (   0.1666667   0.2886751   0.0000000), wk =   0.0069444
        k(   50) = (   0.1666667   0.2886751   0.1024584), wk =   0.0138889
        k(   51) = (   0.1666667   0.2886751   0.2049168), wk =   0.0138889
        k(   52) = (   0.1666667   0.2886751  -0.3073752), wk =   0.0069444
        k(   53) = (   0.1666667   0.3849002   0.0000000), wk =   0.0138889
        k(   54) = (   0.1666667   0.3849002   0.1024584), wk =   0.0277778
        k(   55) = (   0.1666667   0.3849002   0.2049168), wk =   0.0277778
        k(   56) = (   0.1666667   0.3849002  -0.3073752), wk =   0.0138889
        k(   57) = (   0.1666667   0.4811252   0.0000000), wk =   0.0138889
        k(   58) = (   0.1666667   0.4811252   0.1024584), wk =   0.0277778
        k(   59) = (   0.1666667   0.4811252   0.2049168), wk =   0.0277778
        k(   60) = (   0.1666667   0.4811252  -0.3073752), wk =   0.0138889
        k(   61) = (   0.1666667   0.5773503   0.0000000), wk =   0.0069444
        k(   62) = (   0.1666667   0.5773503   0.1024584), wk =   0.0138889
        k(   63) = (   0.1666667   0.5773503   0.2049168), wk =   0.0138889
        k(   64) = (   0.1666667   0.5773503  -0.3073752), wk =   0.0069444
        k(   65) = (   0.2500000   0.4330127   0.0000000), wk =   0.0069444
        k(   66) = (   0.2500000   0.4330127   0.1024584), wk =   0.0138889
        k(   67) = (   0.2500000   0.4330127   0.2049168), wk =   0.0138889
        k(   68) = (   0.2500000   0.4330127  -0.3073752), wk =   0.0069444
        k(   69) = (   0.2500000   0.5292377   0.0000000), wk =   0.0138889
        k(   70) = (   0.2500000   0.5292377   0.1024584), wk =   0.0277778
        k(   71) = (   0.2500000   0.5292377   0.2049168), wk =   0.0277778
        k(   72) = (   0.2500000   0.5292377  -0.3073752), wk =   0.0138889
        k(   73) = (   0.3333333   0.5773503   0.0000000), wk =   0.0023148
        k(   74) = (   0.3333333   0.5773503   0.1024584), wk =   0.0046296
        k(   75) = (   0.3333333   0.5773503   0.2049168), wk =   0.0046296
        k(   76) = (   0.3333333   0.5773503  -0.3073752), wk =   0.0023148

                       cryst. coord.
        k(    1) = (   0.0000000   0.0000000   0.0000000), wk =   0.0011574
        k(    2) = (   0.0000000   0.0000000   0.1666667), wk =   0.0023148
        k(    3) = (   0.0000000   0.0000000   0.3333333), wk =   0.0023148
        k(    4) = (   0.0000000   0.0000000  -0.5000000), wk =   0.0011574
        k(    5) = (   0.0000000   0.0833333   0.0000000), wk =   0.0069444
        k(    6) = (   0.0000000   0.0833333   0.1666667), wk =   0.0138889
        k(    7) = (   0.0000000   0.0833333   0.3333333), wk =   0.0138889
        k(    8) = (   0.0000000   0.0833333  -0.5000000), wk =   0.0069444
        k(    9) = (   0.0000000   0.1666667   0.0000000), wk =   0.0069444
        k(   10) = (   0.0000000   0.1666667   0.1666667), wk =   0.0138889
        k(   11) = (   0.0000000   0.1666667   0.3333333), wk =   0.0138889
        k(   12) = (   0.0000000   0.1666667  -0.5000000), wk =   0.0069444
        k(   13) = (   0.0000000   0.2500000   0.0000000), wk =   0.0069444
        k(   14) = (   0.0000000   0.2500000   0.1666667), wk =   0.0138889
        k(   15) = (   0.0000000   0.2500000   0.3333333), wk =   0.0138889
        k(   16) = (   0.0000000   0.2500000  -0.5000000), wk =   0.0069444
        k(   17) = (   0.0000000   0.3333333   0.0000000), wk =   0.0069444
        k(   18) = (   0.0000000   0.3333333   0.1666667), wk =   0.0138889
        k(   19) = (   0.0000000   0.3333333   0.3333333), wk =   0.0138889
        k(   20) = (   0.0000000   0.3333333  -0.5000000), wk =   0.0069444
        k(   21) = (   0.0000000   0.4166667   0.0000000), wk =   0.0069444
        k(   22) = (   0.0000000   0.4166667   0.1666667), wk =   0.0138889
        k(   23) = (   0.0000000   0.4166667   0.3333333), wk =   0.0138889
        k(   24) = (   0.0000000   0.4166667  -0.5000000), wk =   0.0069444
        k(   25) = (   0.0000000  -0.5000000   0.0000000), wk =   0.0034722
        k(   26) = (   0.0000000  -0.5000000   0.1666667), wk =   0.0069444
        k(   27) = (   0.0000000  -0.5000000   0.3333333), wk =   0.0069444
        k(   28) = (   0.0000000  -0.5000000  -0.5000000), wk =   0.0034722
        k(   29) = (   0.0833333   0.0833333   0.0000000), wk =   0.0069444
        k(   30) = (   0.0833333   0.0833333   0.1666667), wk =   0.0138889
        k(   31) = (   0.0833333   0.0833333   0.3333333), wk =   0.0138889
        k(   32) = (   0.0833333   0.0833333  -0.5000000), wk =   0.0069444
        k(   33) = (   0.0833333   0.1666667   0.0000000), wk =   0.0138889
        k(   34) = (   0.0833333   0.1666667   0.1666667), wk =   0.0277778
        k(   35) = (   0.0833333   0.1666667   0.3333333), wk =   0.0277778
        k(   36) = (   0.0833333   0.1666667  -0.5000000), wk =   0.0138889
        k(   37) = (   0.0833333   0.2500000   0.0000000), wk =   0.0138889
        k(   38) = (   0.0833333   0.2500000   0.1666667), wk =   0.0277778
        k(   39) = (   0.0833333   0.2500000   0.3333333), wk =   0.0277778
        k(   40) = (   0.0833333   0.2500000  -0.5000000), wk =   0.0138889
        k(   41) = (   0.0833333   0.3333333   0.0000000), wk =   0.0138889
        k(   42) = (   0.0833333   0.3333333   0.1666667), wk =   0.0277778
        k(   43) = (   0.0833333   0.3333333   0.3333333), wk =   0.0277778
        k(   44) = (   0.0833333   0.3333333  -0.5000000), wk =   0.0138889
        k(   45) = (   0.0833333   0.4166667   0.0000000), wk =   0.0138889
        k(   46) = (   0.0833333   0.4166667   0.1666667), wk =   0.0277778
        k(   47) = (   0.0833333   0.4166667   0.3333333), wk =   0.0277778
        k(   48) = (   0.0833333   0.4166667  -0.5000000), wk =   0.0138889
        k(   49) = (   0.1666667   0.1666667   0.0000000), wk =   0.0069444
        k(   50) = (   0.1666667   0.1666667   0.1666667), wk =   0.0138889
        k(   51) = (   0.1666667   0.1666667   0.3333333), wk =   0.0138889
        k(   52) = (   0.1666667   0.1666667  -0.5000000), wk =   0.0069444
        k(   53) = (   0.1666667   0.2500000   0.0000000), wk =   0.0138889
        k(   54) = (   0.1666667   0.2500000   0.1666667), wk =   0.0277778
        k(   55) = (   0.1666667   0.2500000   0.3333333), wk =   0.0277778
        k(   56) = (   0.1666667   0.2500000  -0.5000000), wk =   0.0138889
        k(   57) = (   0.1666667   0.3333333   0.0000000), wk =   0.0138889
        k(   58) = (   0.1666667   0.3333333   0.1666667), wk =   0.0277778
        k(   59) = (   0.1666667   0.3333333   0.3333333), wk =   0.0277778
        k(   60) = (   0.1666667   0.3333333  -0.5000000), wk =   0.0138889
        k(   61) = (   0.1666667   0.4166667   0.0000000), wk =   0.0069444
        k(   62) = (   0.1666667   0.4166667   0.1666667), wk =   0.0138889
        k(   63) = (   0.1666667   0.4166667   0.3333333), wk =   0.0138889
        k(   64) = (   0.1666667   0.4166667  -0.5000000), wk =   0.0069444
        k(   65) = (   0.2500000   0.2500000   0.0000000), wk =   0.0069444
        k(   66) = (   0.2500000   0.2500000   0.1666667), wk =   0.0138889
        k(   67) = (   0.2500000   0.2500000   0.3333333), wk =   0.0138889
        k(   68) = (   0.2500000   0.2500000  -0.5000000), wk =   0.0069444
        k(   69) = (   0.2500000   0.3333333   0.0000000), wk =   0.0138889
        k(   70) = (   0.2500000   0.3333333   0.1666667), wk =   0.0277778
        k(   71) = (   0.2500000   0.3333333   0.3333333), wk =   0.0277778
        k(   72) = (   0.2500000   0.3333333  -0.5000000), wk =   0.0138889
        k(   73) = (   0.3333333   0.3333333   0.0000000), wk =   0.0023148
        k(   74) = (   0.3333333   0.3333333   0.1666667), wk =   0.0046296
        k(   75) = (   0.3333333   0.3333333   0.3333333), wk =   0.0046296
        k(   76) = (   0.3333333   0.3333333  -0.5000000), wk =   0.0023148

     Dense  grid:    23199 G-vectors     FFT dimensions: (  32,  32,  54)

     Smooth grid:    22443 G-vectors     FFT dimensions: (  32,  32,  54)

     Dynamical RAM for                 wfc:       0.09 MB

     Dynamical RAM for     wfc (w. buffer):      13.68 MB

     Dynamical RAM for           str. fact:       0.04 MB

     Dynamical RAM for           local pot:       0.00 MB

     Dynamical RAM for          nlocal pot:       0.15 MB

     Dynamical RAM for                qrad:       1.70 MB

     Dynamical RAM for          rho,v,vnew:       0.49 MB

     Dynamical RAM for               rhoin:       0.16 MB

     Dynamical RAM for            rho*nmix:       1.13 MB

     Dynamical RAM for           G-vectors:       0.15 MB

     Dynamical RAM for          h,s,v(r/c):       0.08 MB

     Dynamical RAM for          <psi|beta>:       0.01 MB

     Dynamical RAM for                 psi:       0.18 MB

     Dynamical RAM for                hpsi:       0.18 MB

     Dynamical RAM for                spsi:       0.18 MB

     Dynamical RAM for      wfcinit/wfcrot:       0.19 MB

     Dynamical RAM for           addusdens:       6.68 MB

     Estimated static dynamical RAM per process >      16.73 MB

     Estimated max dynamical RAM per process >      24.55 MB

     Estimated total dynamical RAM >     245.46 MB

     Check: negative core charge=   -0.000043
     Generating pointlists ...
     new r_m :   0.4114 (alat units)  1.9220 (a.u.) for type    1

     The initial density is read from file :
     ./out/Co.save/charge-density

     Starting wfcs from file
     Checking if some PAW data can be deallocated... 

     total cpu time spent up to now is        1.3 secs

     Self-consistent Calculation

     iteration #  1     ecut=   110.00 Ry     beta= 0.40
     Davidson diagonalization with overlap

---- Real-time Memory Report at c_bands before calling an iterative solver
            56 MiB given to the printing process from OS
             0 MiB allocation reported by mallinfo(arena+hblkhd)
           435 MiB available memory on the node where the printing process lives
------------------
     ethr =  1.00E-05,  avg # of iterations =  1.0

     Threshold (ethr) on eigenvalues was too large:
     Diagonalizing with lowered threshold

     Davidson diagonalization with overlap

---- Real-time Memory Report at c_bands before calling an iterative solver
            61 MiB given to the printing process from OS
             0 MiB allocation reported by mallinfo(arena+hblkhd)
           353 MiB available memory on the node where the printing process lives
------------------
     ethr =  1.08E-08,  avg # of iterations =  1.0

     total cpu time spent up to now is       10.0 secs

     total energy              =    -753.42240386 Ry
     estimated scf accuracy    <       0.00000366 Ry

     total magnetization       =    -0.00 Bohr mag/cell
     absolute magnetization    =     0.00 Bohr mag/cell

     iteration #  2     ecut=   110.00 Ry     beta= 0.40
     Davidson diagonalization with overlap

---- Real-time Memory Report at c_bands before calling an iterative solver
            74 MiB given to the printing process from OS
             0 MiB allocation reported by mallinfo(arena+hblkhd)
           316 MiB available memory on the node where the printing process lives
------------------
     ethr =  1.08E-08,  avg # of iterations =  1.0

     total cpu time spent up to now is       14.6 secs

     total energy              =    -753.42240439 Ry
     estimated scf accuracy    <       0.00000009 Ry

     total magnetization       =    -0.00 Bohr mag/cell
     absolute magnetization    =     0.00 Bohr mag/cell

     iteration #  3     ecut=   110.00 Ry     beta= 0.40
     Davidson diagonalization with overlap

---- Real-time Memory Report at c_bands before calling an iterative solver
            74 MiB given to the printing process from OS
             0 MiB allocation reported by mallinfo(arena+hblkhd)
           320 MiB available memory on the node where the printing process lives
------------------
     ethr =  2.66E-10,  avg # of iterations =  3.9

     Magnetic moment per site  (integrated on atomic sphere of radius R)
     atom   1 (R=0.411)  charge= 15.5888  magn= -0.0003
     atom   2 (R=0.411)  charge= 15.5888  magn= -0.0003

     total cpu time spent up to now is       22.3 secs

     End of self-consistent calculation

 ------ SPIN UP ------------


          k = 0.0000 0.0000 0.0000 (  2803 PWs)   bands (ev):

   -76.0882 -76.0262 -39.5159 -39.2120 -39.2120 -39.1613 -39.1613 -39.1569
    10.0100  14.2803  17.1684  17.2249  17.2249  17.5656  17.5656  17.9886
    17.9886  18.7797  19.1596  19.1596  25.9631

     occupation numbers 
     1.0000   1.0000   1.0000   1.0000   1.0000   1.0000   1.0000   1.0000
     1.0000   1.0000   1.0000   1.0000   1.0000   1.0000   1.0000   1.0000
     1.0000   1.0000   0.0000   0.0000   0.0000

          k = 0.0000 0.0000 0.1025 (  2797 PWs)   bands (ev):

   -76.0841 -76.0304 -39.4922 -39.2086 -39.2086 -39.1813 -39.1647 -39.1647
    10.2897  14.1466  17.0873  17.1619  17.1619  17.4879  17.4879  17.9895
    18.1570  18.1570  19.1417  19.1417  27.3840

     occupation numbers 
     1.0000   1.0000   1.0000   1.0000   1.0000   1.0000   1.0000   1.0000
     1.0000   1.0000   1.0000   1.0000   1.0000   1.0000   1.0000   1.0000
     1.0000   1.0000   0.0000   0.0000   0.0000

          k = 0.0000 0.0000 0.2049 (  2816 PWs)   bands (ev):

   -76.0727 -76.0418 -39.4272 -39.2477 -39.1993 -39.1993 -39.1740 -39.1740
    11.0950  13.5043  16.8902  16.9777  17.1078  17.1078  17.3164  17.3164
    18.4969  18.4969  19.0469  19.0469  30.4953

     occupation numbers 
     1.0000   1.0000   1.0000   1.0000   1.0000   1.0000   1.0000   1.0000
     1.0000   1.0000   1.0000   1.0000   1.0000   1.0000   1.0000   1.0000
     1.0000   1.0000   0.8190   0.8190   0.0000

          k = 0.0000 0.0000-0.3074 (  2834 PWs)   bands (ev):

   -76.0573 -76.0573 -39.3378 -39.3378 -39.1867 -39.1867 -39.1867 -39.1867
    12.2916  12.2916  16.7343  16.7343  17.1636  17.1636  17.1636  17.1636
    18.8252  18.8252  18.8252  18.8252  34.2580

     occupation numbers 
     1.0000   1.0000   1.0000   1.0000   1.0000   1.0000   1.0000   1.0000
     1.0000   1.0000   1.0000   1.0000   1.0000   1.0000   1.0000   1.0000
     1.0000   1.0000   1.0000   1.0000   0.0000

          k = 0.0000 0.0962 0.0000 (  2801 PWs)   bands (ev):

   -76.0846 -76.0245 -39.5080 -39.2297 -39.2177 -39.1796 -39.1642 -39.1601
    10.2567  14.4398  16.9513  17.3478  17.3959  17.5077  17.6748  17.6785
    17.9099  18.0261  19.1927  20.3801  25.9909

     occupation numbers 
     1.0000   1.0000   1.0000   1.0000   1.0000   1.0000   1.0000   1.0000
     1.0000   1.0000   1.0000   1.0000   1.0000   1.0000   1.0000   1.0000
     1.0000   1.0000   0.0000   0.0000   0.0000

          k = 0.0000 0.0962 0.1025 (  2795 PWs)   bands (ev):

   -76.0806 -76.0286 -39.4856 -39.2257 -39.2141 -39.1964 -39.1702 -39.1678
    10.5324  14.3208  16.9503  17.1762  17.2188  17.2688  17.5905  17.6670
    18.1055  18.1362  19.1666  19.8464  27.4807

     occupation numbers 
     1.0000   1.0000   1.0000   1.0000   1.0000   1.0000   1.0000   1.0000
     1.0000   1.0000   1.0000   1.0000   1.0000   1.0000   1.0000   1.0000
     1.0000   1.0000   0.0000   0.0000   0.0000

          k = 0.0000 0.0962 0.2049 (  2799 PWs)   bands (ev):

   -76.0696 -76.0396 -39.4244 -39.2561 -39.2146 -39.2044 -39.1841 -39.1776
    11.3256  13.7008  16.6598  16.8761  17.0130  17.2066  17.3917  17.4174
    18.4667  18.5074  19.0530  19.2909  30.6429

     occupation numbers 
     1.0000   1.0000   1.0000   1.0000   1.0000   1.0000   1.0000   1.0000
     1.0000   1.0000   1.0000   1.0000   1.0000   1.0000   1.0000   1.0000
     1.0000   1.0000   0.6094   0.0000   0.0000

          k = 0.0000 0.0962-0.3074 (  2812 PWs)   bands (ev):

   -76.0546 -76.0546 -39.3403 -39.3403 -39.1996 -39.1996 -39.1910 -39.1910
    12.5045  12.5045  16.6161  16.6162  17.1482  17.1482  17.2631  17.2631
    18.8118  18.8118  18.9036  18.9036  34.4256

     occupation numbers 
     1.0000   1.0000   1.0000   1.0000   1.0000   1.0000   1.0000   1.0000
     1.0000   1.0000   1.0000   1.0000   1.0000   1.0000   1.0000   1.0000
     1.0000   1.0000   1.0000   1.0000   0.0000

          k = 0.0000 0.1925 0.0000 (  2803 PWs)   bands (ev):

   -76.0746 -76.0200 -39.4855 -39.2782 -39.2330 -39.2292 -39.1726 -39.1696
    10.9722  14.8416  16.6393  16.7606  17.2987  17.6959  17.7165  17.7203
    17.8279  17.9813  19.2622  21.9787  26.0940

     occupation numbers 
     1.0000   1.0000   1.0000   1.0000   1.0000   1.0000   1.0000   1.0000
     1.0000   1.0000   1.0000   1.0000   1.0000   1.0000   1.0000   1.0000
     1.0000   1.0000   0.0000   0.0000   0.0000

          k = 0.0000 0.1925 0.1025 (  2796 PWs)   bands (ev):

   -76.0709 -76.0237 -39.4678 -39.2722 -39.2437 -39.2290 -39.1792 -39.1767
    11.2329  14.7698  16.4714  16.6779  17.1841  17.5090  17.5317  17.8566
    18.0685  18.1416  19.2178  21.0121  27.8006

     occupation numbers 
     1.0000   1.0000   1.0000   1.0000   1.0000   1.0000   1.0000   1.0000
     1.0000   1.0000   1.0000   1.0000   1.0000   1.0000   1.0000   1.0000
     1.0000   1.0000   0.0000   0.0000   0.0000

          k = 0.0000 0.1925 0.2049 (  2793 PWs)   bands (ev):

   -76.0610 -76.0337 -39.4194 -39.2897 -39.2529 -39.2179 -39.2018 -39.1877
    11.9811  14.2176  16.1976  16.7564  16.8569  17.3451  17.4510  17.6977
    18.4301  18.5783  19.0649  19.8561  31.0861

     occupation numbers 
     1.0000   1.0000   1.0000   1.0000   1.0000   1.0000   1.0000   1.0000
     1.0000   1.0000   1.0000   1.0000   1.0000   1.0000   1.0000   1.0000
     1.0000   1.0000   0.1676   0.0000   0.0000

          k = 0.0000 0.1925-0.3074 (  2798 PWs)   bands (ev):

   -76.0473 -76.0473 -39.3537 -39.3537 -39.2285 -39.2285 -39.2029 -39.2029
    13.0884  13.0884  16.3974  16.3974  17.0607  17.0607  17.5296  17.5296
    18.7902  18.7902  19.1187  19.1187  34.8858

     occupation numbers 
     1.0000   1.0000   1.0000   1.0000   1.0000   1.0000   1.0000   1.0000
     1.0000   1.0000   1.0000   1.0000   1.0000   1.0000   1.0000   1.0000
     1.0000   1.0000   0.0000   0.0000   0.0000

          k = 0.0000 0.2887 0.0000 (  2792 PWs)   bands (ev):

   -76.0604 -76.0143 -39.4518 -39.3451 -39.2957 -39.2533 -39.1855 -39.1846
    12.0668  15.1962  16.0228  16.4062  17.1686  17.4848  17.6157  18.1700
    18.2038  18.4230  19.3267  23.7651  26.3011

     occupation numbers 
     1.0000   1.0000   1.0000   1.0000   1.0000   1.0000   1.0000   1.0000
     1.0000   1.0000   1.0000   1.0000   1.0000   1.0000   1.0000   1.0000
     1.0000   1.0000   0.0000   0.0000   0.0000

          k = 0.0000 0.2887 0.1025 (  2789 PWs)   bands (ev):

   -76.0573 -76.0174 -39.4456 -39.3325 -39.3080 -39.2487 -39.1920 -39.1892
    12.2905  15.1904  15.8671  16.4654  17.0218  17.5222  17.5762  18.2493
    18.3228  18.3816  19.2653  22.2429  28.3878

     occupation numbers 
     1.0000   1.0000   1.0000   1.0000   1.0000   1.0000   1.0000   1.0000
     1.0000   1.0000   1.0000   1.0000   1.0000   1.0000   1.0000   1.0000
     1.0000   1.0000   0.0000   0.0000   0.0000

          k = 0.0000 0.2887 0.2049 (  2788 PWs)   bands (ev):

   -76.0489 -76.0259 -39.4250 -39.3488 -39.2913 -39.2362 -39.2136 -39.2018
    12.9222  14.7423  15.8775  16.5225  16.8442  17.3814  17.6446  18.0956
    18.5500  18.7301  19.0885  20.5412  31.7051

     occupation numbers 
     1.0000   1.0000   1.0000   1.0000   1.0000   1.0000   1.0000   1.0000
     1.0000   1.0000   1.0000   1.0000   1.0000   1.0000   1.0000   1.0000
     1.0000   1.0000   0.0003   0.0000   0.0000

          k = 0.0000 0.2887-0.3074 (  2802 PWs)   bands (ev):

   -76.0374 -76.0374 -39.3900 -39.3900 -39.2494 -39.2494 -39.2190 -39.2190
    13.8283  13.8283  16.2175  16.2175  17.0665  17.0665  17.8510  17.8510
    18.8285  18.8285  19.4166  19.4166  33.9119

     occupation numbers 
     1.0000   1.0000   1.0000   1.0000   1.0000   1.0000   1.0000   1.0000
     1.0000   1.0000   1.0000   1.0000   1.0000   1.0000   1.0000   1.0000
     1.0000   1.0000   0.0000   0.0000   0.0000

          k = 0.0000 0.3849 0.0000 (  2806 PWs)   bands (ev):

   -76.0452 -76.0096 -39.4125 -39.4124 -39.3609 -39.2731 -39.2071 -39.1971
    13.3206  15.1622  15.5016  16.4160  17.2767  17.2858  17.4107  18.7504
    18.8607  18.9030  19.3698  25.7027  26.2871

     occupation numbers 
     1.0000   1.0000   1.0000   1.0000   1.0000   1.0000   1.0000   1.0000
     1.0000   1.0000   1.0000   1.0000   1.0000   1.0000   1.0000   1.0000
     1.0000   1.0000   0.0000   0.0000   0.0000

          k = 0.0000 0.3849 0.1025 (  2796 PWs)   bands (ev):

   -76.0428 -76.0120 -39.4456 -39.3821 -39.3559 -39.2680 -39.2093 -39.2022
    13.4525  15.1528  15.5212  16.3509  17.1761  17.3744  17.6736  18.7663
    18.8120  18.8244  19.3081  23.4015  28.4922

     occupation numbers 
     1.0000   1.0000   1.0000   1.0000   1.0000   1.0000   1.0000   1.0000
     1.0000   1.0000   1.0000   1.0000   1.0000   1.0000   1.0000   1.0000
     1.0000   1.0000   0.0000   0.0000   0.0000

          k = 0.0000 0.3849 0.2049 (  2801 PWs)   bands (ev):

   -76.0363 -76.0185 -39.4556 -39.4114 -39.3032 -39.2541 -39.2227 -39.2161
    13.8152  14.8493  15.7305  16.2996  17.2175  17.6501  17.8563  18.4725
    18.8875  18.9695  19.1739  21.2926  29.6506

     occupation numbers 
     1.0000   1.0000   1.0000   1.0000   1.0000   1.0000   1.0000   1.0000
     1.0000   1.0000   1.0000   1.0000   1.0000   1.0000   1.0000   1.0000
     1.0000   1.0000   0.0000   0.0000   0.0000

          k = 0.0000 0.3849-0.3074 (  2796 PWs)   bands (ev):

   -76.0274 -76.0274 -39.4417 -39.4417 -39.2547 -39.2547 -39.2351 -39.2351
    14.3239  14.3239  16.0681  16.0681  17.5713  17.5713  18.0492  18.0492
    19.0241  19.0241  19.7892  19.7892  30.7471

     occupation numbers 
     1.0000   1.0000   1.0000   1.0000   1.0000   1.0000   1.0000   1.0000
     1.0000   1.0000   1.0000   1.0000   1.0000   1.0000   1.0000   1.0000
     0.9995   0.9995   0.0000   0.0000   0.0000

          k = 0.0000 0.4811 0.0000 (  2796 PWs)   bands (ev):

   -76.0328 -76.0075 -39.4622 -39.4079 -39.3760 -39.2873 -39.2304 -39.2063
    14.2897  14.9531  15.1933  16.6384  17.1348  17.2635  17.5089  19.1620
    19.3035  19.3922  19.9061  24.5299  27.6898

     occupation numbers 
     1.0000   1.0000   1.0000   1.0000   1.0000   1.0000   1.0000   1.0000
     1.0000   1.0000   1.0000   1.0000   1.0000   1.0000   1.0000   0.0000
     0.0000   0.0000   0.0000   0.0000   0.0000

          k = 0.0000 0.4811 0.1025 (  2806 PWs)   bands (ev):

   -76.0311 -76.0092 -39.4778 -39.4247 -39.3458 -39.2819 -39.2281 -39.2118
    14.2319  14.9282  15.4693  16.1959  17.2547  17.4871  17.9575  19.1000
    19.1960  19.3856  19.7278  23.6786  27.1721

     occupation numbers 
     1.0000   1.0000   1.0000   1.0000   1.0000   1.0000   1.0000   1.0000
     1.0000   1.0000   1.0000   1.0000   1.0000   1.0000   1.0000   0.0000
     0.0000   0.0000   0.0000   0.0000   0.0000

          k = 0.0000 0.4811 0.2049 (  2797 PWs)   bands (ev):

   -76.0264 -76.0138 -39.4917 -39.4573 -39.2955 -39.2671 -39.2316 -39.2267
    14.2492  14.7837  15.7078  16.0769  17.5958  17.6702  18.6549  18.9611
    19.2302  19.2722  19.3462  21.9608  27.3574

     occupation numbers 
     1.0000   1.0000   1.0000   1.0000   1.0000   1.0000   1.0000   1.0000
     1.0000   1.0000   1.0000   1.0000   1.0000   1.0000   1.0000   1.0000
     0.0000   0.0000   0.0000   0.0000   0.0000

          k = 0.0000 0.4811-0.3074 (  2810 PWs)   bands (ev):

   -76.0201 -76.0201 -39.4841 -39.4841 -39.2539 -39.2539 -39.2469 -39.2469
    14.4619  14.4619  15.9426  15.9426  18.0987  18.0987  18.3689  18.3689
    19.2884  19.2884  20.3648  20.3648  28.1018

     occupation numbers 
     1.0000   1.0000   1.0000   1.0000   1.0000   1.0000   1.0000   1.0000
     1.0000   1.0000   1.0000   1.0000   1.0000   1.0000   1.0000   1.0000
     0.0000   0.0000   0.0000   0.0000   0.0000

          k = 0.0000-0.5774 0.0000 (  2794 PWs)   bands (ev):

   -76.0276 -76.0073 -39.4804 -39.4250 -39.3590 -39.2925 -39.2426 -39.2098
    14.6673  14.7884  15.0915  16.8422  17.0847  17.2101  17.5926  19.3106
    19.3989  19.4676  20.9445  22.9015  28.9577

     occupation numbers 
     1.0000   1.0000   1.0000   1.0000   1.0000   1.0000   1.0000   1.0000
     1.0000   1.0000   1.0000   1.0000   1.0000   1.0000   1.0000   0.0000
     0.0000   0.0000   0.0000   0.0000   0.0000

          k = 0.0000-0.5774 0.1025 (  2804 PWs)   bands (ev):

   -76.0262 -76.0087 -39.4933 -39.4412 -39.3346 -39.2870 -39.2378 -39.2153
    14.4295  14.8262  15.5280  16.1319  17.2109  17.5818  18.1720  19.1694
    19.3586  19.4594  20.6568  22.6828  28.1862

     occupation numbers 
     1.0000   1.0000   1.0000   1.0000   1.0000   1.0000   1.0000   1.0000
     1.0000   1.0000   1.0000   1.0000   1.0000   1.0000   1.0000   0.0000
     0.0000   0.0000   0.0000   0.0000   0.0000

          k = 0.0000-0.5774 0.2049 (  2794 PWs)   bands (ev):

   -76.0225 -76.0124 -39.5066 -39.4740 -39.2896 -39.2719 -39.2362 -39.2305
    14.3233  14.7554  15.7545  15.9614  17.5706  17.8280  18.6932  19.3518
    19.3751  19.4368  19.9392  21.9775  27.2381

     occupation numbers 
     1.0000   1.0000   1.0000   1.0000   1.0000   1.0000   1.0000   1.0000
     1.0000   1.0000   1.0000   1.0000   1.0000   1.0000   1.0000   0.0000
     0.0000   0.0000   0.0000   0.0000   0.0000

          k = 0.0000-0.5774-0.3074 (  2808 PWs)   bands (ev):

   -76.0174 -76.0174 -39.5001 -39.5001 -39.2530 -39.2530 -39.2512 -39.2512
    14.4739  14.4739  15.8946  15.8946  18.1024  18.1024  18.6891  18.6891
    19.4057  19.4057  20.8422  20.8422  26.9115

     occupation numbers 
     1.0000   1.0000   1.0000   1.0000   1.0000   1.0000   1.0000   1.0000
     1.0000   1.0000   1.0000   1.0000   1.0000   1.0000   1.0000   1.0000
     0.0000   0.0000   0.0000   0.0000   0.0000

          k = 0.0833 0.1443 0.0000 (  2791 PWs)   bands (ev):

   -76.0778 -76.0214 -39.4928 -39.2598 -39.2361 -39.2064 -39.1722 -39.1664
    10.7386  14.7259  16.7111  17.0105  17.3814  17.5611  17.5987  17.6763
    17.9132  17.9693  19.2323  21.5338  26.0585

     occupation numbers 
     1.0000   1.0000   1.0000   1.0000   1.0000   1.0000   1.0000   1.0000
     1.0000   1.0000   1.0000   1.0000   1.0000   1.0000   1.0000   1.0000
     1.0000   1.0000   0.0000   0.0000   0.0000

          k = 0.0833 0.1443 0.1025 (  2794 PWs)   bands (ev):

   -76.0740 -76.0252 -39.4734 -39.2544 -39.2375 -39.2172 -39.1761 -39.1756
    11.0048  14.6382  16.6646  16.7416  17.2362  17.4447  17.5077  17.7663
    18.0913  18.1292  19.1963  20.6915  27.6911

     occupation numbers 
     1.0000   1.0000   1.0000   1.0000   1.0000   1.0000   1.0000   1.0000
     1.0000   1.0000   1.0000   1.0000   1.0000   1.0000   1.0000   1.0000
     1.0000   1.0000   0.0000   0.0000   0.0000

          k = 0.0833 0.1443 0.2049 (  2799 PWs)   bands (ev):

   -76.0637 -76.0355 -39.4204 -39.2774 -39.2397 -39.2170 -39.1942 -39.1865
    11.7700  14.0625  16.3150  16.8162  16.8713  17.3342  17.4040  17.6089
    18.4566  18.5340  19.0620  19.6906  30.9413

     occupation numbers 
     1.0000   1.0000   1.0000   1.0000   1.0000   1.0000   1.0000   1.0000
     1.0000   1.0000   1.0000   1.0000   1.0000   1.0000   1.0000   1.0000
     1.0000   1.0000   0.2553   0.0000   0.0000

          k = 0.0833 0.1443-0.3074 (  2814 PWs)   bands (ev):

   -76.0496 -76.0496 -39.3481 -39.3481 -39.2203 -39.2203 -39.1995 -39.1995
    12.9055  12.9055  16.4572  16.4572  17.0719  17.0719  17.4561  17.4561
    18.7959  18.7959  19.0520  19.0520  34.7492

     occupation numbers 
     1.0000   1.0000   1.0000   1.0000   1.0000   1.0000   1.0000   1.0000
     1.0000   1.0000   1.0000   1.0000   1.0000   1.0000   1.0000   1.0000
     1.0000   1.0000   0.6463   0.6463   0.0000

          k = 0.0833 0.2406 0.0000 (  2778 PWs)   bands (ev):

   -76.0657 -76.0163 -39.4646 -39.3132 -39.2819 -39.2371 -39.1859 -39.1791
    11.6502  15.1474  16.2865  16.3922  17.2264  17.4189  17.8268  17.8375
    18.0567  18.3562  19.2802  23.1242  26.2359

     occupation numbers 
     1.0000   1.0000   1.0000   1.0000   1.0000   1.0000   1.0000   1.0000
     1.0000   1.0000   1.0000   1.0000   1.0000   1.0000   1.0000   1.0000
     1.0000   1.0000   0.0000   0.0000   0.0000

          k = 0.0833 0.2406 0.1025 (  2785 PWs)   bands (ev):

   -76.0624 -76.0196 -39.4527 -39.3047 -39.2893 -39.2397 -39.1909 -39.1849
    11.8920  15.1253  16.0640  16.4454  17.1225  17.3845  17.6430  17.9838
    18.2631  18.3468  19.2353  21.8240  28.1675

     occupation numbers 
     1.0000   1.0000   1.0000   1.0000   1.0000   1.0000   1.0000   1.0000
     1.0000   1.0000   1.0000   1.0000   1.0000   1.0000   1.0000   1.0000
     1.0000   1.0000   0.0000   0.0000   0.0000

          k = 0.0833 0.2406 0.2049 (  2785 PWs)   bands (ev):

   -76.0534 -76.0287 -39.4194 -39.3249 -39.2762 -39.2365 -39.2062 -39.1997
    12.5812  14.6261  15.9676  16.5633  16.8181  17.2420  17.6126  17.9458
    18.5403  18.6551  19.0918  20.3076  31.5276

     occupation numbers 
     1.0000   1.0000   1.0000   1.0000   1.0000   1.0000   1.0000   1.0000
     1.0000   1.0000   1.0000   1.0000   1.0000   1.0000   1.0000   1.0000
     1.0000   1.0000   0.0001   0.0000   0.0000

          k = 0.0833 0.2406-0.3074 (  2792 PWs)   bands (ev):

   -76.0410 -76.0410 -39.3726 -39.3726 -39.2450 -39.2450 -39.2140 -39.2140
    13.5898  13.5898  16.2876  16.2876  16.9446  16.9446  17.7592  17.7592
    18.8323  18.8323  19.3112  19.3112  35.1520

     occupation numbers 
     1.0000   1.0000   1.0000   1.0000   1.0000   1.0000   1.0000   1.0000
     1.0000   1.0000   1.0000   1.0000   1.0000   1.0000   1.0000   1.0000
     1.0000   1.0000   0.0000   0.0000   0.0000

          k = 0.0833 0.3368 0.0000 (  2797 PWs)   bands (ev):

   -76.0509 -76.0112 -39.4278 -39.3788 -39.3384 -39.2656 -39.2006 -39.1982
    12.8524  15.3268  15.7168  16.2473  17.2053  17.2122  17.6070  18.2719
    18.6056  18.9409  19.3198  24.9496  26.5057

     occupation numbers 
     1.0000   1.0000   1.0000   1.0000   1.0000   1.0000   1.0000   1.0000
     1.0000   1.0000   1.0000   1.0000   1.0000   1.0000   1.0000   1.0000
     1.0000   1.0000   0.0000   0.0000   0.0000

          k = 0.0833 0.3368 0.1025 (  2792 PWs)   bands (ev):

   -76.0483 -76.0138 -39.4368 -39.3619 -39.3402 -39.2642 -39.2081 -39.1982
    13.0358  15.3479  15.6218  16.3134  16.9994  17.4220  17.5485  18.3109
    18.6988  18.8191  19.3078  23.0269  28.8596

     occupation numbers 
     1.0000   1.0000   1.0000   1.0000   1.0000   1.0000   1.0000   1.0000
     1.0000   1.0000   1.0000   1.0000   1.0000   1.0000   1.0000   1.0000
     1.0000   1.0000   0.0000   0.0000   0.0000

          k = 0.0833 0.3368 0.2049 (  2794 PWs)   bands (ev):

   -76.0410 -76.0211 -39.4366 -39.3846 -39.3003 -39.2559 -39.2232 -39.2092
    13.5426  14.9431  15.8037  16.4067  16.8592  17.3484  17.6704  18.2999
    18.7893  18.9368  19.2351  21.0533  31.2474

     occupation numbers 
     1.0000   1.0000   1.0000   1.0000   1.0000   1.0000   1.0000   1.0000
     1.0000   1.0000   1.0000   1.0000   1.0000   1.0000   1.0000   1.0000
     1.0000   1.0000   0.0000   0.0000   0.0000

          k = 0.0833 0.3368-0.3074 (  2794 PWs)   bands (ev):

   -76.0311 -76.0311 -39.4167 -39.4167 -39.2600 -39.2600 -39.2282 -39.2282
    14.2442  14.2442  16.1718  16.1718  17.0517  17.0517  17.9761  17.9761
    19.0408  19.0408  19.6823  19.6823  32.4346

     occupation numbers 
     1.0000   1.0000   1.0000   1.0000   1.0000   1.0000   1.0000   1.0000
     1.0000   1.0000   1.0000   1.0000   1.0000   1.0000   1.0000   1.0000
     0.9378   0.9378   0.0000   0.0000   0.0000

          k = 0.0833 0.4330 0.0000 (  2799 PWs)   bands (ev):

   -76.0369 -76.0079 -39.4368 -39.3888 -39.3876 -39.2882 -39.2217 -39.2133
    14.0171  15.1533  15.3364  16.3644  17.0734  17.3787  17.4178  18.8268
    19.0767  19.3436  19.6969  25.8120  26.9234

     occupation numbers 
     1.0000   1.0000   1.0000   1.0000   1.0000   1.0000   1.0000   1.0000
     1.0000   1.0000   1.0000   1.0000   1.0000   1.0000   1.0000   1.0000
     0.0141   0.0000   0.0000   0.0000   0.0000

          k = 0.0833 0.4330 0.1025 (  2803 PWs)   bands (ev):

   -76.0350 -76.0099 -39.4569 -39.4057 -39.3514 -39.2839 -39.2260 -39.2127
    14.0622  15.1388  15.4597  16.2327  17.1256  17.4534  17.6244  18.7816
    19.1290  19.1406  19.7093  24.0102  27.6855

     occupation numbers 
     1.0000   1.0000   1.0000   1.0000   1.0000   1.0000   1.0000   1.0000
     1.0000   1.0000   1.0000   1.0000   1.0000   1.0000   1.0000   1.0000
     0.0000   0.0000   0.0000   0.0000   0.0000

          k = 0.0833 0.4330 0.2049 (  2793 PWs)   bands (ev):

   -76.0297 -76.0152 -39.4710 -39.4360 -39.3035 -39.2688 -39.2397 -39.2172
    14.2293  14.9181  15.7171  16.2383  17.1789  17.6565  17.9610  18.5272
    18.9815  19.3150  19.7044  21.9218  28.4122

     occupation numbers 
     1.0000   1.0000   1.0000   1.0000   1.0000   1.0000   1.0000   1.0000
     1.0000   1.0000   1.0000   1.0000   1.0000   1.0000   1.0000   1.0000
     1.0000   0.0000   0.0000   0.0000   0.0000

          k = 0.0833 0.4330-0.3074 (  2796 PWs)   bands (ev):

   -76.0224 -76.0224 -39.4626 -39.4626 -39.2697 -39.2697 -39.2358 -39.2358
    14.5386  14.5386  16.0509  16.0509  17.5646  17.5646  18.1222  18.1222
    19.2661  19.2661  20.3577  20.3577  29.4247

     occupation numbers 
     1.0000   1.0000   1.0000   1.0000   1.0000   1.0000   1.0000   1.0000
     1.0000   1.0000   1.0000   1.0000   1.0000   1.0000   1.0000   1.0000
     0.0000   0.0000   0.0000   0.0000   0.0000

          k = 0.0833 0.5292 0.0000 (  2793 PWs)   bands (ev):

   -76.0276 -76.0073 -39.4705 -39.4160 -39.3592 -39.3008 -39.2424 -39.2207
    14.6749  14.9538  15.1477  16.6309  17.0361  17.2132  17.5909  19.2480
    19.3288  19.3537  20.8160  23.6327  28.7895

     occupation numbers 
     1.0000   1.0000   1.0000   1.0000   1.0000   1.0000   1.0000   1.0000
     1.0000   1.0000   1.0000   1.0000   1.0000   1.0000   1.0000   0.0000
     0.0000   0.0000   0.0000   0.0000   0.0000

          k = 0.0833 0.5292 0.1025 (  2806 PWs)   bands (ev):

   -76.0263 -76.0086 -39.4834 -39.4325 -39.3374 -39.2927 -39.2418 -39.2217
    14.4992  14.9639  15.5465  16.1224  17.0798  17.6445  17.8482  19.1068
    19.2744  19.3651  20.7010  23.3182  27.6518

     occupation numbers 
     1.0000   1.0000   1.0000   1.0000   1.0000   1.0000   1.0000   1.0000
     1.0000   1.0000   1.0000   1.0000   1.0000   1.0000   1.0000   0.0000
     0.0000   0.0000   0.0000   0.0000   0.0000

          k = 0.0833 0.5292 0.2049 (  2803 PWs)   bands (ev):

   -76.0225 -76.0124 -39.4968 -39.4651 -39.3034 -39.2682 -39.2525 -39.2232
    14.4255  14.8820  15.7566  16.0762  17.2125  17.9643  18.3670  18.7089
    19.2302  19.4477  20.5892  22.3840  27.0293

     occupation numbers 
     1.0000   1.0000   1.0000   1.0000   1.0000   1.0000   1.0000   1.0000
     1.0000   1.0000   1.0000   1.0000   1.0000   1.0000   1.0000   1.0000
     0.0000   0.0000   0.0000   0.0000   0.0000

          k = 0.0833 0.5292-0.3074 (  2794 PWs)   bands (ev):

   -76.0174 -76.0174 -39.4907 -39.4907 -39.2762 -39.2762 -39.2376 -39.2376
    14.5896  14.5896  15.9694  15.9694  17.7829  17.7829  18.4966  18.4966
    19.3098  19.3098  21.2503  21.2503  27.2989

     occupation numbers 
     1.0000   1.0000   1.0000   1.0000   1.0000   1.0000   1.0000   1.0000
     1.0000   1.0000   1.0000   1.0000   1.0000   1.0000   1.0000   1.0000
     0.0000   0.0000   0.0000   0.0000   0.0000

          k = 0.1667 0.2887 0.0000 (  2788 PWs)   bands (ev):

   -76.0530 -76.0118 -39.4331 -39.3521 -39.3426 -39.2571 -39.2096 -39.1952
    12.6890  15.4914  15.8298  16.0560  17.1250  17.2166  17.7178  18.0217
    18.5871  18.9604  19.2757  24.6975  26.5638

     occupation numbers 
     1.0000   1.0000   1.0000   1.0000   1.0000   1.0000   1.0000   1.0000
     1.0000   1.0000   1.0000   1.0000   1.0000   1.0000   1.0000   1.0000
     1.0000   1.0000   0.0000   0.0000   0.0000

          k = 0.1667 0.2887 0.1025 (  2789 PWs)   bands (ev):

   -76.0502 -76.0146 -39.4349 -39.3494 -39.3327 -39.2628 -39.2139 -39.1962
    12.8894  15.5525  15.6686  16.1167  17.0586  17.2346  17.6008  18.1175
    18.7126  18.8132  19.3083  22.9047  28.8595

     occupation numbers 
     1.0000   1.0000   1.0000   1.0000   1.0000   1.0000   1.0000   1.0000
     1.0000   1.0000   1.0000   1.0000   1.0000   1.0000   1.0000   1.0000
     1.0000   1.0000   0.0000   0.0000   0.0000

          k = 0.1667 0.2887 0.2049 (  2793 PWs)   bands (ev):

   -76.0427 -76.0221 -39.4280 -39.3731 -39.2930 -39.2650 -39.2241 -39.2070
    13.4488  15.0342  15.8920  16.2801  16.8316  17.0845  17.6243  18.2247
    18.7950  18.9300  19.2976  20.9953  32.1969

     occupation numbers 
     1.0000   1.0000   1.0000   1.0000   1.0000   1.0000   1.0000   1.0000
     1.0000   1.0000   1.0000   1.0000   1.0000   1.0000   1.0000   1.0000
     1.0000   1.0000   0.0000   0.0000   0.0000

          k = 0.1667 0.2887-0.3074 (  2794 PWs)   bands (ev):

   -76.0324 -76.0324 -39.4048 -39.4048 -39.2643 -39.2643 -39.2261 -39.2261
    14.2360  14.2360  16.2446  16.2446  16.7834  16.7834  17.9200  17.9200
    19.0959  19.0959  19.6646  19.6646  34.1142

     occupation numbers 
     1.0000   1.0000   1.0000   1.0000   1.0000   1.0000   1.0000   1.0000
     1.0000   1.0000   1.0000   1.0000   1.0000   1.0000   1.0000   1.0000
     0.0000   0.0000   0.0000   0.0000   0.0000

          k = 0.1667 0.3849 0.0000 (  2800 PWs)   bands (ev):

   -76.0392 -76.0083 -39.4039 -39.3957 -39.3800 -39.2879 -39.2325 -39.2172
    13.8815  15.4835  15.5062  15.9610  16.9423  17.3616  17.4984  18.3586
    19.0708  19.2678  19.7419  26.5447  26.8835

     occupation numbers 
     1.0000   1.0000   1.0000   1.0000   1.0000   1.0000   1.0000   1.0000
     1.0000   1.0000   1.0000   1.0000   1.0000   1.0000   1.0000   1.0000
     0.0574   0.0000   0.0000   0.0000   0.0000

          k = 0.1667 0.3849 0.1025 (  2799 PWs)   bands (ev):

   -76.0372 -76.0104 -39.4332 -39.3974 -39.3443 -39.2924 -39.2382 -39.2118
    13.9952  15.3859  15.6058  16.0606  16.9523  17.3440  17.4460  18.4009
    19.0273  19.1679  19.8348  24.1273  29.0589

     occupation numbers 
     1.0000   1.0000   1.0000   1.0000   1.0000   1.0000   1.0000   1.0000
     1.0000   1.0000   1.0000   1.0000   1.0000   1.0000   1.0000   1.0000
     0.9984   0.0000   0.0000   0.0000   0.0000

          k = 0.1667 0.3849 0.2049 (  2799 PWs)   bands (ev):

   -76.0315 -76.0160 -39.4483 -39.4183 -39.3045 -39.2873 -39.2459 -39.2129
    14.3015  15.1112  15.8738  16.2861  16.8436  17.1204  17.6089  18.3768
    18.9059  19.3380  19.9622  21.9901  30.0609

     occupation numbers 
     1.0000   1.0000   1.0000   1.0000   1.0000   1.0000   1.0000   1.0000
     1.0000   1.0000   1.0000   1.0000   1.0000   1.0000   1.0000   1.0000
     1.0000   0.0000   0.0000   0.0000   0.0000

          k = 0.1667 0.3849-0.3074 (  2794 PWs)   bands (ev):

   -76.0238 -76.0238 -39.4409 -39.4409 -39.2870 -39.2870 -39.2308 -39.2308
    14.7117  14.7117  16.2245  16.2245  16.8720  16.8720  17.9364  17.9364
    19.3281  19.3281  20.4979  20.4979  31.1951

     occupation numbers 
     1.0000   1.0000   1.0000   1.0000   1.0000   1.0000   1.0000   1.0000
     1.0000   1.0000   1.0000   1.0000   1.0000   1.0000   1.0000   1.0000
     0.0000   0.0000   0.0000   0.0000   0.0000

          k = 0.1667 0.4811 0.0000 (  2800 PWs)   bands (ev):

   -76.0277 -76.0072 -39.4448 -39.3990 -39.3597 -39.3167 -39.2481 -39.2419
    14.7831  15.2746  15.2860  16.1663  16.8933  17.2533  17.5858  18.8059
    19.2612  19.3111  20.8043  25.2311  28.5372

     occupation numbers 
     1.0000   1.0000   1.0000   1.0000   1.0000   1.0000   1.0000   1.0000
     1.0000   1.0000   1.0000   1.0000   1.0000   1.0000   1.0000   1.0000
     0.0000   0.0000   0.0000   0.0000   0.0000

          k = 0.1667 0.4811 0.1025 (  2801 PWs)   bands (ev):

   -76.0263 -76.0086 -39.4572 -39.4172 -39.3419 -39.3067 -39.2584 -39.2286
    14.7060  15.3098  15.4842  16.0874  16.9265  17.3159  17.6592  18.7961
    19.0442  19.3809  20.8678  24.6173  27.4806

     occupation numbers 
     1.0000   1.0000   1.0000   1.0000   1.0000   1.0000   1.0000   1.0000
     1.0000   1.0000   1.0000   1.0000   1.0000   1.0000   1.0000   1.0000
     0.8830   0.0000   0.0000   0.0000   0.0000

          k = 0.1667 0.4811 0.2049 (  2801 PWs)   bands (ev):

   -76.0226 -76.0123 -39.4719 -39.4461 -39.3259 -39.2884 -39.2575 -39.2200
    14.7078  15.1685  15.7692  16.3165  16.7879  17.3971  17.8823  18.4785
    19.0059  19.4698  21.0967  23.0996  27.5990

     occupation numbers 
     1.0000   1.0000   1.0000   1.0000   1.0000   1.0000   1.0000   1.0000
     1.0000   1.0000   1.0000   1.0000   1.0000   1.0000   1.0000   1.0000
     1.0000   0.0000   0.0000   0.0000   0.0000

          k = 0.1667 0.4811-0.3074 (  2792 PWs)   bands (ev):

   -76.0174 -76.0174 -39.4684 -39.4684 -39.3058 -39.3058 -39.2307 -39.2307
    14.8840  14.8840  16.1489  16.1489  17.1215  17.1215  18.1001  18.1001
    19.3290  19.3290  21.7792  21.7792  28.4472

     occupation numbers 
     1.0000   1.0000   1.0000   1.0000   1.0000   1.0000   1.0000   1.0000
     1.0000   1.0000   1.0000   1.0000   1.0000   1.0000   1.0000   1.0000
     0.0000   0.0000   0.0000   0.0000   0.0000

          k = 0.1667 0.5774 0.0000 (  2798 PWs)   bands (ev):

   -76.0226 -76.0077 -39.4596 -39.4048 -39.3415 -39.3286 -39.2560 -39.2537
    15.0704  15.1708  15.2053  16.3453  16.9272  17.1120  17.6837  19.1141
    19.2585  19.2850  21.9070  23.5048  29.9244

     occupation numbers 
     1.0000   1.0000   1.0000   1.0000   1.0000   1.0000   1.0000   1.0000
     1.0000   1.0000   1.0000   1.0000   1.0000   1.0000   1.0000   0.0000
     0.0000   0.0000   0.0000   0.0000   0.0000

          k = 0.1667 0.5774 0.1025 (  2801 PWs)   bands (ev):

   -76.0216 -76.0087 -39.4697 -39.4221 -39.3467 -39.2989 -39.2700 -39.2367
    14.8187  15.2377  15.6712  16.0181  16.8604  17.4074  17.7669  19.0159
    19.1122  19.3437  21.9684  23.4233  28.6962

     occupation numbers 
     1.0000   1.0000   1.0000   1.0000   1.0000   1.0000   1.0000   1.0000
     1.0000   1.0000   1.0000   1.0000   1.0000   1.0000   1.0000   1.0000
     0.0000   0.0000   0.0000   0.0000   0.0000

          k = 0.1667 0.5774 0.2049 (  2802 PWs)   bands (ev):

   -76.0189 -76.0114 -39.4825 -39.4548 -39.3349 -39.2893 -39.2582 -39.2239
    14.7517  15.2037  15.8234  16.2595  16.6989  17.5978  18.0280  18.5485
    19.1366  19.3907  22.1842  23.1372  27.5140

     occupation numbers 
     1.0000   1.0000   1.0000   1.0000   1.0000   1.0000   1.0000   1.0000
     1.0000   1.0000   1.0000   1.0000   1.0000   1.0000   1.0000   1.0000
     0.0000   0.0000   0.0000   0.0000   0.0000

          k = 0.1667 0.5774-0.3074 (  2790 PWs)   bands (ev):

   -76.0151 -76.0151 -39.4785 -39.4785 -39.3130 -39.3130 -39.2302 -39.2302
    14.9130  14.9130  16.1186  16.1186  17.1792  17.1792  18.2914  18.2914
    19.2646  19.2646  22.6392  22.6392  27.0860

     occupation numbers 
     1.0000   1.0000   1.0000   1.0000   1.0000   1.0000   1.0000   1.0000
     1.0000   1.0000   1.0000   1.0000   1.0000   1.0000   1.0000   1.0000
     0.0000   0.0000   0.0000   0.0000   0.0000

          k = 0.2500 0.4330 0.0000 (  2814 PWs)   bands (ev):

   -76.0277 -76.0072 -39.4224 -39.3994 -39.3599 -39.3186 -39.2685 -39.2417
    14.8684  15.3480  15.6834  15.6954  16.8076  17.2792  17.5902  18.5588
    19.2137  19.3149  20.8344  26.9138  27.7423

     occupation numbers 
     1.0000   1.0000   1.0000   1.0000   1.0000   1.0000   1.0000   1.0000
     1.0000   1.0000   1.0000   1.0000   1.0000   1.0000   1.0000   1.0000
     0.0000   0.0000   0.0000   0.0000   0.0000

          k = 0.2500 0.4330 0.1025 (  2811 PWs)   bands (ev):

   -76.0263 -76.0086 -39.4279 -39.4260 -39.3298 -39.3262 -39.2706 -39.2299
    14.9031  15.2839  15.7304  15.8842  16.9049  17.1127  17.5917  18.6020
    18.9864  19.3890  20.9472  25.3786  28.0274

     occupation numbers 
     1.0000   1.0000   1.0000   1.0000   1.0000   1.0000   1.0000   1.0000
     1.0000   1.0000   1.0000   1.0000   1.0000   1.0000   1.0000   1.0000
     1.0000   0.0000   0.0000   0.0000   0.0000

          k = 0.2500 0.4330 0.2049 (  2801 PWs)   bands (ev):

   -76.0226 -76.0123 -39.4520 -39.4399 -39.3347 -39.3079 -39.2564 -39.2193
    14.9865  15.1954  15.9289  16.2665  16.7487  16.9557  17.6522  18.3825
    18.9703  19.4782  21.2540  23.4055  28.8085

     occupation numbers 
     1.0000   1.0000   1.0000   1.0000   1.0000   1.0000   1.0000   1.0000
     1.0000   1.0000   1.0000   1.0000   1.0000   1.0000   1.0000   1.0000
     1.0000   0.0000   0.0000   0.0000   0.0000

          k = 0.2500 0.4330-0.3074 (  2786 PWs)   bands (ev):

   -76.0175 -76.0175 -39.4542 -39.4542 -39.3221 -39.3221 -39.2287 -39.2287
    15.0933  15.0933  16.2734  16.2734  16.7324  16.7324  17.9101  17.9101
    19.3515  19.3515  21.9761  21.9761  29.8281

     occupation numbers 
     1.0000   1.0000   1.0000   1.0000   1.0000   1.0000   1.0000   1.0000
     1.0000   1.0000   1.0000   1.0000   1.0000   1.0000   1.0000   1.0000
     0.0000   0.0000   0.0000   0.0000   0.0000

          k = 0.2500 0.5292 0.0000 (  2824 PWs)   bands (ev):

   -76.0191 -76.0085 -39.4364 -39.3897 -39.3516 -39.3280 -39.2917 -39.2672
    15.2918  15.3475  15.5250  15.9378  16.8192  17.0502  17.7763  18.8606
    19.1819  19.2485  22.3402  24.8178  27.0722

     occupation numbers 
     1.0000   1.0000   1.0000   1.0000   1.0000   1.0000   1.0000   1.0000
     1.0000   1.0000   1.0000   1.0000   1.0000   1.0000   1.0000   1.0000
     0.0000   0.0000   0.0000   0.0000   0.0000

          k = 0.2500 0.5292 0.1025 (  2807 PWs)   bands (ev):

   -76.0184 -76.0092 -39.4411 -39.4107 -39.3673 -39.3085 -39.2883 -39.2483
    15.1781  15.5505  15.6251  15.9061  16.8205  17.0034  17.7872  18.8765
    18.9549  19.3007  22.5162  24.8077  27.1086

     occupation numbers 
     1.0000   1.0000   1.0000   1.0000   1.0000   1.0000   1.0000   1.0000
     1.0000   1.0000   1.0000   1.0000   1.0000   1.0000   1.0000   1.0000
     1.0000   0.0000   0.0000   0.0000   0.0000

          k = 0.2500 0.5292 0.2049 (  2801 PWs)   bands (ev):

   -76.0164 -76.0112 -39.4548 -39.4393 -39.3675 -39.3245 -39.2504 -39.2273
    15.1869  15.5223  15.8497  16.1812  16.6234  16.9576  17.8478  18.4100
    19.0531  19.3514  22.9613  24.4539  27.0993

     occupation numbers 
     1.0000   1.0000   1.0000   1.0000   1.0000   1.0000   1.0000   1.0000
     1.0000   1.0000   1.0000   1.0000   1.0000   1.0000   1.0000   1.0000
     0.6020   0.0000   0.0000   0.0000   0.0000

          k = 0.2500 0.5292-0.3074 (  2802 PWs)   bands (ev):

   -76.0138 -76.0138 -39.4569 -39.4569 -39.3481 -39.3481 -39.2268 -39.2268
    15.3220  15.3220  16.1926  16.1926  16.7094  16.7094  18.0171  18.0171
    19.2563  19.2563  23.6508  23.6508  27.6495

     occupation numbers 
     1.0000   1.0000   1.0000   1.0000   1.0000   1.0000   1.0000   1.0000
     1.0000   1.0000   1.0000   1.0000   1.0000   1.0000   1.0000   1.0000
     0.0000   0.0000   0.0000   0.0000   0.0000

          k = 0.3333 0.5774 0.0000 (  2826 PWs)   bands (ev):

   -76.0125 -76.0125 -39.4254 -39.3736 -39.3736 -39.3190 -39.2964 -39.2964
    15.3134  15.5984  15.5984  15.8371  16.8767  16.8767  17.8799  19.0233
    19.0233  19.1504  23.9586  24.8261  24.8261

     occupation numbers 
     1.0000   1.0000   1.0000   1.0000   1.0000   1.0000   1.0000   1.0000
     1.0000   1.0000   1.0000   1.0000   1.0000   1.0000   1.0000   0.9996
     0.9996   0.0000   0.0000   0.0000   0.0000

          k = 0.3333 0.5774 0.1025 (  2814 PWs)   bands (ev):

   -76.0125 -76.0125 -39.4183 -39.3990 -39.3990 -39.3262 -39.2708 -39.2708
    15.4017  15.6432  15.6432  15.8612  16.8227  16.8227  17.8552  18.8948
    19.0719  19.0719  24.3684  24.8826  24.8827

     occupation numbers 
     1.0000   1.0000   1.0000   1.0000   1.0000   1.0000   1.0000   1.0000
     1.0000   1.0000   1.0000   1.0000   1.0000   1.0000   1.0000   1.0000
     0.0452   0.0452   0.0000   0.0000   0.0000

          k = 0.3333 0.5774 0.2049 (  2802 PWs)   bands (ev):

   -76.0125 -76.0125 -39.4314 -39.4314 -39.3989 -39.3457 -39.2381 -39.2381
    15.6198  15.7405  15.7405  15.8932  16.7135  16.7135  17.8352  18.3763
    19.1632  19.1632  25.0220  25.0220  25.3946

     occupation numbers 
     1.0000   1.0000   1.0000   1.0000   1.0000   1.0000   1.0000   1.0000
     1.0000   1.0000   1.0000   1.0000   1.0000   1.0000   1.0000   1.0000
     0.0000   0.0000   0.0000   0.0000   0.0000

          k = 0.3333 0.5774-0.3074 (  2772 PWs)   bands (ev):

   -76.0125 -76.0125 -39.4440 -39.4440 -39.3723 -39.3723 -39.2253 -39.2253
    15.7944  15.7944  15.8273  15.8273  16.6566  16.6566  17.9714  17.9714
    19.2064  19.2064  25.1104  25.1104  26.7796

     occupation numbers 
     1.0000   1.0000   1.0000   1.0000   1.0000   1.0000   1.0000   1.0000
     1.0000   1.0000   1.0000   1.0000   1.0000   1.0000   1.0000   1.0000
     0.0000   0.0000   0.0000   0.0000   0.0000

 ------ SPIN DOWN ----------


          k = 0.0000 0.0000 0.0000 (  2803 PWs)   bands (ev):

   -76.0883 -76.0264 -39.5160 -39.2121 -39.2121 -39.1614 -39.1614 -39.1571
    10.0100  14.2803  17.1684  17.2248  17.2248  17.5656  17.5656  17.9884
    17.9884  18.7797  19.1594  19.1594  25.9631

     occupation numbers 
     1.0000   1.0000   1.0000   1.0000   1.0000   1.0000   1.0000   1.0000
     1.0000   1.0000   1.0000   1.0000   1.0000   1.0000   1.0000   1.0000
     1.0000   1.0000   0.0000   0.0000   0.0000

          k = 0.0000 0.0000 0.1025 (  2797 PWs)   bands (ev):

   -76.0842 -76.0305 -39.4923 -39.2087 -39.2087 -39.1815 -39.1648 -39.1648
    10.2898  14.1466  17.0873  17.1618  17.1618  17.4878  17.4878  17.9896
    18.1568  18.1568  19.1416  19.1416  27.3840

     occupation numbers 
     1.0000   1.0000   1.0000   1.0000   1.0000   1.0000   1.0000   1.0000
     1.0000   1.0000   1.0000   1.0000   1.0000   1.0000   1.0000   1.0000
     1.0000   1.0000   0.0000   0.0000   0.0000

          k = 0.0000 0.0000 0.2049 (  2816 PWs)   bands (ev):

   -76.0729 -76.0419 -39.4273 -39.2479 -39.1995 -39.1995 -39.1741 -39.1741
    11.0950  13.5043  16.8901  16.9777  17.1077  17.1077  17.3163  17.3163
    18.4967  18.4967  19.0467  19.0467  30.4953

     occupation numbers 
     1.0000   1.0000   1.0000   1.0000   1.0000   1.0000   1.0000   1.0000
     1.0000   1.0000   1.0000   1.0000   1.0000   1.0000   1.0000   1.0000
     1.0000   1.0000   0.8238   0.8238   0.0000

          k = 0.0000 0.0000-0.3074 (  2834 PWs)   bands (ev):

   -76.0574 -76.0574 -39.3380 -39.3380 -39.1868 -39.1868 -39.1868 -39.1868
    12.2916  12.2916  16.7343  16.7343  17.1635  17.1635  17.1635  17.1635
    18.8250  18.8250  18.8250  18.8250  34.2580

     occupation numbers 
     1.0000   1.0000   1.0000   1.0000   1.0000   1.0000   1.0000   1.0000
     1.0000   1.0000   1.0000   1.0000   1.0000   1.0000   1.0000   1.0000
     1.0000   1.0000   1.0000   1.0000   0.0000

          k = 0.0000 0.0962 0.0000 (  2801 PWs)   bands (ev):

   -76.0847 -76.0246 -39.5081 -39.2298 -39.2178 -39.1797 -39.1644 -39.1602
    10.2568  14.4398  16.9512  17.3478  17.3959  17.5077  17.6747  17.6784
    17.9097  18.0260  19.1925  20.3800  25.9909

     occupation numbers 
     1.0000   1.0000   1.0000   1.0000   1.0000   1.0000   1.0000   1.0000
     1.0000   1.0000   1.0000   1.0000   1.0000   1.0000   1.0000   1.0000
     1.0000   1.0000   0.0000   0.0000   0.0000

          k = 0.0000 0.0962 0.1025 (  2795 PWs)   bands (ev):

   -76.0807 -76.0287 -39.4858 -39.2258 -39.2143 -39.1965 -39.1703 -39.1679
    10.5324  14.3208  16.9503  17.1762  17.2187  17.2687  17.5905  17.6669
    18.1054  18.1361  19.1664  19.8463  27.4807

     occupation numbers 
     1.0000   1.0000   1.0000   1.0000   1.0000   1.0000   1.0000   1.0000
     1.0000   1.0000   1.0000   1.0000   1.0000   1.0000   1.0000   1.0000
     1.0000   1.0000   0.0000   0.0000   0.0000

          k = 0.0000 0.0962 0.2049 (  2799 PWs)   bands (ev):

   -76.0697 -76.0397 -39.4246 -39.2563 -39.2147 -39.2045 -39.1842 -39.1777
    11.3256  13.7008  16.6598  16.8761  17.0129  17.2065  17.3917  17.4174
    18.4666  18.5072  19.0528  19.2908  30.6429

     occupation numbers 
     1.0000   1.0000   1.0000   1.0000   1.0000   1.0000   1.0000   1.0000
     1.0000   1.0000   1.0000   1.0000   1.0000   1.0000   1.0000   1.0000
     1.0000   1.0000   0.6163   0.0000   0.0000

          k = 0.0000 0.0962-0.3074 (  2812 PWs)   bands (ev):

   -76.0547 -76.0547 -39.3405 -39.3405 -39.1997 -39.1997 -39.1911 -39.1911
    12.5045  12.5045  16.6161  16.6161  17.1481  17.1481  17.2630  17.2630
    18.8116  18.8116  18.9034  18.9034  34.4256

     occupation numbers 
     1.0000   1.0000   1.0000   1.0000   1.0000   1.0000   1.0000   1.0000
     1.0000   1.0000   1.0000   1.0000   1.0000   1.0000   1.0000   1.0000
     1.0000   1.0000   1.0000   1.0000   0.0000

          k = 0.0000 0.1925 0.0000 (  2803 PWs)   bands (ev):

   -76.0747 -76.0201 -39.4857 -39.2783 -39.2331 -39.2293 -39.1727 -39.1697
    10.9722  14.8416  16.6392  16.7605  17.2986  17.6959  17.7163  17.7203
    17.8278  17.9812  19.2620  21.9786  26.0940

     occupation numbers 
     1.0000   1.0000   1.0000   1.0000   1.0000   1.0000   1.0000   1.0000
     1.0000   1.0000   1.0000   1.0000   1.0000   1.0000   1.0000   1.0000
     1.0000   1.0000   0.0000   0.0000   0.0000

          k = 0.0000 0.1925 0.1025 (  2796 PWs)   bands (ev):

   -76.0711 -76.0238 -39.4679 -39.2723 -39.2438 -39.2291 -39.1793 -39.1768
    11.2330  14.7698  16.4713  16.6778  17.1840  17.5089  17.5317  17.8566
    18.0684  18.1415  19.2176  21.0120  27.8006

     occupation numbers 
     1.0000   1.0000   1.0000   1.0000   1.0000   1.0000   1.0000   1.0000
     1.0000   1.0000   1.0000   1.0000   1.0000   1.0000   1.0000   1.0000
     1.0000   1.0000   0.0000   0.0000   0.0000

          k = 0.0000 0.1925 0.2049 (  2793 PWs)   bands (ev):

   -76.0611 -76.0338 -39.4196 -39.2899 -39.2530 -39.2181 -39.2019 -39.1879
    11.9811  14.2176  16.1976  16.7564  16.8569  17.3451  17.4509  17.6976
    18.4300  18.5782  19.0647  19.8560  31.0861

     occupation numbers 
     1.0000   1.0000   1.0000   1.0000   1.0000   1.0000   1.0000   1.0000
     1.0000   1.0000   1.0000   1.0000   1.0000   1.0000   1.0000   1.0000
     1.0000   1.0000   0.1721   0.0000   0.0000

          k = 0.0000 0.1925-0.3074 (  2798 PWs)   bands (ev):

   -76.0475 -76.0475 -39.3538 -39.3538 -39.2286 -39.2286 -39.2030 -39.2030
    13.0884  13.0884  16.3973  16.3973  17.0607  17.0607  17.5295  17.5295
    18.7901  18.7901  19.1185  19.1185  34.8858

     occupation numbers 
     1.0000   1.0000   1.0000   1.0000   1.0000   1.0000   1.0000   1.0000
     1.0000   1.0000   1.0000   1.0000   1.0000   1.0000   1.0000   1.0000
     1.0000   1.0000   0.0000   0.0000   0.0000

          k = 0.0000 0.2887 0.0000 (  2792 PWs)   bands (ev):

   -76.0605 -76.0145 -39.4519 -39.3452 -39.2958 -39.2534 -39.1856 -39.1847
    12.0668  15.1961  16.0226  16.4062  17.1686  17.4847  17.6155  18.1700
    18.2037  18.4229  19.3265  23.7651  26.3011

     occupation numbers 
     1.0000   1.0000   1.0000   1.0000   1.0000   1.0000   1.0000   1.0000
     1.0000   1.0000   1.0000   1.0000   1.0000   1.0000   1.0000   1.0000
     1.0000   1.0000   0.0000   0.0000   0.0000

          k = 0.0000 0.2887 0.1025 (  2789 PWs)   bands (ev):

   -76.0575 -76.0175 -39.4458 -39.3327 -39.3081 -39.2488 -39.1922 -39.1894
    12.2905  15.1904  15.8670  16.4653  17.0217  17.5220  17.5761  18.2492
    18.3228  18.3815  19.2651  22.2429  28.3878

     occupation numbers 
     1.0000   1.0000   1.0000   1.0000   1.0000   1.0000   1.0000   1.0000
     1.0000   1.0000   1.0000   1.0000   1.0000   1.0000   1.0000   1.0000
     1.0000   1.0000   0.0000   0.0000   0.0000

          k = 0.0000 0.2887 0.2049 (  2788 PWs)   bands (ev):

   -76.0490 -76.0260 -39.4251 -39.3489 -39.2915 -39.2363 -39.2137 -39.2019
    12.9222  14.7423  15.8775  16.5224  16.8442  17.3813  17.6445  18.0955
    18.5499  18.7300  19.0883  20.5411  31.7051

     occupation numbers 
     1.0000   1.0000   1.0000   1.0000   1.0000   1.0000   1.0000   1.0000
     1.0000   1.0000   1.0000   1.0000   1.0000   1.0000   1.0000   1.0000
     1.0000   1.0000   0.0003   0.0000   0.0000

          k = 0.0000 0.2887-0.3074 (  2802 PWs)   bands (ev):

   -76.0375 -76.0375 -39.3902 -39.3902 -39.2496 -39.2496 -39.2191 -39.2191
    13.8283  13.8283  16.2174  16.2174  17.0664  17.0664  17.8509  17.8509
    18.8284  18.8284  19.4165  19.4165  33.9119

     occupation numbers 
     1.0000   1.0000   1.0000   1.0000   1.0000   1.0000   1.0000   1.0000
     1.0000   1.0000   1.0000   1.0000   1.0000   1.0000   1.0000   1.0000
     1.0000   1.0000   0.0000   0.0000   0.0000

          k = 0.0000 0.3849 0.0000 (  2806 PWs)   bands (ev):

   -76.0453 -76.0098 -39.4126 -39.4126 -39.3610 -39.2732 -39.2072 -39.1972
    13.3206  15.1621  15.5015  16.4160  17.2765  17.2857  17.4106  18.7503
    18.8606  18.9029  19.3696  25.7027  26.2871

     occupation numbers 
     1.0000   1.0000   1.0000   1.0000   1.0000   1.0000   1.0000   1.0000
     1.0000   1.0000   1.0000   1.0000   1.0000   1.0000   1.0000   1.0000
     1.0000   1.0000   0.0000   0.0000   0.0000

          k = 0.0000 0.3849 0.1025 (  2796 PWs)   bands (ev):

   -76.0430 -76.0121 -39.4458 -39.3822 -39.3560 -39.2681 -39.2095 -39.2023
    13.4525  15.1528  15.5211  16.3509  17.1761  17.3742  17.6735  18.7662
    18.8119  18.8243  19.3079  23.4014  28.4922

     occupation numbers 
     1.0000   1.0000   1.0000   1.0000   1.0000   1.0000   1.0000   1.0000
     1.0000   1.0000   1.0000   1.0000   1.0000   1.0000   1.0000   1.0000
     1.0000   1.0000   0.0000   0.0000   0.0000

          k = 0.0000 0.3849 0.2049 (  2801 PWs)   bands (ev):

   -76.0364 -76.0187 -39.4558 -39.4115 -39.3033 -39.2542 -39.2229 -39.2162
    13.8152  14.8492  15.7305  16.2995  17.2175  17.6500  17.8563  18.4724
    18.8875  18.9694  19.1738  21.2926  29.6506

     occupation numbers 
     1.0000   1.0000   1.0000   1.0000   1.0000   1.0000   1.0000   1.0000
     1.0000   1.0000   1.0000   1.0000   1.0000   1.0000   1.0000   1.0000
     1.0000   1.0000   0.0000   0.0000   0.0000

          k = 0.0000 0.3849-0.3074 (  2796 PWs)   bands (ev):

   -76.0276 -76.0276 -39.4418 -39.4418 -39.2549 -39.2549 -39.2352 -39.2352
    14.3239  14.3239  16.0680  16.0680  17.5713  17.5713  18.0490  18.0490
    19.0240  19.0240  19.7891  19.7891  30.7471

     occupation numbers 
     1.0000   1.0000   1.0000   1.0000   1.0000   1.0000   1.0000   1.0000
     1.0000   1.0000   1.0000   1.0000   1.0000   1.0000   1.0000   1.0000
     0.9995   0.9995   0.0000   0.0000   0.0000

          k = 0.0000 0.4811 0.0000 (  2796 PWs)   bands (ev):

   -76.0329 -76.0076 -39.4623 -39.4080 -39.3762 -39.2874 -39.2306 -39.2065
    14.2897  14.9530  15.1932  16.6384  17.1347  17.2633  17.5089  19.1620
    19.3035  19.3920  19.9061  24.5299  27.6898

     occupation numbers 
     1.0000   1.0000   1.0000   1.0000   1.0000   1.0000   1.0000   1.0000
     1.0000   1.0000   1.0000   1.0000   1.0000   1.0000   1.0000   0.0000
     0.0000   0.0000   0.0000   0.0000   0.0000

          k = 0.0000 0.4811 0.1025 (  2806 PWs)   bands (ev):

   -76.0312 -76.0093 -39.4779 -39.4248 -39.3460 -39.2820 -39.2282 -39.2119
    14.2319  14.9281  15.4692  16.1958  17.2546  17.4870  17.9574  19.0998
    19.1960  19.3855  19.7278  23.6786  27.1721

     occupation numbers 
     1.0000   1.0000   1.0000   1.0000   1.0000   1.0000   1.0000   1.0000
     1.0000   1.0000   1.0000   1.0000   1.0000   1.0000   1.0000   0.0000
     0.0000   0.0000   0.0000   0.0000   0.0000

          k = 0.0000 0.4811 0.2049 (  2797 PWs)   bands (ev):

   -76.0266 -76.0139 -39.4918 -39.4574 -39.2956 -39.2673 -39.2318 -39.2268
    14.2492  14.7837  15.7077  16.0769  17.5957  17.6701  18.6548  18.9611
    19.2302  19.2721  19.3461  21.9608  27.3574

     occupation numbers 
     1.0000   1.0000   1.0000   1.0000   1.0000   1.0000   1.0000   1.0000
     1.0000   1.0000   1.0000   1.0000   1.0000   1.0000   1.0000   1.0000
     0.0000   0.0000   0.0000   0.0000   0.0000

[...]
    19.3288  19.3535  20.8160  23.6327  28.7894

     occupation numbers 
     1.0000   1.0000   1.0000   1.0000   1.0000   1.0000   1.0000   1.0000
     1.0000   1.0000   1.0000   1.0000   1.0000   1.0000   1.0000   0.0000
     0.0000   0.0000   0.0000   0.0000   0.0000

          k = 0.0833 0.5292 0.1025 (  2806 PWs)   bands (ev):

   -76.0264 -76.0088 -39.4835 -39.4326 -39.3376 -39.2928 -39.2419 -39.2218
    14.4991  14.9638  15.5464  16.1224  17.0797  17.6444  17.8481  19.1066
    19.2743  19.3650  20.7010  23.3182  27.6518

     occupation numbers 
     1.0000   1.0000   1.0000   1.0000   1.0000   1.0000   1.0000   1.0000
     1.0000   1.0000   1.0000   1.0000   1.0000   1.0000   1.0000   0.0000
     0.0000   0.0000   0.0000   0.0000   0.0000

          k = 0.0833 0.5292 0.2049 (  2803 PWs)   bands (ev):

   -76.0227 -76.0125 -39.4969 -39.4652 -39.3035 -39.2684 -39.2526 -39.2234
    14.4255  14.8820  15.7566  16.0761  17.2124  17.9642  18.3669  18.7088
    19.2301  19.4476  20.5891  22.3840  27.0292

     occupation numbers 
     1.0000   1.0000   1.0000   1.0000   1.0000   1.0000   1.0000   1.0000
     1.0000   1.0000   1.0000   1.0000   1.0000   1.0000   1.0000   1.0000
     0.0000   0.0000   0.0000   0.0000   0.0000

          k = 0.0833 0.5292-0.3074 (  2794 PWs)   bands (ev):

   -76.0176 -76.0176 -39.4908 -39.4908 -39.2763 -39.2763 -39.2378 -39.2378
    14.5895  14.5895  15.9693  15.9693  17.7828  17.7828  18.4965  18.4965
    19.3097  19.3097  21.2503  21.2503  27.2988

     occupation numbers 
     1.0000   1.0000   1.0000   1.0000   1.0000   1.0000   1.0000   1.0000
     1.0000   1.0000   1.0000   1.0000   1.0000   1.0000   1.0000   1.0000
     0.0000   0.0000   0.0000   0.0000   0.0000

          k = 0.1667 0.2887 0.0000 (  2788 PWs)   bands (ev):

   -76.0531 -76.0119 -39.4333 -39.3522 -39.3427 -39.2572 -39.2097 -39.1954
    12.6890  15.4914  15.8297  16.0560  17.1249  17.2165  17.7176  18.0217
    18.5870  18.9603  19.2755  24.6974  26.5638

     occupation numbers 
     1.0000   1.0000   1.0000   1.0000   1.0000   1.0000   1.0000   1.0000
     1.0000   1.0000   1.0000   1.0000   1.0000   1.0000   1.0000   1.0000
     1.0000   1.0000   0.0000   0.0000   0.0000

          k = 0.1667 0.2887 0.1025 (  2789 PWs)   bands (ev):

   -76.0504 -76.0147 -39.4351 -39.3495 -39.3328 -39.2629 -39.2140 -39.1964
    12.8894  15.5525  15.6685  16.1167  17.0584  17.2345  17.6007  18.1174
    18.7125  18.8131  19.3082  22.9047  28.8595

     occupation numbers 
     1.0000   1.0000   1.0000   1.0000   1.0000   1.0000   1.0000   1.0000
     1.0000   1.0000   1.0000   1.0000   1.0000   1.0000   1.0000   1.0000
     1.0000   1.0000   0.0000   0.0000   0.0000

          k = 0.1667 0.2887 0.2049 (  2793 PWs)   bands (ev):

   -76.0428 -76.0222 -39.4281 -39.3732 -39.2932 -39.2651 -39.2243 -39.2072
    13.4488  15.0342  15.8920  16.2800  16.8315  17.0844  17.6242  18.2246
    18.7949  18.9299  19.2974  20.9952  32.1969

     occupation numbers 
     1.0000   1.0000   1.0000   1.0000   1.0000   1.0000   1.0000   1.0000
     1.0000   1.0000   1.0000   1.0000   1.0000   1.0000   1.0000   1.0000
     1.0000   1.0000   0.0000   0.0000   0.0000

          k = 0.1667 0.2887-0.3074 (  2794 PWs)   bands (ev):

   -76.0325 -76.0325 -39.4049 -39.4049 -39.2644 -39.2644 -39.2262 -39.2262
    14.2360  14.2360  16.2446  16.2446  16.7833  16.7833  17.9199  17.9199
    19.0958  19.0958  19.6645  19.6645  34.1142

     occupation numbers 
     1.0000   1.0000   1.0000   1.0000   1.0000   1.0000   1.0000   1.0000
     1.0000   1.0000   1.0000   1.0000   1.0000   1.0000   1.0000   1.0000
     0.0000   0.0000   0.0000   0.0000   0.0000

          k = 0.1667 0.3849 0.0000 (  2800 PWs)   bands (ev):

   -76.0394 -76.0084 -39.4040 -39.3959 -39.3801 -39.2880 -39.2326 -39.2174
    13.8815  15.4834  15.5062  15.9610  16.9422  17.3616  17.4982  18.3586
    19.0707  19.2677  19.7419  26.5446  26.8835

     occupation numbers 
     1.0000   1.0000   1.0000   1.0000   1.0000   1.0000   1.0000   1.0000
     1.0000   1.0000   1.0000   1.0000   1.0000   1.0000   1.0000   1.0000
     0.0583   0.0000   0.0000   0.0000   0.0000

          k = 0.1667 0.3849 0.1025 (  2799 PWs)   bands (ev):

   -76.0373 -76.0105 -39.4333 -39.3975 -39.3444 -39.2925 -39.2383 -39.2120
    13.9952  15.3858  15.6058  16.0606  16.9522  17.3439  17.4459  18.4008
    19.0271  19.1678  19.8348  24.1273  29.0589

     occupation numbers 
     1.0000   1.0000   1.0000   1.0000   1.0000   1.0000   1.0000   1.0000
     1.0000   1.0000   1.0000   1.0000   1.0000   1.0000   1.0000   1.0000
     0.9985   0.0000   0.0000   0.0000   0.0000

          k = 0.1667 0.3849 0.2049 (  2799 PWs)   bands (ev):

   -76.0316 -76.0162 -39.4484 -39.4185 -39.3046 -39.2874 -39.2460 -39.2130
    14.3015  15.1112  15.8738  16.2861  16.8435  17.1204  17.6087  18.3767
    18.9058  19.3379  19.9621  21.9900  30.0609

     occupation numbers 
     1.0000   1.0000   1.0000   1.0000   1.0000   1.0000   1.0000   1.0000
     1.0000   1.0000   1.0000   1.0000   1.0000   1.0000   1.0000   1.0000
     1.0000   0.0000   0.0000   0.0000   0.0000

          k = 0.1667 0.3849-0.3074 (  2794 PWs)   bands (ev):

   -76.0239 -76.0239 -39.4410 -39.4410 -39.2871 -39.2871 -39.2309 -39.2309
    14.7116  14.7116  16.2245  16.2245  16.8720  16.8720  17.9363  17.9363
    19.3280  19.3280  20.4979  20.4979  31.1951

     occupation numbers 
     1.0000   1.0000   1.0000   1.0000   1.0000   1.0000   1.0000   1.0000
     1.0000   1.0000   1.0000   1.0000   1.0000   1.0000   1.0000   1.0000
     0.0000   0.0000   0.0000   0.0000   0.0000

          k = 0.1667 0.4811 0.0000 (  2800 PWs)   bands (ev):

   -76.0278 -76.0074 -39.4449 -39.3991 -39.3599 -39.3168 -39.2482 -39.2421
    14.7831  15.2744  15.2860  16.1663  16.8932  17.2532  17.5857  18.8058
    19.2610  19.3110  20.8043  25.2311  28.5371

     occupation numbers 
     1.0000   1.0000   1.0000   1.0000   1.0000   1.0000   1.0000   1.0000
     1.0000   1.0000   1.0000   1.0000   1.0000   1.0000   1.0000   1.0000
     0.0000   0.0000   0.0000   0.0000   0.0000

          k = 0.1667 0.4811 0.1025 (  2801 PWs)   bands (ev):

   -76.0264 -76.0087 -39.4574 -39.4173 -39.3421 -39.3069 -39.2585 -39.2287
    14.7060  15.3098  15.4842  16.0874  16.9264  17.3158  17.6591  18.7960
    19.0440  19.3808  20.8678  24.6173  27.4806

     occupation numbers 
     1.0000   1.0000   1.0000   1.0000   1.0000   1.0000   1.0000   1.0000
     1.0000   1.0000   1.0000   1.0000   1.0000   1.0000   1.0000   1.0000
     0.8864   0.0000   0.0000   0.0000   0.0000

          k = 0.1667 0.4811 0.2049 (  2801 PWs)   bands (ev):

   -76.0227 -76.0125 -39.4721 -39.4463 -39.3260 -39.2886 -39.2576 -39.2201
    14.7077  15.1684  15.7691  16.3164  16.7878  17.3970  17.8822  18.4783
    19.0058  19.4697  21.0967  23.0996  27.5990

     occupation numbers 
     1.0000   1.0000   1.0000   1.0000   1.0000   1.0000   1.0000   1.0000
     1.0000   1.0000   1.0000   1.0000   1.0000   1.0000   1.0000   1.0000
     1.0000   0.0000   0.0000   0.0000   0.0000

          k = 0.1667 0.4811-0.3074 (  2792 PWs)   bands (ev):

   -76.0176 -76.0176 -39.4685 -39.4685 -39.3059 -39.3059 -39.2308 -39.2308
    14.8839  14.8839  16.1489  16.1489  17.1214  17.1214  18.1000  18.1000
    19.3289  19.3289  21.7791  21.7791  28.4472

     occupation numbers 
     1.0000   1.0000   1.0000   1.0000   1.0000   1.0000   1.0000   1.0000
     1.0000   1.0000   1.0000   1.0000   1.0000   1.0000   1.0000   1.0000
     0.0000   0.0000   0.0000   0.0000   0.0000

          k = 0.1667 0.5774 0.0000 (  2798 PWs)   bands (ev):

   -76.0227 -76.0078 -39.4597 -39.4049 -39.3416 -39.3287 -39.2562 -39.2538
    15.0704  15.1708  15.2052  16.3453  16.9270  17.1119  17.6837  19.1140
    19.2583  19.2850  21.9069  23.5048  29.9269

     occupation numbers 
     1.0000   1.0000   1.0000   1.0000   1.0000   1.0000   1.0000   1.0000
     1.0000   1.0000   1.0000   1.0000   1.0000   1.0000   1.0000   0.0000
     0.0000   0.0000   0.0000   0.0000   0.0000

          k = 0.1667 0.5774 0.1025 (  2801 PWs)   bands (ev):

   -76.0217 -76.0088 -39.4698 -39.4222 -39.3468 -39.2990 -39.2701 -39.2369
    14.8186  15.2377  15.6711  16.0180  16.8603  17.4073  17.7669  19.0157
    19.1122  19.3436  21.9684  23.4233  28.6964

     occupation numbers 
     1.0000   1.0000   1.0000   1.0000   1.0000   1.0000   1.0000   1.0000
     1.0000   1.0000   1.0000   1.0000   1.0000   1.0000   1.0000   1.0000
     0.0000   0.0000   0.0000   0.0000   0.0000

          k = 0.1667 0.5774 0.2049 (  2802 PWs)   bands (ev):

   -76.0190 -76.0116 -39.4826 -39.4550 -39.3351 -39.2894 -39.2583 -39.2240
    14.7517  15.2037  15.8233  16.2594  16.6988  17.5977  18.0280  18.5484
    19.1365  19.3906  22.1842  23.1372  27.5139

     occupation numbers 
     1.0000   1.0000   1.0000   1.0000   1.0000   1.0000   1.0000   1.0000
     1.0000   1.0000   1.0000   1.0000   1.0000   1.0000   1.0000   1.0000
     0.0000   0.0000   0.0000   0.0000   0.0000

          k = 0.1667 0.5774-0.3074 (  2790 PWs)   bands (ev):

   -76.0153 -76.0153 -39.4787 -39.4787 -39.3131 -39.3131 -39.2304 -39.2304
    14.9129  14.9129  16.1185  16.1185  17.1791  17.1791  18.2913  18.2913
    19.2645  19.2645  22.6392  22.6392  27.0859

     occupation numbers 
     1.0000   1.0000   1.0000   1.0000   1.0000   1.0000   1.0000   1.0000
     1.0000   1.0000   1.0000   1.0000   1.0000   1.0000   1.0000   1.0000
     0.0000   0.0000   0.0000   0.0000   0.0000

          k = 0.2500 0.4330 0.0000 (  2814 PWs)   bands (ev):

   -76.0278 -76.0073 -39.4225 -39.3995 -39.3601 -39.3187 -39.2687 -39.2419
    14.8684  15.3479  15.6834  15.6953  16.8075  17.2790  17.5902  18.5587
    19.2135  19.3148  20.8344  26.9138  27.7423

     occupation numbers 
     1.0000   1.0000   1.0000   1.0000   1.0000   1.0000   1.0000   1.0000
     1.0000   1.0000   1.0000   1.0000   1.0000   1.0000   1.0000   1.0000
     0.0000   0.0000   0.0000   0.0000   0.0000

          k = 0.2500 0.4330 0.1025 (  2811 PWs)   bands (ev):

   -76.0265 -76.0087 -39.4280 -39.4261 -39.3299 -39.3264 -39.2707 -39.2301
    14.9031  15.2838  15.7303  15.8841  16.9048  17.1125  17.5916  18.6020
    18.9863  19.3889  20.9471  25.3786  28.0274

     occupation numbers 
     1.0000   1.0000   1.0000   1.0000   1.0000   1.0000   1.0000   1.0000
     1.0000   1.0000   1.0000   1.0000   1.0000   1.0000   1.0000   1.0000
     1.0000   0.0000   0.0000   0.0000   0.0000

          k = 0.2500 0.4330 0.2049 (  2801 PWs)   bands (ev):

   -76.0227 -76.0125 -39.4521 -39.4400 -39.3348 -39.3081 -39.2566 -39.2194
    14.9865  15.1953  15.9288  16.2664  16.7486  16.9556  17.6521  18.3823
    18.9702  19.4781  21.2539  23.4055  28.8085

     occupation numbers 
     1.0000   1.0000   1.0000   1.0000   1.0000   1.0000   1.0000   1.0000
     1.0000   1.0000   1.0000   1.0000   1.0000   1.0000   1.0000   1.0000
     1.0000   0.0000   0.0000   0.0000   0.0000

          k = 0.2500 0.4330-0.3074 (  2786 PWs)   bands (ev):

   -76.0176 -76.0176 -39.4544 -39.4544 -39.3222 -39.3222 -39.2288 -39.2288
    15.0933  15.0933  16.2733  16.2733  16.7323  16.7323  17.9099  17.9099
    19.3514  19.3514  21.9760  21.9760  29.8281

     occupation numbers 
     1.0000   1.0000   1.0000   1.0000   1.0000   1.0000   1.0000   1.0000
     1.0000   1.0000   1.0000   1.0000   1.0000   1.0000   1.0000   1.0000
     0.0000   0.0000   0.0000   0.0000   0.0000

          k = 0.2500 0.5292 0.0000 (  2824 PWs)   bands (ev):

   -76.0192 -76.0087 -39.4365 -39.3898 -39.3517 -39.3281 -39.2918 -39.2673
    15.2917  15.3475  15.5250  15.9377  16.8190  17.0501  17.7763  18.8605
    19.1817  19.2485  22.3402  24.8178  27.0722

     occupation numbers 
     1.0000   1.0000   1.0000   1.0000   1.0000   1.0000   1.0000   1.0000
     1.0000   1.0000   1.0000   1.0000   1.0000   1.0000   1.0000   1.0000
     0.0000   0.0000   0.0000   0.0000   0.0000

          k = 0.2500 0.5292 0.1025 (  2807 PWs)   bands (ev):

   -76.0185 -76.0094 -39.4412 -39.4108 -39.3674 -39.3086 -39.2884 -39.2485
    15.1780  15.5504  15.6251  15.9060  16.8204  17.0033  17.7871  18.8764
    18.9547  19.3006  22.5161  24.8077  27.1086

     occupation numbers 
     1.0000   1.0000   1.0000   1.0000   1.0000   1.0000   1.0000   1.0000
     1.0000   1.0000   1.0000   1.0000   1.0000   1.0000   1.0000   1.0000
     1.0000   0.0000   0.0000   0.0000   0.0000

          k = 0.2500 0.5292 0.2049 (  2801 PWs)   bands (ev):

   -76.0166 -76.0113 -39.4549 -39.4394 -39.3677 -39.3246 -39.2506 -39.2274
    15.1868  15.5222  15.8497  16.1811  16.6233  16.9575  17.8477  18.4098
    19.0531  19.3513  22.9612  24.4539  27.0993

     occupation numbers 
     1.0000   1.0000   1.0000   1.0000   1.0000   1.0000   1.0000   1.0000
     1.0000   1.0000   1.0000   1.0000   1.0000   1.0000   1.0000   1.0000
     0.6052   0.0000   0.0000   0.0000   0.0000

          k = 0.2500 0.5292-0.3074 (  2802 PWs)   bands (ev):

   -76.0139 -76.0139 -39.4571 -39.4571 -39.3482 -39.3482 -39.2269 -39.2269
    15.3220  15.3220  16.1925  16.1925  16.7093  16.7093  18.0170  18.0170
    19.2562  19.2562  23.6508  23.6508  27.6494

     occupation numbers 
     1.0000   1.0000   1.0000   1.0000   1.0000   1.0000   1.0000   1.0000
     1.0000   1.0000   1.0000   1.0000   1.0000   1.0000   1.0000   1.0000
     0.0000   0.0000   0.0000   0.0000   0.0000

          k = 0.3333 0.5774 0.0000 (  2826 PWs)   bands (ev):

   -76.0126 -76.0126 -39.4255 -39.3737 -39.3737 -39.3191 -39.2965 -39.2965
    15.3133  15.5984  15.5984  15.8371  16.8766  16.8766  17.8799  19.0233
    19.0233  19.1502  23.9586  24.8261  24.8261

     occupation numbers 
     1.0000   1.0000   1.0000   1.0000   1.0000   1.0000   1.0000   1.0000
     1.0000   1.0000   1.0000   1.0000   1.0000   1.0000   1.0000   0.9996
     0.9996   0.0000   0.0000   0.0000   0.0000

          k = 0.3333 0.5774 0.1025 (  2814 PWs)   bands (ev):

   -76.0126 -76.0126 -39.4184 -39.3991 -39.3991 -39.3263 -39.2710 -39.2710
    15.4016  15.6432  15.6432  15.8612  16.8226  16.8226  17.8552  18.8946
    19.0719  19.0719  24.3684  24.8826  24.8826

     occupation numbers 
     1.0000   1.0000   1.0000   1.0000   1.0000   1.0000   1.0000   1.0000
     1.0000   1.0000   1.0000   1.0000   1.0000   1.0000   1.0000   1.0000
     0.0458   0.0458   0.0000   0.0000   0.0000

          k = 0.3333 0.5774 0.2049 (  2802 PWs)   bands (ev):

   -76.0126 -76.0126 -39.4315 -39.4315 -39.3990 -39.3458 -39.2383 -39.2383
    15.6197  15.7404  15.7404  15.8931  16.7135  16.7135  17.8351  18.3762
    19.1632  19.1632  25.0220  25.0220  25.3946

     occupation numbers 
     1.0000   1.0000   1.0000   1.0000   1.0000   1.0000   1.0000   1.0000
     1.0000   1.0000   1.0000   1.0000   1.0000   1.0000   1.0000   1.0000
     0.0000   0.0000   0.0000   0.0000   0.0000

          k = 0.3333 0.5774-0.3074 (  2772 PWs)   bands (ev):

   -76.0126 -76.0126 -39.4441 -39.4441 -39.3724 -39.3724 -39.2255 -39.2255
    15.7943  15.7943  15.8273  15.8273  16.6565  16.6565  17.9713  17.9713
    19.2063  19.2063  25.1104  25.1104  26.7796

     occupation numbers 
     1.0000   1.0000   1.0000   1.0000   1.0000   1.0000   1.0000   1.0000
     1.0000   1.0000   1.0000   1.0000   1.0000   1.0000   1.0000   1.0000
     0.0000   0.0000   0.0000   0.0000   0.0000

     the Fermi energy is    19.0556 ev

!    total energy              =    -753.42240444 Ry
     total all-electron energy =     -5573.779096 Ry
     estimated scf accuracy    <       0.00000002 Ry
     smearing contrib. (-TS)   =      -0.00005990 Ry
     internal energy E=F+TS    =    -753.42234454 Ry

     The total energy is F=E-TS. E is the sum of the following terms:
     one-electron contribution =    -278.70486869 Ry
     hartree contribution      =     163.35802586 Ry
     xc contribution           =     -61.25603186 Ry
     ewald contribution        =    -401.63724122 Ry
     one-center paw contrib.   =    -175.18222862 Ry
      -> PAW hartree energy AE =     222.05060472 Ry
      -> PAW hartree energy PS =    -220.99272841 Ry
      -> PAW xc energy AE      =    -117.60024210 Ry
      -> PAW xc energy PS      =      28.95125148 Ry
      -> total E_H with PAW    =     164.41590217 Ry
      -> total E_XC with PAW   =    -149.90502249 Ry

     total magnetization       =    -0.00 Bohr mag/cell
     absolute magnetization    =     0.00 Bohr mag/cell

     convergence has been achieved in   3 iterations

     Writing all to output data dir ./out/Co.save/

     init_run     :      0.94s CPU      1.10s WALL (       1 calls)
     electrons    :     20.40s CPU     21.10s WALL (       1 calls)

     Called by init_run:
     wfcinit      :      0.38s CPU      0.43s WALL (       1 calls)
     potinit      :      0.29s CPU      0.36s WALL (       1 calls)
     hinit0       :      0.23s CPU      0.23s WALL (       1 calls)

     Called by electrons:
     c_bands      :     16.99s CPU     17.38s WALL (       4 calls)
     sum_band     :      2.47s CPU      2.55s WALL (       4 calls)
     v_of_rho     :      0.05s CPU      0.05s WALL (       4 calls)
     v_h          :      0.00s CPU      0.00s WALL (       4 calls)
     v_xc         :      0.05s CPU      0.05s WALL (       4 calls)
     newd         :      0.10s CPU      0.11s WALL (       4 calls)
     PAW_pot      :      1.08s CPU      1.32s WALL (       4 calls)
     mix_rho      :      0.01s CPU      0.01s WALL (       4 calls)

     Called by c_bands:
     init_us_2    :      0.23s CPU      0.23s WALL (    1216 calls)
     init_us_2:cp :      0.22s CPU      0.23s WALL (    1216 calls)
     cegterg      :     16.33s CPU     16.71s WALL (     608 calls)

     Called by sum_band:
     sum_band:wei :      0.01s CPU      0.01s WALL (       4 calls)
     sum_band:loo :      2.30s CPU      2.38s WALL (       4 calls)
     sum_band:buf :      0.03s CPU      0.03s WALL (     608 calls)
     sum_band:ini :      0.10s CPU      0.10s WALL (     608 calls)
     sum_band:cal :      0.49s CPU      0.51s WALL (     608 calls)
     sum_band:bec :      0.02s CPU      0.03s WALL (     608 calls)
     addusdens    :      0.15s CPU      0.15s WALL (       4 calls)
                                        0.00s GPU  (       4 calls)
     addusd:skk   :      0.00s CPU      0.00s WALL (       4 calls)
                                        0.00s GPU  (       4 calls)

     Called by *egterg:
     cdiaghg      :      1.45s CPU      1.47s WALL (    1352 calls)
     cegterg:over :      1.58s CPU      1.61s WALL (    1048 calls)
     cegterg:upda :      0.69s CPU      0.69s WALL (    1048 calls)
     cegterg:last :      1.15s CPU      1.15s WALL (     860 calls)
     h_psi        :      9.31s CPU      9.59s WALL (    1656 calls)
     s_psi        :      1.03s CPU      1.06s WALL (    1656 calls)
     g_psi        :      0.10s CPU      0.10s WALL (    1048 calls)

     Called by h_psi:
     h_psi:calbec :      1.19s CPU      1.24s WALL (    1656 calls)
     vloc_psi     :      7.01s CPU      7.20s WALL (    1656 calls)
     add_vuspsi   :      1.04s CPU      1.07s WALL (    1656 calls)

     General routines
     calbec       :      1.67s CPU      1.74s WALL (    2264 calls)
     fft          :      0.13s CPU      0.14s WALL (      96 calls)
     ffts         :      0.00s CPU      0.00s WALL (      16 calls)
     fftw         :      6.79s CPU      7.00s WALL (   70442 calls)
     interpolate  :      0.00s CPU      0.00s WALL (       8 calls)

     Parallel routines

     PAW routines
     PAW_pot      :      1.08s CPU      1.32s WALL (       4 calls)
     PAW_symme    :      0.00s CPU      0.00s WALL (       7 calls)

     PWSCF        :     21.90s CPU     23.29s WALL


   This run was terminated on:  17:18:15  13Mar2024            

=------------------------------------------------------------------------------=
   JOB DONE.
=------------------------------------------------------------------------------=
