
     Program PWSCF v.7.2 starts on 22Jul2024 at  7:54: 5 

     This program is part of the open-source Quantum ESPRESSO suite
     for quantum simulation of materials; please cite
         "P. Giannozzi et al., J. Phys.:Condens. Matter 21 395502 (2009);
         "P. Giannozzi et al., J. Phys.:Condens. Matter 29 465901 (2017);
         "P. Giannozzi et al., J. Chem. Phys. 152 154105 (2020);
          URL http://www.quantum-espresso.org", 
     in publications or presentations arising from this work. More details at
     http://www.quantum-espresso.org/quote

     Parallel version (MPI), running on  1456 processors

     MPI processes distributed on    13 nodes
     208025 MiB available memory on the printing compute node when the environment starts
 
     Reading input from 2.Cu_vac_in_ZnS.nscf.qn1.unrlxd.U7.in

     Current dimensions of program PWSCF are:
     Max number of different atomic species (ntypx) = 10
     Max number of k-points (npk) =  40000
     Max angular momentum in pseudopotentials (lmaxx) =  4

     Atomic positions and unit cell read from directory:
     ./out/Cu_vac_qn1_U7_unrlxd.save/
 
     file S.pbe-n-kjpaw_psl.1.0.0.UPF: wavefunction(s)  3S 3P renormalized
     file Zn.pbe-dnl-kjpaw_psl.1.0.0.UPF: wavefunction(s)  4S 3D renormalized
     file Cu.pbe-spn-kjpaw_psl.1.0.0.UPF: wavefunction(s)  4S 3P 3D renormalized
     [opt_tetra]  Optimized tetrahedron method is used.
 
     K-points division:     npool     =      13
     R & G space division:  proc/nbgrp/npool/nimage =     112
     Subspace diagonalization in iterative solution of the eigenvalue problem:
     one sub-group per band group will be used
     scalapack distributed-memory algorithm (size of sub-group:  3*  3 procs)

 
     Parallelization info
     --------------------
     sticks:   dense  smooth     PW     G-vecs:    dense   smooth      PW
     Min         180     180     46                19282    19282    2562
     Max         181     181     47                19291    19291    2573
     Sum       20217   20217   5249              2160009  2160009  287777
 
     Using Slab Decomposition
 


     bravais-lattice index     =            1
     lattice parameter (alat)  =      20.5686  a.u.
     unit-cell volume          =    8701.8437 (a.u.)^3
     number of atoms/cell      =           63
     number of atomic types    =            3
     number of electrons       =       578.00
     number of Kohn-Sham states=          347
     kinetic-energy cutoff     =     150.0000  Ry
     charge density cutoff     =     600.0000  Ry
     Exchange-correlation= SLA  PW   PBX  PBC
                           (   1   4   3   4   0   0   0)
     Hubbard projectors: ortho-atomic
     Hubbard parameters of DFT+U (Dudarev formulation) in eV:
     U(Zn-3d) =  7.0000
     U(Cu-3d) =  7.0000

     Internal variables: lda_plus_u = T, lda_plus_u_kind = 0

     celldm(1)=  20.568554  celldm(2)=   0.000000  celldm(3)=   0.000000
     celldm(4)=   0.000000  celldm(5)=   0.000000  celldm(6)=   0.000000

     crystal axes: (cart. coord. in units of alat)
               a(1) = (   1.000000   0.000000   0.000000 )  
               a(2) = (   0.000000   1.000000   0.000000 )  
               a(3) = (   0.000000   0.000000   1.000000 )  

     reciprocal axes: (cart. coord. in units 2 pi/alat)
               b(1) = (  1.000000  0.000000  0.000000 )  
               b(2) = (  0.000000  1.000000  0.000000 )  
               b(3) = (  0.000000  0.000000  1.000000 )  


     PseudoPot. # 1 for S  read from file:
     /arf/home/amuhaymin/pseudo/S.pbe-n-kjpaw_psl.1.0.0.UPF
     MD5 check sum: fb45dfebcf3e72a4e1bd4a866ec2e262
     Pseudo is Projector augmented-wave + core cor, Zval =  6.0
     Generated using &quot;atomic&quot; code by A. Dal Corso  v.6.3
     Shape of augmentation charge: PSQ
     Using radial grid of 1151 points,  6 beta functions with: 
                l(1) =   0
                l(2) =   0
                l(3) =   1
                l(4) =   1
                l(5) =   2
                l(6) =   2
     Q(r) pseudized with 0 coefficients 


     PseudoPot. # 2 for Zn read from file:
     /arf/home/amuhaymin/pseudo/Zn.pbe-dnl-kjpaw_psl.1.0.0.UPF
     MD5 check sum: c608214d9520ac179f507641260889e3
     Pseudo is Projector augmented-wave + core cor, Zval = 12.0
     Generated using &quot;atomic&quot; code by A. Dal Corso  v.6.2.2
     Shape of augmentation charge: PSQ
     Using radial grid of 1201 points,  6 beta functions with: 
                l(1) =   0
                l(2) =   0
                l(3) =   1
                l(4) =   1
                l(5) =   2
                l(6) =   2
     Q(r) pseudized with 0 coefficients 


     PseudoPot. # 3 for Cu read from file:
     /arf/home/amuhaymin/pseudo/Cu.pbe-spn-kjpaw_psl.1.0.0.UPF
     MD5 check sum: e7cbaad2f97193e5fe23251a619a52b0
     Pseudo is Projector augmented-wave + core cor, Zval = 19.0
     Generated using &quot;atomic&quot; code by A. Dal Corso  v.6.3
     Shape of augmentation charge: PSQ
     Using radial grid of 1199 points,  6 beta functions with: 
                l(1) =   0
                l(2) =   0
                l(3) =   1
                l(4) =   1
                l(5) =   2
                l(6) =   2
     Q(r) pseudized with 0 coefficients 


     atomic species   valence    mass     pseudopotential
        S              6.00    32.06500     S ( 1.00)
        Zn            12.00    65.38000     Zn( 1.00)
        Cu            19.00    63.54600     Cu( 1.00)

     Starting magnetic structure 
     atomic species   magnetization
        S            0.000
        Zn           0.000
        Cu           0.000

      6 Sym. Ops. (no inversion) found


                                    s                        frac. trans.

      isym =  1     identity                                     

 cryst.   s( 1) = (     1          0          0      )
                  (     0          1          0      )
                  (     0          0          1      )

 cart.    s( 1) = (  1.0000000  0.0000000  0.0000000 )
                  (  0.0000000  1.0000000  0.0000000 )
                  (  0.0000000  0.0000000  1.0000000 )


      isym =  2     120 deg rotation - cart. axis [-1,-1,-1]     

 cryst.   s( 2) = (     0          0          1      )
                  (     1          0          0      )
                  (     0          1          0      )

 cart.    s( 2) = (  0.0000000  1.0000000  0.0000000 )
                  (  0.0000000  0.0000000  1.0000000 )
                  (  1.0000000  0.0000000  0.0000000 )


      isym =  3     120 deg rotation - cart. axis [1,1,1]        

 cryst.   s( 3) = (     0          1          0      )
                  (     0          0          1      )
                  (     1          0          0      )

 cart.    s( 3) = (  0.0000000  0.0000000  1.0000000 )
                  (  1.0000000  0.0000000  0.0000000 )
                  (  0.0000000  1.0000000  0.0000000 )


      isym =  4     inv. 180 deg rotation - cart. axis [1,-1,0]  

 cryst.   s( 4) = (     0          1          0      )
                  (     1          0          0      )
                  (     0          0          1      )

 cart.    s( 4) = (  0.0000000  1.0000000  0.0000000 )
                  (  1.0000000  0.0000000  0.0000000 )
                  (  0.0000000  0.0000000  1.0000000 )


      isym =  5     inv. 180 deg rotation - cart. axis [-1,0,1]  

 cryst.   s( 5) = (     0          0          1      )
                  (     0          1          0      )
                  (     1          0          0      )

 cart.    s( 5) = (  0.0000000  0.0000000  1.0000000 )
                  (  0.0000000  1.0000000  0.0000000 )
                  (  1.0000000  0.0000000  0.0000000 )


      isym =  6     inv. 180 deg rotation - cart. axis [0,1,-1]  

 cryst.   s( 6) = (     1          0          0      )
                  (     0          0          1      )
                  (     0          1          0      )

 cart.    s( 6) = (  1.0000000  0.0000000  0.0000000 )
                  (  0.0000000  0.0000000  1.0000000 )
                  (  0.0000000  1.0000000  0.0000000 )


     point group C_3v (3m)  
     there are  3 classes
     the character table:

       E     2C3   3s_v 
A_1    1.00  1.00  1.00
A_2    1.00  1.00 -1.00
E      2.00 -1.00  0.00

     the symmetry operations in each class and the name of the first element:

     E        1
          identity                                               
     2C3      2    3
          120 deg rotation - cart. axis [-1,-1,-1]               
     3s_v     4    5    6
          inv. 180 deg rotation - cart. axis [1,-1,0]            

   Cartesian axes

     site n.     atom                  positions (alat units)
         1           Zn  tau(   1) = (   0.0000000   0.0000000   0.0000000  )
         2           Zn  tau(   2) = (   0.0000000   0.2500000   0.2500000  )
         3           Zn  tau(   3) = (   0.2500000   0.0000000   0.2500000  )
         4           Zn  tau(   4) = (   0.2500000   0.2500000   0.0000000  )
         5           S   tau(   5) = (   0.1250000   0.3750000   0.3750000  )
         6           S   tau(   6) = (   0.1250000   0.1250000   0.1250000  )
         7           S   tau(   7) = (   0.3750000   0.3750000   0.1250000  )
         8           S   tau(   8) = (   0.3750000   0.1250000   0.3750000  )
         9           Zn  tau(   9) = (   0.0000000   0.0000000   0.5000000  )
        10           Zn  tau(  10) = (   0.0000000   0.2500000   0.7500000  )
        11           Zn  tau(  11) = (   0.2500000   0.0000000   0.7500000  )
        12           Zn  tau(  12) = (   0.2500000   0.2500000   0.5000000  )
        13           S   tau(  13) = (   0.1250000   0.3750000   0.8750000  )
        14           S   tau(  14) = (   0.1250000   0.1250000   0.6250000  )
        15           S   tau(  15) = (   0.3750000   0.3750000   0.6250000  )
        16           S   tau(  16) = (   0.3750000   0.1250000   0.8750000  )
        17           Zn  tau(  17) = (   0.0000000   0.5000000   0.0000000  )
        18           Zn  tau(  18) = (   0.0000000   0.7500000   0.2500000  )
        19           Zn  tau(  19) = (   0.2500000   0.5000000   0.2500000  )
        20           Zn  tau(  20) = (   0.2500000   0.7500000   0.0000000  )
        21           S   tau(  21) = (   0.1250000   0.8750000   0.3750000  )
        22           S   tau(  22) = (   0.1250000   0.6250000   0.1250000  )
        23           S   tau(  23) = (   0.3750000   0.8750000   0.1250000  )
        24           S   tau(  24) = (   0.3750000   0.6250000   0.3750000  )
        25           Zn  tau(  25) = (   0.0000000   0.5000000   0.5000000  )
        26           Zn  tau(  26) = (   0.0000000   0.7500000   0.7500000  )
        27           Zn  tau(  27) = (   0.2500000   0.5000000   0.7500000  )
        28           Zn  tau(  28) = (   0.2500000   0.7500000   0.5000000  )
        29           S   tau(  29) = (   0.1250000   0.8750000   0.8750000  )
        30           S   tau(  30) = (   0.1250000   0.6250000   0.6250000  )
        31           S   tau(  31) = (   0.3750000   0.8750000   0.6250000  )
        32           S   tau(  32) = (   0.3750000   0.6250000   0.8750000  )
        33           Zn  tau(  33) = (   0.5000000   0.0000000   0.0000000  )
        34           Zn  tau(  34) = (   0.5000000   0.2500000   0.2500000  )
        35           Zn  tau(  35) = (   0.7500000   0.0000000   0.2500000  )
        36           Zn  tau(  36) = (   0.7500000   0.2500000   0.0000000  )
        37           S   tau(  37) = (   0.6250000   0.3750000   0.3750000  )
        38           S   tau(  38) = (   0.6250000   0.1250000   0.1250000  )
        39           S   tau(  39) = (   0.8750000   0.3750000   0.1250000  )
        40           S   tau(  40) = (   0.8750000   0.1250000   0.3750000  )
        41           Zn  tau(  41) = (   0.5000000   0.0000000   0.5000000  )
        42           Zn  tau(  42) = (   0.5000000   0.2500000   0.7500000  )
        43           Zn  tau(  43) = (   0.7500000   0.0000000   0.7500000  )
        44           Zn  tau(  44) = (   0.7500000   0.2500000   0.5000000  )
        45           S   tau(  45) = (   0.6250000   0.3750000   0.8750000  )
        46           S   tau(  46) = (   0.6250000   0.1250000   0.6250000  )
        47           S   tau(  47) = (   0.8750000   0.3750000   0.6250000  )
        48           S   tau(  48) = (   0.8750000   0.1250000   0.8750000  )
        49           Zn  tau(  49) = (   0.5000000   0.5000000   0.0000000  )
        50           Zn  tau(  50) = (   0.5000000   0.7500000   0.2500000  )
        51           Zn  tau(  51) = (   0.7500000   0.5000000   0.2500000  )
        52           Zn  tau(  52) = (   0.7500000   0.7500000   0.0000000  )
        53           S   tau(  53) = (   0.6250000   0.8750000   0.3750000  )
        54           S   tau(  54) = (   0.6250000   0.6250000   0.1250000  )
        55           S   tau(  55) = (   0.8750000   0.8750000   0.1250000  )
        56           S   tau(  56) = (   0.8750000   0.6250000   0.3750000  )
        57           Cu  tau(  57) = (   0.5000000   0.5000000   0.5000000  )
        58           Zn  tau(  58) = (   0.5000000   0.7500000   0.7500000  )
        59           Zn  tau(  59) = (   0.7500000   0.5000000   0.7500000  )
        60           Zn  tau(  60) = (   0.7500000   0.7500000   0.5000000  )
        61           S   tau(  61) = (   0.6250000   0.8750000   0.8750000  )
        62           S   tau(  62) = (   0.8750000   0.8750000   0.6250000  )
        63           S   tau(  63) = (   0.8750000   0.6250000   0.8750000  )

   Crystallographic axes

     site n.     atom                  positions (cryst. coord.)
         1           Zn  tau(   1) = (  0.0000000  0.0000000  0.0000000  )
         2           Zn  tau(   2) = (  0.0000000  0.2500000  0.2500000  )
         3           Zn  tau(   3) = (  0.2500000  0.0000000  0.2500000  )
         4           Zn  tau(   4) = (  0.2500000  0.2500000  0.0000000  )
         5           S   tau(   5) = (  0.1250000  0.3750000  0.3750000  )
         6           S   tau(   6) = (  0.1250000  0.1250000  0.1250000  )
         7           S   tau(   7) = (  0.3750000  0.3750000  0.1250000  )
         8           S   tau(   8) = (  0.3750000  0.1250000  0.3750000  )
         9           Zn  tau(   9) = (  0.0000000  0.0000000  0.5000000  )
        10           Zn  tau(  10) = (  0.0000000  0.2500000  0.7500000  )
        11           Zn  tau(  11) = (  0.2500000  0.0000000  0.7500000  )
        12           Zn  tau(  12) = (  0.2500000  0.2500000  0.5000000  )
        13           S   tau(  13) = (  0.1250000  0.3750000  0.8750000  )
        14           S   tau(  14) = (  0.1250000  0.1250000  0.6250000  )
        15           S   tau(  15) = (  0.3750000  0.3750000  0.6250000  )
        16           S   tau(  16) = (  0.3750000  0.1250000  0.8750000  )
        17           Zn  tau(  17) = (  0.0000000  0.5000000  0.0000000  )
        18           Zn  tau(  18) = (  0.0000000  0.7500000  0.2500000  )
        19           Zn  tau(  19) = (  0.2500000  0.5000000  0.2500000  )
        20           Zn  tau(  20) = (  0.2500000  0.7500000  0.0000000  )
        21           S   tau(  21) = (  0.1250000  0.8750000  0.3750000  )
        22           S   tau(  22) = (  0.1250000  0.6250000  0.1250000  )
        23           S   tau(  23) = (  0.3750000  0.8750000  0.1250000  )
        24           S   tau(  24) = (  0.3750000  0.6250000  0.3750000  )
        25           Zn  tau(  25) = (  0.0000000  0.5000000  0.5000000  )
        26           Zn  tau(  26) = (  0.0000000  0.7500000  0.7500000  )
        27           Zn  tau(  27) = (  0.2500000  0.5000000  0.7500000  )
        28           Zn  tau(  28) = (  0.2500000  0.7500000  0.5000000  )
        29           S   tau(  29) = (  0.1250000  0.8750000  0.8750000  )
        30           S   tau(  30) = (  0.1250000  0.6250000  0.6250000  )
        31           S   tau(  31) = (  0.3750000  0.8750000  0.6250000  )
        32           S   tau(  32) = (  0.3750000  0.6250000  0.8750000  )
        33           Zn  tau(  33) = (  0.5000000  0.0000000  0.0000000  )
        34           Zn  tau(  34) = (  0.5000000  0.2500000  0.2500000  )
        35           Zn  tau(  35) = (  0.7500000  0.0000000  0.2500000  )
        36           Zn  tau(  36) = (  0.7500000  0.2500000  0.0000000  )
        37           S   tau(  37) = (  0.6250000  0.3750000  0.3750000  )
        38           S   tau(  38) = (  0.6250000  0.1250000  0.1250000  )
        39           S   tau(  39) = (  0.8750000  0.3750000  0.1250000  )
        40           S   tau(  40) = (  0.8750000  0.1250000  0.3750000  )
        41           Zn  tau(  41) = (  0.5000000  0.0000000  0.5000000  )
        42           Zn  tau(  42) = (  0.5000000  0.2500000  0.7500000  )
        43           Zn  tau(  43) = (  0.7500000  0.0000000  0.7500000  )
        44           Zn  tau(  44) = (  0.7500000  0.2500000  0.5000000  )
        45           S   tau(  45) = (  0.6250000  0.3750000  0.8750000  )
        46           S   tau(  46) = (  0.6250000  0.1250000  0.6250000  )
        47           S   tau(  47) = (  0.8750000  0.3750000  0.6250000  )
        48           S   tau(  48) = (  0.8750000  0.1250000  0.8750000  )
        49           Zn  tau(  49) = (  0.5000000  0.5000000  0.0000000  )
        50           Zn  tau(  50) = (  0.5000000  0.7500000  0.2500000  )
        51           Zn  tau(  51) = (  0.7500000  0.5000000  0.2500000  )
        52           Zn  tau(  52) = (  0.7500000  0.7500000  0.0000000  )
        53           S   tau(  53) = (  0.6250000  0.8750000  0.3750000  )
        54           S   tau(  54) = (  0.6250000  0.6250000  0.1250000  )
        55           S   tau(  55) = (  0.8750000  0.8750000  0.1250000  )
        56           S   tau(  56) = (  0.8750000  0.6250000  0.3750000  )
        57           Cu  tau(  57) = (  0.5000000  0.5000000  0.5000000  )
        58           Zn  tau(  58) = (  0.5000000  0.7500000  0.7500000  )
        59           Zn  tau(  59) = (  0.7500000  0.5000000  0.7500000  )
        60           Zn  tau(  60) = (  0.7500000  0.7500000  0.5000000  )
        61           S   tau(  61) = (  0.6250000  0.8750000  0.8750000  )
        62           S   tau(  62) = (  0.8750000  0.8750000  0.6250000  )
        63           S   tau(  63) = (  0.8750000  0.6250000  0.8750000  )

     number of k points=    13 (tetrahedron method)
                       cart. coord. in units 2pi/alat
        k(    1) = (   0.0000000   0.0000000   0.0000000), wk =   0.0156250
        k(    2) = (   0.0000000   0.0000000   0.2500000), wk =   0.0937500
        k(    3) = (   0.0000000   0.0000000  -0.5000000), wk =   0.0468750
        k(    4) = (   0.0000000   0.2500000   0.2500000), wk =   0.0937500
        k(    5) = (   0.0000000   0.2500000  -0.5000000), wk =   0.1875000
        k(    6) = (   0.0000000  -0.5000000  -0.5000000), wk =   0.0468750
        k(    7) = (   0.2500000   0.2500000   0.2500000), wk =   0.0312500
        k(    8) = (   0.2500000   0.2500000  -0.5000000), wk =   0.0937500
        k(    9) = (   0.2500000  -0.5000000  -0.5000000), wk =   0.0937500
        k(   10) = (  -0.5000000  -0.5000000  -0.5000000), wk =   0.0156250
        k(   11) = (  -0.2500000   0.0000000   0.2500000), wk =   0.0937500
        k(   12) = (   0.2500000  -0.2500000   0.2500000), wk =   0.0937500
        k(   13) = (   0.2500000  -0.2500000  -0.5000000), wk =   0.0937500

                       cryst. coord.
        k(    1) = (   0.0000000   0.0000000   0.0000000), wk =   0.0156250
        k(    2) = (   0.0000000   0.0000000   0.2500000), wk =   0.0937500
        k(    3) = (   0.0000000   0.0000000  -0.5000000), wk =   0.0468750
        k(    4) = (   0.0000000   0.2500000   0.2500000), wk =   0.0937500
        k(    5) = (   0.0000000   0.2500000  -0.5000000), wk =   0.1875000
        k(    6) = (   0.0000000  -0.5000000  -0.5000000), wk =   0.0468750
        k(    7) = (   0.2500000   0.2500000   0.2500000), wk =   0.0312500
        k(    8) = (   0.2500000   0.2500000  -0.5000000), wk =   0.0937500
        k(    9) = (   0.2500000  -0.5000000  -0.5000000), wk =   0.0937500
        k(   10) = (  -0.5000000  -0.5000000  -0.5000000), wk =   0.0156250
        k(   11) = (  -0.2500000   0.0000000   0.2500000), wk =   0.0937500
        k(   12) = (   0.2500000  -0.2500000   0.2500000), wk =   0.0937500
        k(   13) = (   0.2500000  -0.2500000  -0.5000000), wk =   0.0937500

     Dense  grid:  2160009 G-vectors     FFT dimensions: ( 162, 162, 162)

     Dynamical RAM for                 wfc:      12.76 MB

     Dynamical RAM for     wfc (w. buffer):      38.28 MB

     Dynamical RAM for             U proj.:       5.88 MB

     Dynamical RAM for  U proj. (w. buff.):      17.65 MB

     Dynamical RAM for           str. fact:       0.88 MB

     Dynamical RAM for           local pot:       0.00 MB

     Dynamical RAM for          nlocal pot:      41.70 MB

     Dynamical RAM for                qrad:       5.90 MB

     Dynamical RAM for          rho,v,vnew:       4.17 MB

     Dynamical RAM for           G-vectors:       1.25 MB

     Dynamical RAM for          h,s,v(r/c):       2.44 MB

     Dynamical RAM for          <psi|beta>:       6.00 MB

     Dynamical RAM for                 psi:      25.52 MB

     Dynamical RAM for                hpsi:      25.52 MB

     Dynamical RAM for                spsi:      25.52 MB

     Dynamical RAM for      wfcinit/wfcrot:      34.28 MB

     Dynamical RAM for           addusdens:       5.48 MB

     Estimated static dynamical RAM per process >     113.41 MB

     Estimated max dynamical RAM per process >     198.42 MB

     Estimated total dynamical RAM >     282.13 GB
     Generating pointlists ...
     new r_m :   0.0893 (alat units)  1.8370 (a.u.) for type    1
     new r_m :   0.0893 (alat units)  1.8370 (a.u.) for type    2
     new r_m :   0.0893 (alat units)  1.8370 (a.u.) for type    3

     The potential is recalculated from file :
     ./out/Cu_vac_qn1_U7_unrlxd.save/charge-density


     HUBBARD ENERGY =    0.2760  (Ry)

     STARTING HUBBARD OCCUPATIONS:

     =================== HUBBARD OCCUPATIONS ===================
     ------------------------ ATOM    1 ------------------------
     Tr[ns(  1)] (up, down, total) =   4.98377  4.98377  9.96755
     Atomic magnetic moment for atom   1 =   0.00000
     SPIN  1
     eigenvalues:
       0.996  0.996  0.996  0.998  0.998
     eigenvectors (columns):
       0.000  0.000 -0.000  0.210  0.978
       0.008 -0.816 -0.577 -0.000  0.000
      -0.711  0.401 -0.577  0.000  0.000
      -0.000  0.000  0.000 -0.978  0.210
      -0.703 -0.415  0.577  0.000  0.000
     occupation matrix ns (before diag.):
       0.998  0.000  0.000  0.000  0.000
       0.000  0.996  0.000  0.000 -0.000
       0.000  0.000  0.996 -0.000 -0.000
       0.000  0.000 -0.000  0.998 -0.000
       0.000 -0.000 -0.000 -0.000  0.996
     SPIN  2
     eigenvalues:
       0.996  0.996  0.996  0.998  0.998
     eigenvectors (columns):
      -0.000 -0.000 -0.000  0.229  0.973
      -0.039  0.816 -0.577 -0.000  0.000
       0.726 -0.374 -0.577  0.000  0.000
       0.000 -0.000  0.000 -0.973  0.229
       0.687  0.442  0.577  0.000  0.000
     occupation matrix ns (before diag.):
       0.998  0.000  0.000  0.000  0.000
       0.000  0.996  0.000  0.000 -0.000
       0.000  0.000  0.996 -0.000 -0.000
       0.000  0.000 -0.000  0.998 -0.000
       0.000 -0.000 -0.000 -0.000  0.996
     ------------------------ ATOM    2 ------------------------
     Tr[ns(  2)] (up, down, total) =   4.98377  4.98377  9.96754
     Atomic magnetic moment for atom   2 =  -0.00000
     SPIN  1
     eigenvalues:
       0.996  0.996  0.996  0.998  0.998
     eigenvectors (columns):
       0.002  0.009 -0.001 -0.500 -0.866
      -0.554  0.707 -0.439 -0.001  0.007
      -0.621  0.000  0.783 -0.004 -0.000
      -0.003  0.005  0.002  0.866 -0.500
       0.554  0.707  0.439  0.001  0.007
     occupation matrix ns (before diag.):
       0.998 -0.000  0.000  0.000 -0.000
      -0.000  0.996 -0.000 -0.000 -0.000
       0.000 -0.000  0.996 -0.000  0.000
       0.000 -0.000 -0.000  0.998 -0.000
      -0.000 -0.000  0.000 -0.000  0.996
     SPIN  2
     eigenvalues:
       0.996  0.996  0.996  0.998  0.998
     eigenvectors (columns):
       0.002  0.009 -0.001 -0.500 -0.866
      -0.554  0.707 -0.439 -0.001  0.007
      -0.621  0.000  0.783 -0.004  0.000
      -0.003  0.005  0.002  0.866 -0.500
       0.554  0.707  0.439  0.001  0.007
     occupation matrix ns (before diag.):
       0.998 -0.000  0.000  0.000 -0.000
      -0.000  0.996 -0.000 -0.000 -0.000
       0.000 -0.000  0.996 -0.000  0.000
       0.000 -0.000 -0.000  0.998 -0.000
      -0.000 -0.000  0.000 -0.000  0.996
     ------------------------ ATOM    3 ------------------------
     Tr[ns(  3)] (up, down, total) =   4.98377  4.98377  9.96754
     Atomic magnetic moment for atom   3 =  -0.00000
     SPIN  1
     eigenvalues:
       0.996  0.996  0.996  0.998  0.998
     eigenvectors (columns):
       0.002  0.009 -0.001 -0.500 -0.866
      -0.621  0.000  0.783 -0.004  0.000
      -0.554  0.707 -0.439 -0.001  0.007
       0.003 -0.005 -0.002 -0.866  0.500
       0.554  0.707  0.439  0.001  0.007
     occupation matrix ns (before diag.):
       0.998  0.000 -0.000 -0.000 -0.000
       0.000  0.996 -0.000  0.000  0.000
      -0.000 -0.000  0.996  0.000 -0.000
      -0.000  0.000  0.000  0.998  0.000
      -0.000  0.000 -0.000  0.000  0.996
     SPIN  2
     eigenvalues:
       0.996  0.996  0.996  0.998  0.998
     eigenvectors (columns):
       0.002  0.009 -0.001 -0.500 -0.866
      -0.621 -0.000  0.783 -0.004  0.000
      -0.554  0.707 -0.439 -0.001  0.007
       0.003 -0.005 -0.002 -0.866  0.500
       0.554  0.707  0.439  0.001  0.007
     occupation matrix ns (before diag.):
       0.998  0.000 -0.000 -0.000 -0.000
       0.000  0.996 -0.000  0.000  0.000
      -0.000 -0.000  0.996  0.000 -0.000
      -0.000  0.000  0.000  0.998  0.000
      -0.000  0.000 -0.000  0.000  0.996
     ------------------------ ATOM    4 ------------------------
     Tr[ns(  4)] (up, down, total) =   4.98377  4.98377  9.96754
     Atomic magnetic moment for atom   4 =  -0.00000
     SPIN  1
     eigenvalues:
       0.996  0.996  0.996  0.998  0.998
     eigenvectors (columns):
      -0.004  0.000  0.002  1.000 -0.000
      -0.554  0.707 -0.439 -0.001  0.007
      -0.554 -0.707 -0.439 -0.001 -0.007
       0.000  0.011 -0.000 -0.000 -1.000
       0.621 -0.000 -0.783  0.004  0.000
     occupation matrix ns (before diag.):
       0.998 -0.000 -0.000  0.000  0.000
      -0.000  0.996  0.000 -0.000  0.000
      -0.000  0.000  0.996  0.000  0.000
       0.000 -0.000  0.000  0.998 -0.000
       0.000  0.000  0.000 -0.000  0.996
     SPIN  2
     eigenvalues:
       0.996  0.996  0.996  0.998  0.998
     eigenvectors (columns):
      -0.004  0.000  0.002  1.000 -0.000
      -0.554  0.707 -0.439 -0.001  0.007
      -0.554 -0.707 -0.439 -0.001 -0.007
       0.000  0.011 -0.000 -0.000 -1.000
       0.621 -0.000 -0.783  0.004  0.000
     occupation matrix ns (before diag.):
       0.998 -0.000 -0.000  0.000  0.000
      -0.000  0.996  0.000 -0.000  0.000
      -0.000  0.000  0.996  0.000  0.000
       0.000 -0.000  0.000  0.998 -0.000
       0.000  0.000  0.000 -0.000  0.996
     ------------------------ ATOM    9 ------------------------
     Tr[ns(  9)] (up, down, total) =   4.98367  4.98367  9.96734
     Atomic magnetic moment for atom   9 =  -0.00000
     SPIN  1
     eigenvalues:
       0.996  0.996  0.996  0.998  0.998
     eigenvectors (columns):
      -0.011  0.002  0.000 -0.000  1.000
      -0.675 -0.211  0.707  0.001 -0.007
      -0.675 -0.211 -0.707 -0.001 -0.007
       0.000  0.000 -0.001  1.000  0.000
      -0.298  0.955 -0.000 -0.000 -0.005
     occupation matrix ns (before diag.):
       0.998 -0.000 -0.000  0.000 -0.000
      -0.000  0.996 -0.000  0.000 -0.000
      -0.000 -0.000  0.996 -0.000 -0.000
       0.000  0.000 -0.000  0.998 -0.000
      -0.000 -0.000 -0.000 -0.000  0.996
     SPIN  2
     eigenvalues:
       0.996  0.996  0.996  0.998  0.998
     eigenvectors (columns):
      -0.011  0.002  0.000 -0.000  1.000
      -0.675 -0.211  0.707  0.001 -0.007
      -0.675 -0.211 -0.707 -0.001 -0.007
       0.000  0.000 -0.001  1.000  0.000
      -0.298  0.955 -0.000 -0.000 -0.005
     occupation matrix ns (before diag.):
       0.998 -0.000 -0.000  0.000 -0.000
      -0.000  0.996 -0.000  0.000 -0.000
      -0.000 -0.000  0.996 -0.000 -0.000
       0.000  0.000 -0.000  0.998 -0.000
      -0.000 -0.000 -0.000 -0.000  0.996
     ------------------------ ATOM   10 ------------------------
     Tr[ns( 10)] (up, down, total) =   4.98370  4.98370  9.96739
     Atomic magnetic moment for atom  10 =  -0.00000
     SPIN  1
     eigenvalues:
       0.996  0.996  0.996  0.998  0.998
     eigenvectors (columns):
      -0.011 -0.012  0.001  0.891  0.453
       0.718 -0.425  0.551  0.004 -0.003
      -0.674 -0.228  0.703 -0.011 -0.001
       0.006 -0.004 -0.002 -0.453  0.891
       0.173  0.876  0.451  0.009  0.008
     occupation matrix ns (before diag.):
       0.998  0.000 -0.000  0.000  0.000
       0.000  0.996  0.000 -0.000 -0.000
      -0.000  0.000  0.996  0.000  0.000
       0.000 -0.000  0.000  0.998  0.000
       0.000 -0.000  0.000  0.000  0.996
     SPIN  2
     eigenvalues:
       0.996  0.996  0.996  0.998  0.998
     eigenvectors (columns):
      -0.011 -0.012  0.001  0.891  0.453
       0.718 -0.425  0.551  0.004 -0.003
      -0.674 -0.228  0.703 -0.011 -0.001
       0.006 -0.004 -0.002 -0.453  0.891
       0.173  0.876  0.451  0.009  0.008
     occupation matrix ns (before diag.):
       0.998  0.000 -0.000  0.000  0.000
       0.000  0.996  0.000 -0.000 -0.000
      -0.000  0.000  0.996  0.000  0.000
       0.000 -0.000  0.000  0.998  0.000
       0.000 -0.000  0.000  0.000  0.996
     ------------------------ ATOM   11 ------------------------
     Tr[ns( 11)] (up, down, total) =   4.98370  4.98370  9.96739
     Atomic magnetic moment for atom  11 =  -0.00000
     SPIN  1
     eigenvalues:
       0.996  0.996  0.996  0.998  0.998
     eigenvectors (columns):
      -0.011 -0.012  0.001  0.891  0.453
      -0.674 -0.228  0.703 -0.011 -0.001
       0.718 -0.425  0.551  0.004 -0.003
      -0.006  0.004  0.002  0.453 -0.891
       0.173  0.876  0.451  0.009  0.008
     occupation matrix ns (before diag.):
       0.998 -0.000  0.000 -0.000  0.000
      -0.000  0.996  0.000 -0.000  0.000
       0.000  0.000  0.996  0.000 -0.000
      -0.000 -0.000  0.000  0.998 -0.000
       0.000  0.000 -0.000 -0.000  0.996
     SPIN  2
     eigenvalues:
       0.996  0.996  0.996  0.998  0.998
     eigenvectors (columns):
      -0.011 -0.012  0.001  0.891  0.453
      -0.674 -0.228  0.703 -0.011 -0.001
       0.718 -0.425  0.551  0.004 -0.003
      -0.006  0.004  0.002  0.453 -0.891
       0.173  0.876  0.451  0.009  0.008
     occupation matrix ns (before diag.):
       0.998 -0.000  0.000 -0.000  0.000
      -0.000  0.996  0.000 -0.000  0.000
       0.000  0.000  0.996  0.000 -0.000
      -0.000 -0.000  0.000  0.998 -0.000
       0.000  0.000 -0.000 -0.000  0.996
     ------------------------ ATOM   12 ------------------------
     Tr[ns( 12)] (up, down, total) =   4.98375  4.98375  9.96750
     Atomic magnetic moment for atom  12 =   0.00000
     SPIN  1
     eigenvalues:
       0.996  0.996  0.996  0.998  0.998
     eigenvectors (columns):
      -0.003 -0.000  0.070 -0.000 -0.998
      -0.481  0.707  0.517 -0.025  0.038
      -0.481 -0.707  0.517  0.025  0.038
       0.000  0.035  0.000  0.999 -0.000
       0.733 -0.000  0.678 -0.000  0.045
     occupation matrix ns (before diag.):
       0.998 -0.000 -0.000  0.000 -0.000
      -0.000  0.996 -0.000 -0.000  0.000
      -0.000 -0.000  0.996  0.000  0.000
       0.000 -0.000  0.000  0.998 -0.000
      -0.000  0.000  0.000 -0.000  0.996
     SPIN  2
     eigenvalues:
       0.996  0.996  0.996  0.998  0.998
     eigenvectors (columns):
      -0.003 -0.000  0.070 -0.000 -0.998
      -0.481  0.707  0.517 -0.025  0.038
      -0.481 -0.707  0.517  0.025  0.038
       0.000  0.035  0.000  0.999 -0.000
       0.733 -0.000  0.678 -0.000  0.045
     occupation matrix ns (before diag.):
       0.998 -0.000 -0.000  0.000 -0.000
      -0.000  0.996 -0.000 -0.000  0.000
      -0.000 -0.000  0.996  0.000  0.000
       0.000 -0.000  0.000  0.998 -0.000
      -0.000  0.000  0.000 -0.000  0.996
     ------------------------ ATOM   17 ------------------------
     Tr[ns( 17)] (up, down, total) =   4.98367  4.98367  9.96734
     Atomic magnetic moment for atom  17 =  -0.00000
     SPIN  1
     eigenvalues:
       0.996  0.996  0.996  0.998  0.998
     eigenvectors (columns):
       0.005  0.001  0.001 -0.866  0.500
       0.298  0.955 -0.000  0.000 -0.005
      -0.675  0.211 -0.707 -0.001  0.007
       0.009  0.001 -0.000  0.500  0.866
       0.675 -0.211 -0.707 -0.001 -0.007
     occupation matrix ns (before diag.):
       0.998 -0.000  0.000  0.000 -0.000
      -0.000  0.996  0.000 -0.000 -0.000
       0.000  0.000  0.996  0.000  0.000
       0.000 -0.000  0.000  0.998 -0.000
      -0.000 -0.000  0.000 -0.000  0.996
     SPIN  2
     eigenvalues:
       0.996  0.996  0.996  0.998  0.998
     eigenvectors (columns):
       0.005  0.001  0.001 -0.866  0.500
       0.298  0.955 -0.000  0.000 -0.005
      -0.675  0.211 -0.707 -0.001  0.007
       0.009  0.001 -0.000  0.500  0.866
       0.675 -0.211 -0.707 -0.001 -0.007
     occupation matrix ns (before diag.):
       0.998 -0.000  0.000  0.000 -0.000
      -0.000  0.996  0.000 -0.000 -0.000
       0.000  0.000  0.996  0.000  0.000
       0.000 -0.000  0.000  0.998 -0.000
      -0.000 -0.000  0.000 -0.000  0.996
     ------------------------ ATOM   18 ------------------------
     Tr[ns( 18)] (up, down, total) =   4.98370  4.98370  9.96739
     Atomic magnetic moment for atom  18 =  -0.00000
     SPIN  1
     eigenvalues:
       0.996  0.996  0.996  0.998  0.998
     eigenvectors (columns):
       0.001  0.009 -0.001  0.053 -0.999
      -0.173 -0.876  0.451  0.009 -0.008
      -0.674 -0.228 -0.703  0.011 -0.001
       0.012  0.008  0.002  0.998  0.053
      -0.718  0.425  0.551  0.004  0.003
     occupation matrix ns (before diag.):
       0.998  0.000  0.000 -0.000 -0.000
       0.000  0.996 -0.000  0.000 -0.000
       0.000 -0.000  0.996  0.000 -0.000
      -0.000  0.000  0.000  0.998  0.000
      -0.000 -0.000 -0.000  0.000  0.996
     SPIN  2
     eigenvalues:
       0.996  0.996  0.996  0.998  0.998
     eigenvectors (columns):
       0.001  0.009 -0.001  0.053 -0.999
      -0.173 -0.876  0.451  0.009 -0.008
      -0.674 -0.228 -0.703  0.011 -0.001
       0.012  0.008  0.002  0.998  0.053
      -0.718  0.425  0.551  0.004  0.003
     occupation matrix ns (before diag.):
       0.998  0.000  0.000 -0.000 -0.000
       0.000  0.996 -0.000  0.000 -0.000
       0.000 -0.000  0.996  0.000 -0.000
      -0.000  0.000  0.000  0.998  0.000
      -0.000 -0.000 -0.000  0.000  0.996
     ------------------------ ATOM   19 ------------------------
     Tr[ns( 19)] (up, down, total) =   4.98375  4.98375  9.96750
     Atomic magnetic moment for atom  19 =   0.00000
     SPIN  1
     eigenvalues:
       0.996  0.996  0.996  0.998  0.998
     eigenvectors (columns):
       0.002 -0.030 -0.035 -0.865 -0.499
      -0.733 -0.000 -0.678  0.000  0.045
      -0.481 -0.707  0.517  0.025 -0.038
       0.003  0.018 -0.061  0.500 -0.864
       0.481 -0.707 -0.517  0.025  0.038
     occupation matrix ns (before diag.):
       0.998 -0.000 -0.000  0.000 -0.000
      -0.000  0.996 -0.000 -0.000  0.000
      -0.000 -0.000  0.996  0.000  0.000
       0.000 -0.000  0.000  0.998 -0.000
      -0.000  0.000  0.000 -0.000  0.996
     SPIN  2
     eigenvalues:
       0.996  0.996  0.996  0.998  0.998
     eigenvectors (columns):
       0.002 -0.030 -0.035 -0.865 -0.499
      -0.733  0.000 -0.678  0.000  0.045
      -0.481 -0.707  0.517  0.025 -0.038
       0.003  0.018 -0.061  0.500 -0.864
       0.481 -0.707 -0.517  0.025  0.038
     occupation matrix ns (before diag.):
       0.998 -0.000 -0.000  0.000 -0.000
      -0.000  0.996 -0.000 -0.000  0.000
      -0.000 -0.000  0.996  0.000  0.000
       0.000 -0.000  0.000  0.998 -0.000
      -0.000  0.000  0.000 -0.000  0.996
     ------------------------ ATOM   20 ------------------------
     Tr[ns( 20)] (up, down, total) =   4.98370  4.98370  9.96739
     Atomic magnetic moment for atom  20 =  -0.00000
     SPIN  1
     eigenvalues:
       0.996  0.996  0.996  0.998  0.998
     eigenvectors (columns):
      -0.010 -0.003 -0.002  0.838 -0.545
       0.173  0.876 -0.451  0.009  0.008
      -0.718  0.425  0.551 -0.004  0.003
      -0.007 -0.012 -0.000  0.545  0.838
      -0.674 -0.228 -0.703 -0.011 -0.001
     occupation matrix ns (before diag.):
       0.998  0.000 -0.000 -0.000 -0.000
       0.000  0.996  0.000  0.000  0.000
      -0.000  0.000  0.996  0.000 -0.000
      -0.000  0.000  0.000  0.998 -0.000
      -0.000  0.000 -0.000 -0.000  0.996
     SPIN  2
     eigenvalues:
       0.996  0.996  0.996  0.998  0.998
     eigenvectors (columns):
      -0.010 -0.003 -0.002  0.838 -0.545
       0.173  0.876 -0.451  0.009  0.008
      -0.718  0.425  0.551 -0.004  0.003
      -0.007 -0.012 -0.000  0.545  0.838
      -0.674 -0.228 -0.703 -0.011 -0.001
     occupation matrix ns (before diag.):
       0.998  0.000 -0.000 -0.000 -0.000
       0.000  0.996  0.000  0.000  0.000
      -0.000  0.000  0.996  0.000 -0.000
      -0.000  0.000  0.000  0.998 -0.000
      -0.000  0.000 -0.000 -0.000  0.996
     ------------------------ ATOM   25 ------------------------
     Tr[ns( 25)] (up, down, total) =   4.98386  4.98386  9.96771
     Atomic magnetic moment for atom  25 =   0.00000
     SPIN  1
     eigenvalues:
       0.996  0.996  0.996  0.998  0.998
     eigenvectors (columns):
       0.006 -0.001 -0.002  0.866 -0.500
       0.707  0.630 -0.320 -0.005  0.001
      -0.000  0.453  0.892 -0.000 -0.005
       0.003  0.001  0.004  0.500  0.866
       0.707 -0.630  0.320 -0.005 -0.001
     occupation matrix ns (before diag.):
       0.998 -0.000  0.000 -0.000 -0.000
      -0.000  0.996 -0.000 -0.000 -0.000
       0.000 -0.000  0.996 -0.000  0.000
      -0.000 -0.000 -0.000  0.998 -0.000
      -0.000 -0.000  0.000 -0.000  0.996
     SPIN  2
     eigenvalues:
       0.996  0.996  0.996  0.998  0.998
     eigenvectors (columns):
       0.006 -0.001 -0.002  0.866 -0.500
       0.707  0.630 -0.320 -0.005  0.001
      -0.000  0.453  0.892 -0.000 -0.005
       0.003  0.001  0.004  0.500  0.866
       0.707 -0.630  0.320 -0.005 -0.001
     occupation matrix ns (before diag.):
       0.998 -0.000  0.000 -0.000 -0.000
      -0.000  0.996 -0.000 -0.000 -0.000
       0.000 -0.000  0.996 -0.000  0.000
      -0.000 -0.000 -0.000  0.998 -0.000
      -0.000 -0.000  0.000 -0.000  0.996
     ------------------------ ATOM   26 ------------------------
     Tr[ns( 26)] (up, down, total) =   4.98379  4.98379  9.96759
     Atomic magnetic moment for atom  26 =  -0.00000
     SPIN  1
     eigenvalues:
       0.996  0.996  0.996  0.998  0.998
     eigenvectors (columns):
      -0.015 -0.003 -0.005  0.866 -0.500
       0.707 -0.534  0.463  0.012 -0.001
       0.000  0.655  0.755 -0.000 -0.012
      -0.008  0.006  0.009  0.500  0.866
       0.707  0.534 -0.463  0.012  0.001
     occupation matrix ns (before diag.):
       0.998  0.000  0.000 -0.000  0.000
       0.000  0.996  0.000  0.000 -0.000
       0.000  0.000  0.996 -0.000 -0.000
      -0.000  0.000 -0.000  0.998  0.000
       0.000 -0.000 -0.000  0.000  0.996
     SPIN  2
     eigenvalues:
       0.996  0.996  0.996  0.998  0.998
     eigenvectors (columns):
      -0.015 -0.003 -0.005  0.866 -0.500
       0.707 -0.534  0.463  0.012 -0.001
       0.000  0.655  0.755 -0.000 -0.012
      -0.008  0.006  0.009  0.500  0.866
       0.707  0.534 -0.463  0.012  0.001
     occupation matrix ns (before diag.):
       0.998  0.000  0.000 -0.000  0.000
       0.000  0.996  0.000  0.000 -0.000
       0.000  0.000  0.996 -0.000 -0.000
      -0.000  0.000 -0.000  0.998  0.000
       0.000 -0.000 -0.000  0.000  0.996
     ------------------------ ATOM   27 ------------------------
     Tr[ns( 27)] (up, down, total) =   4.98381  4.98381  9.96762
     Atomic magnetic moment for atom  27 =   0.00000
     SPIN  1
     eigenvalues:
       0.996  0.996  0.996  0.998  0.998
     eigenvectors (columns):
       0.006 -0.037  0.042 -0.878 -0.476
       0.778  0.046 -0.625  0.001 -0.050
      -0.424 -0.698 -0.575  0.028 -0.053
       0.006  0.017  0.079  0.477 -0.875
      -0.464  0.714 -0.521 -0.029 -0.052
     occupation matrix ns (before diag.):
       0.998  0.000 -0.000  0.000  0.000
       0.000  0.996  0.000  0.000  0.000
      -0.000  0.000  0.996  0.000  0.000
       0.000  0.000  0.000  0.998  0.000
       0.000  0.000  0.000  0.000  0.996
     SPIN  2
     eigenvalues:
       0.996  0.996  0.996  0.998  0.998
     eigenvectors (columns):
       0.006 -0.037  0.042 -0.878 -0.476
       0.778  0.046 -0.625  0.001 -0.050
      -0.424 -0.698 -0.575  0.028 -0.053
       0.006  0.017  0.079  0.477 -0.875
      -0.464  0.714 -0.521 -0.029 -0.052
     occupation matrix ns (before diag.):
       0.998  0.000 -0.000  0.000  0.000
       0.000  0.996  0.000  0.000  0.000
      -0.000  0.000  0.996  0.000  0.000
       0.000  0.000  0.000  0.998  0.000
       0.000  0.000  0.000  0.000  0.996
     ------------------------ ATOM   28 ------------------------
     Tr[ns( 28)] (up, down, total) =   4.98381  4.98381  9.96762
     Atomic magnetic moment for atom  28 =   0.00000
     SPIN  1
     eigenvalues:
       0.996  0.996  0.996  0.998  0.998
     eigenvectors (columns):
      -0.008  0.004  0.089 -0.025  0.996
       0.464 -0.714 -0.521 -0.029  0.052
      -0.424 -0.698  0.575 -0.028 -0.053
      -0.002  0.040 -0.003 -0.999 -0.025
      -0.778 -0.046 -0.625  0.001  0.050
     occupation matrix ns (before diag.):
       0.998  0.000 -0.000 -0.000  0.000
       0.000  0.996 -0.000  0.000  0.000
      -0.000 -0.000  0.996  0.000 -0.000
      -0.000  0.000  0.000  0.998 -0.000
       0.000  0.000 -0.000 -0.000  0.996
     SPIN  2
     eigenvalues:
       0.996  0.996  0.996  0.998  0.998
     eigenvectors (columns):
      -0.008  0.004  0.089 -0.025  0.996
       0.464 -0.714 -0.521 -0.029  0.052
      -0.424 -0.698  0.575 -0.028 -0.053
      -0.002  0.040 -0.003 -0.999 -0.025
      -0.778 -0.046 -0.625  0.001  0.050
     occupation matrix ns (before diag.):
       0.998  0.000 -0.000 -0.000  0.000
       0.000  0.996 -0.000  0.000  0.000
      -0.000 -0.000  0.996  0.000 -0.000
      -0.000  0.000  0.000  0.998 -0.000
       0.000  0.000 -0.000 -0.000  0.996
     ------------------------ ATOM   33 ------------------------
     Tr[ns( 33)] (up, down, total) =   4.98367  4.98367  9.96734
     Atomic magnetic moment for atom  33 =  -0.00000
     SPIN  1
     eigenvalues:
       0.996  0.996  0.996  0.998  0.998
     eigenvectors (columns):
       0.005  0.001  0.001 -0.866  0.500
      -0.675  0.211 -0.707 -0.001  0.007
       0.298  0.955 -0.000  0.000 -0.005
      -0.009 -0.001  0.000 -0.500 -0.866
       0.675 -0.211 -0.707 -0.001 -0.007
     occupation matrix ns (before diag.):
       0.998  0.000 -0.000 -0.000 -0.000
       0.000  0.996  0.000 -0.000  0.000
      -0.000  0.000  0.996  0.000 -0.000
      -0.000 -0.000  0.000  0.998  0.000
      -0.000  0.000 -0.000  0.000  0.996
     SPIN  2
     eigenvalues:
       0.996  0.996  0.996  0.998  0.998
     eigenvectors (columns):
       0.005  0.001  0.001 -0.866  0.500
      -0.675  0.211 -0.707 -0.001  0.007
       0.298  0.955 -0.000  0.000 -0.005
      -0.009 -0.001  0.000 -0.500 -0.866
       0.675 -0.211 -0.707 -0.001 -0.007
     occupation matrix ns (before diag.):
       0.998  0.000 -0.000 -0.000 -0.000
       0.000  0.996  0.000 -0.000  0.000
      -0.000  0.000  0.996  0.000 -0.000
      -0.000 -0.000  0.000  0.998  0.000
      -0.000  0.000 -0.000  0.000  0.996
     ------------------------ ATOM   34 ------------------------
     Tr[ns( 34)] (up, down, total) =   4.98375  4.98375  9.96750
     Atomic magnetic moment for atom  34 =   0.00000
     SPIN  1
     eigenvalues:
       0.996  0.996  0.996  0.998  0.998
     eigenvectors (columns):
       0.002 -0.030 -0.035 -0.865 -0.499
      -0.481 -0.707  0.517  0.025 -0.038
      -0.733 -0.000 -0.678  0.000  0.045
      -0.003 -0.018  0.061 -0.500  0.864
       0.481 -0.707 -0.517  0.025  0.038
     occupation matrix ns (before diag.):
       0.998 -0.000 -0.000 -0.000 -0.000
      -0.000  0.996 -0.000 -0.000  0.000
      -0.000 -0.000  0.996  0.000  0.000
      -0.000 -0.000  0.000  0.998  0.000
      -0.000  0.000  0.000  0.000  0.996
     SPIN  2
     eigenvalues:
       0.996  0.996  0.996  0.998  0.998
     eigenvectors (columns):
       0.002 -0.030 -0.035 -0.865 -0.499
      -0.481 -0.707  0.517  0.025 -0.038
      -0.733 -0.000 -0.678  0.000  0.045
      -0.003 -0.018  0.061 -0.500  0.864
       0.481 -0.707 -0.517  0.025  0.038
     occupation matrix ns (before diag.):
       0.998 -0.000 -0.000 -0.000 -0.000
      -0.000  0.996 -0.000 -0.000  0.000
      -0.000 -0.000  0.996  0.000  0.000
      -0.000 -0.000  0.000  0.998  0.000
      -0.000  0.000  0.000  0.000  0.996
     ------------------------ ATOM   35 ------------------------
     Tr[ns( 35)] (up, down, total) =   4.98370  4.98370  9.96739
     Atomic magnetic moment for atom  35 =  -0.00000
     SPIN  1
     eigenvalues:
       0.996  0.996  0.996  0.998  0.998
     eigenvectors (columns):
       0.001 -0.009  0.001  0.053 -0.999
      -0.674  0.228  0.703  0.011 -0.001
      -0.173  0.876 -0.451  0.009 -0.008
      -0.012  0.008  0.002 -0.998 -0.053
      -0.718 -0.425 -0.551  0.004  0.003
     occupation matrix ns (before diag.):
       0.998  0.000  0.000  0.000 -0.000
       0.000  0.996 -0.000 -0.000 -0.000
       0.000 -0.000  0.996 -0.000 -0.000
       0.000 -0.000 -0.000  0.998 -0.000
      -0.000 -0.000 -0.000 -0.000  0.996
     SPIN  2
     eigenvalues:
       0.996  0.996  0.996  0.998  0.998
     eigenvectors (columns):
       0.001 -0.009  0.001  0.053 -0.999
      -0.674  0.228  0.703  0.011 -0.001
      -0.173  0.876 -0.451  0.009 -0.008
      -0.012  0.008  0.002 -0.998 -0.053
      -0.718 -0.425 -0.551  0.004  0.003
     occupation matrix ns (before diag.):
       0.998  0.000  0.000  0.000 -0.000
       0.000  0.996 -0.000 -0.000 -0.000
       0.000 -0.000  0.996 -0.000 -0.000
       0.000 -0.000 -0.000  0.998 -0.000
      -0.000 -0.000 -0.000 -0.000  0.996
     ------------------------ ATOM   36 ------------------------
     Tr[ns( 36)] (up, down, total) =   4.98370  4.98370  9.96739
     Atomic magnetic moment for atom  36 =  -0.00000
     SPIN  1
     eigenvalues:
       0.996  0.996  0.996  0.998  0.998
     eigenvectors (columns):
      -0.010  0.003  0.002  0.838 -0.545
      -0.718 -0.425 -0.551 -0.004  0.003
       0.173 -0.876  0.451  0.009  0.008
       0.007 -0.012 -0.000 -0.545 -0.838
      -0.674  0.228  0.703 -0.011 -0.001
     occupation matrix ns (before diag.):
       0.998 -0.000  0.000  0.000 -0.000
      -0.000  0.996  0.000 -0.000 -0.000
       0.000  0.000  0.996 -0.000  0.000
       0.000 -0.000 -0.000  0.998  0.000
      -0.000 -0.000  0.000  0.000  0.996
     SPIN  2
     eigenvalues:
       0.996  0.996  0.996  0.998  0.998
     eigenvectors (columns):
      -0.010  0.003  0.002  0.838 -0.545
      -0.718 -0.425 -0.551 -0.004  0.003
       0.173 -0.876  0.451  0.009  0.008
       0.007 -0.012 -0.000 -0.545 -0.838
      -0.674  0.228  0.703 -0.011 -0.001
     occupation matrix ns (before diag.):
       0.998 -0.000  0.000  0.000 -0.000
      -0.000  0.996  0.000 -0.000 -0.000
       0.000  0.000  0.996 -0.000  0.000
       0.000 -0.000 -0.000  0.998  0.000
      -0.000 -0.000  0.000  0.000  0.996
     ------------------------ ATOM   41 ------------------------
     Tr[ns( 41)] (up, down, total) =   4.98386  4.98386  9.96771
     Atomic magnetic moment for atom  41 =   0.00000
     SPIN  1
     eigenvalues:
       0.996  0.996  0.996  0.998  0.998
     eigenvectors (columns):
       0.006 -0.001 -0.002  0.866 -0.500
      -0.000  0.453  0.892 -0.000 -0.005
       0.707  0.630 -0.320 -0.005  0.001
      -0.003 -0.001 -0.004 -0.500 -0.866
       0.707 -0.630  0.320 -0.005 -0.001
     occupation matrix ns (before diag.):
       0.998  0.000 -0.000  0.000 -0.000
       0.000  0.996 -0.000  0.000  0.000
      -0.000 -0.000  0.996  0.000 -0.000
       0.000  0.000  0.000  0.998  0.000
      -0.000  0.000 -0.000  0.000  0.996
     SPIN  2
     eigenvalues:
       0.996  0.996  0.996  0.998  0.998
     eigenvectors (columns):
       0.006 -0.001 -0.002  0.866 -0.500
      -0.000  0.453  0.892 -0.000 -0.005
       0.707  0.630 -0.320 -0.005  0.001
      -0.003 -0.001 -0.004 -0.500 -0.866
       0.707 -0.630  0.320 -0.005 -0.001
     occupation matrix ns (before diag.):
       0.998  0.000 -0.000  0.000 -0.000
       0.000  0.996 -0.000  0.000  0.000
      -0.000 -0.000  0.996  0.000 -0.000
       0.000  0.000  0.000  0.998  0.000
      -0.000  0.000 -0.000  0.000  0.996
     ------------------------ ATOM   42 ------------------------
     Tr[ns( 42)] (up, down, total) =   4.98381  4.98381  9.96762
     Atomic magnetic moment for atom  42 =   0.00000
     SPIN  1
     eigenvalues:
       0.996  0.996  0.996  0.998  0.998
     eigenvectors (columns):
       0.006 -0.037  0.042 -0.878 -0.476
      -0.424 -0.698 -0.575  0.028 -0.053
       0.778  0.046 -0.625  0.001 -0.050
      -0.006 -0.017 -0.079 -0.477  0.875
      -0.464  0.714 -0.521 -0.029 -0.052
     occupation matrix ns (before diag.):
       0.998 -0.000  0.000 -0.000  0.000
      -0.000  0.996  0.000 -0.000  0.000
       0.000  0.000  0.996 -0.000  0.000
      -0.000 -0.000 -0.000  0.998 -0.000
       0.000  0.000  0.000 -0.000  0.996
     SPIN  2
     eigenvalues:
       0.996  0.996  0.996  0.998  0.998
     eigenvectors (columns):
       0.006 -0.037  0.042 -0.878 -0.476
      -0.424 -0.698 -0.575  0.028 -0.053
       0.778  0.046 -0.625  0.001 -0.050
      -0.006 -0.017 -0.079 -0.477  0.875
      -0.464  0.714 -0.521 -0.029 -0.052
     occupation matrix ns (before diag.):
       0.998 -0.000  0.000 -0.000  0.000
      -0.000  0.996  0.000 -0.000  0.000
       0.000  0.000  0.996 -0.000  0.000
      -0.000 -0.000 -0.000  0.998 -0.000
       0.000  0.000  0.000 -0.000  0.996
     ------------------------ ATOM   43 ------------------------
     Tr[ns( 43)] (up, down, total) =   4.98379  4.98379  9.96759
     Atomic magnetic moment for atom  43 =  -0.00000
     SPIN  1
     eigenvalues:
       0.996  0.996  0.996  0.998  0.998
     eigenvectors (columns):
      -0.015 -0.003 -0.005  0.866 -0.500
      -0.000  0.655  0.755 -0.000 -0.012
       0.707 -0.534  0.463  0.012 -0.001
       0.008 -0.006 -0.009 -0.500 -0.866
       0.707  0.534 -0.463  0.012  0.001
     occupation matrix ns (before diag.):
       0.998  0.000  0.000  0.000  0.000
       0.000  0.996  0.000  0.000 -0.000
       0.000  0.000  0.996 -0.000 -0.000
       0.000  0.000 -0.000  0.998 -0.000
       0.000 -0.000 -0.000 -0.000  0.996
     SPIN  2
     eigenvalues:
       0.996  0.996  0.996  0.998  0.998
     eigenvectors (columns):
      -0.015 -0.003 -0.005  0.866 -0.500
      -0.000  0.655  0.755 -0.000 -0.012
       0.707 -0.534  0.463  0.012 -0.001
       0.008 -0.006 -0.009 -0.500 -0.866
       0.707  0.534 -0.463  0.012  0.001
     occupation matrix ns (before diag.):
       0.998  0.000  0.000  0.000  0.000
       0.000  0.996  0.000  0.000 -0.000
       0.000  0.000  0.996 -0.000 -0.000
       0.000  0.000 -0.000  0.998 -0.000
       0.000 -0.000 -0.000 -0.000  0.996
     ------------------------ ATOM   44 ------------------------
     Tr[ns( 44)] (up, down, total) =   4.98381  4.98381  9.96762
     Atomic magnetic moment for atom  44 =   0.00000
     SPIN  1
     eigenvalues:
       0.996  0.996  0.996  0.998  0.998
     eigenvectors (columns):
      -0.008 -0.004 -0.089 -0.025  0.996
      -0.424  0.698 -0.575 -0.028 -0.053
       0.464  0.714  0.521 -0.029  0.052
       0.002  0.040 -0.003  0.999  0.025
      -0.778  0.046  0.625  0.001  0.050
     occupation matrix ns (before diag.):
       0.998 -0.000  0.000  0.000  0.000
      -0.000  0.996 -0.000 -0.000 -0.000
       0.000 -0.000  0.996 -0.000  0.000
       0.000 -0.000 -0.000  0.998  0.000
       0.000 -0.000  0.000  0.000  0.996
     SPIN  2
     eigenvalues:
       0.996  0.996  0.996  0.998  0.998
     eigenvectors (columns):
      -0.008 -0.004 -0.089 -0.025  0.996
      -0.424  0.698 -0.575 -0.028 -0.053
       0.464  0.714  0.521 -0.029  0.052
       0.002  0.040 -0.003  0.999  0.025
      -0.778  0.046  0.625  0.001  0.050
     occupation matrix ns (before diag.):
       0.998 -0.000  0.000  0.000  0.000
      -0.000  0.996 -0.000 -0.000 -0.000
       0.000 -0.000  0.996 -0.000  0.000
       0.000 -0.000 -0.000  0.998  0.000
       0.000 -0.000  0.000  0.000  0.996
     ------------------------ ATOM   49 ------------------------
     Tr[ns( 49)] (up, down, total) =   4.98386  4.98386  9.96771
     Atomic magnetic moment for atom  49 =   0.00000
     SPIN  1
     eigenvalues:
       0.996  0.996  0.996  0.998  0.998
     eigenvectors (columns):
      -0.000  0.001 -0.005 -0.000  1.000
      -0.707  0.630  0.320 -0.005  0.001
       0.707  0.630  0.320  0.005  0.001
      -0.007 -0.000  0.000  1.000  0.000
      -0.000 -0.453  0.892 -0.000  0.005
     occupation matrix ns (before diag.):
       0.998  0.000  0.000  0.000  0.000
       0.000  0.996  0.000 -0.000  0.000
       0.000  0.000  0.996  0.000  0.000
       0.000 -0.000  0.000  0.998 -0.000
       0.000  0.000  0.000 -0.000  0.996
     SPIN  2
     eigenvalues:
       0.996  0.996  0.996  0.998  0.998
     eigenvectors (columns):
      -0.000  0.001 -0.005 -0.000  1.000
      -0.707  0.630  0.320 -0.005  0.001
       0.707  0.630  0.320  0.005  0.001
      -0.007 -0.000  0.000  1.000  0.000
      -0.000 -0.453  0.892 -0.000  0.005
     occupation matrix ns (before diag.):
       0.998  0.000  0.000  0.000  0.000
       0.000  0.996  0.000 -0.000  0.000
       0.000  0.000  0.996  0.000  0.000
       0.000 -0.000  0.000  0.998 -0.000
       0.000  0.000  0.000 -0.000  0.996
     ------------------------ ATOM   50 ------------------------
     Tr[ns( 50)] (up, down, total) =   4.98381  4.98381  9.96762
     Atomic magnetic moment for atom  50 =   0.00000
     SPIN  1
     eigenvalues:
       0.996  0.996  0.996  0.998  0.998
     eigenvectors (columns):
      -0.002 -0.033  0.048 -0.852 -0.520
      -0.464  0.714  0.521 -0.029  0.052
      -0.778 -0.046 -0.625 -0.001 -0.050
       0.008 -0.024 -0.075 -0.521  0.850
      -0.424 -0.698  0.575  0.028  0.053
     occupation matrix ns (before diag.):
       0.998 -0.000  0.000 -0.000 -0.000
      -0.000  0.996 -0.000  0.000  0.000
       0.000 -0.000  0.996 -0.000 -0.000
      -0.000  0.000 -0.000  0.998  0.000
      -0.000  0.000 -0.000  0.000  0.996
     SPIN  2
     eigenvalues:
       0.996  0.996  0.996  0.998  0.998
     eigenvectors (columns):
      -0.002 -0.033  0.048 -0.852 -0.520
      -0.464  0.714  0.521 -0.029  0.052
      -0.778 -0.046 -0.625 -0.001 -0.050
       0.008 -0.024 -0.075 -0.521  0.850
      -0.424 -0.698  0.575  0.028  0.053
     occupation matrix ns (before diag.):
       0.998 -0.000  0.000 -0.000 -0.000
      -0.000  0.996 -0.000  0.000  0.000
       0.000 -0.000  0.996 -0.000 -0.000
      -0.000  0.000 -0.000  0.998  0.000
      -0.000  0.000 -0.000  0.000  0.996
     ------------------------ ATOM   51 ------------------------
     Tr[ns( 51)] (up, down, total) =   4.98381  4.98381  9.96762
     Atomic magnetic moment for atom  51 =   0.00000
     SPIN  1
     eigenvalues:
       0.996  0.996  0.996  0.998  0.998
     eigenvectors (columns):
      -0.002 -0.033  0.048 -0.852 -0.520
      -0.778 -0.046 -0.625 -0.001 -0.050
      -0.464  0.714  0.521 -0.029  0.052
      -0.008  0.024  0.075  0.521 -0.850
      -0.424 -0.698  0.575  0.028  0.053
     occupation matrix ns (before diag.):
       0.998  0.000 -0.000  0.000 -0.000
       0.000  0.996 -0.000  0.000 -0.000
      -0.000 -0.000  0.996 -0.000  0.000
       0.000  0.000 -0.000  0.998 -0.000
      -0.000 -0.000  0.000 -0.000  0.996
     SPIN  2
     eigenvalues:
       0.996  0.996  0.996  0.998  0.998
     eigenvectors (columns):
      -0.002 -0.033  0.048 -0.852 -0.520
      -0.778 -0.046 -0.625 -0.001 -0.050
      -0.464  0.714  0.521 -0.029  0.052
      -0.008  0.024  0.075  0.521 -0.850
      -0.424 -0.698  0.575  0.028  0.053
     occupation matrix ns (before diag.):
       0.998  0.000 -0.000  0.000 -0.000
       0.000  0.996 -0.000  0.000 -0.000
      -0.000 -0.000  0.996 -0.000  0.000
       0.000  0.000 -0.000  0.998 -0.000
      -0.000 -0.000  0.000 -0.000  0.996
     ------------------------ ATOM   52 ------------------------
     Tr[ns( 52)] (up, down, total) =   4.98379  4.98379  9.96759
     Atomic magnetic moment for atom  52 =  -0.00000
     SPIN  1
     eigenvalues:
       0.996  0.996  0.996  0.998  0.998
     eigenvectors (columns):
       0.000  0.007 -0.010  0.000 -1.000
       0.707 -0.534 -0.463 -0.012  0.001
      -0.707 -0.534 -0.463  0.012  0.001
      -0.017  0.000  0.000 -1.000 -0.000
      -0.000 -0.655  0.755  0.000 -0.012
     occupation matrix ns (before diag.):
       0.998 -0.000 -0.000  0.000  0.000
      -0.000  0.996  0.000  0.000 -0.000
      -0.000  0.000  0.996 -0.000 -0.000
       0.000  0.000 -0.000  0.998 -0.000
       0.000 -0.000 -0.000 -0.000  0.996
     SPIN  2
     eigenvalues:
       0.996  0.996  0.996  0.998  0.998
     eigenvectors (columns):
       0.000  0.007 -0.010  0.000 -1.000
       0.707 -0.534 -0.463 -0.012  0.001
      -0.707 -0.534 -0.463  0.012  0.001
      -0.017  0.000  0.000 -1.000 -0.000
      -0.000 -0.655  0.755  0.000 -0.012
     occupation matrix ns (before diag.):
       0.998 -0.000 -0.000  0.000  0.000
      -0.000  0.996  0.000  0.000 -0.000
      -0.000  0.000  0.996 -0.000 -0.000
       0.000  0.000 -0.000  0.998 -0.000
       0.000 -0.000 -0.000 -0.000  0.996
     ------------------------ ATOM   57 ------------------------
     Tr[ns( 57)] (up, down, total) =   4.95732  4.95732  9.91465
     Atomic magnetic moment for atom  57 =  -0.00000
     SPIN  1
     eigenvalues:
       0.988  0.988  0.993  0.994  0.994
     eigenvectors (columns):
       0.087  0.045 -0.000 -0.274 -0.957
       0.039  0.812 -0.577 -0.055  0.057
       0.684 -0.439 -0.577  0.077  0.019
      -0.045  0.087  0.000  0.957 -0.274
       0.722  0.372  0.577  0.022  0.077
     occupation matrix ns (before diag.):
       0.994 -0.000 -0.000  0.000 -0.000
      -0.000  0.990  0.002 -0.000 -0.002
      -0.000  0.002  0.990  0.000 -0.002
       0.000 -0.000  0.000  0.994 -0.000
      -0.000 -0.002 -0.002 -0.000  0.990
     SPIN  2
     eigenvalues:
       0.988  0.988  0.993  0.994  0.994
     eigenvectors (columns):
       0.088  0.041 -0.000 -0.322 -0.942
       0.071  0.809 -0.577 -0.052  0.060
       0.665 -0.466 -0.577  0.078  0.015
      -0.041  0.088  0.000  0.942 -0.322
       0.737  0.343  0.577  0.026  0.075
     occupation matrix ns (before diag.):
       0.994 -0.000 -0.000  0.000 -0.000
      -0.000  0.990  0.002 -0.000 -0.002
      -0.000  0.002  0.990  0.000 -0.002
       0.000 -0.000  0.000  0.994 -0.000
      -0.000 -0.002 -0.002 -0.000  0.990
     ------------------------ ATOM   58 ------------------------
     Tr[ns( 58)] (up, down, total) =   4.98628  4.98628  9.97256
     Atomic magnetic moment for atom  58 =   0.00000
     SPIN  1
     eigenvalues:
       0.996  0.996  0.998  0.998  0.998
     eigenvectors (columns):
       0.091 -0.069  0.005 -0.861 -0.495
      -0.703 -0.398 -0.582 -0.075  0.050
       0.000 -0.815  0.568 -0.000  0.119
       0.053  0.120 -0.008 -0.497  0.858
      -0.703  0.398  0.582 -0.075 -0.050
     occupation matrix ns (before diag.):
       0.998  0.000 -0.000 -0.000  0.000
       0.000  0.997 -0.001  0.000 -0.001
      -0.000 -0.001  0.997  0.000  0.001
      -0.000  0.000  0.000  0.998 -0.000
       0.000 -0.001  0.001 -0.000  0.997
     SPIN  2
     eigenvalues:
       0.996  0.996  0.998  0.998  0.998
     eigenvectors (columns):
       0.091 -0.069  0.005 -0.861 -0.495
      -0.703 -0.398 -0.582 -0.075  0.050
       0.000 -0.815  0.568 -0.000  0.119
       0.053  0.120 -0.008 -0.497  0.858
      -0.703  0.398  0.582 -0.075 -0.050
     occupation matrix ns (before diag.):
       0.998  0.000 -0.000 -0.000  0.000
       0.000  0.997 -0.001  0.000 -0.001
      -0.000 -0.001  0.997  0.000  0.001
      -0.000  0.000  0.000  0.998 -0.000
       0.000 -0.001  0.001 -0.000  0.997
     ------------------------ ATOM   59 ------------------------
     Tr[ns( 59)] (up, down, total) =   4.98628  4.98628  9.97256
     Atomic magnetic moment for atom  59 =   0.00000
     SPIN  1
     eigenvalues:
       0.996  0.996  0.998  0.998  0.998
     eigenvectors (columns):
       0.091  0.069 -0.005  0.861  0.495
       0.000  0.815 -0.568  0.000 -0.119
      -0.703  0.398  0.582  0.075 -0.050
      -0.053  0.120 -0.008 -0.497  0.858
      -0.703 -0.398 -0.582  0.075  0.050
     occupation matrix ns (before diag.):
       0.998 -0.000  0.000  0.000  0.000
      -0.000  0.997 -0.001 -0.000  0.001
       0.000 -0.001  0.997 -0.000 -0.001
       0.000 -0.000 -0.000  0.998  0.000
       0.000  0.001 -0.001  0.000  0.997
     SPIN  2
     eigenvalues:
       0.996  0.996  0.998  0.998  0.998
     eigenvectors (columns):
       0.091  0.069 -0.005  0.861  0.495
       0.000  0.815 -0.568  0.000 -0.119
      -0.703  0.398  0.582  0.075 -0.050
      -0.053  0.120 -0.008 -0.497  0.858
      -0.703 -0.398 -0.582  0.075  0.050
     occupation matrix ns (before diag.):
       0.998 -0.000  0.000  0.000  0.000
      -0.000  0.997 -0.001 -0.000  0.001
       0.000 -0.001  0.997 -0.000 -0.001
       0.000 -0.000 -0.000  0.998  0.000
       0.000  0.001 -0.001  0.000  0.997
     ------------------------ ATOM   60 ------------------------
     Tr[ns( 60)] (up, down, total) =   4.98628  4.98628  9.97256
     Atomic magnetic moment for atom  60 =   0.00000
     SPIN  1
     eigenvalues:
       0.996  0.996  0.998  0.998  0.998
     eigenvectors (columns):
       0.000  0.138  0.009 -0.000 -0.990
       0.703 -0.398  0.582  0.075 -0.050
      -0.703 -0.398  0.582 -0.075 -0.050
      -0.106  0.000 -0.000  0.994 -0.000
       0.000  0.815  0.568  0.000  0.119
     occupation matrix ns (before diag.):
       0.998  0.000  0.000  0.000 -0.000
       0.000  0.997  0.001  0.000  0.001
       0.000  0.001  0.997 -0.000  0.001
       0.000  0.000 -0.000  0.998 -0.000
      -0.000  0.001  0.001 -0.000  0.997
     SPIN  2
     eigenvalues:
       0.996  0.996  0.998  0.998  0.998
     eigenvectors (columns):
       0.000  0.138  0.009 -0.000 -0.990
       0.703 -0.398  0.582  0.075 -0.050
      -0.703 -0.398  0.582 -0.075 -0.050
      -0.106  0.000 -0.000  0.994 -0.000
       0.000  0.815  0.568  0.000  0.119
     occupation matrix ns (before diag.):
       0.998  0.000  0.000  0.000 -0.000
       0.000  0.997  0.001  0.000  0.001
       0.000  0.001  0.997 -0.000  0.001
       0.000  0.000 -0.000  0.998 -0.000
      -0.000  0.001  0.001 -0.000  0.997

     Number of occupied Hubbard levels =  318.9229

     Atomic wfc used for Hubbard projectors are orthogonalized

     Starting wfcs are  413 randomized atomic wfcs
     Checking if some PAW data can be deallocated... 
       PAW data deallocated on  740 nodes for type:  1
       PAW data deallocated on  739 nodes for type:  2
       PAW data deallocated on 1433 nodes for type:  3

     Band Structure Calculation
     Davidson diagonalization with overlap

     Computing kpt #:     1  of     2 on this pool
     total cpu time spent up to now is       82.1 secs

     Computing kpt #:     2  of     2 on this pool
     c_bands:  1 eigenvalues not converged
     total cpu time spent up to now is      157.6 secs

     ethr =  1.73E-12,  avg # of iterations = 91.4

     total cpu time spent up to now is      157.8 secs

     End of band structure calculation

 ------ SPIN UP ------------


          k = 0.0000 0.0000 0.0000 (269825 PWs)   bands (ev):

  -103.4463 -60.8902 -60.8647 -60.8647  -7.6361  -7.2183  -7.2183  -7.2120
    -7.2120  -7.2058  -7.1723  -7.0196  -7.0196  -7.0191  -7.0061  -6.9836
    -6.9810  -6.9810  -6.9792  -6.9792  -6.9776  -6.9776  -6.9776  -6.8772
    -6.8772  -6.8587  -6.7980  -6.7958  -6.7958  -6.7603  -6.7575  -6.7575
    -6.4630  -6.3341  -6.3341  -3.8767  -3.8755  -3.8755  -3.8365  -3.8357
    -3.8357  -3.8340  -3.8340  -3.8181  -3.8181  -3.8122  -3.8102  -3.8102
    -3.8082  -3.7969  -3.7967  -3.7967  -3.7933  -3.7933  -3.7898  -3.7880
    -3.7880  -3.7806  -3.7788  -3.7788  -3.7764  -3.7720  -3.7696  -3.7696
    -3.7645  -3.7641  -3.7638  -3.7638  -3.7494  -3.7494  -3.7493  -3.7376
    -3.7356  -3.7356  -3.7286  -3.7286  -3.7256  -3.7256  -3.7232  -3.7192
    -3.7192  -3.7146  -3.7108  -3.7108  -3.7031  -3.7010  -3.7010  -3.6963
    -3.6910  -3.6879  -3.6879  -3.6826  -3.6826  -3.6812  -3.6778  -3.6723
    -3.6723  -3.6562  -3.6550  -3.6504  -3.6500  -3.6500  -3.6466  -3.6466
    -3.6395  -3.6395  -3.6375  -3.6335  -3.6335  -3.6302  -3.6302  -3.6299
    -3.6228  -3.6211  -3.6211  -3.6207  -3.6140  -3.6140  -3.6136  -3.6136
    -3.6128  -3.6128  -3.6111  -3.6061  -3.5907  -3.5858  -3.5858  -3.5820
    -3.5820  -3.5702  -3.5683  -3.5683  -3.5683  -3.5514  -3.5514  -3.5460
    -3.5355  -3.5355  -3.5340  -3.5330  -3.5236  -3.5236  -3.5082  -3.5082
    -3.5052  -3.4933  -3.4873  -3.4873  -3.4861  -3.4861  -3.4830  -3.4830
    -3.4820  -3.4678  -3.4653  -3.4653  -3.4612  -3.4454  -3.4454  -3.4222
    -3.4149  -3.4149  -3.4072  -3.3999  -3.3979  -3.3979  -3.2875  -3.2875
    -3.2443  -3.2417  -3.2417  -3.2262  -3.2205  -3.2205  -3.2136  -3.2029
    -3.1980  -3.1980  -3.1433  -3.1433  -3.0953  -3.0409  -3.0188  -3.0188
    -2.9687  -2.9061  -2.9061  -2.8762  -2.8762  -2.8705   0.2152   0.2343
     0.2607   0.2607   0.5883   0.5988   0.5988   0.8090   0.8090   0.8204
     0.8854   0.8854   0.8998   1.0778   1.1594   1.1594   1.2131   1.2131
     1.2560   1.2627   1.2651   1.2651   1.4751   1.4751   1.8493   2.0946
     2.0946   2.2892   2.2892   2.3085   2.4848   2.4979   2.4979   2.5183
     2.5240   2.5240   2.5800   2.6310   2.6310   2.6395   2.6395   2.6696
     2.6729   2.6768   2.6768   2.6946   2.7055   2.7055   2.7765   2.8028
     2.8028   2.9142   2.9487   2.9648   2.9648   3.0093   3.0093   3.1624
     3.1826   3.1856   3.1856   3.2626   3.2626   3.5226   3.5226   3.6984
     3.9965   4.0019   4.0019   4.0257   4.0374   4.0374   4.0960   4.0960
     4.1071   4.1814   4.2290   4.2290   4.2990   4.3020   4.3020   4.3021
     4.3040   4.3040   4.3128   4.3130   4.3130   4.3158   4.3292   4.3292
     4.5081   4.5748   4.5748   4.8865   4.8865   5.1155   5.3510   5.3510
     6.5443   7.7801   8.6057   8.6057   8.6920   8.7508   8.8107   8.8107
     8.9318   8.9318   9.0948   9.4759   9.4787   9.4787   9.5430   9.8314
     9.8314   9.9145   9.9380   9.9380   9.9608   9.9818   9.9818   9.9854
     9.9955   9.9955  10.1540  10.1540  10.1556  10.1773  10.1773  10.2086
    10.2086  10.2340  10.3386  10.6352  10.6352  10.7022  11.0159  11.1115
    11.1115  11.1469  11.1469  11.2848  11.3178  11.3178  11.3314  11.6496
    11.6496  11.6839  11.8161  11.8446  11.8446  11.8452  11.9898  11.9898
    12.0002  12.0046  12.0046

     occupation numbers 
     1.0000   1.0000   1.0000   1.0000   1.0000   1.0000   1.0000   1.0000
     1.0000   1.0000   1.0000   1.0000   1.0000   1.0000   1.0000   1.0000
     1.0000   1.0000   1.0000   1.0000   1.0000   1.0000   1.0000   1.0000
     1.0000   1.0000   1.0000   1.0000   1.0000   1.0000   1.0000   1.0000
     1.0000   1.0000   1.0000   1.0000   1.0000   1.0000   1.0000   1.0000
     1.0000   1.0000   1.0000   1.0000   1.0000   1.0000   1.0000   1.0000
     1.0000   1.0000   1.0000   1.0000   1.0000   1.0000   1.0000   1.0000
     1.0000   1.0000   1.0000   1.0000   1.0000   1.0000   1.0000   1.0000
     1.0000   1.0000   1.0000   1.0000   1.0000   1.0000   1.0000   1.0000
     1.0000   1.0000   1.0000   1.0000   1.0000   1.0000   1.0000   1.0000
     1.0000   1.0000   1.0000   1.0000   1.0000   1.0000   1.0000   1.0000
     1.0000   1.0000   1.0000   1.0000   1.0000   1.0000   1.0000   1.0000
     1.0000   1.0000   1.0000   1.0000   1.0000   1.0000   1.0000   1.0000
     1.0000   1.0000   1.0000   1.0000   1.0000   1.0000   1.0000   1.0000
     1.0000   1.0000   1.0000   1.0000   1.0000   1.0000   1.0000   1.0000
     1.0000   1.0000   1.0000   1.0000   1.0000   1.0000   1.0000   1.0000
     1.0000   1.0000   1.0000   1.0000   1.0000   1.0000   1.0000   1.0000
     1.0000   1.0000   1.0000   1.0000   1.0000   1.0000   1.0000   1.0000
     1.0000   1.0000   1.0000   1.0000   1.0000   1.0000   1.0000   1.0000
     1.0000   1.0000   1.0000   1.0000   1.0000   1.0000   1.0000   1.0000
     1.0000   1.0000   1.0000   1.0000   1.0000   1.0000   1.0000   1.0000
     1.0000   1.0000   1.0000   1.0000   1.0000   1.0000   1.0000   1.0000
     1.0000   1.0000   1.0000   1.0000   1.0000   1.0000   1.0000   1.0000
     1.0000   1.0000   1.0000   1.0000   1.0000   1.0000   1.0000   1.0000
     1.0000   1.0000   1.0000   1.0000   1.0000   1.0000   1.0000   1.0000
     1.0000   1.0000   1.0000   1.0000   1.0000   1.0000   1.0000   1.0000
     1.0000   1.0000   1.0000   1.0000   1.0000   1.0000   1.0000   1.0000
     1.0000   1.0000   1.0000   1.0000   1.0000   1.0000   1.0000   1.0000
     1.0000   1.0000   1.0000   1.0000   1.0000   1.0000   1.0000   1.0000
     1.0000   1.0000   1.0000   1.0000   1.0000   1.0000   1.0000   1.0000
     1.0000   1.0000   1.0000   1.0000   1.0000   1.0000   1.0000   1.0000
     1.0000   1.0000   1.0000   1.0000   1.0000   1.0000   1.0000   1.0000
     1.0000   1.0000   1.0000   1.0000   1.0000   1.0000   1.0000   1.0000
     1.0000   1.0000   1.0000   1.0000   1.0000   1.0000   1.0000   1.0000
     1.0000   1.0000   1.0000   1.0000   1.0000   1.0000   1.0000   1.0000
     1.0000   1.0000   1.0000   1.0000   1.0000   1.0000   1.0000   1.0000
     1.0000   0.0000   0.0000   0.0000   0.0000   0.0000   0.0000   0.0000
     0.0000   0.0000   0.0000   0.0000   0.0000   0.0000   0.0000   0.0000
     0.0000   0.0000   0.0000   0.0000   0.0000   0.0000   0.0000   0.0000
     0.0000   0.0000   0.0000   0.0000   0.0000   0.0000   0.0000   0.0000
     0.0000   0.0000   0.0000   0.0000   0.0000   0.0000   0.0000   0.0000
     0.0000   0.0000   0.0000   0.0000   0.0000   0.0000   0.0000   0.0000
     0.0000   0.0000   0.0000   0.0000   0.0000   0.0000   0.0000   0.0000
     0.0000   0.0000   0.0000

          k = 0.0000 0.0000 0.2500 (269876 PWs)   bands (ev):

  -103.4463 -60.8902 -60.8647 -60.8647  -7.6065  -7.3665  -7.2002  -7.1974
    -7.1952  -7.1784  -7.0698  -7.0634  -7.0582  -7.0526  -7.0408  -7.0055
    -7.0002  -7.0000  -6.9945  -6.9483  -6.9352  -6.9281  -6.8935  -6.8744
    -6.8640  -6.8550  -6.8238  -6.7963  -6.7959  -6.7747  -6.7672  -6.7665
    -6.4603  -6.3369  -6.3344  -3.8748  -3.8738  -3.8723  -3.8353  -3.8345
    -3.8339  -3.8331  -3.8310  -3.8196  -3.8194  -3.8142  -3.8131  -3.8117
    -3.8096  -3.8033  -3.8030  -3.8015  -3.7993  -3.7949  -3.7935  -3.7881
    -3.7869  -3.7818  -3.7810  -3.7774  -3.7763  -3.7711  -3.7705  -3.7673
    -3.7652  -3.7651  -3.7604  -3.7546  -3.7500  -3.7492  -3.7480  -3.7384
    -3.7356  -3.7332  -3.7321  -3.7302  -3.7277  -3.7258  -3.7251  -3.7172
    -3.7124  -3.7117  -3.7079  -3.7074  -3.7037  -3.7010  -3.6994  -3.6943
    -3.6936  -3.6901  -3.6898  -3.6848  -3.6843  -3.6829  -3.6783  -3.6745
    -3.6729  -3.6620  -3.6555  -3.6550  -3.6514  -3.6475  -3.6442  -3.6440
    -3.6430  -3.6394  -3.6345  -3.6319  -3.6307  -3.6287  -3.6252  -3.6231
    -3.6216  -3.6199  -3.6191  -3.6176  -3.6147  -3.6147  -3.6118  -3.6108
    -3.6081  -3.6076  -3.6046  -3.5999  -3.5914  -3.5900  -3.5853  -3.5829
    -3.5816  -3.5759  -3.5731  -3.5675  -3.5675  -3.5576  -3.5487  -3.5411
    -3.5352  -3.5330  -3.5257  -3.5208  -3.5197  -3.5171  -3.5081  -3.5024
    -3.4989  -3.4922  -3.4903  -3.4873  -3.4860  -3.4830  -3.4811  -3.4789
    -3.4719  -3.4706  -3.4640  -3.4620  -3.4618  -3.4469  -3.4461  -3.4213
    -3.4194  -3.4166  -3.4036  -3.3993  -3.3989  -3.3832  -3.3637  -3.3562
    -3.3341  -3.3023  -3.2413  -3.2219  -3.2199  -3.2055  -3.1646  -3.1616
    -3.1433  -3.1234  -3.1152  -3.0946  -3.0899  -3.0750  -3.0124  -3.0000
    -2.9818  -2.9271  -2.9266  -2.9007  -2.8984  -2.8924   0.3181   0.3336
     0.3555   0.3585   0.6094   0.6235   0.7204   0.7842   0.7886   0.8035
     0.8158   0.8460   0.8595   0.9718   0.9937   0.9959   1.0060   1.0295
     1.1551   1.1829   1.3537   1.5538   1.5679   1.6310   1.6928   1.9861
     2.0560   2.1228   2.2330   2.2575   2.3329   2.3468   2.3684   2.3755
     2.3955   2.4748   2.4925   2.4982   2.5479   2.6247   2.6647   2.6935
     2.7232   2.7821   2.7849   2.8958   2.9330   3.0127   3.0143   3.0199
     3.0221   3.0620   3.0723   3.1068   3.1395   3.1640   3.1671   3.1919
     3.2122   3.2433   3.3042   3.3389   3.4332   3.5418   3.5447   3.6827
     3.7866   3.7951   3.9108   3.9321   3.9423   4.0027   4.0297   4.0435
     4.0800   4.0923   4.1206   4.1466   4.1908   4.1914   4.2116   4.2594
     4.2973   4.3011   4.3094   4.3200   4.3209   4.3868   4.4121   4.4215
     4.4874   4.5089   4.5777   4.6898   4.8392   4.9625   5.2156   5.3054
     6.7608   7.9993   8.5898   8.6713   8.8735   8.9001   8.9309   8.9864
     9.0126   9.0949   9.2469   9.4141   9.4642   9.6188   9.6461   9.6677
     9.7247   9.8819   9.8832   9.9230   9.9252   9.9487  10.0388  10.0512
    10.0661  10.1203  10.1269  10.1793  10.1818  10.1959  10.2416  10.2599
    10.3080  10.3577  10.4842  10.5471  10.5486  10.6525  10.6772  10.7888
    10.8743  10.9176  10.9658  11.1219  11.2025  11.2500  11.4162  11.5457
    11.5793  11.6053  11.6474  11.6917  11.7066  11.7359  11.7765  11.8401
    11.8529  11.8752  11.8826

     occupation numbers 
     1.0000   1.0000   1.0000   1.0000   1.0000   1.0000   1.0000   1.0000
     1.0000   1.0000   1.0000   1.0000   1.0000   1.0000   1.0000   1.0000
     1.0000   1.0000   1.0000   1.0000   1.0000   1.0000   1.0000   1.0000
     1.0000   1.0000   1.0000   1.0000   1.0000   1.0000   1.0000   1.0000
     1.0000   1.0000   1.0000   1.0000   1.0000   1.0000   1.0000   1.0000
     1.0000   1.0000   1.0000   1.0000   1.0000   1.0000   1.0000   1.0000
     1.0000   1.0000   1.0000   1.0000   1.0000   1.0000   1.0000   1.0000
     1.0000   1.0000   1.0000   1.0000   1.0000   1.0000   1.0000   1.0000
     1.0000   1.0000   1.0000   1.0000   1.0000   1.0000   1.0000   1.0000
     1.0000   1.0000   1.0000   1.0000   1.0000   1.0000   1.0000   1.0000
     1.0000   1.0000   1.0000   1.0000   1.0000   1.0000   1.0000   1.0000
     1.0000   1.0000   1.0000   1.0000   1.0000   1.0000   1.0000   1.0000
     1.0000   1.0000   1.0000   1.0000   1.0000   1.0000   1.0000   1.0000
     1.0000   1.0000   1.0000   1.0000   1.0000   1.0000   1.0000   1.0000
     1.0000   1.0000   1.0000   1.0000   1.0000   1.0000   1.0000   1.0000
     1.0000   1.0000   1.0000   1.0000   1.0000   1.0000   1.0000   1.0000
     1.0000   1.0000   1.0000   1.0000   1.0000   1.0000   1.0000   1.0000
     1.0000   1.0000   1.0000   1.0000   1.0000   1.0000   1.0000   1.0000
     1.0000   1.0000   1.0000   1.0000   1.0000   1.0000   1.0000   1.0000
     1.0000   1.0000   1.0000   1.0000   1.0000   1.0000   1.0000   1.0000
     1.0000   1.0000   1.0000   1.0000   1.0000   1.0000   1.0000   1.0000
     1.0000   1.0000   1.0000   1.0000   1.0000   1.0000   1.0000   1.0000
     1.0000   1.0000   1.0000   1.0000   1.0000   1.0000   1.0000   1.0000
     1.0000   1.0000   1.0000   1.0000   1.0000   1.0000   1.0000   1.0000
     1.0000   1.0000   1.0000   1.0000   1.0000   1.0000   1.0000   1.0000
     1.0000   1.0000   1.0000   1.0000   1.0000   1.0000   1.0000   1.0000
     1.0000   1.0000   1.0000   1.0000   1.0000   1.0000   1.0000   1.0000
     1.0000   1.0000   1.0000   1.0000   1.0000   1.0000   1.0000   1.0000
     1.0000   1.0000   1.0000   1.0000   1.0000   1.0000   1.0000   1.0000
     1.0000   1.0000   1.0000   1.0000   1.0000   1.0000   1.0000   1.0000
     1.0000   1.0000   1.0000   1.0000   1.0000   1.0000   1.0000   1.0000
     1.0000   1.0000   1.0000   1.0000   1.0000   1.0000   1.0000   1.0000
     1.0000   1.0000   1.0000   1.0000   1.0000   1.0000   1.0000   1.0000
     1.0000   1.0000   1.0000   1.0000   1.0000   1.0000   1.0000   1.0000
     1.0000   1.0000   1.0000   1.0000   1.0000   1.0000   1.0000   1.0000
     1.0000   1.0000   1.0000   1.0000   1.0000   1.0000   1.0000   1.0000
     1.0000   0.0000   0.0000   0.0000   0.0000   0.0000   0.0000   0.0000
     0.0000   0.0000   0.0000   0.0000   0.0000   0.0000   0.0000   0.0000
     0.0000   0.0000   0.0000   0.0000   0.0000   0.0000   0.0000   0.0000
     0.0000   0.0000   0.0000   0.0000   0.0000   0.0000   0.0000   0.0000
     0.0000   0.0000   0.0000   0.0000   0.0000   0.0000   0.0000   0.0000
     0.0000   0.0000   0.0000   0.0000   0.0000   0.0000   0.0000   0.0000
     0.0000   0.0000   0.0000   0.0000   0.0000   0.0000   0.0000   0.0000
     0.0000   0.0000   0.0000

          k = 0.0000 0.0000-0.5000 (270152 PWs)   bands (ev):

  -103.4463 -60.8902 -60.8647 -60.8647  -7.5482  -7.4702  -7.1760  -7.1744
    -7.1690  -7.1553  -7.1389  -7.1063  -7.0946  -7.0617  -7.0117  -7.0055
    -7.0009  -6.9973  -6.9433  -6.9260  -6.9222  -6.9100  -6.8861  -6.8715
    -6.8456  -6.8440  -6.8286  -6.8148  -6.7975  -6.7898  -6.7826  -6.7785
    -6.4574  -6.3398  -6.3347  -3.8729  -3.8720  -3.8682  -3.8345  -3.8302
    -3.8300  -3.8268  -3.8257  -3.8249  -3.8242  -3.8210  -3.8166  -3.8149
    -3.8123  -3.8097  -3.8087  -3.8056  -3.8048  -3.7978  -3.7976  -3.7878
    -3.7865  -3.7849  -3.7834  -3.7808  -3.7750  -3.7704  -3.7640  -3.7629
    -3.7583  -3.7582  -3.7540  -3.7532  -3.7519  -3.7477  -3.7455  -3.7448
    -3.7397  -3.7359  -3.7348  -3.7309  -3.7286  -3.7261  -3.7202  -3.7172
    -3.7135  -3.7116  -3.7055  -3.7049  -3.7028  -3.7025  -3.7001  -3.6931
    -3.6921  -3.6883  -3.6876  -3.6845  -3.6833  -3.6807  -3.6795  -3.6765
    -3.6752  -3.6694  -3.6604  -3.6592  -3.6475  -3.6457  -3.6451  -3.6416
    -3.6402  -3.6377  -3.6295  -3.6295  -3.6268  -3.6261  -3.6242  -3.6228
    -3.6213  -3.6185  -3.6182  -3.6168  -3.6164  -3.6136  -3.6056  -3.6056
    -3.6032  -3.6009  -3.6002  -3.5957  -3.5942  -3.5924  -3.5881  -3.5854
    -3.5846  -3.5812  -3.5739  -3.5684  -3.5646  -3.5550  -3.5457  -3.5399
    -3.5328  -3.5302  -3.5176  -3.5158  -3.5139  -3.5084  -3.5033  -3.5002
    -3.4931  -3.4896  -3.4893  -3.4875  -3.4851  -3.4838  -3.4798  -3.4775
    -3.4717  -3.4692  -3.4662  -3.4624  -3.4622  -3.4598  -3.4474  -3.4338
    -3.4219  -3.4176  -3.4123  -3.4046  -3.4037  -3.3937  -3.3879  -3.3817
    -3.3433  -3.2777  -3.2309  -3.2246  -3.2074  -3.2071  -3.1949  -3.1794
    -3.1789  -3.1382  -3.0834  -3.0216  -3.0115  -3.0005  -2.9994  -2.9891
    -2.9782  -2.9632  -2.9581  -2.9477  -2.9398  -2.9385   0.5349   0.5559
     0.5670   0.5731   0.6294   0.6347   0.6489   0.6613   0.6757   0.6970
     0.7315   0.7739   0.8381   0.8438   0.8635   0.8773   0.9049   1.0260
     1.0911   1.1040   1.2244   1.5438   1.7643   1.7804   1.8731   1.9585
     1.9779   2.0051   2.0385   2.2163   2.2257   2.2532   2.2657   2.2821
     2.3482   2.4034   2.4438   2.4832   2.5477   2.5930   2.6197   2.6746
[...]
    10.0136  10.0398  10.0747  10.0933  10.1630  10.1787  10.2668  10.2897
    10.4194  10.5119  10.5459  10.5566  10.6032  10.7020  10.7181  10.7325
    10.7844  10.8647  10.8942  10.9718  11.1180  11.2074  11.2734  11.3330
    11.3979  11.4797  11.5492  11.5989  11.6494  11.6611  11.6742  11.7326
    11.7621  11.7839  11.8139

     occupation numbers 
     1.0000   1.0000   1.0000   1.0000   1.0000   1.0000   1.0000   1.0000
     1.0000   1.0000   1.0000   1.0000   1.0000   1.0000   1.0000   1.0000
     1.0000   1.0000   1.0000   1.0000   1.0000   1.0000   1.0000   1.0000
     1.0000   1.0000   1.0000   1.0000   1.0000   1.0000   1.0000   1.0000
     1.0000   1.0000   1.0000   1.0000   1.0000   1.0000   1.0000   1.0000
     1.0000   1.0000   1.0000   1.0000   1.0000   1.0000   1.0000   1.0000
     1.0000   1.0000   1.0000   1.0000   1.0000   1.0000   1.0000   1.0000
     1.0000   1.0000   1.0000   1.0000   1.0000   1.0000   1.0000   1.0000
     1.0000   1.0000   1.0000   1.0000   1.0000   1.0000   1.0000   1.0000
     1.0000   1.0000   1.0000   1.0000   1.0000   1.0000   1.0000   1.0000
     1.0000   1.0000   1.0000   1.0000   1.0000   1.0000   1.0000   1.0000
     1.0000   1.0000   1.0000   1.0000   1.0000   1.0000   1.0000   1.0000
     1.0000   1.0000   1.0000   1.0000   1.0000   1.0000   1.0000   1.0000
     1.0000   1.0000   1.0000   1.0000   1.0000   1.0000   1.0000   1.0000
     1.0000   1.0000   1.0000   1.0000   1.0000   1.0000   1.0000   1.0000
     1.0000   1.0000   1.0000   1.0000   1.0000   1.0000   1.0000   1.0000
     1.0000   1.0000   1.0000   1.0000   1.0000   1.0000   1.0000   1.0000
     1.0000   1.0000   1.0000   1.0000   1.0000   1.0000   1.0000   1.0000
     1.0000   1.0000   1.0000   1.0000   1.0000   1.0000   1.0000   1.0000
     1.0000   1.0000   1.0000   1.0000   1.0000   1.0000   1.0000   1.0000
     1.0000   1.0000   1.0000   1.0000   1.0000   1.0000   1.0000   1.0000
     1.0000   1.0000   1.0000   1.0000   1.0000   1.0000   1.0000   1.0000
     1.0000   1.0000   1.0000   1.0000   1.0000   1.0000   1.0000   1.0000
     1.0000   1.0000   1.0000   1.0000   1.0000   1.0000   1.0000   1.0000
     1.0000   1.0000   1.0000   1.0000   1.0000   1.0000   1.0000   1.0000
     1.0000   1.0000   1.0000   1.0000   1.0000   1.0000   1.0000   1.0000
     1.0000   1.0000   1.0000   1.0000   1.0000   1.0000   1.0000   1.0000
     1.0000   1.0000   1.0000   1.0000   1.0000   1.0000   1.0000   1.0000
     1.0000   1.0000   1.0000   1.0000   1.0000   1.0000   1.0000   1.0000
     1.0000   1.0000   1.0000   1.0000   1.0000   1.0000   1.0000   1.0000
     1.0000   1.0000   1.0000   1.0000   1.0000   1.0000   1.0000   1.0000
     1.0000   1.0000   1.0000   1.0000   1.0000   1.0000   1.0000   1.0000
     1.0000   1.0000   1.0000   1.0000   1.0000   1.0000   1.0000   1.0000
     1.0000   1.0000   1.0000   1.0000   1.0000   1.0000   1.0000   1.0000
     1.0000   1.0000   1.0000   1.0000   1.0000   1.0000   1.0000   1.0000
     1.0000   1.0000   1.0000   1.0000   1.0000   1.0000   1.0000   1.0000
     1.0000   0.0000   0.0000   0.0000   0.0000   0.0000   0.0000   0.0000
     0.0000   0.0000   0.0000   0.0000   0.0000   0.0000   0.0000   0.0000
     0.0000   0.0000   0.0000   0.0000   0.0000   0.0000   0.0000   0.0000
     0.0000   0.0000   0.0000   0.0000   0.0000   0.0000   0.0000   0.0000
     0.0000   0.0000   0.0000   0.0000   0.0000   0.0000   0.0000   0.0000
     0.0000   0.0000   0.0000   0.0000   0.0000   0.0000   0.0000   0.0000
     0.0000   0.0000   0.0000   0.0000   0.0000   0.0000   0.0000   0.0000
     0.0000   0.0000   0.0000

          k = 0.2500-0.2500 0.2500 (269935 PWs)   bands (ev):

  -103.4463 -60.8902 -60.8647 -60.8647  -7.5500  -7.3361  -7.3317  -7.3122
    -7.1702  -7.1639  -7.1383  -7.0408  -7.0323  -7.0312  -7.0085  -6.9787
    -6.9785  -6.9631  -6.9492  -6.9482  -6.9463  -6.8870  -6.8792  -6.8681
    -6.8516  -6.8505  -6.8207  -6.8202  -6.8195  -6.7927  -6.7903  -6.7901
    -6.4554  -6.3388  -6.3386  -3.8723  -3.8713  -3.8692  -3.8354  -3.8352
    -3.8324  -3.8321  -3.8257  -3.8240  -3.8216  -3.8187  -3.8152  -3.8145
    -3.8140  -3.8125  -3.8076  -3.8070  -3.7961  -3.7944  -3.7881  -3.7816
    -3.7809  -3.7773  -3.7759  -3.7748  -3.7708  -3.7705  -3.7673  -3.7658
    -3.7635  -3.7614  -3.7612  -3.7570  -3.7520  -3.7444  -3.7440  -3.7398
    -3.7385  -3.7373  -3.7333  -3.7329  -3.7278  -3.7266  -3.7209  -3.7136
    -3.7099  -3.7094  -3.7075  -3.7053  -3.7031  -3.7020  -3.6966  -3.6961
    -3.6936  -3.6911  -3.6874  -3.6874  -3.6839  -3.6833  -3.6785  -3.6750
    -3.6725  -3.6671  -3.6667  -3.6595  -3.6510  -3.6487  -3.6458  -3.6430
    -3.6413  -3.6393  -3.6385  -3.6325  -3.6308  -3.6279  -3.6275  -3.6258
    -3.6241  -3.6219  -3.6194  -3.6146  -3.6134  -3.6116  -3.6100  -3.6088
    -3.6061  -3.6060  -3.5977  -3.5944  -3.5926  -3.5918  -3.5899  -3.5870
    -3.5844  -3.5789  -3.5742  -3.5723  -3.5694  -3.5677  -3.5573  -3.5426
    -3.5401  -3.5369  -3.5191  -3.5179  -3.5156  -3.5132  -3.5081  -3.5066
    -3.5016  -3.4990  -3.4901  -3.4840  -3.4822  -3.4796  -3.4780  -3.4761
    -3.4746  -3.4706  -3.4666  -3.4629  -3.4574  -3.4546  -3.4310  -3.4222
    -3.4192  -3.4147  -3.4011  -3.3988  -3.3942  -3.3936  -3.3683  -3.3613
    -3.3239  -3.2916  -3.2340  -3.2107  -3.2000  -3.1905  -3.1823  -3.1730
    -3.1286  -3.0995  -3.0875  -3.0567  -3.0495  -3.0390  -3.0157  -3.0147
    -2.9982  -2.9692  -2.9498  -2.9419  -2.9392  -2.9315   0.4018   0.4202
     0.4365   0.6658   0.6820   0.6854   0.7176   0.7253   0.7262   0.7774
     0.7908   0.7943   0.8287   0.8617   0.8772   0.9491   0.9912   1.0472
     1.0491   1.1171   1.2413   1.3770   1.5519   1.5896   1.6588   1.7841
     1.8119   2.1021   2.2120   2.2800   2.3064   2.3646   2.4339   2.4348
     2.4739   2.4929   2.5188   2.5507   2.5528   2.6681   2.7029   2.7052
     2.8439   2.8966   2.9240   2.9437   2.9563   2.9751   3.0608   3.0882
     3.1214   3.1422   3.1678   3.2243   3.2459   3.2573   3.2811   3.3064
     3.3408   3.3947   3.4087   3.4955   3.5035   3.6254   3.6704   3.6994
     3.7460   3.7580   3.7636   3.7795   3.8446   3.8513   3.8866   3.8995
     3.9405   3.9437   3.9794   3.9798   4.0167   4.0450   4.0489   4.1078
     4.1781   4.2756   4.2891   4.3636   4.3867   4.4471   4.4655   4.4804
     4.5079   4.5594   4.6757   4.6841   4.8936   4.9775   5.1103   5.2859
     6.9001   8.1362   8.6604   8.6622   8.8313   9.1281   9.1984   9.2037
     9.2280   9.3372   9.3400   9.3925   9.4520   9.5204   9.5576   9.5630
     9.6538   9.7596   9.7777   9.8608   9.9034   9.9722   9.9768  10.0359
    10.0838  10.0855  10.1536  10.1621  10.1789  10.1964  10.2101  10.2236
    10.2349  10.2746  10.2751  10.3026  10.3818  10.5284  10.7390  10.8127
    10.9545  11.0150  11.0492  11.0996  11.2616  11.2720  11.2876  11.3091
    11.3291  11.3696  11.3952  11.5037  11.5090  11.5719  11.6888  11.7054
    11.7236  11.7751  11.8114

     occupation numbers 
     1.0000   1.0000   1.0000   1.0000   1.0000   1.0000   1.0000   1.0000
     1.0000   1.0000   1.0000   1.0000   1.0000   1.0000   1.0000   1.0000
     1.0000   1.0000   1.0000   1.0000   1.0000   1.0000   1.0000   1.0000
     1.0000   1.0000   1.0000   1.0000   1.0000   1.0000   1.0000   1.0000
     1.0000   1.0000   1.0000   1.0000   1.0000   1.0000   1.0000   1.0000
     1.0000   1.0000   1.0000   1.0000   1.0000   1.0000   1.0000   1.0000
     1.0000   1.0000   1.0000   1.0000   1.0000   1.0000   1.0000   1.0000
     1.0000   1.0000   1.0000   1.0000   1.0000   1.0000   1.0000   1.0000
     1.0000   1.0000   1.0000   1.0000   1.0000   1.0000   1.0000   1.0000
     1.0000   1.0000   1.0000   1.0000   1.0000   1.0000   1.0000   1.0000
     1.0000   1.0000   1.0000   1.0000   1.0000   1.0000   1.0000   1.0000
     1.0000   1.0000   1.0000   1.0000   1.0000   1.0000   1.0000   1.0000
     1.0000   1.0000   1.0000   1.0000   1.0000   1.0000   1.0000   1.0000
     1.0000   1.0000   1.0000   1.0000   1.0000   1.0000   1.0000   1.0000
     1.0000   1.0000   1.0000   1.0000   1.0000   1.0000   1.0000   1.0000
     1.0000   1.0000   1.0000   1.0000   1.0000   1.0000   1.0000   1.0000
     1.0000   1.0000   1.0000   1.0000   1.0000   1.0000   1.0000   1.0000
     1.0000   1.0000   1.0000   1.0000   1.0000   1.0000   1.0000   1.0000
     1.0000   1.0000   1.0000   1.0000   1.0000   1.0000   1.0000   1.0000
     1.0000   1.0000   1.0000   1.0000   1.0000   1.0000   1.0000   1.0000
     1.0000   1.0000   1.0000   1.0000   1.0000   1.0000   1.0000   1.0000
     1.0000   1.0000   1.0000   1.0000   1.0000   1.0000   1.0000   1.0000
     1.0000   1.0000   1.0000   1.0000   1.0000   1.0000   1.0000   1.0000
     1.0000   1.0000   1.0000   1.0000   1.0000   1.0000   1.0000   1.0000
     1.0000   1.0000   1.0000   1.0000   1.0000   1.0000   1.0000   1.0000
     1.0000   1.0000   1.0000   1.0000   1.0000   1.0000   1.0000   1.0000
     1.0000   1.0000   1.0000   1.0000   1.0000   1.0000   1.0000   1.0000
     1.0000   1.0000   1.0000   1.0000   1.0000   1.0000   1.0000   1.0000
     1.0000   1.0000   1.0000   1.0000   1.0000   1.0000   1.0000   1.0000
     1.0000   1.0000   1.0000   1.0000   1.0000   1.0000   1.0000   1.0000
     1.0000   1.0000   1.0000   1.0000   1.0000   1.0000   1.0000   1.0000
     1.0000   1.0000   1.0000   1.0000   1.0000   1.0000   1.0000   1.0000
     1.0000   1.0000   1.0000   1.0000   1.0000   1.0000   1.0000   1.0000
     1.0000   1.0000   1.0000   1.0000   1.0000   1.0000   1.0000   1.0000
     1.0000   1.0000   1.0000   1.0000   1.0000   1.0000   1.0000   1.0000
     1.0000   1.0000   1.0000   1.0000   1.0000   1.0000   1.0000   1.0000
     1.0000   0.0000   0.0000   0.0000   0.0000   0.0000   0.0000   0.0000
     0.0000   0.0000   0.0000   0.0000   0.0000   0.0000   0.0000   0.0000
     0.0000   0.0000   0.0000   0.0000   0.0000   0.0000   0.0000   0.0000
     0.0000   0.0000   0.0000   0.0000   0.0000   0.0000   0.0000   0.0000
     0.0000   0.0000   0.0000   0.0000   0.0000   0.0000   0.0000   0.0000
     0.0000   0.0000   0.0000   0.0000   0.0000   0.0000   0.0000   0.0000
     0.0000   0.0000   0.0000   0.0000   0.0000   0.0000   0.0000   0.0000
     0.0000   0.0000   0.0000

          k = 0.2500-0.2500-0.5000 (269988 PWs)   bands (ev):

  -103.4463 -60.8902 -60.8647 -60.8647  -7.4940  -7.4261  -7.2936  -7.2931
    -7.2345  -7.2045  -7.1464  -7.0435  -7.0212  -7.0191  -6.9818  -6.9770
    -6.9678  -6.9609  -6.9225  -6.9025  -6.9010  -6.8945  -6.8835  -6.8693
    -6.8619  -6.8482  -6.8359  -6.8307  -6.8172  -6.8080  -6.8049  -6.8035
    -6.4529  -6.3417  -6.3389  -3.8713  -3.8704  -3.8674  -3.8360  -3.8354
    -3.8324  -3.8310  -3.8299  -3.8271  -3.8224  -3.8184  -3.8158  -3.8144
    -3.8116  -3.8110  -3.8082  -3.8010  -3.8003  -3.7928  -3.7871  -3.7855
    -3.7805  -3.7791  -3.7767  -3.7725  -3.7706  -3.7678  -3.7666  -3.7640
    -3.7602  -3.7575  -3.7562  -3.7515  -3.7488  -3.7477  -3.7449  -3.7407
    -3.7405  -3.7394  -3.7373  -3.7359  -3.7290  -3.7217  -3.7189  -3.7137
    -3.7098  -3.7095  -3.7072  -3.7052  -3.7030  -3.7009  -3.6980  -3.6966
    -3.6956  -3.6906  -3.6882  -3.6856  -3.6843  -3.6829  -3.6788  -3.6742
    -3.6718  -3.6656  -3.6628  -3.6548  -3.6541  -3.6488  -3.6447  -3.6436
    -3.6405  -3.6394  -3.6389  -3.6370  -3.6323  -3.6308  -3.6290  -3.6267
    -3.6224  -3.6192  -3.6172  -3.6154  -3.6144  -3.6120  -3.6088  -3.6082
    -3.6064  -3.6041  -3.6016  -3.5995  -3.5943  -3.5903  -3.5901  -3.5885
    -3.5833  -3.5802  -3.5745  -3.5740  -3.5690  -3.5679  -3.5612  -3.5537
    -3.5420  -3.5388  -3.5340  -3.5177  -3.5158  -3.5136  -3.5123  -3.5082
    -3.5019  -3.4974  -3.4930  -3.4901  -3.4848  -3.4811  -3.4783  -3.4757
    -3.4742  -3.4706  -3.4673  -3.4627  -3.4585  -3.4512  -3.4406  -3.4250
    -3.4190  -3.4147  -3.4124  -3.3970  -3.3961  -3.3942  -3.3331  -3.3149
    -3.3066  -3.2887  -3.2424  -3.2236  -3.2012  -3.1829  -3.1633  -3.1368
    -3.1044  -3.0970  -3.0695  -3.0627  -3.0527  -3.0391  -3.0217  -3.0098
    -2.9999  -2.9881  -2.9798  -2.9704  -2.9591  -2.9472   0.4637   0.5291
     0.5980   0.6216   0.6696   0.6790   0.6983   0.7243   0.7258   0.7407
     0.7581   0.7749   0.8001   0.8292   0.8710   0.8985   0.9480   1.0448
     1.1406   1.2022   1.2376   1.2728   1.3150   1.4143   1.5759   1.8443
     2.0290   2.1854   2.2515   2.2537   2.3108   2.3474   2.3705   2.3773
     2.4524   2.5300   2.5339   2.5760   2.5873   2.6668   2.6966   2.7205
     2.7639   2.8244   2.8412   2.9272   3.0462   3.1188   3.1409   3.1985
     3.2650   3.2957   3.3047   3.3079   3.3224   3.3402   3.3881   3.4166
     3.4287   3.4406   3.4530   3.4818   3.4891   3.5098   3.5272   3.5641
     3.5912   3.6002   3.6418   3.6695   3.7299   3.7415   3.8173   3.8241
     3.8825   3.9282   3.9516   3.9693   4.0227   4.0404   4.1317   4.1641
     4.1895   4.2041   4.2241   4.2711   4.3601   4.4492   4.5350   4.6106
     4.6230   4.6718   4.7252   4.7974   4.8147   4.8375   5.1722   5.2462
     6.9259   8.3467   8.4445   8.8856   8.9433   9.0412   9.0915   9.2385
     9.2977   9.3270   9.3941   9.4861   9.5090   9.5382   9.5608   9.5788
     9.6382   9.6956   9.7126   9.7483   9.7868   9.8236   9.8438   9.8972
     9.9396   9.9632  10.0276  10.0485  10.0652  10.1370  10.1787  10.2772
    10.2939  10.3924  10.4255  10.5812  10.6616  10.7064  10.7297  10.7896
    10.8189  10.9128  11.0136  11.1038  11.1697  11.2191  11.3199  11.3836
    11.4182  11.4401  11.4528  11.4956  11.5284  11.5532  11.5809  11.5983
    11.6174  11.6213  11.6559

     occupation numbers 
     1.0000   1.0000   1.0000   1.0000   1.0000   1.0000   1.0000   1.0000
     1.0000   1.0000   1.0000   1.0000   1.0000   1.0000   1.0000   1.0000
     1.0000   1.0000   1.0000   1.0000   1.0000   1.0000   1.0000   1.0000
     1.0000   1.0000   1.0000   1.0000   1.0000   1.0000   1.0000   1.0000
     1.0000   1.0000   1.0000   1.0000   1.0000   1.0000   1.0000   1.0000
     1.0000   1.0000   1.0000   1.0000   1.0000   1.0000   1.0000   1.0000
     1.0000   1.0000   1.0000   1.0000   1.0000   1.0000   1.0000   1.0000
     1.0000   1.0000   1.0000   1.0000   1.0000   1.0000   1.0000   1.0000
     1.0000   1.0000   1.0000   1.0000   1.0000   1.0000   1.0000   1.0000
     1.0000   1.0000   1.0000   1.0000   1.0000   1.0000   1.0000   1.0000
     1.0000   1.0000   1.0000   1.0000   1.0000   1.0000   1.0000   1.0000
     1.0000   1.0000   1.0000   1.0000   1.0000   1.0000   1.0000   1.0000
     1.0000   1.0000   1.0000   1.0000   1.0000   1.0000   1.0000   1.0000
     1.0000   1.0000   1.0000   1.0000   1.0000   1.0000   1.0000   1.0000
     1.0000   1.0000   1.0000   1.0000   1.0000   1.0000   1.0000   1.0000
     1.0000   1.0000   1.0000   1.0000   1.0000   1.0000   1.0000   1.0000
     1.0000   1.0000   1.0000   1.0000   1.0000   1.0000   1.0000   1.0000
     1.0000   1.0000   1.0000   1.0000   1.0000   1.0000   1.0000   1.0000
     1.0000   1.0000   1.0000   1.0000   1.0000   1.0000   1.0000   1.0000
     1.0000   1.0000   1.0000   1.0000   1.0000   1.0000   1.0000   1.0000
     1.0000   1.0000   1.0000   1.0000   1.0000   1.0000   1.0000   1.0000
     1.0000   1.0000   1.0000   1.0000   1.0000   1.0000   1.0000   1.0000
     1.0000   1.0000   1.0000   1.0000   1.0000   1.0000   1.0000   1.0000
     1.0000   1.0000   1.0000   1.0000   1.0000   1.0000   1.0000   1.0000
     1.0000   1.0000   1.0000   1.0000   1.0000   1.0000   1.0000   1.0000
     1.0000   1.0000   1.0000   1.0000   1.0000   1.0000   1.0000   1.0000
     1.0000   1.0000   1.0000   1.0000   1.0000   1.0000   1.0000   1.0000
     1.0000   1.0000   1.0000   1.0000   1.0000   1.0000   1.0000   1.0000
     1.0000   1.0000   1.0000   1.0000   1.0000   1.0000   1.0000   1.0000
     1.0000   1.0000   1.0000   1.0000   1.0000   1.0000   1.0000   1.0000
     1.0000   1.0000   1.0000   1.0000   1.0000   1.0000   1.0000   1.0000
     1.0000   1.0000   1.0000   1.0000   1.0000   1.0000   1.0000   1.0000
     1.0000   1.0000   1.0000   1.0000   1.0000   1.0000   1.0000   1.0000
     1.0000   1.0000   1.0000   1.0000   1.0000   1.0000   1.0000   1.0000
     1.0000   1.0000   1.0000   1.0000   1.0000   1.0000   1.0000   1.0000
     1.0000   1.0000   1.0000   1.0000   1.0000   1.0000   1.0000   1.0000
     1.0000   0.0000   0.0000   0.0000   0.0000   0.0000   0.0000   0.0000
     0.0000   0.0000   0.0000   0.0000   0.0000   0.0000   0.0000   0.0000
     0.0000   0.0000   0.0000   0.0000   0.0000   0.0000   0.0000   0.0000
     0.0000   0.0000   0.0000   0.0000   0.0000   0.0000   0.0000   0.0000
     0.0000   0.0000   0.0000   0.0000   0.0000   0.0000   0.0000   0.0000
     0.0000   0.0000   0.0000   0.0000   0.0000   0.0000   0.0000   0.0000
     0.0000   0.0000   0.0000   0.0000   0.0000   0.0000   0.0000   0.0000
     0.0000   0.0000   0.0000

     the Fermi energy is     7.4948 ev
     (compare with:     7.6213 eV, computed in scf)

     Writing all to output data dir ./out/Cu_vac_qn1_U7_unrlxd.save/
 
     init_run     :      4.52s CPU      4.97s WALL (       1 calls)
     electrons    :    150.35s CPU    151.72s WALL (       1 calls)

     Called by init_run:
     wfcinit      :      2.01s CPU      2.09s WALL (       1 calls)
     wfcinit:atom :      0.03s CPU      0.03s WALL (       2 calls)
     wfcinit:wfcr :      3.17s CPU      3.26s WALL (       2 calls)
     potinit      :      0.68s CPU      0.82s WALL (       1 calls)
     hinit0       :      0.44s CPU      0.51s WALL (       1 calls)

     Called by electrons:
     c_bands      :    150.12s CPU    151.47s WALL (       1 calls)
     v_of_rho     :      0.26s CPU      0.32s WALL (       1 calls)
     v_h          :      0.01s CPU      0.01s WALL (       1 calls)
     v_xc         :      0.25s CPU      0.31s WALL (       1 calls)
     newd         :      0.04s CPU      0.04s WALL (       1 calls)
     PAW_pot      :      0.18s CPU      0.19s WALL (       1 calls)

     Called by c_bands:
     init_us_2    :      0.10s CPU      0.13s WALL (       4 calls)
     init_us_2:cp :      0.10s CPU      0.13s WALL (       4 calls)
     cegterg      :    136.05s CPU    137.25s WALL (      11 calls)

     Called by sum_band:

     Called by *egterg:
     cdiaghg      :     13.52s CPU     13.61s WALL (     212 calls)
     cegterg:over :     10.85s CPU     10.93s WALL (     210 calls)
     cegterg:upda :     10.41s CPU     10.47s WALL (     210 calls)
     cegterg:last :     19.30s CPU     19.42s WALL (      65 calls)
     cdiaghg:chol :      0.87s CPU      0.88s WALL (     212 calls)
     cdiaghg:inve :      1.28s CPU      1.29s WALL (     212 calls)
     cdiaghg:para :      2.07s CPU      2.09s WALL (     424 calls)
     h_psi        :     70.79s CPU     71.48s WALL (     223 calls)
     s_psi        :     12.12s CPU     12.20s WALL (     225 calls)
     g_psi        :      0.38s CPU      0.39s WALL (     210 calls)

     Called by h_psi:
     h_psi:calbec :     11.65s CPU     11.73s WALL (     223 calls)
     vloc_psi     :     29.05s CPU     29.32s WALL (     223 calls)
     add_vuspsi   :     12.23s CPU     12.32s WALL (     223 calls)
     vhpsi        :     17.28s CPU     17.42s WALL (     223 calls)

     General routines
     calbec       :     14.23s CPU     14.33s WALL (     448 calls)
     fft          :      0.43s CPU      0.56s WALL (      21 calls)
     fftw         :     27.00s CPU     27.25s WALL (   49346 calls)
     davcio       :      0.00s CPU      0.02s WALL (       2 calls)
 
     Parallel routines

     Hubbard U routines
     vhpsi        :     17.28s CPU     17.42s WALL (     223 calls)

     PAW routines
     PAW_pot      :      0.18s CPU      0.19s WALL (       1 calls)
 
     PWSCF        :   2m39.69s CPU   2m44.47s WALL

 
   This run was terminated on:   7:56:50  22Jul2024            

=------------------------------------------------------------------------------=
   JOB DONE.
=------------------------------------------------------------------------------=
