
     Program PWSCF v.7.2 starts on 15Feb2024 at 22:59: 3 

     This program is part of the open-source Quantum ESPRESSO suite
     for quantum simulation of materials; please cite
         "P. Giannozzi et al., J. Phys.:Condens. Matter 21 395502 (2009);
         "P. Giannozzi et al., J. Phys.:Condens. Matter 29 465901 (2017);
         "P. Giannozzi et al., J. Chem. Phys. 152 154105 (2020);
          URL http://www.quantum-espresso.org", 
     in publications or presentations arising from this work. More details at
     http://www.quantum-espresso.org/quote

     Parallel version (MPI), running on    10 processors

     MPI processes distributed on     1 nodes
     1365 MiB available memory on the printing compute node when the environment starts

     Waiting for input...
     Reading input from standard input

     Current dimensions of program PWSCF are:
     Max number of different atomic species (ntypx) = 10
     Max number of k-points (npk) =  40000
     Max angular momentum in pseudopotentials (lmaxx) =  4
     file Cu.pbe-spn-kjpaw_psl.1.0.0.UPF: wavefunction(s)  4S 3P 3D renormalized
     Found identity + (  0.0000 -0.5000 -0.5000) symmetry
     This is a supercell, fractional translations are disabled

     R & G space division:  proc/nbgrp/npool/nimage =      10
     Subspace diagonalization in iterative solution of the eigenvalue problem:
     a serial algorithm will be used


     Parallelization info
     --------------------
     sticks:   dense  smooth     PW     G-vecs:    dense   smooth      PW
     Min         194     194     55                 6458     6458     983
     Max         195     195     56                 6461     6461     988
     Sum        1941    1941    553                64589    64589    9843

     Using Slab Decomposition



     bravais-lattice index     =            1
     lattice parameter (alat)  =       6.8609  a.u.
     unit-cell volume          =     322.9605 (a.u.)^3
     number of atoms/cell      =            4
     number of atomic types    =            1
     number of electrons       =        76.00
     number of Kohn-Sham states=           46
     kinetic-energy cutoff     =     130.0000  Ry
     charge density cutoff     =     520.0000  Ry
     scf convergence threshold =      1.0E-08
     mixing beta               =       0.7000
     number of iterations used =            8  plain     mixing
     Exchange-correlation= SLA  PW   PBX  PBC
                           (   1   4   3   4   0   0   0)

     celldm(1)=   6.860932  celldm(2)=   0.000000  celldm(3)=   0.000000
     celldm(4)=   0.000000  celldm(5)=   0.000000  celldm(6)=   0.000000

     crystal axes: (cart. coord. in units of alat)
               a(1) = (   1.000000   0.000000   0.000000 )  
               a(2) = (   0.000000   1.000000   0.000000 )  
               a(3) = (   0.000000   0.000000   1.000000 )  

     reciprocal axes: (cart. coord. in units 2 pi/alat)
               b(1) = (  1.000000  0.000000  0.000000 )  
               b(2) = (  0.000000  1.000000  0.000000 )  
               b(3) = (  0.000000  0.000000  1.000000 )  


     PseudoPot. # 1 for Cu read from file:
     /home/abdul/git_repo/ZnS_Cu-Vacancy/pseudo/QE/Cu.pbe-spn-kjpaw_psl.1.0.0.UPF
     MD5 check sum: e7cbaad2f97193e5fe23251a619a52b0
     Pseudo is Projector augmented-wave + core cor, Zval = 19.0
     Generated using &quot;atomic&quot; code by A. Dal Corso  v.6.3
     Shape of augmentation charge: PSQ
     Using radial grid of 1199 points,  6 beta functions with: 
                l(1) =   0
                l(2) =   0
                l(3) =   1
                l(4) =   1
                l(5) =   2
                l(6) =   2
     Q(r) pseudized with 0 coefficients 


     atomic species   valence    mass     pseudopotential
        Cu            19.00    63.54600     Cu( 1.00)

     Starting magnetic structure 
     atomic species   magnetization
        Cu           0.100

     48 Sym. Ops., with inversion, found


                                    s                        frac. trans.

      isym =  1     identity                                     

 cryst.   s( 1) = (     1          0          0      )
                  (     0          1          0      )
                  (     0          0          1      )

 cart.    s( 1) = (  1.0000000  0.0000000  0.0000000 )
                  (  0.0000000  1.0000000  0.0000000 )
                  (  0.0000000  0.0000000  1.0000000 )


      isym =  2     180 deg rotation - cart. axis [0,0,1]        

 cryst.   s( 2) = (    -1          0          0      )
                  (     0         -1          0      )
                  (     0          0          1      )

 cart.    s( 2) = ( -1.0000000  0.0000000  0.0000000 )
                  (  0.0000000 -1.0000000  0.0000000 )
                  (  0.0000000  0.0000000  1.0000000 )


      isym =  3     180 deg rotation - cart. axis [0,1,0]        

 cryst.   s( 3) = (    -1          0          0      )
                  (     0          1          0      )
                  (     0          0         -1      )

 cart.    s( 3) = ( -1.0000000  0.0000000  0.0000000 )
                  (  0.0000000  1.0000000  0.0000000 )
                  (  0.0000000  0.0000000 -1.0000000 )


      isym =  4     180 deg rotation - cart. axis [1,0,0]        

 cryst.   s( 4) = (     1          0          0      )
                  (     0         -1          0      )
                  (     0          0         -1      )

 cart.    s( 4) = (  1.0000000  0.0000000  0.0000000 )
                  (  0.0000000 -1.0000000  0.0000000 )
                  (  0.0000000  0.0000000 -1.0000000 )


      isym =  5     180 deg rotation - cart. axis [1,1,0]        

 cryst.   s( 5) = (     0          1          0      )
                  (     1          0          0      )
                  (     0          0         -1      )

 cart.    s( 5) = (  0.0000000  1.0000000  0.0000000 )
                  (  1.0000000  0.0000000  0.0000000 )
                  (  0.0000000  0.0000000 -1.0000000 )


      isym =  6     180 deg rotation - cart. axis [1,-1,0]       

 cryst.   s( 6) = (     0         -1          0      )
                  (    -1          0          0      )
                  (     0          0         -1      )

 cart.    s( 6) = (  0.0000000 -1.0000000  0.0000000 )
                  ( -1.0000000  0.0000000  0.0000000 )
                  (  0.0000000  0.0000000 -1.0000000 )


      isym =  7      90 deg rotation - cart. axis [0,0,-1]       

 cryst.   s( 7) = (     0         -1          0      )
                  (     1          0          0      )
                  (     0          0          1      )

 cart.    s( 7) = (  0.0000000  1.0000000  0.0000000 )
                  ( -1.0000000  0.0000000  0.0000000 )
                  (  0.0000000  0.0000000  1.0000000 )


      isym =  8      90 deg rotation - cart. axis [0,0,1]        

 cryst.   s( 8) = (     0          1          0      )
                  (    -1          0          0      )
                  (     0          0          1      )

 cart.    s( 8) = (  0.0000000 -1.0000000  0.0000000 )
                  (  1.0000000  0.0000000  0.0000000 )
                  (  0.0000000  0.0000000  1.0000000 )


      isym =  9     180 deg rotation - cart. axis [1,0,1]        

 cryst.   s( 9) = (     0          0          1      )
                  (     0         -1          0      )
                  (     1          0          0      )

 cart.    s( 9) = (  0.0000000  0.0000000  1.0000000 )
                  (  0.0000000 -1.0000000  0.0000000 )
                  (  1.0000000  0.0000000  0.0000000 )


      isym = 10     180 deg rotation - cart. axis [-1,0,1]       

 cryst.   s(10) = (     0          0         -1      )
                  (     0         -1          0      )
                  (    -1          0          0      )

 cart.    s(10) = (  0.0000000  0.0000000 -1.0000000 )
                  (  0.0000000 -1.0000000  0.0000000 )
                  ( -1.0000000  0.0000000  0.0000000 )


      isym = 11      90 deg rotation - cart. axis [0,1,0]        

 cryst.   s(11) = (     0          0         -1      )
                  (     0          1          0      )
                  (     1          0          0      )

 cart.    s(11) = (  0.0000000  0.0000000  1.0000000 )
                  (  0.0000000  1.0000000  0.0000000 )
                  ( -1.0000000  0.0000000  0.0000000 )


      isym = 12      90 deg rotation - cart. axis [0,-1,0]       

 cryst.   s(12) = (     0          0          1      )
                  (     0          1          0      )
                  (    -1          0          0      )

 cart.    s(12) = (  0.0000000  0.0000000 -1.0000000 )
                  (  0.0000000  1.0000000  0.0000000 )
                  (  1.0000000  0.0000000  0.0000000 )


      isym = 13     180 deg rotation - cart. axis [0,1,1]        

 cryst.   s(13) = (    -1          0          0      )
                  (     0          0          1      )
                  (     0          1          0      )

 cart.    s(13) = ( -1.0000000  0.0000000  0.0000000 )
                  (  0.0000000  0.0000000  1.0000000 )
                  (  0.0000000  1.0000000  0.0000000 )


      isym = 14     180 deg rotation - cart. axis [0,1,-1]       

 cryst.   s(14) = (    -1          0          0      )
                  (     0          0         -1      )
                  (     0         -1          0      )

 cart.    s(14) = ( -1.0000000  0.0000000  0.0000000 )
                  (  0.0000000  0.0000000 -1.0000000 )
                  (  0.0000000 -1.0000000  0.0000000 )


      isym = 15      90 deg rotation - cart. axis [-1,0,0]       

 cryst.   s(15) = (     1          0          0      )
                  (     0          0         -1      )
                  (     0          1          0      )

 cart.    s(15) = (  1.0000000  0.0000000  0.0000000 )
                  (  0.0000000  0.0000000  1.0000000 )
                  (  0.0000000 -1.0000000  0.0000000 )


      isym = 16      90 deg rotation - cart. axis [1,0,0]        

 cryst.   s(16) = (     1          0          0      )
                  (     0          0          1      )
                  (     0         -1          0      )

 cart.    s(16) = (  1.0000000  0.0000000  0.0000000 )
                  (  0.0000000  0.0000000 -1.0000000 )
                  (  0.0000000  1.0000000  0.0000000 )


      isym = 17     120 deg rotation - cart. axis [-1,-1,-1]     

 cryst.   s(17) = (     0          0          1      )
                  (     1          0          0      )
                  (     0          1          0      )

 cart.    s(17) = (  0.0000000  1.0000000  0.0000000 )
                  (  0.0000000  0.0000000  1.0000000 )
                  (  1.0000000  0.0000000  0.0000000 )


      isym = 18     120 deg rotation - cart. axis [-1,1,1]       

 cryst.   s(18) = (     0          0         -1      )
                  (    -1          0          0      )
                  (     0          1          0      )

 cart.    s(18) = (  0.0000000 -1.0000000  0.0000000 )
                  (  0.0000000  0.0000000  1.0000000 )
                  ( -1.0000000  0.0000000  0.0000000 )


      isym = 19     120 deg rotation - cart. axis [1,1,-1]       

 cryst.   s(19) = (     0          0         -1      )
                  (     1          0          0      )
                  (     0         -1          0      )

 cart.    s(19) = (  0.0000000  1.0000000  0.0000000 )
                  (  0.0000000  0.0000000 -1.0000000 )
                  ( -1.0000000  0.0000000  0.0000000 )


      isym = 20     120 deg rotation - cart. axis [1,-1,1]       

 cryst.   s(20) = (     0          0          1      )
                  (    -1          0          0      )
                  (     0         -1          0      )

 cart.    s(20) = (  0.0000000 -1.0000000  0.0000000 )
                  (  0.0000000  0.0000000 -1.0000000 )
                  (  1.0000000  0.0000000  0.0000000 )


      isym = 21     120 deg rotation - cart. axis [1,1,1]        

 cryst.   s(21) = (     0          1          0      )
                  (     0          0          1      )
                  (     1          0          0      )

 cart.    s(21) = (  0.0000000  0.0000000  1.0000000 )
                  (  1.0000000  0.0000000  0.0000000 )
                  (  0.0000000  1.0000000  0.0000000 )


      isym = 22     120 deg rotation - cart. axis [-1,1,-1]      

 cryst.   s(22) = (     0         -1          0      )
                  (     0          0         -1      )
                  (     1          0          0      )

 cart.    s(22) = (  0.0000000  0.0000000  1.0000000 )
                  ( -1.0000000  0.0000000  0.0000000 )
                  (  0.0000000 -1.0000000  0.0000000 )


      isym = 23     120 deg rotation - cart. axis [1,-1,-1]      

 cryst.   s(23) = (     0         -1          0      )
                  (     0          0          1      )
                  (    -1          0          0      )

 cart.    s(23) = (  0.0000000  0.0000000 -1.0000000 )
                  ( -1.0000000  0.0000000  0.0000000 )
                  (  0.0000000  1.0000000  0.0000000 )


      isym = 24     120 deg rotation - cart. axis [-1,-1,1]      

 cryst.   s(24) = (     0          1          0      )
                  (     0          0         -1      )
                  (    -1          0          0      )

 cart.    s(24) = (  0.0000000  0.0000000 -1.0000000 )
                  (  1.0000000  0.0000000  0.0000000 )
                  (  0.0000000 -1.0000000  0.0000000 )


      isym = 25     inversion                                    

 cryst.   s(25) = (    -1          0          0      )
                  (     0         -1          0      )
                  (     0          0         -1      )

 cart.    s(25) = ( -1.0000000  0.0000000  0.0000000 )
                  (  0.0000000 -1.0000000  0.0000000 )
                  (  0.0000000  0.0000000 -1.0000000 )


      isym = 26     inv. 180 deg rotation - cart. axis [0,0,1]   

 cryst.   s(26) = (     1          0          0      )
                  (     0          1          0      )
                  (     0          0         -1      )

 cart.    s(26) = (  1.0000000  0.0000000  0.0000000 )
                  (  0.0000000  1.0000000  0.0000000 )
                  (  0.0000000  0.0000000 -1.0000000 )


      isym = 27     inv. 180 deg rotation - cart. axis [0,1,0]   

 cryst.   s(27) = (     1          0          0      )
                  (     0         -1          0      )
                  (     0          0          1      )

 cart.    s(27) = (  1.0000000  0.0000000  0.0000000 )
                  (  0.0000000 -1.0000000  0.0000000 )
                  (  0.0000000  0.0000000  1.0000000 )


      isym = 28     inv. 180 deg rotation - cart. axis [1,0,0]   

 cryst.   s(28) = (    -1          0          0      )
                  (     0          1          0      )
                  (     0          0          1      )

 cart.    s(28) = ( -1.0000000  0.0000000  0.0000000 )
                  (  0.0000000  1.0000000  0.0000000 )
                  (  0.0000000  0.0000000  1.0000000 )


      isym = 29     inv. 180 deg rotation - cart. axis [1,1,0]   

 cryst.   s(29) = (     0         -1          0      )
                  (    -1          0          0      )
                  (     0          0          1      )

 cart.    s(29) = (  0.0000000 -1.0000000  0.0000000 )
                  ( -1.0000000  0.0000000  0.0000000 )
                  (  0.0000000  0.0000000  1.0000000 )


      isym = 30     inv. 180 deg rotation - cart. axis [1,-1,0]  

 cryst.   s(30) = (     0          1          0      )
                  (     1          0          0      )
                  (     0          0          1      )

 cart.    s(30) = (  0.0000000  1.0000000  0.0000000 )
                  (  1.0000000  0.0000000  0.0000000 )
                  (  0.0000000  0.0000000  1.0000000 )


      isym = 31     inv.  90 deg rotation - cart. axis [0,0,-1]  

 cryst.   s(31) = (     0          1          0      )
                  (    -1          0          0      )
                  (     0          0         -1      )

 cart.    s(31) = (  0.0000000 -1.0000000  0.0000000 )
                  (  1.0000000  0.0000000  0.0000000 )
                  (  0.0000000  0.0000000 -1.0000000 )


      isym = 32     inv.  90 deg rotation - cart. axis [0,0,1]   

 cryst.   s(32) = (     0         -1          0      )
                  (     1          0          0      )
                  (     0          0         -1      )

 cart.    s(32) = (  0.0000000  1.0000000  0.0000000 )
                  ( -1.0000000  0.0000000  0.0000000 )
                  (  0.0000000  0.0000000 -1.0000000 )


      isym = 33     inv. 180 deg rotation - cart. axis [1,0,1]   

 cryst.   s(33) = (     0          0         -1      )
                  (     0          1          0      )
                  (    -1          0          0      )

 cart.    s(33) = (  0.0000000  0.0000000 -1.0000000 )
                  (  0.0000000  1.0000000  0.0000000 )
                  ( -1.0000000  0.0000000  0.0000000 )


      isym = 34     inv. 180 deg rotation - cart. axis [-1,0,1]  

 cryst.   s(34) = (     0          0          1      )
                  (     0          1          0      )
                  (     1          0          0      )

 cart.    s(34) = (  0.0000000  0.0000000  1.0000000 )
                  (  0.0000000  1.0000000  0.0000000 )
                  (  1.0000000  0.0000000  0.0000000 )


      isym = 35     inv.  90 deg rotation - cart. axis [0,1,0]   

 cryst.   s(35) = (     0          0          1      )
                  (     0         -1          0      )
                  (    -1          0          0      )

 cart.    s(35) = (  0.0000000  0.0000000 -1.0000000 )
                  (  0.0000000 -1.0000000  0.0000000 )
                  (  1.0000000  0.0000000  0.0000000 )


      isym = 36     inv.  90 deg rotation - cart. axis [0,-1,0]  

 cryst.   s(36) = (     0          0         -1      )
                  (     0         -1          0      )
                  (     1          0          0      )

 cart.    s(36) = (  0.0000000  0.0000000  1.0000000 )
                  (  0.0000000 -1.0000000  0.0000000 )
                  ( -1.0000000  0.0000000  0.0000000 )


      isym = 37     inv. 180 deg rotation - cart. axis [0,1,1]   

 cryst.   s(37) = (     1          0          0      )
                  (     0          0         -1      )
                  (     0         -1          0      )

 cart.    s(37) = (  1.0000000  0.0000000  0.0000000 )
                  (  0.0000000  0.0000000 -1.0000000 )
                  (  0.0000000 -1.0000000  0.0000000 )


      isym = 38     inv. 180 deg rotation - cart. axis [0,1,-1]  

 cryst.   s(38) = (     1          0          0      )
                  (     0          0          1      )
                  (     0          1          0      )

 cart.    s(38) = (  1.0000000  0.0000000  0.0000000 )
                  (  0.0000000  0.0000000  1.0000000 )
                  (  0.0000000  1.0000000  0.0000000 )


      isym = 39     inv.  90 deg rotation - cart. axis [-1,0,0]  

 cryst.   s(39) = (    -1          0          0      )
                  (     0          0          1      )
                  (     0         -1          0      )

 cart.    s(39) = ( -1.0000000  0.0000000  0.0000000 )
                  (  0.0000000  0.0000000 -1.0000000 )
                  (  0.0000000  1.0000000  0.0000000 )


      isym = 40     inv.  90 deg rotation - cart. axis [1,0,0]   

 cryst.   s(40) = (    -1          0          0      )
                  (     0          0         -1      )
                  (     0          1          0      )

 cart.    s(40) = ( -1.0000000  0.0000000  0.0000000 )
                  (  0.0000000  0.0000000  1.0000000 )
                  (  0.0000000 -1.0000000  0.0000000 )


      isym = 41     inv. 120 deg rotation - cart. axis [-1,-1,-1]

 cryst.   s(41) = (     0          0         -1      )
                  (    -1          0          0      )
                  (     0         -1          0      )

 cart.    s(41) = (  0.0000000 -1.0000000  0.0000000 )
                  (  0.0000000  0.0000000 -1.0000000 )
                  ( -1.0000000  0.0000000  0.0000000 )


      isym = 42     inv. 120 deg rotation - cart. axis [-1,1,1]  

 cryst.   s(42) = (     0          0          1      )
                  (     1          0          0      )
                  (     0         -1          0      )

 cart.    s(42) = (  0.0000000  1.0000000  0.0000000 )
                  (  0.0000000  0.0000000 -1.0000000 )
                  (  1.0000000  0.0000000  0.0000000 )


      isym = 43     inv. 120 deg rotation - cart. axis [1,1,-1]  

 cryst.   s(43) = (     0          0          1      )
                  (    -1          0          0      )
                  (     0          1          0      )

 cart.    s(43) = (  0.0000000 -1.0000000  0.0000000 )
                  (  0.0000000  0.0000000  1.0000000 )
                  (  1.0000000  0.0000000  0.0000000 )


      isym = 44     inv. 120 deg rotation - cart. axis [1,-1,1]  

 cryst.   s(44) = (     0          0         -1      )
                  (     1          0          0      )
                  (     0          1          0      )

 cart.    s(44) = (  0.0000000  1.0000000  0.0000000 )
                  (  0.0000000  0.0000000  1.0000000 )
                  ( -1.0000000  0.0000000  0.0000000 )


      isym = 45     inv. 120 deg rotation - cart. axis [1,1,1]   

 cryst.   s(45) = (     0         -1          0      )
                  (     0          0         -1      )
                  (    -1          0          0      )

 cart.    s(45) = (  0.0000000  0.0000000 -1.0000000 )
                  ( -1.0000000  0.0000000  0.0000000 )
                  (  0.0000000 -1.0000000  0.0000000 )


      isym = 46     inv. 120 deg rotation - cart. axis [-1,1,-1] 

 cryst.   s(46) = (     0          1          0      )
                  (     0          0          1      )
                  (    -1          0          0      )

 cart.    s(46) = (  0.0000000  0.0000000 -1.0000000 )
                  (  1.0000000  0.0000000  0.0000000 )
                  (  0.0000000  1.0000000  0.0000000 )


      isym = 47     inv. 120 deg rotation - cart. axis [1,-1,-1] 

 cryst.   s(47) = (     0          1          0      )
                  (     0          0         -1      )
                  (     1          0          0      )

 cart.    s(47) = (  0.0000000  0.0000000  1.0000000 )
                  (  1.0000000  0.0000000  0.0000000 )
                  (  0.0000000 -1.0000000  0.0000000 )


      isym = 48     inv. 120 deg rotation - cart. axis [-1,-1,1] 

 cryst.   s(48) = (     0         -1          0      )
                  (     0          0          1      )
                  (     1          0          0      )

 cart.    s(48) = (  0.0000000  0.0000000  1.0000000 )
                  ( -1.0000000  0.0000000  0.0000000 )
                  (  0.0000000  1.0000000  0.0000000 )


     point group O_h (m-3m) 
     there are 10 classes
     the character table:

       E     8C3   3C2   6C4   6C2'  i     8S6   3s_h  6S4   6s_d 
A_1g   1.00  1.00  1.00  1.00  1.00  1.00  1.00  1.00  1.00  1.00
A_2g   1.00  1.00  1.00 -1.00 -1.00  1.00  1.00  1.00 -1.00 -1.00
E_g    2.00 -1.00  2.00  0.00  0.00  2.00 -1.00  2.00  0.00  0.00
T_1g   3.00  0.00 -1.00  1.00 -1.00  3.00  0.00 -1.00  1.00 -1.00
T_2g   3.00  0.00 -1.00 -1.00  1.00  3.00  0.00 -1.00 -1.00  1.00
A_1u   1.00  1.00  1.00  1.00  1.00 -1.00 -1.00 -1.00 -1.00 -1.00
A_2u   1.00  1.00  1.00 -1.00 -1.00 -1.00 -1.00 -1.00  1.00  1.00
E_u    2.00 -1.00  2.00  0.00  0.00 -2.00  1.00 -2.00  0.00  0.00
T_1u   3.00  0.00 -1.00  1.00 -1.00 -3.00  0.00  1.00 -1.00  1.00
T_2u   3.00  0.00 -1.00 -1.00  1.00 -3.00  0.00  1.00  1.00 -1.00

     the symmetry operations in each class and the name of the first element:

     E        1
          identity                                               
     8C3     17   19   20   18   24   21   22   23
          120 deg rotation - cart. axis [-1,-1,-1]               
     3C2      2    4    3
          180 deg rotation - cart. axis [0,0,1]                  
     6C4      7    8   15   16   12   11
           90 deg rotation - cart. axis [0,0,-1]                 
     6C2'     5    6   14   13   10    9
          180 deg rotation - cart. axis [1,1,0]                  
     i       25
          inversion                                              
     8S6     41   43   44   42   48   45   46   47
          inv. 120 deg rotation - cart. axis [-1,-1,-1]          
     3s_h    26   28   27
          inv. 180 deg rotation - cart. axis [0,0,1]             
     6S4     31   32   39   40   36   35
          inv.  90 deg rotation - cart. axis [0,0,-1]            
     6s_d    29   30   38   37   34   33
          inv. 180 deg rotation - cart. axis [1,1,0]             

   Cartesian axes

     site n.     atom                  positions (alat units)
         1           Cu  tau(   1) = (   0.0000000   0.0000000   0.0000000  )
         2           Cu  tau(   2) = (   0.0000000   0.5000000   0.5000000  )
         3           Cu  tau(   3) = (   0.5000000   0.0000000   0.5000000  )
         4           Cu  tau(   4) = (   0.5000000   0.5000000   0.0000000  )

   Crystallographic axes

     site n.     atom                  positions (cryst. coord.)
         1           Cu  tau(   1) = (  0.0000000  0.0000000  0.0000000  )
         2           Cu  tau(   2) = (  0.0000000  0.5000000  0.5000000  )
         3           Cu  tau(   3) = (  0.5000000  0.0000000  0.5000000  )
         4           Cu  tau(   4) = (  0.5000000  0.5000000  0.0000000  )

     number of k points=   120  Gaussian smearing, width (Ry)=  0.0005
                       cart. coord. in units 2pi/alat
        k(    1) = (   0.0000000   0.0000000   0.0000000), wk =   0.0003644
        k(    2) = (   0.0000000   0.0000000   0.0714286), wk =   0.0021866
        k(    3) = (   0.0000000   0.0000000   0.1428571), wk =   0.0021866
        k(    4) = (   0.0000000   0.0000000   0.2142857), wk =   0.0021866
        k(    5) = (   0.0000000   0.0000000   0.2857143), wk =   0.0021866
        k(    6) = (   0.0000000   0.0000000   0.3571429), wk =   0.0021866
        k(    7) = (   0.0000000   0.0000000   0.4285714), wk =   0.0021866
        k(    8) = (   0.0000000   0.0000000  -0.5000000), wk =   0.0010933
        k(    9) = (   0.0000000   0.0714286   0.0714286), wk =   0.0043732
        k(   10) = (   0.0000000   0.0714286   0.1428571), wk =   0.0087464
        k(   11) = (   0.0000000   0.0714286   0.2142857), wk =   0.0087464
        k(   12) = (   0.0000000   0.0714286   0.2857143), wk =   0.0087464
        k(   13) = (   0.0000000   0.0714286   0.3571429), wk =   0.0087464
        k(   14) = (   0.0000000   0.0714286   0.4285714), wk =   0.0087464
        k(   15) = (   0.0000000   0.0714286  -0.5000000), wk =   0.0043732
        k(   16) = (   0.0000000   0.1428571   0.1428571), wk =   0.0043732
        k(   17) = (   0.0000000   0.1428571   0.2142857), wk =   0.0087464
        k(   18) = (   0.0000000   0.1428571   0.2857143), wk =   0.0087464
        k(   19) = (   0.0000000   0.1428571   0.3571429), wk =   0.0087464
        k(   20) = (   0.0000000   0.1428571   0.4285714), wk =   0.0087464
        k(   21) = (   0.0000000   0.1428571  -0.5000000), wk =   0.0043732
        k(   22) = (   0.0000000   0.2142857   0.2142857), wk =   0.0043732
        k(   23) = (   0.0000000   0.2142857   0.2857143), wk =   0.0087464
        k(   24) = (   0.0000000   0.2142857   0.3571429), wk =   0.0087464
        k(   25) = (   0.0000000   0.2142857   0.4285714), wk =   0.0087464
        k(   26) = (   0.0000000   0.2142857  -0.5000000), wk =   0.0043732
        k(   27) = (   0.0000000   0.2857143   0.2857143), wk =   0.0043732
        k(   28) = (   0.0000000   0.2857143   0.3571429), wk =   0.0087464
        k(   29) = (   0.0000000   0.2857143   0.4285714), wk =   0.0087464
        k(   30) = (   0.0000000   0.2857143  -0.5000000), wk =   0.0043732
        k(   31) = (   0.0000000   0.3571429   0.3571429), wk =   0.0043732
        k(   32) = (   0.0000000   0.3571429   0.4285714), wk =   0.0087464
        k(   33) = (   0.0000000   0.3571429  -0.5000000), wk =   0.0043732
        k(   34) = (   0.0000000   0.4285714   0.4285714), wk =   0.0043732
        k(   35) = (   0.0000000   0.4285714  -0.5000000), wk =   0.0043732
        k(   36) = (   0.0000000  -0.5000000  -0.5000000), wk =   0.0010933
        k(   37) = (   0.0714286   0.0714286   0.0714286), wk =   0.0029155
        k(   38) = (   0.0714286   0.0714286   0.1428571), wk =   0.0087464
        k(   39) = (   0.0714286   0.0714286   0.2142857), wk =   0.0087464
        k(   40) = (   0.0714286   0.0714286   0.2857143), wk =   0.0087464
        k(   41) = (   0.0714286   0.0714286   0.3571429), wk =   0.0087464
        k(   42) = (   0.0714286   0.0714286   0.4285714), wk =   0.0087464
        k(   43) = (   0.0714286   0.0714286  -0.5000000), wk =   0.0043732
        k(   44) = (   0.0714286   0.1428571   0.1428571), wk =   0.0087464
        k(   45) = (   0.0714286   0.1428571   0.2142857), wk =   0.0174927
        k(   46) = (   0.0714286   0.1428571   0.2857143), wk =   0.0174927
        k(   47) = (   0.0714286   0.1428571   0.3571429), wk =   0.0174927
        k(   48) = (   0.0714286   0.1428571   0.4285714), wk =   0.0174927
        k(   49) = (   0.0714286   0.1428571  -0.5000000), wk =   0.0087464
        k(   50) = (   0.0714286   0.2142857   0.2142857), wk =   0.0087464
        k(   51) = (   0.0714286   0.2142857   0.2857143), wk =   0.0174927
        k(   52) = (   0.0714286   0.2142857   0.3571429), wk =   0.0174927
        k(   53) = (   0.0714286   0.2142857   0.4285714), wk =   0.0174927
        k(   54) = (   0.0714286   0.2142857  -0.5000000), wk =   0.0087464
        k(   55) = (   0.0714286   0.2857143   0.2857143), wk =   0.0087464
        k(   56) = (   0.0714286   0.2857143   0.3571429), wk =   0.0174927
        k(   57) = (   0.0714286   0.2857143   0.4285714), wk =   0.0174927
        k(   58) = (   0.0714286   0.2857143  -0.5000000), wk =   0.0087464
        k(   59) = (   0.0714286   0.3571429   0.3571429), wk =   0.0087464
        k(   60) = (   0.0714286   0.3571429   0.4285714), wk =   0.0174927
        k(   61) = (   0.0714286   0.3571429  -0.5000000), wk =   0.0087464
        k(   62) = (   0.0714286   0.4285714   0.4285714), wk =   0.0087464
        k(   63) = (   0.0714286   0.4285714  -0.5000000), wk =   0.0087464
        k(   64) = (   0.0714286  -0.5000000  -0.5000000), wk =   0.0021866
        k(   65) = (   0.1428571   0.1428571   0.1428571), wk =   0.0029155
        k(   66) = (   0.1428571   0.1428571   0.2142857), wk =   0.0087464
        k(   67) = (   0.1428571   0.1428571   0.2857143), wk =   0.0087464
        k(   68) = (   0.1428571   0.1428571   0.3571429), wk =   0.0087464
        k(   69) = (   0.1428571   0.1428571   0.4285714), wk =   0.0087464
        k(   70) = (   0.1428571   0.1428571  -0.5000000), wk =   0.0043732
        k(   71) = (   0.1428571   0.2142857   0.2142857), wk =   0.0087464
        k(   72) = (   0.1428571   0.2142857   0.2857143), wk =   0.0174927
        k(   73) = (   0.1428571   0.2142857   0.3571429), wk =   0.0174927
        k(   74) = (   0.1428571   0.2142857   0.4285714), wk =   0.0174927
        k(   75) = (   0.1428571   0.2142857  -0.5000000), wk =   0.0087464
        k(   76) = (   0.1428571   0.2857143   0.2857143), wk =   0.0087464
        k(   77) = (   0.1428571   0.2857143   0.3571429), wk =   0.0174927
        k(   78) = (   0.1428571   0.2857143   0.4285714), wk =   0.0174927
        k(   79) = (   0.1428571   0.2857143  -0.5000000), wk =   0.0087464
        k(   80) = (   0.1428571   0.3571429   0.3571429), wk =   0.0087464
        k(   81) = (   0.1428571   0.3571429   0.4285714), wk =   0.0174927
        k(   82) = (   0.1428571   0.3571429  -0.5000000), wk =   0.0087464
        k(   83) = (   0.1428571   0.4285714   0.4285714), wk =   0.0087464
        k(   84) = (   0.1428571   0.4285714  -0.5000000), wk =   0.0087464
        k(   85) = (   0.1428571  -0.5000000  -0.5000000), wk =   0.0021866
        k(   86) = (   0.2142857   0.2142857   0.2142857), wk =   0.0029155
        k(   87) = (   0.2142857   0.2142857   0.2857143), wk =   0.0087464
        k(   88) = (   0.2142857   0.2142857   0.3571429), wk =   0.0087464
        k(   89) = (   0.2142857   0.2142857   0.4285714), wk =   0.0087464
        k(   90) = (   0.2142857   0.2142857  -0.5000000), wk =   0.0043732
        k(   91) = (   0.2142857   0.2857143   0.2857143), wk =   0.0087464
        k(   92) = (   0.2142857   0.2857143   0.3571429), wk =   0.0174927
        k(   93) = (   0.2142857   0.2857143   0.4285714), wk =   0.0174927
        k(   94) = (   0.2142857   0.2857143  -0.5000000), wk =   0.0087464
        k(   95) = (   0.2142857   0.3571429   0.3571429), wk =   0.0087464
        k(   96) = (   0.2142857   0.3571429   0.4285714), wk =   0.0174927
        k(   97) = (   0.2142857   0.3571429  -0.5000000), wk =   0.0087464
        k(   98) = (   0.2142857   0.4285714   0.4285714), wk =   0.0087464
        k(   99) = (   0.2142857   0.4285714  -0.5000000), wk =   0.0087464
        k(  100) = (   0.2142857  -0.5000000  -0.5000000), wk =   0.0021866
        k(  101) = (   0.2857143   0.2857143   0.2857143), wk =   0.0029155
        k(  102) = (   0.2857143   0.2857143   0.3571429), wk =   0.0087464
        k(  103) = (   0.2857143   0.2857143   0.4285714), wk =   0.0087464
        k(  104) = (   0.2857143   0.2857143  -0.5000000), wk =   0.0043732
        k(  105) = (   0.2857143   0.3571429   0.3571429), wk =   0.0087464
        k(  106) = (   0.2857143   0.3571429   0.4285714), wk =   0.0174927
        k(  107) = (   0.2857143   0.3571429  -0.5000000), wk =   0.0087464
        k(  108) = (   0.2857143   0.4285714   0.4285714), wk =   0.0087464
        k(  109) = (   0.2857143   0.4285714  -0.5000000), wk =   0.0087464
        k(  110) = (   0.2857143  -0.5000000  -0.5000000), wk =   0.0021866
        k(  111) = (   0.3571429   0.3571429   0.3571429), wk =   0.0029155
        k(  112) = (   0.3571429   0.3571429   0.4285714), wk =   0.0087464
        k(  113) = (   0.3571429   0.3571429  -0.5000000), wk =   0.0043732
        k(  114) = (   0.3571429   0.4285714   0.4285714), wk =   0.0087464
        k(  115) = (   0.3571429   0.4285714  -0.5000000), wk =   0.0087464
        k(  116) = (   0.3571429  -0.5000000  -0.5000000), wk =   0.0021866
        k(  117) = (   0.4285714   0.4285714   0.4285714), wk =   0.0029155
        k(  118) = (   0.4285714   0.4285714  -0.5000000), wk =   0.0043732
        k(  119) = (   0.4285714  -0.5000000  -0.5000000), wk =   0.0021866
        k(  120) = (  -0.5000000  -0.5000000  -0.5000000), wk =   0.0003644

                       cryst. coord.
        k(    1) = (   0.0000000   0.0000000   0.0000000), wk =   0.0003644
        k(    2) = (   0.0000000   0.0000000   0.0714286), wk =   0.0021866
        k(    3) = (   0.0000000   0.0000000   0.1428571), wk =   0.0021866
        k(    4) = (   0.0000000   0.0000000   0.2142857), wk =   0.0021866
        k(    5) = (   0.0000000   0.0000000   0.2857143), wk =   0.0021866
        k(    6) = (   0.0000000   0.0000000   0.3571429), wk =   0.0021866
        k(    7) = (   0.0000000   0.0000000   0.4285714), wk =   0.0021866
        k(    8) = (   0.0000000   0.0000000  -0.5000000), wk =   0.0010933
        k(    9) = (   0.0000000   0.0714286   0.0714286), wk =   0.0043732
        k(   10) = (   0.0000000   0.0714286   0.1428571), wk =   0.0087464
        k(   11) = (   0.0000000   0.0714286   0.2142857), wk =   0.0087464
        k(   12) = (   0.0000000   0.0714286   0.2857143), wk =   0.0087464
        k(   13) = (   0.0000000   0.0714286   0.3571429), wk =   0.0087464
        k(   14) = (   0.0000000   0.0714286   0.4285714), wk =   0.0087464
        k(   15) = (   0.0000000   0.0714286  -0.5000000), wk =   0.0043732
        k(   16) = (   0.0000000   0.1428571   0.1428571), wk =   0.0043732
        k(   17) = (   0.0000000   0.1428571   0.2142857), wk =   0.0087464
        k(   18) = (   0.0000000   0.1428571   0.2857143), wk =   0.0087464
        k(   19) = (   0.0000000   0.1428571   0.3571429), wk =   0.0087464
        k(   20) = (   0.0000000   0.1428571   0.4285714), wk =   0.0087464
        k(   21) = (   0.0000000   0.1428571  -0.5000000), wk =   0.0043732
        k(   22) = (   0.0000000   0.2142857   0.2142857), wk =   0.0043732
        k(   23) = (   0.0000000   0.2142857   0.2857143), wk =   0.0087464
        k(   24) = (   0.0000000   0.2142857   0.3571429), wk =   0.0087464
        k(   25) = (   0.0000000   0.2142857   0.4285714), wk =   0.0087464
        k(   26) = (   0.0000000   0.2142857  -0.5000000), wk =   0.0043732
        k(   27) = (   0.0000000   0.2857143   0.2857143), wk =   0.0043732
        k(   28) = (   0.0000000   0.2857143   0.3571429), wk =   0.0087464
        k(   29) = (   0.0000000   0.2857143   0.4285714), wk =   0.0087464
        k(   30) = (   0.0000000   0.2857143  -0.5000000), wk =   0.0043732
        k(   31) = (   0.0000000   0.3571429   0.3571429), wk =   0.0043732
        k(   32) = (   0.0000000   0.3571429   0.4285714), wk =   0.0087464
        k(   33) = (   0.0000000   0.3571429  -0.5000000), wk =   0.0043732
        k(   34) = (   0.0000000   0.4285714   0.4285714), wk =   0.0043732
        k(   35) = (   0.0000000   0.4285714  -0.5000000), wk =   0.0043732
        k(   36) = (   0.0000000  -0.5000000  -0.5000000), wk =   0.0010933
        k(   37) = (   0.0714286   0.0714286   0.0714286), wk =   0.0029155
        k(   38) = (   0.0714286   0.0714286   0.1428571), wk =   0.0087464
        k(   39) = (   0.0714286   0.0714286   0.2142857), wk =   0.0087464
        k(   40) = (   0.0714286   0.0714286   0.2857143), wk =   0.0087464
        k(   41) = (   0.0714286   0.0714286   0.3571429), wk =   0.0087464
        k(   42) = (   0.0714286   0.0714286   0.4285714), wk =   0.0087464
        k(   43) = (   0.0714286   0.0714286  -0.5000000), wk =   0.0043732
        k(   44) = (   0.0714286   0.1428571   0.1428571), wk =   0.0087464
        k(   45) = (   0.0714286   0.1428571   0.2142857), wk =   0.0174927
        k(   46) = (   0.0714286   0.1428571   0.2857143), wk =   0.0174927
        k(   47) = (   0.0714286   0.1428571   0.3571429), wk =   0.0174927
        k(   48) = (   0.0714286   0.1428571   0.4285714), wk =   0.0174927
        k(   49) = (   0.0714286   0.1428571  -0.5000000), wk =   0.0087464
        k(   50) = (   0.0714286   0.2142857   0.2142857), wk =   0.0087464
        k(   51) = (   0.0714286   0.2142857   0.2857143), wk =   0.0174927
        k(   52) = (   0.0714286   0.2142857   0.3571429), wk =   0.0174927
        k(   53) = (   0.0714286   0.2142857   0.4285714), wk =   0.0174927
        k(   54) = (   0.0714286   0.2142857  -0.5000000), wk =   0.0087464
        k(   55) = (   0.0714286   0.2857143   0.2857143), wk =   0.0087464
        k(   56) = (   0.0714286   0.2857143   0.3571429), wk =   0.0174927
        k(   57) = (   0.0714286   0.2857143   0.4285714), wk =   0.0174927
        k(   58) = (   0.0714286   0.2857143  -0.5000000), wk =   0.0087464
        k(   59) = (   0.0714286   0.3571429   0.3571429), wk =   0.0087464
        k(   60) = (   0.0714286   0.3571429   0.4285714), wk =   0.0174927
        k(   61) = (   0.0714286   0.3571429  -0.5000000), wk =   0.0087464
        k(   62) = (   0.0714286   0.4285714   0.4285714), wk =   0.0087464
        k(   63) = (   0.0714286   0.4285714  -0.5000000), wk =   0.0087464
        k(   64) = (   0.0714286  -0.5000000  -0.5000000), wk =   0.0021866
        k(   65) = (   0.1428571   0.1428571   0.1428571), wk =   0.0029155
        k(   66) = (   0.1428571   0.1428571   0.2142857), wk =   0.0087464
        k(   67) = (   0.1428571   0.1428571   0.2857143), wk =   0.0087464
        k(   68) = (   0.1428571   0.1428571   0.3571429), wk =   0.0087464
        k(   69) = (   0.1428571   0.1428571   0.4285714), wk =   0.0087464
        k(   70) = (   0.1428571   0.1428571  -0.5000000), wk =   0.0043732
        k(   71) = (   0.1428571   0.2142857   0.2142857), wk =   0.0087464
        k(   72) = (   0.1428571   0.2142857   0.2857143), wk =   0.0174927
        k(   73) = (   0.1428571   0.2142857   0.3571429), wk =   0.0174927
        k(   74) = (   0.1428571   0.2142857   0.4285714), wk =   0.0174927
        k(   75) = (   0.1428571   0.2142857  -0.5000000), wk =   0.0087464
        k(   76) = (   0.1428571   0.2857143   0.2857143), wk =   0.0087464
        k(   77) = (   0.1428571   0.2857143   0.3571429), wk =   0.0174927
        k(   78) = (   0.1428571   0.2857143   0.4285714), wk =   0.0174927
        k(   79) = (   0.1428571   0.2857143  -0.5000000), wk =   0.0087464
        k(   80) = (   0.1428571   0.3571429   0.3571429), wk =   0.0087464
        k(   81) = (   0.1428571   0.3571429   0.4285714), wk =   0.0174927
        k(   82) = (   0.1428571   0.3571429  -0.5000000), wk =   0.0087464
        k(   83) = (   0.1428571   0.4285714   0.4285714), wk =   0.0087464
        k(   84) = (   0.1428571   0.4285714  -0.5000000), wk =   0.0087464
        k(   85) = (   0.1428571  -0.5000000  -0.5000000), wk =   0.0021866
        k(   86) = (   0.2142857   0.2142857   0.2142857), wk =   0.0029155
        k(   87) = (   0.2142857   0.2142857   0.2857143), wk =   0.0087464
        k(   88) = (   0.2142857   0.2142857   0.3571429), wk =   0.0087464
        k(   89) = (   0.2142857   0.2142857   0.4285714), wk =   0.0087464
        k(   90) = (   0.2142857   0.2142857  -0.5000000), wk =   0.0043732
        k(   91) = (   0.2142857   0.2857143   0.2857143), wk =   0.0087464
        k(   92) = (   0.2142857   0.2857143   0.3571429), wk =   0.0174927
        k(   93) = (   0.2142857   0.2857143   0.4285714), wk =   0.0174927
        k(   94) = (   0.2142857   0.2857143  -0.5000000), wk =   0.0087464
        k(   95) = (   0.2142857   0.3571429   0.3571429), wk =   0.0087464
        k(   96) = (   0.2142857   0.3571429   0.4285714), wk =   0.0174927
        k(   97) = (   0.2142857   0.3571429  -0.5000000), wk =   0.0087464
        k(   98) = (   0.2142857   0.4285714   0.4285714), wk =   0.0087464
        k(   99) = (   0.2142857   0.4285714  -0.5000000), wk =   0.0087464
        k(  100) = (   0.2142857  -0.5000000  -0.5000000), wk =   0.0021866
        k(  101) = (   0.2857143   0.2857143   0.2857143), wk =   0.0029155
        k(  102) = (   0.2857143   0.2857143   0.3571429), wk =   0.0087464
        k(  103) = (   0.2857143   0.2857143   0.4285714), wk =   0.0087464
        k(  104) = (   0.2857143   0.2857143  -0.5000000), wk =   0.0043732
        k(  105) = (   0.2857143   0.3571429   0.3571429), wk =   0.0087464
        k(  106) = (   0.2857143   0.3571429   0.4285714), wk =   0.0174927
        k(  107) = (   0.2857143   0.3571429  -0.5000000), wk =   0.0087464
        k(  108) = (   0.2857143   0.4285714   0.4285714), wk =   0.0087464
        k(  109) = (   0.2857143   0.4285714  -0.5000000), wk =   0.0087464
        k(  110) = (   0.2857143  -0.5000000  -0.5000000), wk =   0.0021866
        k(  111) = (   0.3571429   0.3571429   0.3571429), wk =   0.0029155
        k(  112) = (   0.3571429   0.3571429   0.4285714), wk =   0.0087464
        k(  113) = (   0.3571429   0.3571429  -0.5000000), wk =   0.0043732
        k(  114) = (   0.3571429   0.4285714   0.4285714), wk =   0.0087464
        k(  115) = (   0.3571429   0.4285714  -0.5000000), wk =   0.0087464
        k(  116) = (   0.3571429  -0.5000000  -0.5000000), wk =   0.0021866
        k(  117) = (   0.4285714   0.4285714   0.4285714), wk =   0.0029155
        k(  118) = (   0.4285714   0.4285714  -0.5000000), wk =   0.0043732
        k(  119) = (   0.4285714  -0.5000000  -0.5000000), wk =   0.0021866
        k(  120) = (  -0.5000000  -0.5000000  -0.5000000), wk =   0.0003644

     Dense  grid:    64589 G-vectors     FFT dimensions: (  50,  50,  50)

     Dynamical RAM for                 wfc:       0.57 MB

     Dynamical RAM for     wfc (w. buffer):     136.68 MB

     Dynamical RAM for           str. fact:       0.10 MB

     Dynamical RAM for           local pot:       0.00 MB

     Dynamical RAM for          nlocal pot:       0.89 MB

     Dynamical RAM for                qrad:       1.83 MB

     Dynamical RAM for          rho,v,vnew:       1.16 MB

     Dynamical RAM for               rhoin:       0.39 MB

     Dynamical RAM for            rho*nmix:       3.15 MB

     Dynamical RAM for           G-vectors:       0.42 MB

     Dynamical RAM for          h,s,v(r/c):       0.39 MB

     Dynamical RAM for          <psi|beta>:       0.05 MB

     Dynamical RAM for                 psi:       1.13 MB

     Dynamical RAM for                hpsi:       1.13 MB

     Dynamical RAM for                spsi:       1.13 MB

     Dynamical RAM for      wfcinit/wfcrot:       1.18 MB

     Dynamical RAM for           addusdens:      18.83 MB

     Estimated static dynamical RAM per process >     142.24 MB

     Estimated max dynamical RAM per process >     164.22 MB

     Estimated total dynamical RAM >       1.60 GB
     Generating pointlists ...
     new r_m :   0.2917 (alat units)  2.0012 (a.u.) for type    1

     Initial potential from superposition of free atoms

     starting charge      75.9989, renormalised to      76.0000
     Starting wfcs are   40 randomized atomic wfcs +    6 random wfcs
     Checking if some PAW data can be deallocated... 

     total cpu time spent up to now is       17.7 secs

     Self-consistent Calculation

     iteration #  1     ecut=   130.00 Ry     beta= 0.70
     Davidson diagonalization with overlap

---- Real-time Memory Report at c_bands before calling an iterative solver
           181 MiB given to the printing process from OS
             0 MiB allocation reported by mallinfo(arena+hblkhd)
           474 MiB available memory on the node where the printing process lives
------------------
     ethr =  1.00E-02,  avg # of iterations =  3.3

     total cpu time spent up to now is      111.2 secs

     total energy              =   -1946.50197743 Ry
     estimated scf accuracy    <       1.93086002 Ry

     total magnetization       =     1.40 Bohr mag/cell
     absolute magnetization    =     1.79 Bohr mag/cell

     iteration #  2     ecut=   130.00 Ry     beta= 0.70
     Davidson diagonalization with overlap

---- Real-time Memory Report at c_bands before calling an iterative solver
           202 MiB given to the printing process from OS
             0 MiB allocation reported by mallinfo(arena+hblkhd)
           456 MiB available memory on the node where the printing process lives
------------------
     ethr =  2.54E-03,  avg # of iterations =  2.4

     total cpu time spent up to now is      212.5 secs

     total energy              =   -1946.71924370 Ry
     estimated scf accuracy    <       6.17288426 Ry

     total magnetization       =     0.11 Bohr mag/cell
     absolute magnetization    =     0.32 Bohr mag/cell

     iteration #  3     ecut=   130.00 Ry     beta= 0.70
     Davidson diagonalization with overlap

---- Real-time Memory Report at c_bands before calling an iterative solver
           203 MiB given to the printing process from OS
             0 MiB allocation reported by mallinfo(arena+hblkhd)
           531 MiB available memory on the node where the printing process lives
------------------
     ethr =  2.54E-03,  avg # of iterations =  2.0

     total cpu time spent up to now is      307.1 secs

     total energy              =   -1947.52731345 Ry
     estimated scf accuracy    <       0.10626428 Ry

     total magnetization       =     0.22 Bohr mag/cell
     absolute magnetization    =     0.50 Bohr mag/cell

     iteration #  4     ecut=   130.00 Ry     beta= 0.70
     Davidson diagonalization with overlap

---- Real-time Memory Report at c_bands before calling an iterative solver
           203 MiB given to the printing process from OS
             0 MiB allocation reported by mallinfo(arena+hblkhd)
          1179 MiB available memory on the node where the printing process lives
------------------
     ethr =  1.40E-04,  avg # of iterations =  2.2

     total cpu time spent up to now is      392.2 secs

     total energy              =   -1947.54041659 Ry
     estimated scf accuracy    <       0.05798632 Ry

     total magnetization       =     0.01 Bohr mag/cell
     absolute magnetization    =     0.14 Bohr mag/cell

     iteration #  5     ecut=   130.00 Ry     beta= 0.70
     Davidson diagonalization with overlap

---- Real-time Memory Report at c_bands before calling an iterative solver
           204 MiB given to the printing process from OS
             0 MiB allocation reported by mallinfo(arena+hblkhd)
          1187 MiB available memory on the node where the printing process lives
------------------
     ethr =  7.63E-05,  avg # of iterations =  2.1

     total cpu time spent up to now is      474.0 secs

     total energy              =   -1947.55186549 Ry
     estimated scf accuracy    <       0.00147502 Ry

     total magnetization       =    -0.01 Bohr mag/cell
     absolute magnetization    =     0.03 Bohr mag/cell

     iteration #  6     ecut=   130.00 Ry     beta= 0.70
     Davidson diagonalization with overlap

---- Real-time Memory Report at c_bands before calling an iterative solver
           204 MiB given to the printing process from OS
             0 MiB allocation reported by mallinfo(arena+hblkhd)
          1222 MiB available memory on the node where the printing process lives
------------------
     ethr =  1.94E-06,  avg # of iterations =  3.7

     total cpu time spent up to now is      554.5 secs

     total energy              =   -1947.55170880 Ry
     estimated scf accuracy    <       0.00110940 Ry

     total magnetization       =    -0.01 Bohr mag/cell
     absolute magnetization    =     0.02 Bohr mag/cell

     iteration #  7     ecut=   130.00 Ry     beta= 0.70
     Davidson diagonalization with overlap

---- Real-time Memory Report at c_bands before calling an iterative solver
           204 MiB given to the printing process from OS
             0 MiB allocation reported by mallinfo(arena+hblkhd)
          1182 MiB available memory on the node where the printing process lives
------------------
     ethr =  1.46E-06,  avg # of iterations =  2.0

     total cpu time spent up to now is      633.0 secs

     total energy              =   -1947.55190330 Ry
     estimated scf accuracy    <       0.00003225 Ry

     total magnetization       =     0.01 Bohr mag/cell
     absolute magnetization    =     0.01 Bohr mag/cell

     iteration #  8     ecut=   130.00 Ry     beta= 0.70
     Davidson diagonalization with overlap

---- Real-time Memory Report at c_bands before calling an iterative solver
           205 MiB given to the printing process from OS
             0 MiB allocation reported by mallinfo(arena+hblkhd)
          1195 MiB available memory on the node where the printing process lives
------------------
     ethr =  4.24E-08,  avg # of iterations =  2.9

     total cpu time spent up to now is      714.0 secs

     total energy              =   -1947.55190463 Ry
     estimated scf accuracy    <       0.00001620 Ry

     total magnetization       =     0.00 Bohr mag/cell
     absolute magnetization    =     0.00 Bohr mag/cell

     iteration #  9     ecut=   130.00 Ry     beta= 0.70
     Davidson diagonalization with overlap

---- Real-time Memory Report at c_bands before calling an iterative solver
           205 MiB given to the printing process from OS
             0 MiB allocation reported by mallinfo(arena+hblkhd)
          1174 MiB available memory on the node where the printing process lives
------------------
     ethr =  2.13E-08,  avg # of iterations =  1.5

     total cpu time spent up to now is      782.4 secs

     total energy              =   -1947.55190522 Ry
     estimated scf accuracy    <       0.00000207 Ry

     total magnetization       =     0.00 Bohr mag/cell
     absolute magnetization    =     0.00 Bohr mag/cell

     iteration # 10     ecut=   130.00 Ry     beta= 0.70
     Davidson diagonalization with overlap

---- Real-time Memory Report at c_bands before calling an iterative solver
           206 MiB given to the printing process from OS
             0 MiB allocation reported by mallinfo(arena+hblkhd)
          1186 MiB available memory on the node where the printing process lives
------------------
     ethr =  2.72E-09,  avg # of iterations =  2.1

     total cpu time spent up to now is      859.7 secs

     total energy              =   -1947.55190543 Ry
     estimated scf accuracy    <       0.00000010 Ry

     total magnetization       =     0.00 Bohr mag/cell
     absolute magnetization    =     0.00 Bohr mag/cell

     iteration # 11     ecut=   130.00 Ry     beta= 0.70
     Davidson diagonalization with overlap

---- Real-time Memory Report at c_bands before calling an iterative solver
           206 MiB given to the printing process from OS
             0 MiB allocation reported by mallinfo(arena+hblkhd)
          1176 MiB available memory on the node where the printing process lives
------------------
     ethr =  1.25E-10,  avg # of iterations =  3.5

     total cpu time spent up to now is      952.8 secs

     total energy              =   -1947.55190546 Ry
     estimated scf accuracy    <       0.00000002 Ry

     total magnetization       =    -0.00 Bohr mag/cell
     absolute magnetization    =     0.00 Bohr mag/cell

     iteration # 12     ecut=   130.00 Ry     beta= 0.70
     Davidson diagonalization with overlap

---- Real-time Memory Report at c_bands before calling an iterative solver
           206 MiB given to the printing process from OS
             0 MiB allocation reported by mallinfo(arena+hblkhd)
          1138 MiB available memory on the node where the printing process lives
------------------
     ethr =  2.79E-11,  avg # of iterations =  2.0

     Magnetic moment per site  (integrated on atomic sphere of radius R)
     atom   1 (R=0.292)  charge= 17.8260  magn=  0.0000
     atom   2 (R=0.292)  charge= 17.8260  magn=  0.0000
     atom   3 (R=0.292)  charge= 17.8260  magn=  0.0000
     atom   4 (R=0.292)  charge= 17.8260  magn=  0.0000

     total cpu time spent up to now is     1033.7 secs

     End of self-consistent calculation

 ------ SPIN UP ------------


          k = 0.0000 0.0000 0.0000 (  8217 PWs)   bands (ev):

   -96.6059 -96.5886 -96.5886 -96.5886 -54.0196 -54.0196 -54.0196 -53.9617
   -53.9617 -53.9617 -53.9617 -53.9617 -53.9617 -53.9226 -53.9226 -53.9226
     6.6501  11.1569  11.1569  11.1569  11.6188  11.6188  11.6188  13.0028
    13.0028  13.0028  13.8189  13.8189  14.3646  14.3646  14.3646  14.5248
    14.5248  14.5248  14.5248  14.5248  14.5248  17.4433  17.4433  17.4433
    22.9666  22.9666  22.9666  28.9423  28.9423  28.9423

     occupation numbers 
     1.0000   1.0000   1.0000   1.0000   1.0000   1.0000   1.0000   1.0000
     1.0000   1.0000   1.0000   1.0000   1.0000   1.0000   1.0000   1.0000
     1.0000   1.0000   1.0000   1.0000   1.0000   1.0000   1.0000   1.0000
     1.0000   1.0000   1.0000   1.0000   1.0000   1.0000   1.0000   1.0000
     1.0000   1.0000   1.0000   1.0000   1.0000   0.0000   0.0000   0.0000
     0.0000   0.0000   0.0000   0.0000   0.0000   0.0000

          k = 0.0000 0.0000 0.0714 (  8145 PWs)   bands (ev):

   -96.6057 -96.5888 -96.5886 -96.5886 -54.0188 -54.0188 -54.0183 -53.9625
   -53.9625 -53.9617 -53.9617 -53.9612 -53.9612 -53.9238 -53.9230 -53.9230
     6.7118  11.1557  11.1859  11.1859  11.6352  11.6360  11.6360  12.9844
    13.0174  13.0174  13.8023  13.8256  14.3431  14.3431  14.3576  14.4127
    14.4127  14.4993  14.4993  14.5248  14.5248  17.0523  17.6103  17.6103
    22.9891  22.9891  23.4797  28.5184  28.5185  28.6675

     occupation numbers 
     1.0000   1.0000   1.0000   1.0000   1.0000   1.0000   1.0000   1.0000
     1.0000   1.0000   1.0000   1.0000   1.0000   1.0000   1.0000   1.0000
     1.0000   1.0000   1.0000   1.0000   1.0000   1.0000   1.0000   1.0000
     1.0000   1.0000   1.0000   1.0000   1.0000   1.0000   1.0000   1.0000
     1.0000   1.0000   1.0000   1.0000   1.0000   0.0000   0.0000   0.0000
     0.0000   0.0000   0.0000   0.0000   0.0000   0.0000

          k = 0.0000 0.0000 0.1429 (  8125 PWs)   bands (ev):

   -96.6051 -96.5895 -96.5886 -96.5886 -54.0167 -54.0167 -54.0148 -53.9646
   -53.9646 -53.9618 -53.9618 -53.9598 -53.9598 -53.9274 -53.9245 -53.9245
     6.8960  11.1428  11.2700  11.2700  11.6837  11.6879  11.6879  12.9305
    13.0609  13.0609  13.7538  13.8453  14.1352  14.1352  14.2801  14.2801
    14.3370  14.4256  14.4256  14.5249  14.5249  16.1738  18.0525  18.0525
    23.0584  23.0584  24.7320  27.5719  27.5719  27.9961

     occupation numbers 
     1.0000   1.0000   1.0000   1.0000   1.0000   1.0000   1.0000   1.0000
     1.0000   1.0000   1.0000   1.0000   1.0000   1.0000   1.0000   1.0000
     1.0000   1.0000   1.0000   1.0000   1.0000   1.0000   1.0000   1.0000
     1.0000   1.0000   1.0000   1.0000   1.0000   1.0000   1.0000   1.0000
     1.0000   1.0000   1.0000   1.0000   1.0000   0.0000   0.0000   0.0000
     0.0000   0.0000   0.0000   0.0000   0.0000   0.0000

          k = 0.0000 0.0000 0.2143 (  8105 PWs)   bands (ev):

   -96.6040 -96.5905 -96.5886 -96.5886 -54.0132 -54.0132 -54.0092 -53.9680
   -53.9680 -53.9619 -53.9619 -53.9574 -53.9574 -53.9333 -53.9268 -53.9268
     7.1996  11.0874  11.3999  11.3999  11.7623  11.7750  11.7750  12.8440
    13.1325  13.1325  13.6778  13.7870  13.7870  13.8772  14.1804  14.1804
    14.3038  14.3109  14.3109  14.5251  14.5251  15.1960  18.6742  18.6742
    23.1792  23.1792  26.3598  26.4621  26.4621  27.1738

     occupation numbers 
     1.0000   1.0000   1.0000   1.0000   1.0000   1.0000   1.0000   1.0000
     1.0000   1.0000   1.0000   1.0000   1.0000   1.0000   1.0000   1.0000
     1.0000   1.0000   1.0000   1.0000   1.0000   1.0000   1.0000   1.0000
     1.0000   1.0000   1.0000   1.0000   1.0000   1.0000   1.0000   1.0000
     1.0000   1.0000   1.0000   1.0000   1.0000   1.0000   0.0000   0.0000
     0.0000   0.0000   0.0000   0.0000   0.0000   0.0000

          k = 0.0000 0.0000 0.2857 (  8093 PWs)   bands (ev):

   -96.6027 -96.5919 -96.5886 -96.5886 -54.0086 -54.0086 -54.0016 -53.9726
   -53.9726 -53.9620 -53.9620 -53.9543 -53.9543 -53.9411 -53.9299 -53.9299
     7.6169  10.9283  11.5587  11.5587  11.8676  11.8984  11.8984  12.7301
    13.2309  13.2309  13.4273  13.4273  13.5821  13.9197  14.0547  14.0547
    14.1656  14.1656  14.2599  14.3397  14.5252  14.5252  19.4150  19.4150
    23.3591  23.3591  25.3257  25.3257  26.3529  26.3529

     occupation numbers 
     1.0000   1.0000   1.0000   1.0000   1.0000   1.0000   1.0000   1.0000
     1.0000   1.0000   1.0000   1.0000   1.0000   1.0000   1.0000   1.0000
     1.0000   1.0000   1.0000   1.0000   1.0000   1.0000   1.0000   1.0000
     1.0000   1.0000   1.0000   1.0000   1.0000   1.0000   1.0000   1.0000
     1.0000   1.0000   1.0000   1.0000   1.0000   1.0000   0.0000   0.0000
     0.0000   0.0000   0.0000   0.0000   0.0000   0.0000

          k = 0.0000 0.0000 0.3571 (  8101 PWs)   bands (ev):

   -96.6010 -96.5935 -96.5886 -96.5886 -54.0032 -54.0032 -53.9925 -53.9781
   -53.9781 -53.9621 -53.9621 -53.9506 -53.9506 -53.9504 -53.9336 -53.9336
     8.1376  10.5876  11.7201  11.7201  11.9949  12.0591  12.0591  12.5950
    13.0847  13.0847  13.3537  13.3537  13.4801  13.7426  13.9231  13.9231
    13.9708  14.0011  14.0011  14.2075  14.5254  14.5254  20.2444  20.2444
    23.6071  23.6071  24.2107  24.2107  25.6068  25.6068

     occupation numbers 
     1.0000   1.0000   1.0000   1.0000   1.0000   1.0000   1.0000   1.0000
     1.0000   1.0000   1.0000   1.0000   1.0000   1.0000   1.0000   1.0000
     1.0000   1.0000   1.0000   1.0000   1.0000   1.0000   1.0000   1.0000
     1.0000   1.0000   1.0000   1.0000   1.0000   1.0000   1.0000   1.0000
     1.0000   1.0000   1.0000   1.0000   1.0000   1.0000   0.0000   0.0000
     0.0000   0.0000   0.0000   0.0000   0.0000   0.0000

          k = 0.0000 0.0000 0.4286 (  8049 PWs)   bands (ev):

   -96.5992 -96.5953 -96.5886 -96.5886 -53.9970 -53.9970 -53.9842 -53.9842
   -53.9823 -53.9621 -53.9621 -53.9607 -53.9465 -53.9465 -53.9377 -53.9377
     8.7438  10.0501  11.8461  11.8461  12.1383  12.2581  12.2581  12.4461
    12.7723  12.7723  13.3933  13.4420  13.4977  13.4977  13.8176  13.8176
    13.8286  13.8286  14.0280  14.1494  14.5255  14.5255  21.1467  21.1467
    23.1365  23.1365  23.9275  23.9275  24.9737  24.9737

     occupation numbers 
     1.0000   1.0000   1.0000   1.0000   1.0000   1.0000   1.0000   1.0000
     1.0000   1.0000   1.0000   1.0000   1.0000   1.0000   1.0000   1.0000
     1.0000   1.0000   1.0000   1.0000   1.0000   1.0000   1.0000   1.0000
     1.0000   1.0000   1.0000   1.0000   1.0000   1.0000   1.0000   1.0000
     1.0000   1.0000   1.0000   1.0000   1.0000   1.0000   0.0000   0.0000
     0.0000   0.0000   0.0000   0.0000   0.0000   0.0000

          k = 0.0000 0.0000-0.5000 (  8008 PWs)   bands (ev):

   -96.5973 -96.5973 -96.5886 -96.5886 -53.9906 -53.9906 -53.9906 -53.9906
   -53.9716 -53.9716 -53.9621 -53.9621 -53.9421 -53.9421 -53.9421 -53.9421
     9.4022   9.4022  11.8948  11.8948  12.2912  12.2912  12.4960  12.4960
    12.4960  12.4960  13.3589  13.3589  13.6581  13.6581  13.6581  13.6581
    13.7761  13.7761  14.0885  14.0886  14.5256  14.5256  22.1129  22.1129
    22.1129  22.1129  24.2074  24.2074  24.5875  24.5875

     occupation numbers 
     1.0000   1.0000   1.0000   1.0000   1.0000   1.0000   1.0000   1.0000
     1.0000   1.0000   1.0000   1.0000   1.0000   1.0000   1.0000   1.0000
     1.0000   1.0000   1.0000   1.0000   1.0000   1.0000   1.0000   1.0000
     1.0000   1.0000   1.0000   1.0000   1.0000   1.0000   1.0000   1.0000
     1.0000   1.0000   1.0000   1.0000   1.0000   1.0000   0.0000   0.0000
     0.0000   0.0000   0.0000   0.0000   0.0000   0.0000

          k = 0.0000 0.0714 0.0714 (  8131 PWs)   bands (ev):

   -96.6055 -96.5888 -96.5888 -96.5886 -54.0181 -54.0176 -54.0176 -53.9639
   -53.9620 -53.9620 -53.9612 -53.9612 -53.9610 -53.9257 -53.9235 -53.9228
     6.7734  11.1852  11.1852  11.2144  11.6522  11.6522  11.6528  12.9740
    13.0243  13.0309  13.7976  13.8214  14.3223  14.3228  14.3228  14.3271
    14.3959  14.3959  14.4993  14.4993  14.5086  17.2176  17.2176  17.7672
    23.0118  23.5087  23.5087  27.6196  28.6041  28.6043

     occupation numbers 
     1.0000   1.0000   1.0000   1.0000   1.0000   1.0000   1.0000   1.0000
     1.0000   1.0000   1.0000   1.0000   1.0000   1.0000   1.0000   1.0000
     1.0000   1.0000   1.0000   1.0000   1.0000   1.0000   1.0000   1.0000
     1.0000   1.0000   1.0000   1.0000   1.0000   1.0000   1.0000   1.0000
     1.0000   1.0000   1.0000   1.0000   1.0000   0.0000   0.0000   0.0000
     0.0000   0.0000   0.0000   0.0000   0.0000   0.0000

          k = 0.0000 0.0714 0.1429 (  8117 PWs)   bands (ev):

   -96.6049 -96.5894 -96.5888 -96.5886 -54.0160 -54.0157 -54.0143 -53.9665
   -53.9641 -53.9612 -53.9605 -53.9605 -53.9597 -53.9297 -53.9250 -53.9238
     6.9570  11.1739  11.2708  11.2970  11.7000  11.7033  11.7033  12.9250
    13.0637  13.0710  13.7550  13.8387  14.0786  14.0839  14.2481  14.2612
    14.2883  14.3590  14.4255  14.4993  14.4997  16.3476  17.6463  18.1896
    23.0815  23.5977  24.7699  26.5041  27.6515  28.0755

     occupation numbers 
     1.0000   1.0000   1.0000   1.0000   1.0000   1.0000   1.0000   1.0000
     1.0000   1.0000   1.0000   1.0000   1.0000   1.0000   1.0000   1.0000
     1.0000   1.0000   1.0000   1.0000   1.0000   1.0000   1.0000   1.0000
     1.0000   1.0000   1.0000   1.0000   1.0000   1.0000   1.0000   1.0000
     1.0000   1.0000   1.0000   1.0000   1.0000   0.0000   0.0000   0.0000
     0.0000   0.0000   0.0000   0.0000   0.0000   0.0000

          k = 0.0000 0.0714 0.2143 (  8102 PWs)   bands (ev):

   -96.6039 -96.5905 -96.5888 -96.5886 -54.0125 -54.0125 -54.0089 -53.9700
   -53.9675 -53.9612 -53.9604 -53.9581 -53.9573 -53.9357 -53.9273 -53.9258
     7.2596  11.1213  11.4032  11.4247  11.7775  11.7878  11.7892  12.8411
    13.1342  13.1360  13.6830  13.7371  13.7510  13.8731  14.1023  14.1644
    14.1865  14.3107  14.3124  14.4976  14.4992  15.4091  18.2350  18.7933
    23.2014  23.7525  25.3795  26.4026  26.5388  27.2458

     occupation numbers 
     1.0000   1.0000   1.0000   1.0000   1.0000   1.0000   1.0000   1.0000
     1.0000   1.0000   1.0000   1.0000   1.0000   1.0000   1.0000   1.0000
     1.0000   1.0000   1.0000   1.0000   1.0000   1.0000   1.0000   1.0000
     1.0000   1.0000   1.0000   1.0000   1.0000   1.0000   1.0000   1.0000
     1.0000   1.0000   1.0000   1.0000   1.0000   1.0000   0.0000   0.0000
     0.0000   0.0000   0.0000   0.0000   0.0000   0.0000

          k = 0.0000 0.0714 0.2857 (  8095 PWs)   bands (ev):

   -96.6025 -96.5918 -96.5888 -96.5886 -54.0082 -54.0080 -54.0016 -53.9745
   -53.9721 -53.9612 -53.9604 -53.9550 -53.9541 -53.9434 -53.9304 -53.9289
     7.6754  10.9659  11.5658  11.5817  11.8812  11.9064  11.9108  12.7295
    13.2211  13.2319  13.3808  13.4060  13.5966  13.8632  13.9197  14.0423
    14.0610  14.1652  14.2467  14.4972  14.4991  14.6652  18.9228  19.5204
    23.3698  23.9819  24.3083  25.4019  26.4181  27.4682

     occupation numbers 
     1.0000   1.0000   1.0000   1.0000   1.0000   1.0000   1.0000   1.0000
     1.0000   1.0000   1.0000   1.0000   1.0000   1.0000   1.0000   1.0000
     1.0000   1.0000   1.0000   1.0000   1.0000   1.0000   1.0000   1.0000
     1.0000   1.0000   1.0000   1.0000   1.0000   1.0000   1.0000   1.0000
     1.0000   1.0000   1.0000   1.0000   1.0000   1.0000   0.0000   0.0000
     0.0000   0.0000   0.0000   0.0000   0.0000   0.0000

          k = 0.0000 0.0714 0.3571 (  8084 PWs)   bands (ev):

   -96.6009 -96.5934 -96.5887 -96.5886 -54.0031 -54.0025 -53.9929 -53.9797
   -53.9775 -53.9611 -53.9605 -53.9524 -53.9513 -53.9502 -53.9342 -53.9326
     8.1941  10.6295  11.7319  11.7427  12.0065  12.0586  12.0691  12.5968
    13.0437  13.0738  13.3037  13.3543  13.5296  13.5524  13.9146  13.9290
    13.9762  14.0007  14.1082  14.2985  14.4973  14.4988  19.6802  20.3399
    23.1922  23.7124  24.2878  24.2950  25.6671  26.6536

     occupation numbers 
     1.0000   1.0000   1.0000   1.0000   1.0000   1.0000   1.0000   1.0000
     1.0000   1.0000   1.0000   1.0000   1.0000   1.0000   1.0000   1.0000
     1.0000   1.0000   1.0000   1.0000   1.0000   1.0000   1.0000   1.0000
     1.0000   1.0000   1.0000   1.0000   1.0000   1.0000   1.0000   1.0000
     1.0000   1.0000   1.0000   1.0000   1.0000   1.0000   0.0000   0.0000
     0.0000   0.0000   0.0000   0.0000   0.0000   0.0000

          k = 0.0000 0.0714 0.4286 (  8058 PWs)   bands (ev):

   -96.5991 -96.5952 -96.5887 -96.5887 -53.9974 -53.9964 -53.9854 -53.9836
   -53.9832 -53.9624 -53.9610 -53.9607 -53.9471 -53.9459 -53.9383 -53.9369
     8.7976  10.0964  11.8634  11.8698  12.1478  12.2454  12.2648  12.4505
    12.7385  12.7690  13.3115  13.3436  13.4979  13.5725  13.8134  13.8216
    13.8283  13.8975  14.0401  14.1856  14.4977  14.4985  20.4929  21.2350
    22.2635  23.2159  24.0094  24.6677  25.0593  25.9131

     occupation numbers 
     1.0000   1.0000   1.0000   1.0000   1.0000   1.0000   1.0000   1.0000
     1.0000   1.0000   1.0000   1.0000   1.0000   1.0000   1.0000   1.0000
     1.0000   1.0000   1.0000   1.0000   1.0000   1.0000   1.0000   1.0000
     1.0000   1.0000   1.0000   1.0000   1.0000   1.0000   1.0000   1.0000
     1.0000   1.0000   1.0000   1.0000   1.0000   1.0000   0.0000   0.0000
     0.0000   0.0000   0.0000   0.0000   0.0000   0.0000

          k = 0.0000 0.0714-0.5000 (  8062 PWs)   bands (ev):

   -96.5972 -96.5971 -96.5887 -96.5887 -53.9914 -53.9914 -53.9900 -53.9900
   -53.9728 -53.9728 -53.9609 -53.9609 -53.9427 -53.9427 -53.9414 -53.9414
     9.4525   9.4525  11.9170  11.9170  12.2982  12.2982  12.4714  12.4714
    12.4984  12.4984  13.2873  13.2873  13.6580  13.6580  13.7143  13.7143
    13.7764  13.7764  14.1095  14.1095  14.4981  14.4981  21.3548  21.3548
    22.1960  22.1960  24.4284  24.4284  25.2848  25.2848

     occupation numbers 
     1.0000   1.0000   1.0000   1.0000   1.0000   1.0000   1.0000   1.0000
     1.0000   1.0000   1.0000   1.0000   1.0000   1.0000   1.0000   1.0000
     1.0000   1.0000   1.0000   1.0000   1.0000   1.0000   1.0000   1.0000
     1.0000   1.0000   1.0000   1.0000   1.0000   1.0000   1.0000   1.0000
     1.0000   1.0000   1.0000   1.0000   1.0000   1.0000   0.0000   0.0000
     0.0000   0.0000   0.0000   0.0000   0.0000   0.0000

          k = 0.0000 0.1429 0.1429 (  8109 PWs)   bands (ev):

   -96.6043 -96.5894 -96.5894 -96.5886 -54.0138 -54.0128 -54.0128 -53.9699
   -53.9626 -53.9626 -53.9596 -53.9596 -53.9590 -53.9346 -53.9265 -53.9237
     7.1388  11.2643  11.2643  11.3753  11.7490  11.7490  11.7495  12.8938
    13.0877  13.1006  13.7390  13.8398  13.9037  13.9549  13.9549  14.2057
    14.2869  14.2869  14.4251  14.4251  14.4603  16.7690  16.7690  18.5695
    23.1503  24.8851  24.8851  25.2650  27.8871  27.8873

     occupation numbers 
     1.0000   1.0000   1.0000   1.0000   1.0000   1.0000   1.0000   1.0000
     1.0000   1.0000   1.0000   1.0000   1.0000   1.0000   1.0000   1.0000
     1.0000   1.0000   1.0000   1.0000   1.0000   1.0000   1.0000   1.0000
     1.0000   1.0000   1.0000   1.0000   1.0000   1.0000   1.0000   1.0000
     1.0000   1.0000   1.0000   1.0000   1.0000   0.0000   0.0000   0.0000
     0.0000   0.0000   0.0000   0.0000   0.0000   0.0000

          k = 0.0000 0.1429 0.2143 (  8093 PWs)   bands (ev):

   -96.6033 -96.5904 -96.5894 -96.5887 -54.0105 -54.0102 -54.0080 -53.9739
   -53.9660 -53.9602 -53.9592 -53.9579 -53.9568 -53.9410 -53.9288 -53.9249
     7.4384  11.2199  11.4047  11.4965  11.8230  11.8264  11.8313  12.8245
    13.1471  13.1474  13.6037  13.6400  13.6852  13.7630  13.8749  14.1172
    14.1894  14.2575  14.3098  14.4244  14.4373  15.8439  17.3157  19.1311
    23.2498  24.1063  25.0819  26.5316  26.7657  27.4603

     occupation numbers 
     1.0000   1.0000   1.0000   1.0000   1.0000   1.0000   1.0000   1.0000
     1.0000   1.0000   1.0000   1.0000   1.0000   1.0000   1.0000   1.0000
     1.0000   1.0000   1.0000   1.0000   1.0000   1.0000   1.0000   1.0000
     1.0000   1.0000   1.0000   1.0000   1.0000   1.0000   1.0000   1.0000
     1.0000   1.0000   1.0000   1.0000   1.0000   1.0000   0.0000   0.0000
     0.0000   0.0000   0.0000   0.0000   0.0000   0.0000

          k = 0.0000 0.1429 0.2857 (  8108 PWs)   bands (ev):

   -96.6020 -96.5917 -96.5893 -96.5887 -54.0069 -54.0060 -54.0017 -53.9784
   -53.9705 -53.9589 -53.9573 -53.9570 -53.9533 -53.9487 -53.9320 -53.9274
     7.8496  11.0758  11.5785  11.6470  11.9219  11.9316  11.9475  12.7236
    13.2004  13.2395  13.2563  13.3403  13.5203  13.6186  13.9335  14.0050
    14.0671  14.1641  14.1937  14.4236  14.4267  15.0928  17.9353  19.8243
    22.8743  23.5675  25.3649  25.6269  26.6150  28.3565

     occupation numbers 
     1.0000   1.0000   1.0000   1.0000   1.0000   1.0000   1.0000   1.0000
     1.0000   1.0000   1.0000   1.0000   1.0000   1.0000   1.0000   1.0000
     1.0000   1.0000   1.0000   1.0000   1.0000   1.0000   1.0000   1.0000
     1.0000   1.0000   1.0000   1.0000   1.0000   1.0000   1.0000   1.0000
     1.0000   1.0000   1.0000   1.0000   1.0000   1.0000   0.0000   0.0000
     0.0000   0.0000   0.0000   0.0000   0.0000   0.0000

          k = 0.0000 0.1429 0.3571 (  8093 PWs)   bands (ev):

   -96.6004 -96.5933 -96.5892 -96.5888 -54.0029 -54.0006 -53.9941 -53.9833
   -53.9759 -53.9584 -53.9573 -53.9571 -53.9532 -53.9490 -53.9358 -53.9308
     8.3620  10.7520  11.7593  11.8071  12.0414  12.0590  12.0984  12.6002
    12.9343  13.0401  13.2310  13.2922  13.3586  13.5858  13.8880  13.9364
    13.9997  14.0080  14.0847  14.4224  14.4226  14.6084  18.6102  20.6180
    21.8987  23.7918  24.5156  25.6764  25.9116  28.2660

     occupation numbers 
     1.0000   1.0000   1.0000   1.0000   1.0000   1.0000   1.0000   1.0000
     1.0000   1.0000   1.0000   1.0000   1.0000   1.0000   1.0000   1.0000
     1.0000   1.0000   1.0000   1.0000   1.0000   1.0000   1.0000   1.0000
     1.0000   1.0000   1.0000   1.0000   1.0000   1.0000   1.0000   1.0000
     1.0000   1.0000   1.0000   1.0000   1.0000   1.0000   0.0000   0.0000
     0.0000   0.0000   0.0000   0.0000   0.0000   0.0000

          k = 0.0000 0.1429 0.4286 (  8070 PWs)   bands (ev):

   -96.5987 -96.5950 -96.5891 -96.5889 -53.9983 -53.9945 -53.9883 -53.9854
   -53.9819 -53.9666 -53.9580 -53.9572 -53.9490 -53.9444 -53.9400 -53.9350
     8.9571  10.2323  11.9089  11.9387  12.1757  12.2087  12.2844  12.4626
    12.6472  12.7585  13.1713  13.2056  13.5000  13.6386  13.7980  13.8259
    13.8278  13.9284  14.0963  14.3490  14.4209  14.4216  19.3376  20.9738
    21.4938  23.4502  24.1386  25.1437  26.2577  27.5197

     occupation numbers 
     1.0000   1.0000   1.0000   1.0000   1.0000   1.0000   1.0000   1.0000
     1.0000   1.0000   1.0000   1.0000   1.0000   1.0000   1.0000   1.0000
     1.0000   1.0000   1.0000   1.0000   1.0000   1.0000   1.0000   1.0000
     1.0000   1.0000   1.0000   1.0000   1.0000   1.0000   1.0000   1.0000
     1.0000   1.0000   1.0000   1.0000   1.0000   1.0000   0.0000   0.0000
     0.0000   0.0000   0.0000   0.0000   0.0000   0.0000

          k = 0.0000 0.1429-0.5000 (  8088 PWs)   bands (ev):

   -96.5968 -96.5968 -96.5890 -96.5890 -53.9934 -53.9934 -53.9882 -53.9882
   -53.9761 -53.9761 -53.9575 -53.9575 -53.9445 -53.9445 -53.9396 -53.9396
     9.6012   9.6012  11.9800  11.9800  12.3185  12.3185  12.4024  12.4024
    12.5051  12.5051  13.1621  13.1621  13.6585  13.6585  13.7652  13.7652
    13.7723  13.7723  14.2025  14.2025  14.4209  14.4209  20.1225  20.1225
    22.4406  22.4406  24.5883  24.5883  26.8403  26.8403

     occupation numbers 
     1.0000   1.0000   1.0000   1.0000   1.0000   1.0000   1.0000   1.0000
     1.0000   1.0000   1.0000   1.0000   1.0000   1.0000   1.0000   1.0000
     1.0000   1.0000   1.0000   1.0000   1.0000   1.0000   1.0000   1.0000
     1.0000   1.0000   1.0000   1.0000   1.0000   1.0000   1.0000   1.0000
     1.0000   1.0000   1.0000   1.0000   1.0000   1.0000   0.0000   0.0000
     0.0000   0.0000   0.0000   0.0000   0.0000   0.0000

          k = 0.0000 0.2143 0.2143 (  8108 PWs)   bands (ev):

   -96.6024 -96.5903 -96.5903 -96.5888 -54.0072 -54.0066 -54.0066 -53.9783
   -53.9635 -53.9635 -53.9561 -53.9561 -53.9558 -53.9477 -53.9313 -53.9252
     7.7326  11.3739  11.3739  11.6070  11.8907  11.8993  11.8993  12.7798
    13.1647  13.1887  13.4140  13.4140  13.4579  13.6575  13.9126  14.0410
    14.1674  14.1674  14.3086  14.3086  14.3810  16.3570  16.3570  19.6459
    22.7530  23.5175  26.7459  26.7459  27.1337  27.1337

     occupation numbers 
     1.0000   1.0000   1.0000   1.0000   1.0000   1.0000   1.0000   1.0000
     1.0000   1.0000   1.0000   1.0000   1.0000   1.0000   1.0000   1.0000
     1.0000   1.0000   1.0000   1.0000   1.0000   1.0000   1.0000   1.0000
     1.0000   1.0000   1.0000   1.0000   1.0000   1.0000   1.0000   1.0000
     1.0000   1.0000   1.0000   1.0000   1.0000   0.0000   0.0000   0.0000
     0.0000   0.0000   0.0000   0.0000   0.0000   0.0000

          k = 0.0000 0.2143 0.2857 (  8108 PWs)   bands (ev):

   -96.6011 -96.5915 -96.5901 -96.5889 -54.0046 -54.0027 -54.0017 -53.9828
   -53.9680 -53.9603 -53.9553 -53.9553 -53.9543 -53.9521 -53.9346 -53.9267
     8.1359  11.2480  11.5667  11.7448  11.9764  11.9900  12.0066  12.7024
    13.0873  13.1807  13.2066  13.2283  13.2653  13.6103  13.9432  13.9896
    14.0513  14.1088  14.1628  14.3072  14.3438  15.5521  16.9196  20.2978
    21.6674  23.6869  25.9919  26.8536  27.1463  27.6298

     occupation numbers 
     1.0000   1.0000   1.0000   1.0000   1.0000   1.0000   1.0000   1.0000
     1.0000   1.0000   1.0000   1.0000   1.0000   1.0000   1.0000   1.0000
     1.0000   1.0000   1.0000   1.0000   1.0000   1.0000   1.0000   1.0000
     1.0000   1.0000   1.0000   1.0000   1.0000   1.0000   1.0000   1.0000
     1.0000   1.0000   1.0000   1.0000   1.0000   1.0000   0.0000   0.0000
     0.0000   0.0000   0.0000   0.0000   0.0000   0.0000

          k = 0.0000 0.2143 0.3571 (  8088 PWs)   bands (ev):

   -96.5997 -96.5930 -96.5899 -96.5891 -54.0021 -53.9974 -53.9955 -53.9873
   -53.9732 -53.9636 -53.9564 -53.9544 -53.9534 -53.9475 -53.9384 -53.9295
     8.6370  10.9451  11.7723  11.8989  12.0684  12.0991  12.1454  12.5990
    12.7921  12.9811  13.0525  13.1711  13.3739  13.5894  13.8409  13.9247
    13.9989  14.0087  14.0937  14.3061  14.3228  14.9765  17.5295  20.6556
    21.0579  23.9679  24.8847  26.1057  27.5033  28.2397

     occupation numbers 
     1.0000   1.0000   1.0000   1.0000   1.0000   1.0000   1.0000   1.0000
     1.0000   1.0000   1.0000   1.0000   1.0000   1.0000   1.0000   1.0000
     1.0000   1.0000   1.0000   1.0000   1.0000   1.0000   1.0000   1.0000
     1.0000   1.0000   1.0000   1.0000   1.0000   1.0000   1.0000   1.0000
     1.0000   1.0000   1.0000   1.0000   1.0000   1.0000   0.0000   0.0000
     0.0000   0.0000   0.0000   0.0000   0.0000   0.0000

          k = 0.0000 0.2143 0.4286 (  8089 PWs)   bands (ev):

   -96.5980 -96.5946 -96.5897 -96.5893 -53.9991 -53.9916 -53.9915 -53.9883
   -53.9791 -53.9720 -53.9537 -53.9530 -53.9520 -53.9428 -53.9426 -53.9332
     9.2168  10.4486  11.9538  12.0457  12.1519  12.2213  12.3150  12.4787
    12.5317  12.7385  13.0055  13.1170  13.5084  13.6340  13.7652  13.8134
    13.8288  13.8756  14.2216  14.3057  14.3120  14.6122  18.1946  19.7441
    21.9074  23.8290  24.3435  25.4089  28.0117  28.9499

     occupation numbers 
     1.0000   1.0000   1.0000   1.0000   1.0000   1.0000   1.0000   1.0000
     1.0000   1.0000   1.0000   1.0000   1.0000   1.0000   1.0000   1.0000
     1.0000   1.0000   1.0000   1.0000   1.0000   1.0000   1.0000   1.0000
     1.0000   1.0000   1.0000   1.0000   1.0000   1.0000   1.0000   1.0000
     1.0000   1.0000   1.0000   1.0000   1.0000   1.0000   0.0000   0.0000
     0.0000   0.0000   0.0000   0.0000   0.0000   0.0000

          k = 0.0000 0.2143-0.5000 (  8084 PWs)   bands (ev):

   -96.5963 -96.5963 -96.5895 -96.5895 -53.9955 -53.9955 -53.9853 -53.9853
   -53.9804 -53.9804 -53.9532 -53.9532 -53.9474 -53.9474 -53.9377 -53.9377
     9.8410   9.8410  12.0647  12.0647  12.3088  12.3088  12.3502  12.3502
    12.5140  12.5140  13.0448  13.0448  13.6624  13.6624  13.7390  13.7390
    13.7522  13.7523  14.3072  14.3072  14.3831  14.3831  18.9279  18.9279
    22.8340  22.8340  24.8215  24.8215  28.6156  28.6156

     occupation numbers 
     1.0000   1.0000   1.0000   1.0000   1.0000   1.0000   1.0000   1.0000
     1.0000   1.0000   1.0000   1.0000   1.0000   1.0000   1.0000   1.0000
     1.0000   1.0000   1.0000   1.0000   1.0000   1.0000   1.0000   1.0000
     1.0000   1.0000   1.0000   1.0000   1.0000   1.0000   1.0000   1.0000
     1.0000   1.0000   1.0000   1.0000   1.0000   1.0000   0.0000   0.0000
     0.0000   0.0000   0.0000   0.0000   0.0000   0.0000

          k = 0.0000 0.2857 0.2857 (  8106 PWs)   bands (ev):

   -96.6000 -96.5912 -96.5912 -96.5892 -54.0013 -54.0013 -53.9984 -53.9871
   -53.9646 -53.9646 -53.9627 -53.9518 -53.9509 -53.9509 -53.9379 -53.9273
     8.5269  11.4651  11.4651  11.8593  12.0416  12.0851  12.0851  12.6567
[...]

          k = 0.2857 0.3571 0.3571 (  8073 PWs)   bands (ev):

   -96.5961 -96.5921 -96.5921 -96.5914 -54.0149 -54.0131 -54.0131 -53.9989
   -53.9566 -53.9517 -53.9517 -53.9440 -53.9435 -53.9435 -53.9358 -53.9334
    10.0428  11.3156  11.3156  11.4771  12.5620  12.6175  12.6175  12.9505
    13.0272  13.0272  13.0763  13.0929  13.1016  13.2964  13.2964  13.3115
    14.0580  14.2166  14.3736  14.3873  14.3873  16.1056  16.1056  17.1727
    20.1797  21.3901  21.3901  24.5048  30.6049  32.0952

     occupation numbers 
     1.0000   1.0000   1.0000   1.0000   1.0000   1.0000   1.0000   1.0000
     1.0000   1.0000   1.0000   1.0000   1.0000   1.0000   1.0000   1.0000
     1.0000   1.0000   1.0000   1.0000   1.0000   1.0000   1.0000   1.0000
     1.0000   1.0000   1.0000   1.0000   1.0000   1.0000   1.0000   1.0000
     1.0000   1.0000   1.0000   1.0000   1.0000   0.0000   0.0000   0.0000
     0.0000   0.0000   0.0000   0.0000   0.0000   0.0000

          k = 0.2857 0.3571 0.4286 (  8068 PWs)   bands (ev):

   -96.5951 -96.5931 -96.5919 -96.5916 -54.0164 -54.0155 -54.0120 -54.0047
   -53.9547 -53.9522 -53.9457 -53.9427 -53.9424 -53.9408 -53.9383 -53.9350
    10.3958  11.0470  11.3420  11.4206  12.6372  12.6713  12.7785  13.0177
    13.0433  13.0572  13.1020  13.1316  13.1889  13.2084  13.2539  13.2577
    14.1447  14.3433  14.3487  14.3512  14.3933  15.3140  16.4554  17.1050
    19.8981  20.6210  22.0090  23.5676  31.1522  32.3539

     occupation numbers 
     1.0000   1.0000   1.0000   1.0000   1.0000   1.0000   1.0000   1.0000
     1.0000   1.0000   1.0000   1.0000   1.0000   1.0000   1.0000   1.0000
     1.0000   1.0000   1.0000   1.0000   1.0000   1.0000   1.0000   1.0000
     1.0000   1.0000   1.0000   1.0000   1.0000   1.0000   1.0000   1.0000
     1.0000   1.0000   1.0000   1.0000   1.0000   1.0000   0.0000   0.0000
     0.0000   0.0000   0.0000   0.0000   0.0000   0.0000

          k = 0.2857 0.3571-0.5000 (  8062 PWs)   bands (ev):

   -96.5941 -96.5941 -96.5917 -96.5917 -54.0166 -54.0166 -54.0092 -54.0092
   -53.9533 -53.9533 -53.9421 -53.9421 -53.9414 -53.9414 -53.9377 -53.9377
    10.7374  10.7374  11.3757  11.3757  12.6738  12.6738  12.9181  12.9181
    13.0696  13.0696  13.1440  13.1440  13.2036  13.2036  13.2393  13.2393
    14.2708  14.2708  14.3282  14.3282  14.7305  14.7305  16.8239  16.8239
    20.0858  20.0858  22.7357  22.7357  31.7822  31.7822

     occupation numbers 
     1.0000   1.0000   1.0000   1.0000   1.0000   1.0000   1.0000   1.0000
     1.0000   1.0000   1.0000   1.0000   1.0000   1.0000   1.0000   1.0000
     1.0000   1.0000   1.0000   1.0000   1.0000   1.0000   1.0000   1.0000
     1.0000   1.0000   1.0000   1.0000   1.0000   1.0000   1.0000   1.0000
     1.0000   1.0000   1.0000   1.0000   1.0000   1.0000   0.0000   0.0000
     0.0000   0.0000   0.0000   0.0000   0.0000   0.0000

          k = 0.2857 0.4286 0.4286 (  8076 PWs)   bands (ev):

   -96.5943 -96.5927 -96.5927 -96.5919 -54.0176 -54.0153 -54.0153 -54.0098
   -53.9516 -53.9473 -53.9473 -53.9408 -53.9406 -53.9397 -53.9397 -53.9354
    10.6546  11.1291  11.1291  11.3117  12.7298  12.8082  12.8082  12.9897
    13.0797  13.1488  13.1488  13.1849  13.2201  13.2445  13.2445  13.3022
    14.1427  14.3044  14.3044  14.3100  14.6399  15.6554  15.6554  16.6272
    20.0381  21.1720  21.1720  22.6527  31.7145  33.0912

     occupation numbers 
     1.0000   1.0000   1.0000   1.0000   1.0000   1.0000   1.0000   1.0000
     1.0000   1.0000   1.0000   1.0000   1.0000   1.0000   1.0000   1.0000
     1.0000   1.0000   1.0000   1.0000   1.0000   1.0000   1.0000   1.0000
     1.0000   1.0000   1.0000   1.0000   1.0000   1.0000   1.0000   1.0000
     1.0000   1.0000   1.0000   1.0000   1.0000   1.0000   1.0000   0.0000
     0.0000   0.0000   0.0000   0.0000   0.0000   0.0000

          k = 0.2857 0.4286-0.5000 (  8072 PWs)   bands (ev):

   -96.5935 -96.5935 -96.5923 -96.5923 -54.0172 -54.0172 -54.0134 -54.0134
   -53.9492 -53.9492 -53.9435 -53.9435 -53.9398 -53.9398 -53.9372 -53.9372
    10.9006  10.9006  11.2155  11.2155  12.7883  12.7883  12.9176  12.9176
    13.1014  13.1014  13.1521  13.1521  13.2808  13.2808  13.3307  13.3307
    14.2205  14.2205  14.2852  14.2852  15.0387  15.0387  16.1041  16.1041
    20.4997  20.4997  21.8530  21.8530  32.3694  32.3694

     occupation numbers 
     1.0000   1.0000   1.0000   1.0000   1.0000   1.0000   1.0000   1.0000
     1.0000   1.0000   1.0000   1.0000   1.0000   1.0000   1.0000   1.0000
     1.0000   1.0000   1.0000   1.0000   1.0000   1.0000   1.0000   1.0000
     1.0000   1.0000   1.0000   1.0000   1.0000   1.0000   1.0000   1.0000
     1.0000   1.0000   1.0000   1.0000   1.0000   1.0000   0.0000   0.0000
     0.0000   0.0000   0.0000   0.0000   0.0000   0.0000

          k = 0.2857-0.5000-0.5000 (  8060 PWs)   bands (ev):

   -96.5929 -96.5929 -96.5929 -96.5929 -54.0161 -54.0161 -54.0161 -54.0161
   -53.9461 -53.9461 -53.9461 -53.9461 -53.9379 -53.9379 -53.9379 -53.9379
    11.0587  11.0587  11.0587  11.0587  12.8727  12.8727  12.8727  12.8727
    13.1076  13.1076  13.1076  13.1076  13.3741  13.3741  13.3741  13.3741
    14.2302  14.2302  14.2302  14.2302  15.4901  15.4901  15.4901  15.4901
    21.1029  21.1029  21.1029  21.1029  33.0453  33.0453

     occupation numbers 
     1.0000   1.0000   1.0000   1.0000   1.0000   1.0000   1.0000   1.0000
     1.0000   1.0000   1.0000   1.0000   1.0000   1.0000   1.0000   1.0000
     1.0000   1.0000   1.0000   1.0000   1.0000   1.0000   1.0000   1.0000
     1.0000   1.0000   1.0000   1.0000   1.0000   1.0000   1.0000   1.0000
     1.0000   1.0000   1.0000   1.0000   1.0000   1.0000   1.0000   1.0000
     0.0000   0.0000   0.0000   0.0000   0.0000   0.0000

          k = 0.3571 0.3571 0.3571 (  8099 PWs)   bands (ev):

   -96.5954 -96.5921 -96.5921 -96.5921 -54.0167 -54.0167 -54.0167 -54.0053
   -53.9493 -53.9493 -53.9493 -53.9424 -53.9424 -53.9424 -53.9350 -53.9350
    10.3019  11.2723  11.2723  11.2723  12.7073  12.7073  12.7073  13.0567
    13.0567  13.1877  13.2088  13.2088  13.2088  13.2094  13.2094  13.2094
    14.1780  14.1780  14.3974  14.3974  14.3974  16.2537  16.2537  16.2537
    20.5514  20.5514  20.5514  23.4774  32.5436  32.5436

     occupation numbers 
     1.0000   1.0000   1.0000   1.0000   1.0000   1.0000   1.0000   1.0000
     1.0000   1.0000   1.0000   1.0000   1.0000   1.0000   1.0000   1.0000
     1.0000   1.0000   1.0000   1.0000   1.0000   1.0000   1.0000   1.0000
     1.0000   1.0000   1.0000   1.0000   1.0000   1.0000   1.0000   1.0000
     1.0000   1.0000   1.0000   1.0000   1.0000   0.0000   0.0000   0.0000
     0.0000   0.0000   0.0000   0.0000   0.0000   0.0000

          k = 0.3571 0.3571 0.4286 (  8071 PWs)   bands (ev):

   -96.5946 -96.5929 -96.5921 -96.5921 -54.0189 -54.0189 -54.0165 -54.0106
   -53.9482 -53.9482 -53.9433 -53.9413 -53.9413 -53.9406 -53.9368 -53.9360
    10.5652  11.0529  11.2433  11.2433  12.7598  12.7598  12.8403  13.0153
    13.0508  13.1291  13.1561  13.1561  13.3143  13.3688  13.3688  13.3767
    14.2764  14.3020  14.3751  14.3751  14.3890  15.4151  16.3888  16.3888
    19.9856  19.9856  21.0943  22.5650  33.0569  33.0569

     occupation numbers 
     1.0000   1.0000   1.0000   1.0000   1.0000   1.0000   1.0000   1.0000
     1.0000   1.0000   1.0000   1.0000   1.0000   1.0000   1.0000   1.0000
     1.0000   1.0000   1.0000   1.0000   1.0000   1.0000   1.0000   1.0000
     1.0000   1.0000   1.0000   1.0000   1.0000   1.0000   1.0000   1.0000
     1.0000   1.0000   1.0000   1.0000   1.0000   1.0000   0.0000   0.0000
     0.0000   0.0000   0.0000   0.0000   0.0000   0.0000

          k = 0.3571 0.3571-0.5000 (  8070 PWs)   bands (ev):

   -96.5937 -96.5937 -96.5921 -96.5921 -54.0197 -54.0197 -54.0144 -54.0144
   -53.9479 -53.9479 -53.9408 -53.9408 -53.9388 -53.9388 -53.9387 -53.9387
    10.8174  10.8174  11.2332  11.2332  12.7769  12.7769  12.9447  12.9447
    13.0753  13.0753  13.1381  13.1381  13.3958  13.3958  13.4353  13.4353
    14.3480  14.3480  14.3589  14.3589  14.7342  14.7342  16.4467  16.4467
    19.7811  19.7811  21.7694  21.7694  33.4565  33.4565

     occupation numbers 
     1.0000   1.0000   1.0000   1.0000   1.0000   1.0000   1.0000   1.0000
     1.0000   1.0000   1.0000   1.0000   1.0000   1.0000   1.0000   1.0000
     1.0000   1.0000   1.0000   1.0000   1.0000   1.0000   1.0000   1.0000
     1.0000   1.0000   1.0000   1.0000   1.0000   1.0000   1.0000   1.0000
     1.0000   1.0000   1.0000   1.0000   1.0000   1.0000   0.0000   0.0000
     0.0000   0.0000   0.0000   0.0000   0.0000   0.0000

          k = 0.3571 0.4286 0.4286 (  8074 PWs)   bands (ev):

   -96.5940 -96.5927 -96.5927 -96.5923 -54.0209 -54.0196 -54.0196 -54.0153
   -53.9456 -53.9432 -53.9432 -53.9400 -53.9396 -53.9396 -53.9380 -53.9363
    10.7349  11.0711  11.0711  11.1643  12.8266  12.8667  12.8667  13.0010
    13.0215  13.0826  13.0826  13.0955  13.5447  13.5447  13.5595  13.6711
    14.2485  14.3646  14.3699  14.3699  14.4884  15.6121  15.6121  16.1888
    19.7445  20.3750  20.3750  21.6923  33.6071  34.7172

     occupation numbers 
     1.0000   1.0000   1.0000   1.0000   1.0000   1.0000   1.0000   1.0000
     1.0000   1.0000   1.0000   1.0000   1.0000   1.0000   1.0000   1.0000
     1.0000   1.0000   1.0000   1.0000   1.0000   1.0000   1.0000   1.0000
     1.0000   1.0000   1.0000   1.0000   1.0000   1.0000   1.0000   1.0000
     1.0000   1.0000   1.0000   1.0000   1.0000   1.0000   1.0000   0.0000
     0.0000   0.0000   0.0000   0.0000   0.0000   0.0000

          k = 0.3571 0.4286-0.5000 (  8072 PWs)   bands (ev):

   -96.5933 -96.5933 -96.5925 -96.5925 -54.0211 -54.0211 -54.0184 -54.0184
   -53.9441 -53.9441 -53.9400 -53.9400 -53.9393 -53.9393 -53.9376 -53.9376
    10.9027  10.9027  11.1071  11.1071  12.8634  12.8634  12.9483  12.9483
    13.0365  13.0365  13.0696  13.0696  13.6416  13.6416  13.6872  13.6872
    14.3208  14.3208  14.3494  14.3494  14.9292  14.9292  15.8942  15.8942
    19.9000  19.9000  20.9573  20.9573  34.2139  34.2139

     occupation numbers 
     1.0000   1.0000   1.0000   1.0000   1.0000   1.0000   1.0000   1.0000
     1.0000   1.0000   1.0000   1.0000   1.0000   1.0000   1.0000   1.0000
     1.0000   1.0000   1.0000   1.0000   1.0000   1.0000   1.0000   1.0000
     1.0000   1.0000   1.0000   1.0000   1.0000   1.0000   1.0000   1.0000
     1.0000   1.0000   1.0000   1.0000   1.0000   1.0000   1.0000   1.0000
     0.0000   0.0000   0.0000   0.0000   0.0000   0.0000

          k = 0.3571-0.5000-0.5000 (  8072 PWs)   bands (ev):

   -96.5929 -96.5929 -96.5929 -96.5929 -54.0206 -54.0206 -54.0206 -54.0206
   -53.9417 -53.9417 -53.9417 -53.9417 -53.9379 -53.9379 -53.9379 -53.9379
    10.9978  10.9978  10.9978  10.9978  12.9237  12.9237  12.9237  12.9238
    13.0324  13.0324  13.0324  13.0324  13.7701  13.7701  13.7701  13.7701
    14.3131  14.3131  14.3131  14.3131  15.3381  15.3381  15.3381  15.3382
    20.3205  20.3205  20.3205  20.3205  34.8653  34.8653

     occupation numbers 
     1.0000   1.0000   1.0000   1.0000   1.0000   1.0000   1.0000   1.0000
     1.0000   1.0000   1.0000   1.0000   1.0000   1.0000   1.0000   1.0000
     1.0000   1.0000   1.0000   1.0000   1.0000   1.0000   1.0000   1.0000
     1.0000   1.0000   1.0000   1.0000   1.0000   1.0000   1.0000   1.0000
     1.0000   1.0000   1.0000   1.0000   1.0000   1.0000   1.0000   1.0000
     0.0000   0.0000   0.0000   0.0000   0.0000   0.0000

          k = 0.4286 0.4286 0.4286 (  8069 PWs)   bands (ev):

   -96.5935 -96.5927 -96.5927 -96.5927 -54.0223 -54.0223 -54.0223 -54.0194
   -53.9410 -53.9410 -53.9410 -53.9391 -53.9391 -53.9391 -53.9372 -53.9372
    10.8221  11.0337  11.0337  11.0337  12.9065  12.9065  12.9065  12.9936
    12.9936  13.0316  13.0316  13.0316  13.8190  13.8190  13.8190  14.2021
    14.3272  14.3272  14.3867  14.3867  14.3867  15.5641  15.5641  15.5641
    19.8572  19.8572  19.8572  20.8892  35.4396  35.4396

     occupation numbers 
     1.0000   1.0000   1.0000   1.0000   1.0000   1.0000   1.0000   1.0000
     1.0000   1.0000   1.0000   1.0000   1.0000   1.0000   1.0000   1.0000
     1.0000   1.0000   1.0000   1.0000   1.0000   1.0000   1.0000   1.0000
     1.0000   1.0000   1.0000   1.0000   1.0000   1.0000   1.0000   1.0000
     1.0000   1.0000   1.0000   1.0000   1.0000   1.0000   1.0000   1.0000
     0.0000   0.0000   0.0000   0.0000   0.0000   0.0000

          k = 0.4286 0.4286-0.5000 (  8086 PWs)   bands (ev):

   -96.5931 -96.5931 -96.5927 -96.5927 -54.0232 -54.0232 -54.0218 -54.0218
   -53.9405 -53.9405 -53.9387 -53.9387 -53.9382 -53.9382 -53.9382 -53.9382
    10.9204  10.9204  11.0208  11.0208  12.9218  12.9218  12.9627  12.9627
    12.9970  12.9970  13.0126  13.0126  13.9421  13.9421  14.0658  14.0658
    14.3741  14.3741  14.3766  14.3766  14.8844  14.8844  15.5410  15.5410
    19.6763  19.6763  20.2647  20.2647  35.7807  35.7807

     occupation numbers 
     1.0000   1.0000   1.0000   1.0000   1.0000   1.0000   1.0000   1.0000
     1.0000   1.0000   1.0000   1.0000   1.0000   1.0000   1.0000   1.0000
     1.0000   1.0000   1.0000   1.0000   1.0000   1.0000   1.0000   1.0000
     1.0000   1.0000   1.0000   1.0000   1.0000   1.0000   1.0000   1.0000
     1.0000   1.0000   1.0000   1.0000   1.0000   1.0000   1.0000   1.0000
     0.0000   0.0000   0.0000   0.0000   0.0000   0.0000

          k = 0.4286-0.5000-0.5000 (  8104 PWs)   bands (ev):

   -96.5929 -96.5929 -96.5929 -96.5929 -54.0235 -54.0235 -54.0235 -54.0235
   -53.9389 -53.9389 -53.9389 -53.9389 -53.9379 -53.9379 -53.9379 -53.9379
    10.9588  10.9588  10.9588  10.9588  12.9578  12.9578  12.9578  12.9578
    12.9856  12.9856  12.9856  12.9856  14.1621  14.1621  14.1621  14.1621
    14.3652  14.3652  14.3652  14.3652  15.1249  15.1249  15.1249  15.1249
    19.8182  19.8182  19.8182  19.8182  36.4761  36.4761

     occupation numbers 
     1.0000   1.0000   1.0000   1.0000   1.0000   1.0000   1.0000   1.0000
     1.0000   1.0000   1.0000   1.0000   1.0000   1.0000   1.0000   1.0000
     1.0000   1.0000   1.0000   1.0000   1.0000   1.0000   1.0000   1.0000
     1.0000   1.0000   1.0000   1.0000   1.0000   1.0000   1.0000   1.0000
     1.0000   1.0000   1.0000   1.0000   1.0000   1.0000   1.0000   1.0000
     0.0000   0.0000   0.0000   0.0000   0.0000   0.0000

          k =-0.5000-0.5000-0.5000 (  8144 PWs)   bands (ev):

   -96.5929 -96.5929 -96.5929 -96.5929 -54.0244 -54.0244 -54.0244 -54.0244
   -53.9380 -53.9380 -53.9380 -53.9380 -53.9380 -53.9380 -53.9380 -53.9380
    10.9454  10.9454  10.9454  10.9454  12.9697  12.9697  12.9697  12.9697
    12.9697  12.9697  12.9697  12.9697  14.3829  14.3829  14.3829  14.3829
    14.3829  14.3829  14.3829  14.3829  14.9699  14.9699  14.9699  14.9699
    19.6443  19.6443  19.6443  19.6443  37.0119  37.0119

     occupation numbers 
     1.0000   1.0000   1.0000   1.0000   1.0000   1.0000   1.0000   1.0000
     1.0000   1.0000   1.0000   1.0000   1.0000   1.0000   1.0000   1.0000
     1.0000   1.0000   1.0000   1.0000   1.0000   1.0000   1.0000   1.0000
     1.0000   1.0000   1.0000   1.0000   1.0000   1.0000   1.0000   1.0000
     1.0000   1.0000   1.0000   1.0000   1.0000   1.0000   1.0000   1.0000
     0.0000   0.0000   0.0000   0.0000   0.0000   0.0000

     the Fermi energy is    15.9839 ev

!    total energy              =   -1947.55190546 Ry
     total all-electron energy =    -13239.898320 Ry
     estimated scf accuracy    <          2.9E-10 Ry
     smearing contrib. (-TS)   =      -0.00000477 Ry
     internal energy E=F+TS    =   -1947.55190070 Ry

     The total energy is F=E-TS. E is the sum of the following terms:
     one-electron contribution =    -992.21907408 Ry
     hartree contribution      =     558.26902493 Ry
     xc contribution           =    -153.21681168 Ry
     ewald contribution        =    -964.96224602 Ry
     one-center paw contrib.   =    -395.42279384 Ry
      -> PAW hartree energy AE =     319.26139859 Ry
      -> PAW hartree energy PS =    -321.23557807 Ry
      -> PAW xc energy AE      =    -133.83486944 Ry
      -> PAW xc energy PS      =      36.95335203 Ry
      -> total E_H with PAW    =     556.29484544 Ry
      -> total E_XC with PAW   =    -250.09832909 Ry

     total magnetization       =     0.00 Bohr mag/cell
     absolute magnetization    =     0.00 Bohr mag/cell

     convergence has been achieved in  12 iterations

     Writing all to output data dir ./out/Cu.save/

     init_run     :     16.55s CPU     17.52s WALL (       1 calls)
     electrons    :    980.04s CPU   1016.14s WALL (       1 calls)

     Called by init_run:
     wfcinit      :     15.87s CPU     16.78s WALL (       1 calls)
     wfcinit:atom :      0.20s CPU      0.20s WALL (     240 calls)
     wfcinit:wfcr :     15.21s CPU     16.12s WALL (     240 calls)
     potinit      :      0.32s CPU      0.35s WALL (       1 calls)
     hinit0       :      0.18s CPU      0.19s WALL (       1 calls)

     Called by electrons:
     c_bands      :    881.79s CPU    911.46s WALL (      12 calls)
     sum_band     :     91.12s CPU     97.38s WALL (      12 calls)
     v_of_rho     :      0.46s CPU      0.47s WALL (      13 calls)
     v_h          :      0.02s CPU      0.02s WALL (      13 calls)
     v_xc         :      0.44s CPU      0.45s WALL (      13 calls)
     newd         :      1.71s CPU      1.73s WALL (      13 calls)
     PAW_pot      :      5.07s CPU      5.20s WALL (      13 calls)
     mix_rho      :      0.21s CPU      0.21s WALL (      12 calls)

     Called by c_bands:
     init_us_2    :      7.10s CPU      7.15s WALL (    6000 calls)
     init_us_2:cp :      7.05s CPU      7.13s WALL (    6000 calls)
     cegterg      :    860.30s CPU    889.80s WALL (    2880 calls)

     Called by sum_band:
     sum_band:wei :      0.08s CPU      0.08s WALL (      12 calls)
     sum_band:loo :     89.57s CPU     95.81s WALL (      12 calls)
     sum_band:buf :      2.65s CPU      2.71s WALL (    2880 calls)
     sum_band:ini :      2.86s CPU      2.88s WALL (    2880 calls)
     sum_band:cal :     31.18s CPU     32.04s WALL (    2880 calls)
     sum_band:bec :      0.48s CPU      0.49s WALL (    2880 calls)
     addusdens    :      1.33s CPU      1.34s WALL (      12 calls)
                                        0.00s GPU  (      12 calls)
     addusd:skk   :      0.01s CPU      0.01s WALL (      12 calls)
                                        0.00s GPU  (      12 calls)

     Called by *egterg:
     cdiaghg      :     58.16s CPU     58.46s WALL (   10021 calls)
     cegterg:over :     99.49s CPU    100.51s WALL (    7141 calls)
     cegterg:upda :     52.89s CPU     53.06s WALL (    7141 calls)
     cegterg:last :    147.73s CPU    148.01s WALL (    5621 calls)
     h_psi        :    384.06s CPU    411.81s WALL (   10261 calls)
     s_psi        :     71.58s CPU     71.87s WALL (   10261 calls)
     g_psi        :      3.40s CPU      3.41s WALL (    7141 calls)

     Called by h_psi:
     h_psi:calbec :     77.93s CPU     80.44s WALL (   10261 calls)
     vloc_psi     :    232.00s CPU    256.95s WALL (   10261 calls)
     add_vuspsi   :     70.58s CPU     70.87s WALL (   10261 calls)

     General routines
     calbec       :    109.04s CPU    112.43s WALL (   13141 calls)
     fft          :      0.30s CPU      0.31s WALL (     271 calls)
     ffts         :      0.01s CPU      0.01s WALL (      24 calls)
     fftw         :    240.40s CPU    266.10s WALL (  781430 calls)

     Parallel routines

     PAW routines
     PAW_pot      :      5.07s CPU      5.20s WALL (      13 calls)
     PAW_symme    :      0.03s CPU      0.03s WALL (      25 calls)

     PWSCF        :  16m38.87s CPU  17m18.98s WALL


   This run was terminated on:  23:16:22  15Feb2024            

=------------------------------------------------------------------------------=
   JOB DONE.
=------------------------------------------------------------------------------=
