### Running on host: unam-asus

     Program PWSCF v.7.2 starts on 15Feb2024 at 17:18: 9 

     This program is part of the open-source Quantum ESPRESSO suite
     for quantum simulation of materials; please cite
         "P. Giannozzi et al., J. Phys.:Condens. Matter 21 395502 (2009);
         "P. Giannozzi et al., J. Phys.:Condens. Matter 29 465901 (2017);
         "P. Giannozzi et al., J. Chem. Phys. 152 154105 (2020);
          URL http://www.quantum-espresso.org", 
     in publications or presentations arising from this work. More details at
     http://www.quantum-espresso.org/quote

     Parallel version (MPI), running on    10 processors

     MPI processes distributed on     1 nodes
     1237 MiB available memory on the printing compute node when the environment starts

     Reading input from scf.400.in

     Current dimensions of program PWSCF are:
     Max number of different atomic species (ntypx) = 10
     Max number of k-points (npk) =  40000
     Max angular momentum in pseudopotentials (lmaxx) =  4
     file Cu.pbe-spn-kjpaw_psl.1.0.0.UPF: wavefunction(s)  4S 3P 3D renormalized
     Message from routine set_cutoff:
     ecutrho < 4*ecutwfc, are you sure?
     Found identity + (  0.0000 -0.5000 -0.5000) symmetry
     This is a supercell, fractional translations are disabled

     R & G space division:  proc/nbgrp/npool/nimage =      10
     Subspace diagonalization in iterative solution of the eigenvalue problem:
     a serial algorithm will be used


     Parallelization info
     --------------------
     sticks:   dense  smooth     PW     G-vecs:    dense   smooth      PW
     Min         145     145     54                 4183     4183     944
     Max         146     146     55                 4186     4186     947
     Sum        1457    1457    545                41851    41851    9459

     Using Slab Decomposition



     bravais-lattice index     =            1
     lattice parameter (alat)  =       6.7604  a.u.
     unit-cell volume          =     308.9657 (a.u.)^3
     number of atoms/cell      =            4
     number of atomic types    =            1
     number of electrons       =        76.00
     number of Kohn-Sham states=           46
     kinetic-energy cutoff     =     130.0000  Ry
     charge density cutoff     =     400.0000  Ry
     scf convergence threshold =      1.0E-08
     mixing beta               =       0.7000
     number of iterations used =            8  plain     mixing
     Exchange-correlation= SLA  PW   PBX  PBC
                           (   1   4   3   4   0   0   0)

     celldm(1)=   6.760364  celldm(2)=   0.000000  celldm(3)=   0.000000
     celldm(4)=   0.000000  celldm(5)=   0.000000  celldm(6)=   0.000000

     crystal axes: (cart. coord. in units of alat)
               a(1) = (   1.000000   0.000000   0.000000 )  
               a(2) = (   0.000000   1.000000   0.000000 )  
               a(3) = (   0.000000   0.000000   1.000000 )  

     reciprocal axes: (cart. coord. in units 2 pi/alat)
               b(1) = (  1.000000  0.000000  0.000000 )  
               b(2) = (  0.000000  1.000000  0.000000 )  
               b(3) = (  0.000000  0.000000  1.000000 )  


     PseudoPot. # 1 for Cu read from file:
     /home/abdul/git_repo/ZnS_Cu-Vacancy/pseudo/QE/Cu.pbe-spn-kjpaw_psl.1.0.0.UPF
     MD5 check sum: e7cbaad2f97193e5fe23251a619a52b0
     Pseudo is Projector augmented-wave + core cor, Zval = 19.0
     Generated using &quot;atomic&quot; code by A. Dal Corso  v.6.3
     Shape of augmentation charge: PSQ
     Using radial grid of 1199 points,  6 beta functions with: 
                l(1) =   0
                l(2) =   0
                l(3) =   1
                l(4) =   1
                l(5) =   2
                l(6) =   2
     Q(r) pseudized with 0 coefficients 


     atomic species   valence    mass     pseudopotential
        Cu            19.00    63.54600     Cu( 1.00)

     48 Sym. Ops., with inversion, found


                                    s                        frac. trans.

      isym =  1     identity                                     

 cryst.   s( 1) = (     1          0          0      )
                  (     0          1          0      )
                  (     0          0          1      )

 cart.    s( 1) = (  1.0000000  0.0000000  0.0000000 )
                  (  0.0000000  1.0000000  0.0000000 )
                  (  0.0000000  0.0000000  1.0000000 )


      isym =  2     180 deg rotation - cart. axis [0,0,1]        

 cryst.   s( 2) = (    -1          0          0      )
                  (     0         -1          0      )
                  (     0          0          1      )

 cart.    s( 2) = ( -1.0000000  0.0000000  0.0000000 )
                  (  0.0000000 -1.0000000  0.0000000 )
                  (  0.0000000  0.0000000  1.0000000 )


      isym =  3     180 deg rotation - cart. axis [0,1,0]        

 cryst.   s( 3) = (    -1          0          0      )
                  (     0          1          0      )
                  (     0          0         -1      )

 cart.    s( 3) = ( -1.0000000  0.0000000  0.0000000 )
                  (  0.0000000  1.0000000  0.0000000 )
                  (  0.0000000  0.0000000 -1.0000000 )


      isym =  4     180 deg rotation - cart. axis [1,0,0]        

 cryst.   s( 4) = (     1          0          0      )
                  (     0         -1          0      )
                  (     0          0         -1      )

 cart.    s( 4) = (  1.0000000  0.0000000  0.0000000 )
                  (  0.0000000 -1.0000000  0.0000000 )
                  (  0.0000000  0.0000000 -1.0000000 )


      isym =  5     180 deg rotation - cart. axis [1,1,0]        

 cryst.   s( 5) = (     0          1          0      )
                  (     1          0          0      )
                  (     0          0         -1      )

 cart.    s( 5) = (  0.0000000  1.0000000  0.0000000 )
                  (  1.0000000  0.0000000  0.0000000 )
                  (  0.0000000  0.0000000 -1.0000000 )


      isym =  6     180 deg rotation - cart. axis [1,-1,0]       

 cryst.   s( 6) = (     0         -1          0      )
                  (    -1          0          0      )
                  (     0          0         -1      )

 cart.    s( 6) = (  0.0000000 -1.0000000  0.0000000 )
                  ( -1.0000000  0.0000000  0.0000000 )
                  (  0.0000000  0.0000000 -1.0000000 )


      isym =  7      90 deg rotation - cart. axis [0,0,-1]       

 cryst.   s( 7) = (     0         -1          0      )
                  (     1          0          0      )
                  (     0          0          1      )

 cart.    s( 7) = (  0.0000000  1.0000000  0.0000000 )
                  ( -1.0000000  0.0000000  0.0000000 )
                  (  0.0000000  0.0000000  1.0000000 )


      isym =  8      90 deg rotation - cart. axis [0,0,1]        

 cryst.   s( 8) = (     0          1          0      )
                  (    -1          0          0      )
                  (     0          0          1      )

 cart.    s( 8) = (  0.0000000 -1.0000000  0.0000000 )
                  (  1.0000000  0.0000000  0.0000000 )
                  (  0.0000000  0.0000000  1.0000000 )


      isym =  9     180 deg rotation - cart. axis [1,0,1]        

 cryst.   s( 9) = (     0          0          1      )
                  (     0         -1          0      )
                  (     1          0          0      )

 cart.    s( 9) = (  0.0000000  0.0000000  1.0000000 )
                  (  0.0000000 -1.0000000  0.0000000 )
                  (  1.0000000  0.0000000  0.0000000 )


      isym = 10     180 deg rotation - cart. axis [-1,0,1]       

 cryst.   s(10) = (     0          0         -1      )
                  (     0         -1          0      )
                  (    -1          0          0      )

 cart.    s(10) = (  0.0000000  0.0000000 -1.0000000 )
                  (  0.0000000 -1.0000000  0.0000000 )
                  ( -1.0000000  0.0000000  0.0000000 )


      isym = 11      90 deg rotation - cart. axis [0,1,0]        

 cryst.   s(11) = (     0          0         -1      )
                  (     0          1          0      )
                  (     1          0          0      )

 cart.    s(11) = (  0.0000000  0.0000000  1.0000000 )
                  (  0.0000000  1.0000000  0.0000000 )
                  ( -1.0000000  0.0000000  0.0000000 )


      isym = 12      90 deg rotation - cart. axis [0,-1,0]       

 cryst.   s(12) = (     0          0          1      )
                  (     0          1          0      )
                  (    -1          0          0      )

 cart.    s(12) = (  0.0000000  0.0000000 -1.0000000 )
                  (  0.0000000  1.0000000  0.0000000 )
                  (  1.0000000  0.0000000  0.0000000 )


      isym = 13     180 deg rotation - cart. axis [0,1,1]        

 cryst.   s(13) = (    -1          0          0      )
                  (     0          0          1      )
                  (     0          1          0      )

 cart.    s(13) = ( -1.0000000  0.0000000  0.0000000 )
                  (  0.0000000  0.0000000  1.0000000 )
                  (  0.0000000  1.0000000  0.0000000 )


      isym = 14     180 deg rotation - cart. axis [0,1,-1]       

 cryst.   s(14) = (    -1          0          0      )
                  (     0          0         -1      )
                  (     0         -1          0      )

 cart.    s(14) = ( -1.0000000  0.0000000  0.0000000 )
                  (  0.0000000  0.0000000 -1.0000000 )
                  (  0.0000000 -1.0000000  0.0000000 )


      isym = 15      90 deg rotation - cart. axis [-1,0,0]       

 cryst.   s(15) = (     1          0          0      )
                  (     0          0         -1      )
                  (     0          1          0      )

 cart.    s(15) = (  1.0000000  0.0000000  0.0000000 )
                  (  0.0000000  0.0000000  1.0000000 )
                  (  0.0000000 -1.0000000  0.0000000 )


      isym = 16      90 deg rotation - cart. axis [1,0,0]        

 cryst.   s(16) = (     1          0          0      )
                  (     0          0          1      )
                  (     0         -1          0      )

 cart.    s(16) = (  1.0000000  0.0000000  0.0000000 )
                  (  0.0000000  0.0000000 -1.0000000 )
                  (  0.0000000  1.0000000  0.0000000 )


      isym = 17     120 deg rotation - cart. axis [-1,-1,-1]     

 cryst.   s(17) = (     0          0          1      )
                  (     1          0          0      )
                  (     0          1          0      )

 cart.    s(17) = (  0.0000000  1.0000000  0.0000000 )
                  (  0.0000000  0.0000000  1.0000000 )
                  (  1.0000000  0.0000000  0.0000000 )


      isym = 18     120 deg rotation - cart. axis [-1,1,1]       

 cryst.   s(18) = (     0          0         -1      )
                  (    -1          0          0      )
                  (     0          1          0      )

 cart.    s(18) = (  0.0000000 -1.0000000  0.0000000 )
                  (  0.0000000  0.0000000  1.0000000 )
                  ( -1.0000000  0.0000000  0.0000000 )


      isym = 19     120 deg rotation - cart. axis [1,1,-1]       

 cryst.   s(19) = (     0          0         -1      )
                  (     1          0          0      )
                  (     0         -1          0      )

 cart.    s(19) = (  0.0000000  1.0000000  0.0000000 )
                  (  0.0000000  0.0000000 -1.0000000 )
                  ( -1.0000000  0.0000000  0.0000000 )


      isym = 20     120 deg rotation - cart. axis [1,-1,1]       

 cryst.   s(20) = (     0          0          1      )
                  (    -1          0          0      )
                  (     0         -1          0      )

 cart.    s(20) = (  0.0000000 -1.0000000  0.0000000 )
                  (  0.0000000  0.0000000 -1.0000000 )
                  (  1.0000000  0.0000000  0.0000000 )


      isym = 21     120 deg rotation - cart. axis [1,1,1]        

 cryst.   s(21) = (     0          1          0      )
                  (     0          0          1      )
                  (     1          0          0      )

 cart.    s(21) = (  0.0000000  0.0000000  1.0000000 )
                  (  1.0000000  0.0000000  0.0000000 )
                  (  0.0000000  1.0000000  0.0000000 )


      isym = 22     120 deg rotation - cart. axis [-1,1,-1]      

 cryst.   s(22) = (     0         -1          0      )
                  (     0          0         -1      )
                  (     1          0          0      )

 cart.    s(22) = (  0.0000000  0.0000000  1.0000000 )
                  ( -1.0000000  0.0000000  0.0000000 )
                  (  0.0000000 -1.0000000  0.0000000 )


      isym = 23     120 deg rotation - cart. axis [1,-1,-1]      

 cryst.   s(23) = (     0         -1          0      )
                  (     0          0          1      )
                  (    -1          0          0      )

 cart.    s(23) = (  0.0000000  0.0000000 -1.0000000 )
                  ( -1.0000000  0.0000000  0.0000000 )
                  (  0.0000000  1.0000000  0.0000000 )


      isym = 24     120 deg rotation - cart. axis [-1,-1,1]      

 cryst.   s(24) = (     0          1          0      )
                  (     0          0         -1      )
                  (    -1          0          0      )

 cart.    s(24) = (  0.0000000  0.0000000 -1.0000000 )
                  (  1.0000000  0.0000000  0.0000000 )
                  (  0.0000000 -1.0000000  0.0000000 )


      isym = 25     inversion                                    

 cryst.   s(25) = (    -1          0          0      )
                  (     0         -1          0      )
                  (     0          0         -1      )

 cart.    s(25) = ( -1.0000000  0.0000000  0.0000000 )
                  (  0.0000000 -1.0000000  0.0000000 )
                  (  0.0000000  0.0000000 -1.0000000 )


      isym = 26     inv. 180 deg rotation - cart. axis [0,0,1]   

 cryst.   s(26) = (     1          0          0      )
                  (     0          1          0      )
                  (     0          0         -1      )

 cart.    s(26) = (  1.0000000  0.0000000  0.0000000 )
                  (  0.0000000  1.0000000  0.0000000 )
                  (  0.0000000  0.0000000 -1.0000000 )


      isym = 27     inv. 180 deg rotation - cart. axis [0,1,0]   

 cryst.   s(27) = (     1          0          0      )
                  (     0         -1          0      )
                  (     0          0          1      )

 cart.    s(27) = (  1.0000000  0.0000000  0.0000000 )
                  (  0.0000000 -1.0000000  0.0000000 )
                  (  0.0000000  0.0000000  1.0000000 )


      isym = 28     inv. 180 deg rotation - cart. axis [1,0,0]   

 cryst.   s(28) = (    -1          0          0      )
                  (     0          1          0      )
                  (     0          0          1      )

 cart.    s(28) = ( -1.0000000  0.0000000  0.0000000 )
                  (  0.0000000  1.0000000  0.0000000 )
                  (  0.0000000  0.0000000  1.0000000 )


      isym = 29     inv. 180 deg rotation - cart. axis [1,1,0]   

 cryst.   s(29) = (     0         -1          0      )
                  (    -1          0          0      )
                  (     0          0          1      )

 cart.    s(29) = (  0.0000000 -1.0000000  0.0000000 )
                  ( -1.0000000  0.0000000  0.0000000 )
                  (  0.0000000  0.0000000  1.0000000 )


      isym = 30     inv. 180 deg rotation - cart. axis [1,-1,0]  

 cryst.   s(30) = (     0          1          0      )
                  (     1          0          0      )
                  (     0          0          1      )

 cart.    s(30) = (  0.0000000  1.0000000  0.0000000 )
                  (  1.0000000  0.0000000  0.0000000 )
                  (  0.0000000  0.0000000  1.0000000 )


      isym = 31     inv.  90 deg rotation - cart. axis [0,0,-1]  

 cryst.   s(31) = (     0          1          0      )
                  (    -1          0          0      )
                  (     0          0         -1      )

 cart.    s(31) = (  0.0000000 -1.0000000  0.0000000 )
                  (  1.0000000  0.0000000  0.0000000 )
                  (  0.0000000  0.0000000 -1.0000000 )


      isym = 32     inv.  90 deg rotation - cart. axis [0,0,1]   

 cryst.   s(32) = (     0         -1          0      )
                  (     1          0          0      )
                  (     0          0         -1      )

 cart.    s(32) = (  0.0000000  1.0000000  0.0000000 )
                  ( -1.0000000  0.0000000  0.0000000 )
                  (  0.0000000  0.0000000 -1.0000000 )


      isym = 33     inv. 180 deg rotation - cart. axis [1,0,1]   

 cryst.   s(33) = (     0          0         -1      )
                  (     0          1          0      )
                  (    -1          0          0      )

 cart.    s(33) = (  0.0000000  0.0000000 -1.0000000 )
                  (  0.0000000  1.0000000  0.0000000 )
                  ( -1.0000000  0.0000000  0.0000000 )


      isym = 34     inv. 180 deg rotation - cart. axis [-1,0,1]  

 cryst.   s(34) = (     0          0          1      )
                  (     0          1          0      )
                  (     1          0          0      )

 cart.    s(34) = (  0.0000000  0.0000000  1.0000000 )
                  (  0.0000000  1.0000000  0.0000000 )
                  (  1.0000000  0.0000000  0.0000000 )


      isym = 35     inv.  90 deg rotation - cart. axis [0,1,0]   

 cryst.   s(35) = (     0          0          1      )
                  (     0         -1          0      )
                  (    -1          0          0      )

 cart.    s(35) = (  0.0000000  0.0000000 -1.0000000 )
                  (  0.0000000 -1.0000000  0.0000000 )
                  (  1.0000000  0.0000000  0.0000000 )


      isym = 36     inv.  90 deg rotation - cart. axis [0,-1,0]  

 cryst.   s(36) = (     0          0         -1      )
                  (     0         -1          0      )
                  (     1          0          0      )

 cart.    s(36) = (  0.0000000  0.0000000  1.0000000 )
                  (  0.0000000 -1.0000000  0.0000000 )
                  ( -1.0000000  0.0000000  0.0000000 )


      isym = 37     inv. 180 deg rotation - cart. axis [0,1,1]   

 cryst.   s(37) = (     1          0          0      )
                  (     0          0         -1      )
                  (     0         -1          0      )

 cart.    s(37) = (  1.0000000  0.0000000  0.0000000 )
                  (  0.0000000  0.0000000 -1.0000000 )
                  (  0.0000000 -1.0000000  0.0000000 )


      isym = 38     inv. 180 deg rotation - cart. axis [0,1,-1]  

 cryst.   s(38) = (     1          0          0      )
                  (     0          0          1      )
                  (     0          1          0      )

 cart.    s(38) = (  1.0000000  0.0000000  0.0000000 )
                  (  0.0000000  0.0000000  1.0000000 )
                  (  0.0000000  1.0000000  0.0000000 )


      isym = 39     inv.  90 deg rotation - cart. axis [-1,0,0]  

 cryst.   s(39) = (    -1          0          0      )
                  (     0          0          1      )
                  (     0         -1          0      )

 cart.    s(39) = ( -1.0000000  0.0000000  0.0000000 )
                  (  0.0000000  0.0000000 -1.0000000 )
                  (  0.0000000  1.0000000  0.0000000 )


      isym = 40     inv.  90 deg rotation - cart. axis [1,0,0]   

 cryst.   s(40) = (    -1          0          0      )
                  (     0          0         -1      )
                  (     0          1          0      )

 cart.    s(40) = ( -1.0000000  0.0000000  0.0000000 )
                  (  0.0000000  0.0000000  1.0000000 )
                  (  0.0000000 -1.0000000  0.0000000 )


      isym = 41     inv. 120 deg rotation - cart. axis [-1,-1,-1]

 cryst.   s(41) = (     0          0         -1      )
                  (    -1          0          0      )
                  (     0         -1          0      )

 cart.    s(41) = (  0.0000000 -1.0000000  0.0000000 )
                  (  0.0000000  0.0000000 -1.0000000 )
                  ( -1.0000000  0.0000000  0.0000000 )


      isym = 42     inv. 120 deg rotation - cart. axis [-1,1,1]  

 cryst.   s(42) = (     0          0          1      )
                  (     1          0          0      )
                  (     0         -1          0      )

 cart.    s(42) = (  0.0000000  1.0000000  0.0000000 )
                  (  0.0000000  0.0000000 -1.0000000 )
                  (  1.0000000  0.0000000  0.0000000 )


      isym = 43     inv. 120 deg rotation - cart. axis [1,1,-1]  

 cryst.   s(43) = (     0          0          1      )
                  (    -1          0          0      )
                  (     0          1          0      )

 cart.    s(43) = (  0.0000000 -1.0000000  0.0000000 )
                  (  0.0000000  0.0000000  1.0000000 )
                  (  1.0000000  0.0000000  0.0000000 )


      isym = 44     inv. 120 deg rotation - cart. axis [1,-1,1]  

 cryst.   s(44) = (     0          0         -1      )
                  (     1          0          0      )
                  (     0          1          0      )

 cart.    s(44) = (  0.0000000  1.0000000  0.0000000 )
                  (  0.0000000  0.0000000  1.0000000 )
                  ( -1.0000000  0.0000000  0.0000000 )


      isym = 45     inv. 120 deg rotation - cart. axis [1,1,1]   

 cryst.   s(45) = (     0         -1          0      )
                  (     0          0         -1      )
                  (    -1          0          0      )

 cart.    s(45) = (  0.0000000  0.0000000 -1.0000000 )
                  ( -1.0000000  0.0000000  0.0000000 )
                  (  0.0000000 -1.0000000  0.0000000 )


      isym = 46     inv. 120 deg rotation - cart. axis [-1,1,-1] 

 cryst.   s(46) = (     0          1          0      )
                  (     0          0          1      )
                  (    -1          0          0      )

 cart.    s(46) = (  0.0000000  0.0000000 -1.0000000 )
                  (  1.0000000  0.0000000  0.0000000 )
                  (  0.0000000  1.0000000  0.0000000 )


      isym = 47     inv. 120 deg rotation - cart. axis [1,-1,-1] 

 cryst.   s(47) = (     0          1          0      )
                  (     0          0         -1      )
                  (     1          0          0      )

 cart.    s(47) = (  0.0000000  0.0000000  1.0000000 )
                  (  1.0000000  0.0000000  0.0000000 )
                  (  0.0000000 -1.0000000  0.0000000 )


      isym = 48     inv. 120 deg rotation - cart. axis [-1,-1,1] 

 cryst.   s(48) = (     0         -1          0      )
                  (     0          0          1      )
                  (     1          0          0      )

 cart.    s(48) = (  0.0000000  0.0000000  1.0000000 )
                  ( -1.0000000  0.0000000  0.0000000 )
                  (  0.0000000  1.0000000  0.0000000 )


     point group O_h (m-3m) 
     there are 10 classes
     the character table:

       E     8C3   3C2   6C4   6C2'  i     8S6   3s_h  6S4   6s_d 
A_1g   1.00  1.00  1.00  1.00  1.00  1.00  1.00  1.00  1.00  1.00
A_2g   1.00  1.00  1.00 -1.00 -1.00  1.00  1.00  1.00 -1.00 -1.00
E_g    2.00 -1.00  2.00  0.00  0.00  2.00 -1.00  2.00  0.00  0.00
T_1g   3.00  0.00 -1.00  1.00 -1.00  3.00  0.00 -1.00  1.00 -1.00
T_2g   3.00  0.00 -1.00 -1.00  1.00  3.00  0.00 -1.00 -1.00  1.00
A_1u   1.00  1.00  1.00  1.00  1.00 -1.00 -1.00 -1.00 -1.00 -1.00
A_2u   1.00  1.00  1.00 -1.00 -1.00 -1.00 -1.00 -1.00  1.00  1.00
E_u    2.00 -1.00  2.00  0.00  0.00 -2.00  1.00 -2.00  0.00  0.00
T_1u   3.00  0.00 -1.00  1.00 -1.00 -3.00  0.00  1.00 -1.00  1.00
T_2u   3.00  0.00 -1.00 -1.00  1.00 -3.00  0.00  1.00  1.00 -1.00

     the symmetry operations in each class and the name of the first element:

     E        1
          identity                                               
     8C3     17   19   20   18   24   21   22   23
          120 deg rotation - cart. axis [-1,-1,-1]               
     3C2      2    4    3
          180 deg rotation - cart. axis [0,0,1]                  
     6C4      7    8   15   16   12   11
           90 deg rotation - cart. axis [0,0,-1]                 
     6C2'     5    6   14   13   10    9
          180 deg rotation - cart. axis [1,1,0]                  
     i       25
          inversion                                              
     8S6     41   43   44   42   48   45   46   47
          inv. 120 deg rotation - cart. axis [-1,-1,-1]          
     3s_h    26   28   27
          inv. 180 deg rotation - cart. axis [0,0,1]             
     6S4     31   32   39   40   36   35
          inv.  90 deg rotation - cart. axis [0,0,-1]            
     6s_d    29   30   38   37   34   33
          inv. 180 deg rotation - cart. axis [1,1,0]             

   Cartesian axes

     site n.     atom                  positions (alat units)
         1           Cu  tau(   1) = (   0.0000000   0.0000000   0.0000000  )
         2           Cu  tau(   2) = (   0.0000000   0.5000000   0.5000000  )
         3           Cu  tau(   3) = (   0.5000000   0.0000000   0.5000000  )
         4           Cu  tau(   4) = (   0.5000000   0.5000000   0.0000000  )

   Crystallographic axes

     site n.     atom                  positions (cryst. coord.)
         1           Cu  tau(   1) = (  0.0000000  0.0000000  0.0000000  )
         2           Cu  tau(   2) = (  0.0000000  0.5000000  0.5000000  )
         3           Cu  tau(   3) = (  0.5000000  0.0000000  0.5000000  )
         4           Cu  tau(   4) = (  0.5000000  0.5000000  0.0000000  )

     number of k points=   120  Gaussian smearing, width (Ry)=  0.0073
                       cart. coord. in units 2pi/alat
        k(    1) = (   0.0000000   0.0000000   0.0000000), wk =   0.0007289
        k(    2) = (   0.0000000   0.0000000   0.0714286), wk =   0.0043732
        k(    3) = (   0.0000000   0.0000000   0.1428571), wk =   0.0043732
        k(    4) = (   0.0000000   0.0000000   0.2142857), wk =   0.0043732
        k(    5) = (   0.0000000   0.0000000   0.2857143), wk =   0.0043732
        k(    6) = (   0.0000000   0.0000000   0.3571429), wk =   0.0043732
        k(    7) = (   0.0000000   0.0000000   0.4285714), wk =   0.0043732
        k(    8) = (   0.0000000   0.0000000  -0.5000000), wk =   0.0021866
        k(    9) = (   0.0000000   0.0714286   0.0714286), wk =   0.0087464
        k(   10) = (   0.0000000   0.0714286   0.1428571), wk =   0.0174927
        k(   11) = (   0.0000000   0.0714286   0.2142857), wk =   0.0174927
        k(   12) = (   0.0000000   0.0714286   0.2857143), wk =   0.0174927
        k(   13) = (   0.0000000   0.0714286   0.3571429), wk =   0.0174927
        k(   14) = (   0.0000000   0.0714286   0.4285714), wk =   0.0174927
        k(   15) = (   0.0000000   0.0714286  -0.5000000), wk =   0.0087464
        k(   16) = (   0.0000000   0.1428571   0.1428571), wk =   0.0087464
        k(   17) = (   0.0000000   0.1428571   0.2142857), wk =   0.0174927
        k(   18) = (   0.0000000   0.1428571   0.2857143), wk =   0.0174927
        k(   19) = (   0.0000000   0.1428571   0.3571429), wk =   0.0174927
        k(   20) = (   0.0000000   0.1428571   0.4285714), wk =   0.0174927
        k(   21) = (   0.0000000   0.1428571  -0.5000000), wk =   0.0087464
        k(   22) = (   0.0000000   0.2142857   0.2142857), wk =   0.0087464
        k(   23) = (   0.0000000   0.2142857   0.2857143), wk =   0.0174927
        k(   24) = (   0.0000000   0.2142857   0.3571429), wk =   0.0174927
        k(   25) = (   0.0000000   0.2142857   0.4285714), wk =   0.0174927
        k(   26) = (   0.0000000   0.2142857  -0.5000000), wk =   0.0087464
        k(   27) = (   0.0000000   0.2857143   0.2857143), wk =   0.0087464
        k(   28) = (   0.0000000   0.2857143   0.3571429), wk =   0.0174927
        k(   29) = (   0.0000000   0.2857143   0.4285714), wk =   0.0174927
        k(   30) = (   0.0000000   0.2857143  -0.5000000), wk =   0.0087464
        k(   31) = (   0.0000000   0.3571429   0.3571429), wk =   0.0087464
        k(   32) = (   0.0000000   0.3571429   0.4285714), wk =   0.0174927
        k(   33) = (   0.0000000   0.3571429  -0.5000000), wk =   0.0087464
        k(   34) = (   0.0000000   0.4285714   0.4285714), wk =   0.0087464
        k(   35) = (   0.0000000   0.4285714  -0.5000000), wk =   0.0087464
        k(   36) = (   0.0000000  -0.5000000  -0.5000000), wk =   0.0021866
        k(   37) = (   0.0714286   0.0714286   0.0714286), wk =   0.0058309
        k(   38) = (   0.0714286   0.0714286   0.1428571), wk =   0.0174927
        k(   39) = (   0.0714286   0.0714286   0.2142857), wk =   0.0174927
        k(   40) = (   0.0714286   0.0714286   0.2857143), wk =   0.0174927
        k(   41) = (   0.0714286   0.0714286   0.3571429), wk =   0.0174927
        k(   42) = (   0.0714286   0.0714286   0.4285714), wk =   0.0174927
        k(   43) = (   0.0714286   0.0714286  -0.5000000), wk =   0.0087464
        k(   44) = (   0.0714286   0.1428571   0.1428571), wk =   0.0174927
        k(   45) = (   0.0714286   0.1428571   0.2142857), wk =   0.0349854
        k(   46) = (   0.0714286   0.1428571   0.2857143), wk =   0.0349854
        k(   47) = (   0.0714286   0.1428571   0.3571429), wk =   0.0349854
        k(   48) = (   0.0714286   0.1428571   0.4285714), wk =   0.0349854
        k(   49) = (   0.0714286   0.1428571  -0.5000000), wk =   0.0174927
        k(   50) = (   0.0714286   0.2142857   0.2142857), wk =   0.0174927
        k(   51) = (   0.0714286   0.2142857   0.2857143), wk =   0.0349854
        k(   52) = (   0.0714286   0.2142857   0.3571429), wk =   0.0349854
        k(   53) = (   0.0714286   0.2142857   0.4285714), wk =   0.0349854
        k(   54) = (   0.0714286   0.2142857  -0.5000000), wk =   0.0174927
        k(   55) = (   0.0714286   0.2857143   0.2857143), wk =   0.0174927
        k(   56) = (   0.0714286   0.2857143   0.3571429), wk =   0.0349854
        k(   57) = (   0.0714286   0.2857143   0.4285714), wk =   0.0349854
        k(   58) = (   0.0714286   0.2857143  -0.5000000), wk =   0.0174927
        k(   59) = (   0.0714286   0.3571429   0.3571429), wk =   0.0174927
        k(   60) = (   0.0714286   0.3571429   0.4285714), wk =   0.0349854
        k(   61) = (   0.0714286   0.3571429  -0.5000000), wk =   0.0174927
        k(   62) = (   0.0714286   0.4285714   0.4285714), wk =   0.0174927
        k(   63) = (   0.0714286   0.4285714  -0.5000000), wk =   0.0174927
        k(   64) = (   0.0714286  -0.5000000  -0.5000000), wk =   0.0043732
        k(   65) = (   0.1428571   0.1428571   0.1428571), wk =   0.0058309
        k(   66) = (   0.1428571   0.1428571   0.2142857), wk =   0.0174927
        k(   67) = (   0.1428571   0.1428571   0.2857143), wk =   0.0174927
        k(   68) = (   0.1428571   0.1428571   0.3571429), wk =   0.0174927
        k(   69) = (   0.1428571   0.1428571   0.4285714), wk =   0.0174927
        k(   70) = (   0.1428571   0.1428571  -0.5000000), wk =   0.0087464
        k(   71) = (   0.1428571   0.2142857   0.2142857), wk =   0.0174927
        k(   72) = (   0.1428571   0.2142857   0.2857143), wk =   0.0349854
        k(   73) = (   0.1428571   0.2142857   0.3571429), wk =   0.0349854
        k(   74) = (   0.1428571   0.2142857   0.4285714), wk =   0.0349854
        k(   75) = (   0.1428571   0.2142857  -0.5000000), wk =   0.0174927
        k(   76) = (   0.1428571   0.2857143   0.2857143), wk =   0.0174927
        k(   77) = (   0.1428571   0.2857143   0.3571429), wk =   0.0349854
        k(   78) = (   0.1428571   0.2857143   0.4285714), wk =   0.0349854
        k(   79) = (   0.1428571   0.2857143  -0.5000000), wk =   0.0174927
        k(   80) = (   0.1428571   0.3571429   0.3571429), wk =   0.0174927
        k(   81) = (   0.1428571   0.3571429   0.4285714), wk =   0.0349854
        k(   82) = (   0.1428571   0.3571429  -0.5000000), wk =   0.0174927
        k(   83) = (   0.1428571   0.4285714   0.4285714), wk =   0.0174927
        k(   84) = (   0.1428571   0.4285714  -0.5000000), wk =   0.0174927
        k(   85) = (   0.1428571  -0.5000000  -0.5000000), wk =   0.0043732
        k(   86) = (   0.2142857   0.2142857   0.2142857), wk =   0.0058309
        k(   87) = (   0.2142857   0.2142857   0.2857143), wk =   0.0174927
        k(   88) = (   0.2142857   0.2142857   0.3571429), wk =   0.0174927
        k(   89) = (   0.2142857   0.2142857   0.4285714), wk =   0.0174927
        k(   90) = (   0.2142857   0.2142857  -0.5000000), wk =   0.0087464
        k(   91) = (   0.2142857   0.2857143   0.2857143), wk =   0.0174927
        k(   92) = (   0.2142857   0.2857143   0.3571429), wk =   0.0349854
        k(   93) = (   0.2142857   0.2857143   0.4285714), wk =   0.0349854
        k(   94) = (   0.2142857   0.2857143  -0.5000000), wk =   0.0174927
        k(   95) = (   0.2142857   0.3571429   0.3571429), wk =   0.0174927
        k(   96) = (   0.2142857   0.3571429   0.4285714), wk =   0.0349854
        k(   97) = (   0.2142857   0.3571429  -0.5000000), wk =   0.0174927
        k(   98) = (   0.2142857   0.4285714   0.4285714), wk =   0.0174927
        k(   99) = (   0.2142857   0.4285714  -0.5000000), wk =   0.0174927
        k(  100) = (   0.2142857  -0.5000000  -0.5000000), wk =   0.0043732
        k(  101) = (   0.2857143   0.2857143   0.2857143), wk =   0.0058309
        k(  102) = (   0.2857143   0.2857143   0.3571429), wk =   0.0174927
        k(  103) = (   0.2857143   0.2857143   0.4285714), wk =   0.0174927
        k(  104) = (   0.2857143   0.2857143  -0.5000000), wk =   0.0087464
        k(  105) = (   0.2857143   0.3571429   0.3571429), wk =   0.0174927
        k(  106) = (   0.2857143   0.3571429   0.4285714), wk =   0.0349854
        k(  107) = (   0.2857143   0.3571429  -0.5000000), wk =   0.0174927
        k(  108) = (   0.2857143   0.4285714   0.4285714), wk =   0.0174927
        k(  109) = (   0.2857143   0.4285714  -0.5000000), wk =   0.0174927
        k(  110) = (   0.2857143  -0.5000000  -0.5000000), wk =   0.0043732
        k(  111) = (   0.3571429   0.3571429   0.3571429), wk =   0.0058309
        k(  112) = (   0.3571429   0.3571429   0.4285714), wk =   0.0174927
        k(  113) = (   0.3571429   0.3571429  -0.5000000), wk =   0.0087464
        k(  114) = (   0.3571429   0.4285714   0.4285714), wk =   0.0174927
        k(  115) = (   0.3571429   0.4285714  -0.5000000), wk =   0.0174927
        k(  116) = (   0.3571429  -0.5000000  -0.5000000), wk =   0.0043732
        k(  117) = (   0.4285714   0.4285714   0.4285714), wk =   0.0058309
        k(  118) = (   0.4285714   0.4285714  -0.5000000), wk =   0.0087464
        k(  119) = (   0.4285714  -0.5000000  -0.5000000), wk =   0.0043732
        k(  120) = (  -0.5000000  -0.5000000  -0.5000000), wk =   0.0007289

                       cryst. coord.
        k(    1) = (   0.0000000   0.0000000   0.0000000), wk =   0.0007289
        k(    2) = (   0.0000000   0.0000000   0.0714286), wk =   0.0043732
        k(    3) = (   0.0000000   0.0000000   0.1428571), wk =   0.0043732
        k(    4) = (   0.0000000   0.0000000   0.2142857), wk =   0.0043732
        k(    5) = (   0.0000000   0.0000000   0.2857143), wk =   0.0043732
        k(    6) = (   0.0000000   0.0000000   0.3571429), wk =   0.0043732
        k(    7) = (   0.0000000   0.0000000   0.4285714), wk =   0.0043732
        k(    8) = (   0.0000000   0.0000000  -0.5000000), wk =   0.0021866
        k(    9) = (   0.0000000   0.0714286   0.0714286), wk =   0.0087464
        k(   10) = (   0.0000000   0.0714286   0.1428571), wk =   0.0174927
        k(   11) = (   0.0000000   0.0714286   0.2142857), wk =   0.0174927
        k(   12) = (   0.0000000   0.0714286   0.2857143), wk =   0.0174927
        k(   13) = (   0.0000000   0.0714286   0.3571429), wk =   0.0174927
        k(   14) = (   0.0000000   0.0714286   0.4285714), wk =   0.0174927
        k(   15) = (   0.0000000   0.0714286  -0.5000000), wk =   0.0087464
        k(   16) = (   0.0000000   0.1428571   0.1428571), wk =   0.0087464
        k(   17) = (   0.0000000   0.1428571   0.2142857), wk =   0.0174927
        k(   18) = (   0.0000000   0.1428571   0.2857143), wk =   0.0174927
        k(   19) = (   0.0000000   0.1428571   0.3571429), wk =   0.0174927
        k(   20) = (   0.0000000   0.1428571   0.4285714), wk =   0.0174927
        k(   21) = (   0.0000000   0.1428571  -0.5000000), wk =   0.0087464
        k(   22) = (   0.0000000   0.2142857   0.2142857), wk =   0.0087464
        k(   23) = (   0.0000000   0.2142857   0.2857143), wk =   0.0174927
        k(   24) = (   0.0000000   0.2142857   0.3571429), wk =   0.0174927
        k(   25) = (   0.0000000   0.2142857   0.4285714), wk =   0.0174927
        k(   26) = (   0.0000000   0.2142857  -0.5000000), wk =   0.0087464
        k(   27) = (   0.0000000   0.2857143   0.2857143), wk =   0.0087464
        k(   28) = (   0.0000000   0.2857143   0.3571429), wk =   0.0174927
        k(   29) = (   0.0000000   0.2857143   0.4285714), wk =   0.0174927
        k(   30) = (   0.0000000   0.2857143  -0.5000000), wk =   0.0087464
        k(   31) = (   0.0000000   0.3571429   0.3571429), wk =   0.0087464
        k(   32) = (   0.0000000   0.3571429   0.4285714), wk =   0.0174927
        k(   33) = (   0.0000000   0.3571429  -0.5000000), wk =   0.0087464
        k(   34) = (   0.0000000   0.4285714   0.4285714), wk =   0.0087464
        k(   35) = (   0.0000000   0.4285714  -0.5000000), wk =   0.0087464
        k(   36) = (   0.0000000  -0.5000000  -0.5000000), wk =   0.0021866
        k(   37) = (   0.0714286   0.0714286   0.0714286), wk =   0.0058309
        k(   38) = (   0.0714286   0.0714286   0.1428571), wk =   0.0174927
        k(   39) = (   0.0714286   0.0714286   0.2142857), wk =   0.0174927
        k(   40) = (   0.0714286   0.0714286   0.2857143), wk =   0.0174927
        k(   41) = (   0.0714286   0.0714286   0.3571429), wk =   0.0174927
        k(   42) = (   0.0714286   0.0714286   0.4285714), wk =   0.0174927
        k(   43) = (   0.0714286   0.0714286  -0.5000000), wk =   0.0087464
        k(   44) = (   0.0714286   0.1428571   0.1428571), wk =   0.0174927
        k(   45) = (   0.0714286   0.1428571   0.2142857), wk =   0.0349854
        k(   46) = (   0.0714286   0.1428571   0.2857143), wk =   0.0349854
        k(   47) = (   0.0714286   0.1428571   0.3571429), wk =   0.0349854
        k(   48) = (   0.0714286   0.1428571   0.4285714), wk =   0.0349854
        k(   49) = (   0.0714286   0.1428571  -0.5000000), wk =   0.0174927
        k(   50) = (   0.0714286   0.2142857   0.2142857), wk =   0.0174927
        k(   51) = (   0.0714286   0.2142857   0.2857143), wk =   0.0349854
        k(   52) = (   0.0714286   0.2142857   0.3571429), wk =   0.0349854
        k(   53) = (   0.0714286   0.2142857   0.4285714), wk =   0.0349854
        k(   54) = (   0.0714286   0.2142857  -0.5000000), wk =   0.0174927
        k(   55) = (   0.0714286   0.2857143   0.2857143), wk =   0.0174927
        k(   56) = (   0.0714286   0.2857143   0.3571429), wk =   0.0349854
        k(   57) = (   0.0714286   0.2857143   0.4285714), wk =   0.0349854
        k(   58) = (   0.0714286   0.2857143  -0.5000000), wk =   0.0174927
        k(   59) = (   0.0714286   0.3571429   0.3571429), wk =   0.0174927
        k(   60) = (   0.0714286   0.3571429   0.4285714), wk =   0.0349854
        k(   61) = (   0.0714286   0.3571429  -0.5000000), wk =   0.0174927
        k(   62) = (   0.0714286   0.4285714   0.4285714), wk =   0.0174927
        k(   63) = (   0.0714286   0.4285714  -0.5000000), wk =   0.0174927
        k(   64) = (   0.0714286  -0.5000000  -0.5000000), wk =   0.0043732
        k(   65) = (   0.1428571   0.1428571   0.1428571), wk =   0.0058309
        k(   66) = (   0.1428571   0.1428571   0.2142857), wk =   0.0174927
        k(   67) = (   0.1428571   0.1428571   0.2857143), wk =   0.0174927
        k(   68) = (   0.1428571   0.1428571   0.3571429), wk =   0.0174927
        k(   69) = (   0.1428571   0.1428571   0.4285714), wk =   0.0174927
        k(   70) = (   0.1428571   0.1428571  -0.5000000), wk =   0.0087464
        k(   71) = (   0.1428571   0.2142857   0.2142857), wk =   0.0174927
        k(   72) = (   0.1428571   0.2142857   0.2857143), wk =   0.0349854
        k(   73) = (   0.1428571   0.2142857   0.3571429), wk =   0.0349854
        k(   74) = (   0.1428571   0.2142857   0.4285714), wk =   0.0349854
        k(   75) = (   0.1428571   0.2142857  -0.5000000), wk =   0.0174927
        k(   76) = (   0.1428571   0.2857143   0.2857143), wk =   0.0174927
        k(   77) = (   0.1428571   0.2857143   0.3571429), wk =   0.0349854
        k(   78) = (   0.1428571   0.2857143   0.4285714), wk =   0.0349854
        k(   79) = (   0.1428571   0.2857143  -0.5000000), wk =   0.0174927
        k(   80) = (   0.1428571   0.3571429   0.3571429), wk =   0.0174927
        k(   81) = (   0.1428571   0.3571429   0.4285714), wk =   0.0349854
        k(   82) = (   0.1428571   0.3571429  -0.5000000), wk =   0.0174927
        k(   83) = (   0.1428571   0.4285714   0.4285714), wk =   0.0174927
        k(   84) = (   0.1428571   0.4285714  -0.5000000), wk =   0.0174927
        k(   85) = (   0.1428571  -0.5000000  -0.5000000), wk =   0.0043732
        k(   86) = (   0.2142857   0.2142857   0.2142857), wk =   0.0058309
        k(   87) = (   0.2142857   0.2142857   0.2857143), wk =   0.0174927
        k(   88) = (   0.2142857   0.2142857   0.3571429), wk =   0.0174927
        k(   89) = (   0.2142857   0.2142857   0.4285714), wk =   0.0174927
        k(   90) = (   0.2142857   0.2142857  -0.5000000), wk =   0.0087464
        k(   91) = (   0.2142857   0.2857143   0.2857143), wk =   0.0174927
        k(   92) = (   0.2142857   0.2857143   0.3571429), wk =   0.0349854
        k(   93) = (   0.2142857   0.2857143   0.4285714), wk =   0.0349854
        k(   94) = (   0.2142857   0.2857143  -0.5000000), wk =   0.0174927
        k(   95) = (   0.2142857   0.3571429   0.3571429), wk =   0.0174927
        k(   96) = (   0.2142857   0.3571429   0.4285714), wk =   0.0349854
        k(   97) = (   0.2142857   0.3571429  -0.5000000), wk =   0.0174927
        k(   98) = (   0.2142857   0.4285714   0.4285714), wk =   0.0174927
        k(   99) = (   0.2142857   0.4285714  -0.5000000), wk =   0.0174927
        k(  100) = (   0.2142857  -0.5000000  -0.5000000), wk =   0.0043732
        k(  101) = (   0.2857143   0.2857143   0.2857143), wk =   0.0058309
        k(  102) = (   0.2857143   0.2857143   0.3571429), wk =   0.0174927
        k(  103) = (   0.2857143   0.2857143   0.4285714), wk =   0.0174927
        k(  104) = (   0.2857143   0.2857143  -0.5000000), wk =   0.0087464
        k(  105) = (   0.2857143   0.3571429   0.3571429), wk =   0.0174927
        k(  106) = (   0.2857143   0.3571429   0.4285714), wk =   0.0349854
        k(  107) = (   0.2857143   0.3571429  -0.5000000), wk =   0.0174927
        k(  108) = (   0.2857143   0.4285714   0.4285714), wk =   0.0174927
        k(  109) = (   0.2857143   0.4285714  -0.5000000), wk =   0.0174927
        k(  110) = (   0.2857143  -0.5000000  -0.5000000), wk =   0.0043732
        k(  111) = (   0.3571429   0.3571429   0.3571429), wk =   0.0058309
        k(  112) = (   0.3571429   0.3571429   0.4285714), wk =   0.0174927
        k(  113) = (   0.3571429   0.3571429  -0.5000000), wk =   0.0087464
        k(  114) = (   0.3571429   0.4285714   0.4285714), wk =   0.0174927
        k(  115) = (   0.3571429   0.4285714  -0.5000000), wk =   0.0174927
        k(  116) = (   0.3571429  -0.5000000  -0.5000000), wk =   0.0043732
        k(  117) = (   0.4285714   0.4285714   0.4285714), wk =   0.0058309
        k(  118) = (   0.4285714   0.4285714  -0.5000000), wk =   0.0087464
        k(  119) = (   0.4285714  -0.5000000  -0.5000000), wk =   0.0043732
        k(  120) = (  -0.5000000  -0.5000000  -0.5000000), wk =   0.0007289

     Dense  grid:    41851 G-vectors     FFT dimensions: (  45,  45,  45)

     Dynamical RAM for                 wfc:       0.54 MB

     Dynamical RAM for     wfc (w. buffer):      65.65 MB

     Dynamical RAM for           str. fact:       0.06 MB

     Dynamical RAM for           local pot:       0.00 MB

     Dynamical RAM for          nlocal pot:       0.85 MB

     Dynamical RAM for                qrad:       1.61 MB

     Dynamical RAM for          rho,v,vnew:       0.42 MB

     Dynamical RAM for               rhoin:       0.14 MB

     Dynamical RAM for            rho*nmix:       1.02 MB

     Dynamical RAM for           G-vectors:       0.27 MB

     Dynamical RAM for          h,s,v(r/c):       0.39 MB

     Dynamical RAM for          <psi|beta>:       0.05 MB

     Dynamical RAM for                 psi:       1.09 MB

     Dynamical RAM for                hpsi:       1.09 MB

     Dynamical RAM for                spsi:       1.09 MB

     Dynamical RAM for      wfcinit/wfcrot:       1.13 MB

     Dynamical RAM for           addusdens:      12.14 MB

     Estimated static dynamical RAM per process >      69.52 MB

     Estimated max dynamical RAM per process >      82.68 MB

     Estimated total dynamical RAM >     826.78 MB

     Check: negative core charge=   -0.000003

     The initial density is read from file :
     ./out/Cu.save/charge-density

     Starting wfcs from file
     Checking if some PAW data can be deallocated... 

     total cpu time spent up to now is        1.9 secs

     Self-consistent Calculation

     iteration #  1     ecut=   130.00 Ry     beta= 0.70
     Davidson diagonalization with overlap

---- Real-time Memory Report at c_bands before calling an iterative solver
           105 MiB given to the printing process from OS
             0 MiB allocation reported by mallinfo(arena+hblkhd)
           450 MiB available memory on the node where the printing process lives
------------------
     ethr =  1.00E-05,  avg # of iterations =  1.0

     Threshold (ethr) on eigenvalues was too large:
     Diagonalizing with lowered threshold

     Davidson diagonalization with overlap

---- Real-time Memory Report at c_bands before calling an iterative solver
           122 MiB given to the printing process from OS
             0 MiB allocation reported by mallinfo(arena+hblkhd)
           412 MiB available memory on the node where the printing process lives
------------------
     ethr =  3.78E-11,  avg # of iterations =  1.0

     total cpu time spent up to now is       61.6 secs

     total energy              =   -1947.54861971 Ry
     estimated scf accuracy    <       0.00000003 Ry

     iteration #  2     ecut=   130.00 Ry     beta= 0.70
     Davidson diagonalization with overlap

---- Real-time Memory Report at c_bands before calling an iterative solver
           122 MiB given to the printing process from OS
             0 MiB allocation reported by mallinfo(arena+hblkhd)
           621 MiB available memory on the node where the printing process lives
------------------
     ethr =  3.79E-11,  avg # of iterations =  2.0

     total cpu time spent up to now is       97.7 secs

     total energy              =   -1947.54862103 Ry
     estimated scf accuracy    <       0.00000002 Ry

     iteration #  3     ecut=   130.00 Ry     beta= 0.70
     Davidson diagonalization with overlap

---- Real-time Memory Report at c_bands before calling an iterative solver
           122 MiB given to the printing process from OS
             0 MiB allocation reported by mallinfo(arena+hblkhd)
           589 MiB available memory on the node where the printing process lives
------------------
     ethr =  2.13E-11,  avg # of iterations =  2.0

     total cpu time spent up to now is      140.9 secs

     total energy              =   -1947.54862154 Ry
     estimated scf accuracy    <       0.00000010 Ry

     iteration #  4     ecut=   130.00 Ry     beta= 0.70
     Davidson diagonalization with overlap

---- Real-time Memory Report at c_bands before calling an iterative solver
           122 MiB given to the printing process from OS
             0 MiB allocation reported by mallinfo(arena+hblkhd)
           563 MiB available memory on the node where the printing process lives
------------------
     ethr =  2.13E-11,  avg # of iterations =  2.0

     total cpu time spent up to now is      181.8 secs

     End of self-consistent calculation

          k = 0.0000 0.0000 0.0000 (  7809 PWs)   bands (ev):

   -95.7762 -95.7548 -95.7547 -95.7547 -53.1970 -53.1970 -53.1970 -53.1282
   -53.1282 -53.1282 -53.1281 -53.1281 -53.1281 -53.0816 -53.0816 -53.0816
     7.2456  11.8300  11.8300  11.8300  12.3218  12.3218  12.3218  13.8049
    13.8049  13.8049  14.6795  14.6795  15.2637  15.2637  15.2637  15.4351
    15.4351  15.4351  15.4351  15.4351  15.4351  18.3476  18.3476  18.3476
    24.2178  24.2178  24.2178  30.2278  30.2278  30.2278

     occupation numbers 
     1.0000   1.0000   1.0000   1.0000   1.0000   1.0000   1.0000   1.0000
     1.0000   1.0000   1.0000   1.0000   1.0000   1.0000   1.0000   1.0000
     1.0000   1.0000   1.0000   1.0000   1.0000   1.0000   1.0000   1.0000
     1.0000   1.0000   1.0000   1.0000   1.0000   1.0000   1.0000   1.0000
     1.0000   1.0000   1.0000   1.0000   1.0000   0.0000   0.0000   0.0000
     0.0000   0.0000   0.0000   0.0000   0.0000   0.0000

          k = 0.0000 0.0000 0.0714 (  7761 PWs)   bands (ev):

   -95.7760 -95.7550 -95.7547 -95.7547 -53.1961 -53.1961 -53.1955 -53.1290
   -53.1290 -53.1282 -53.1281 -53.1276 -53.1276 -53.0831 -53.0822 -53.0822
     7.3094  11.8295  11.8606  11.8606  12.3393  12.3402  12.3402  13.7852
    13.8205  13.8205  14.6615  14.6866  15.2405  15.2405  15.2562  15.3118
    15.3118  15.4077  15.4077  15.4351  15.4351  17.9582  18.5270  18.5270
    24.2397  24.2397  24.7308  29.7952  29.7952  29.9548

     occupation numbers 
     1.0000   1.0000   1.0000   1.0000   1.0000   1.0000   1.0000   1.0000
     1.0000   1.0000   1.0000   1.0000   1.0000   1.0000   1.0000   1.0000
     1.0000   1.0000   1.0000   1.0000   1.0000   1.0000   1.0000   1.0000
     1.0000   1.0000   1.0000   1.0000   1.0000   1.0000   1.0000   1.0000
     1.0000   1.0000   1.0000   1.0000   1.0000   0.0000   0.0000   0.0000
     0.0000   0.0000   0.0000   0.0000   0.0000   0.0000

          k = 0.0000 0.0000 0.1429 (  7737 PWs)   bands (ev):

   -95.7752 -95.7558 -95.7547 -95.7547 -53.1935 -53.1935 -53.1914 -53.1315
   -53.1315 -53.1282 -53.1282 -53.1258 -53.1258 -53.0875 -53.0839 -53.0839
     7.4995  11.8186  11.9493  11.9493  12.3911  12.3956  12.3956  13.7271
    13.8669  13.8669  14.6093  14.7077  15.0097  15.0097  15.1725  15.1725
    15.2340  15.3284  15.3284  15.4352  15.4352  17.0734  18.9972  18.9972
    24.3069  24.3069  25.9937  28.8279  28.8279  29.2840

     occupation numbers 
     1.0000   1.0000   1.0000   1.0000   1.0000   1.0000   1.0000   1.0000
     1.0000   1.0000   1.0000   1.0000   1.0000   1.0000   1.0000   1.0000
     1.0000   1.0000   1.0000   1.0000   1.0000   1.0000   1.0000   1.0000
     1.0000   1.0000   1.0000   1.0000   1.0000   1.0000   1.0000   1.0000
     1.0000   1.0000   1.0000   1.0000   1.0000   0.0373   0.0000   0.0000
     0.0000   0.0000   0.0000   0.0000   0.0000   0.0000

          k = 0.0000 0.0000 0.2143 (  7769 PWs)   bands (ev):

   -95.7739 -95.7571 -95.7547 -95.7547 -53.1895 -53.1895 -53.1847 -53.1356
   -53.1356 -53.1283 -53.1283 -53.1230 -53.1230 -53.0945 -53.0867 -53.0867
     7.8128  11.7662  12.0864  12.0864  12.4749  12.4886  12.4886  13.6340
    13.9434  13.9434  14.5274  14.6347  14.6347  14.7418  15.0651  15.0651
    15.1985  15.2052  15.2052  15.4354  15.4354  16.0793  19.6515  19.6515
    24.4241  24.4241  27.6446  27.6919  27.6919  28.4588

     occupation numbers 
     1.0000   1.0000   1.0000   1.0000   1.0000   1.0000   1.0000   1.0000
     1.0000   1.0000   1.0000   1.0000   1.0000   1.0000   1.0000   1.0000
     1.0000   1.0000   1.0000   1.0000   1.0000   1.0000   1.0000   1.0000
     1.0000   1.0000   1.0000   1.0000   1.0000   1.0000   1.0000   1.0000
     1.0000   1.0000   1.0000   1.0000   1.0000   1.0000   0.0000   0.0000
     0.0000   0.0000   0.0000   0.0000   0.0000   0.0000

          k = 0.0000 0.0000 0.2857 (  7748 PWs)   bands (ev):

   -95.7722 -95.7588 -95.7547 -95.7547 -53.1840 -53.1840 -53.1757 -53.1411
   -53.1411 -53.1285 -53.1284 -53.1194 -53.1194 -53.1038 -53.0904 -53.0904
     8.2428  11.6103  12.2542  12.2542  12.5873  12.6203  12.6203  13.5115
    14.0485  14.0485  14.2498  14.2498  14.4244  14.7872  14.9300  14.9300
    15.0491  15.0491  15.1514  15.2024  15.4356  15.4356  20.4255  20.4255
    24.5986  24.5986  26.5269  26.5269  27.6345  27.6345

     occupation numbers 
     1.0000   1.0000   1.0000   1.0000   1.0000   1.0000   1.0000   1.0000
     1.0000   1.0000   1.0000   1.0000   1.0000   1.0000   1.0000   1.0000
     1.0000   1.0000   1.0000   1.0000   1.0000   1.0000   1.0000   1.0000
     1.0000   1.0000   1.0000   1.0000   1.0000   1.0000   1.0000   1.0000
     1.0000   1.0000   1.0000   1.0000   1.0000   1.0000   0.0000   0.0000
     0.0000   0.0000   0.0000   0.0000   0.0000   0.0000

          k = 0.0000 0.0000 0.3571 (  7736 PWs)   bands (ev):

   -95.7701 -95.7608 -95.7547 -95.7547 -53.1775 -53.1775 -53.1649 -53.1476
   -53.1476 -53.1286 -53.1285 -53.1150 -53.1150 -53.1149 -53.0948 -53.0948
     8.7787  11.2718  12.4246  12.4246  12.7233  12.7916  12.7916  13.3663
    13.8843  13.8843  14.1798  14.1798  14.3145  14.5853  14.7887  14.7887
    14.8419  14.8726  14.8726  15.0953  15.4357  15.4358  21.2880  21.2880
    24.8376  24.8376  25.3818  25.3818  26.8894  26.8894

     occupation numbers 
     1.0000   1.0000   1.0000   1.0000   1.0000   1.0000   1.0000   1.0000
     1.0000   1.0000   1.0000   1.0000   1.0000   1.0000   1.0000   1.0000
     1.0000   1.0000   1.0000   1.0000   1.0000   1.0000   1.0000   1.0000
     1.0000   1.0000   1.0000   1.0000   1.0000   1.0000   1.0000   1.0000
     1.0000   1.0000   1.0000   1.0000   1.0000   1.0000   0.0000   0.0000
     0.0000   0.0000   0.0000   0.0000   0.0000   0.0000

          k = 0.0000 0.0000 0.4286 (  7740 PWs)   bands (ev):

   -95.7679 -95.7631 -95.7547 -95.7547 -53.1702 -53.1702 -53.1549 -53.1549
   -53.1529 -53.1287 -53.1286 -53.1272 -53.1101 -53.1101 -53.0997 -53.0997
     9.4010  10.7318  12.5576  12.5576  12.8768  13.0037  13.0037  13.2065
    13.5514  13.5514  14.2211  14.2711  14.3337  14.3337  14.6756  14.6757
    14.6879  14.6879  14.9031  15.0331  15.4358  15.4359  22.2230  22.2230
    24.2767  24.2767  25.1376  25.1376  26.2714  26.2715

     occupation numbers 
     1.0000   1.0000   1.0000   1.0000   1.0000   1.0000   1.0000   1.0000
     1.0000   1.0000   1.0000   1.0000   1.0000   1.0000   1.0000   1.0000
     1.0000   1.0000   1.0000   1.0000   1.0000   1.0000   1.0000   1.0000
     1.0000   1.0000   1.0000   1.0000   1.0000   1.0000   1.0000   1.0000
     1.0000   1.0000   1.0000   1.0000   1.0000   1.0000   0.0000   0.0000
     0.0000   0.0000   0.0000   0.0000   0.0000   0.0000

          k = 0.0000 0.0000-0.5000 (  7752 PWs)   bands (ev):

   -95.7655 -95.7655 -95.7547 -95.7547 -53.1625 -53.1625 -53.1625 -53.1625
   -53.1401 -53.1401 -53.1287 -53.1286 -53.1049 -53.1049 -53.1049 -53.1049
    10.0740  10.0740  12.6090  12.6091  13.0405  13.0406  13.2571  13.2571
    13.2572  13.2572  14.1837  14.1837  14.5053  14.5053  14.5053  14.5053
    14.6312  14.6313  14.9679  14.9679  15.4359  15.4359  23.2215  23.2215
    23.2215  23.2215  25.3631  25.3632  25.9377  25.9377

     occupation numbers 
     1.0000   1.0000   1.0000   1.0000   1.0000   1.0000   1.0000   1.0000
     1.0000   1.0000   1.0000   1.0000   1.0000   1.0000   1.0000   1.0000
     1.0000   1.0000   1.0000   1.0000   1.0000   1.0000   1.0000   1.0000
     1.0000   1.0000   1.0000   1.0000   1.0000   1.0000   1.0000   1.0000
     1.0000   1.0000   1.0000   1.0000   1.0000   1.0000   0.0000   0.0000
     0.0000   0.0000   0.0000   0.0000   0.0000   0.0000

          k = 0.0000 0.0714 0.0714 (  7737 PWs)   bands (ev):

   -95.7757 -95.7550 -95.7550 -95.7547 -53.1952 -53.1947 -53.1947 -53.1307
   -53.1284 -53.1284 -53.1275 -53.1275 -53.1273 -53.0854 -53.0828 -53.0820
     7.3729  11.8606  11.8606  11.8907  12.3574  12.3574  12.3581  13.7738
    13.8280  13.8349  14.6565  14.6821  15.2179  15.2180  15.2180  15.2181
    15.2942  15.2942  15.4077  15.4077  15.4177  18.1364  18.1364  18.6946
    24.2616  24.7592  24.7592  28.8842  29.8844  29.8844

     occupation numbers 
     1.0000   1.0000   1.0000   1.0000   1.0000   1.0000   1.0000   1.0000
     1.0000   1.0000   1.0000   1.0000   1.0000   1.0000   1.0000   1.0000
     1.0000   1.0000   1.0000   1.0000   1.0000   1.0000   1.0000   1.0000
     1.0000   1.0000   1.0000   1.0000   1.0000   1.0000   1.0000   1.0000
     1.0000   1.0000   1.0000   1.0000   1.0000   0.0000   0.0000   0.0000
     0.0000   0.0000   0.0000   0.0000   0.0000   0.0000

          k = 0.0000 0.0714 0.1429 (  7763 PWs)   bands (ev):

   -95.7749 -95.7558 -95.7550 -95.7547 -53.1927 -53.1924 -53.1908 -53.1338
   -53.1309 -53.1275 -53.1267 -53.1267 -53.1258 -53.0903 -53.0845 -53.0831
     7.5624  11.8514  11.9509  11.9779  12.4084  12.4120  12.4120  13.7210
    13.8700  13.8777  14.6106  14.7005  14.9482  14.9551  15.1358  15.1522
    15.1807  15.2557  15.3283  15.4076  15.4082  17.2620  18.5934  19.1422
    24.3285  24.8463  26.0312  27.7480  28.9106  29.3670

     occupation numbers 
     1.0000   1.0000   1.0000   1.0000   1.0000   1.0000   1.0000   1.0000
     1.0000   1.0000   1.0000   1.0000   1.0000   1.0000   1.0000   1.0000
     1.0000   1.0000   1.0000   1.0000   1.0000   1.0000   1.0000   1.0000
     1.0000   1.0000   1.0000   1.0000   1.0000   1.0000   1.0000   1.0000
     1.0000   1.0000   1.0000   1.0000   1.0000   0.0000   0.0000   0.0000
     0.0000   0.0000   0.0000   0.0000   0.0000   0.0000

          k = 0.0000 0.0714 0.2143 (  7744 PWs)   bands (ev):

   -95.7737 -95.7570 -95.7550 -95.7547 -53.1886 -53.1886 -53.1843 -53.1380
   -53.1350 -53.1275 -53.1265 -53.1239 -53.1229 -53.0974 -53.0873 -53.0856
     7.8746  11.8017  12.0906  12.1128  12.4911  12.5022  12.5038  13.6307
    13.9452  13.9472  14.5330  14.5817  14.5960  14.7373  14.9767  15.0480
    15.0714  15.2049  15.2063  15.4059  15.4076  16.3122  19.2142  19.7766
    24.4427  24.9977  26.6024  27.6870  27.7715  28.5342

     occupation numbers 
     1.0000   1.0000   1.0000   1.0000   1.0000   1.0000   1.0000   1.0000
     1.0000   1.0000   1.0000   1.0000   1.0000   1.0000   1.0000   1.0000
     1.0000   1.0000   1.0000   1.0000   1.0000   1.0000   1.0000   1.0000
     1.0000   1.0000   1.0000   1.0000   1.0000   1.0000   1.0000   1.0000
     1.0000   1.0000   1.0000   1.0000   1.0000   1.0000   0.0000   0.0000
     0.0000   0.0000   0.0000   0.0000   0.0000   0.0000

          k = 0.0000 0.0714 0.2857 (  7730 PWs)   bands (ev):

   -95.7720 -95.7587 -95.7549 -95.7548 -53.1835 -53.1832 -53.1758 -53.1433
   -53.1404 -53.1275 -53.1265 -53.1202 -53.1190 -53.1066 -53.0910 -53.0892
     8.3031  11.6495  12.2621  12.2786  12.6018  12.6288  12.6335  13.5107
    14.0379  14.0496  14.2006  14.2269  14.4399  14.7176  14.7872  14.9167
    14.9364  15.0487  15.1352  15.4054  15.4074  15.5593  19.9342  20.5358
    24.5934  25.2218  25.5206  26.6058  27.7035  28.7566

     occupation numbers 
     1.0000   1.0000   1.0000   1.0000   1.0000   1.0000   1.0000   1.0000
     1.0000   1.0000   1.0000   1.0000   1.0000   1.0000   1.0000   1.0000
     1.0000   1.0000   1.0000   1.0000   1.0000   1.0000   1.0000   1.0000
     1.0000   1.0000   1.0000   1.0000   1.0000   1.0000   1.0000   1.0000
     1.0000   1.0000   1.0000   1.0000   1.0000   1.0000   0.0000   0.0000
     0.0000   0.0000   0.0000   0.0000   0.0000   0.0000

          k = 0.0000 0.0714 0.3571 (  7743 PWs)   bands (ev):

   -95.7700 -95.7607 -95.7549 -95.7548 -53.1774 -53.1767 -53.1654 -53.1495
   -53.1469 -53.1274 -53.1267 -53.1173 -53.1158 -53.1145 -53.0955 -53.0936
     8.8368  11.3152  12.4374  12.4488  12.7358  12.7911  12.8023  13.3682
    13.8411  13.8727  14.1259  14.1804  14.3677  14.3870  14.7796  14.7948
    14.8477  14.8722  14.9844  15.1894  15.4056  15.4072  20.7230  21.3876
    24.3295  24.9808  25.4618  25.5241  26.9563  27.9349

     occupation numbers 
     1.0000   1.0000   1.0000   1.0000   1.0000   1.0000   1.0000   1.0000
     1.0000   1.0000   1.0000   1.0000   1.0000   1.0000   1.0000   1.0000
     1.0000   1.0000   1.0000   1.0000   1.0000   1.0000   1.0000   1.0000
     1.0000   1.0000   1.0000   1.0000   1.0000   1.0000   1.0000   1.0000
     1.0000   1.0000   1.0000   1.0000   1.0000   1.0000   0.0000   0.0000
     0.0000   0.0000   0.0000   0.0000   0.0000   0.0000

          k = 0.0000 0.0714 0.4286 (  7754 PWs)   bands (ev):

   -95.7677 -95.7630 -95.7549 -95.7548 -53.1707 -53.1694 -53.1564 -53.1542
   -53.1538 -53.1292 -53.1273 -53.1269 -53.1108 -53.1094 -53.1004 -53.0987
     9.4563  10.7794  12.5762  12.5829  12.8869  12.9904  13.0109  13.2112
    13.5159  13.5480  14.1336  14.1667  14.3339  14.4135  14.6710  14.6798
    14.6875  14.7604  14.9160  15.0715  15.4060  15.4068  21.5658  22.3150
    23.3886  24.3592  25.2563  25.8512  26.3908  27.1921

     occupation numbers 
     1.0000   1.0000   1.0000   1.0000   1.0000   1.0000   1.0000   1.0000
     1.0000   1.0000   1.0000   1.0000   1.0000   1.0000   1.0000   1.0000
     1.0000   1.0000   1.0000   1.0000   1.0000   1.0000   1.0000   1.0000
     1.0000   1.0000   1.0000   1.0000   1.0000   1.0000   1.0000   1.0000
     1.0000   1.0000   1.0000   1.0000   1.0000   1.0000   0.0000   0.0000
     0.0000   0.0000   0.0000   0.0000   0.0000   0.0000

          k = 0.0000 0.0714-0.5000 (  7736 PWs)   bands (ev):

   -95.7654 -95.7653 -95.7549 -95.7548 -53.1635 -53.1635 -53.1618 -53.1618
   -53.1416 -53.1416 -53.1271 -53.1271 -53.1056 -53.1056 -53.1040 -53.1040
    10.1257  10.1257  12.6327  12.6327  13.0480  13.0480  13.2313  13.2314
    13.2597  13.2598  14.1073  14.1073  14.5052  14.5052  14.5651  14.5651
    14.6314  14.6314  14.9903  14.9903  15.4064  15.4064  22.4557  22.4557
    23.3079  23.3079  25.6517  25.6517  26.5785  26.5785

     occupation numbers 
     1.0000   1.0000   1.0000   1.0000   1.0000   1.0000   1.0000   1.0000
     1.0000   1.0000   1.0000   1.0000   1.0000   1.0000   1.0000   1.0000
     1.0000   1.0000   1.0000   1.0000   1.0000   1.0000   1.0000   1.0000
     1.0000   1.0000   1.0000   1.0000   1.0000   1.0000   1.0000   1.0000
     1.0000   1.0000   1.0000   1.0000   1.0000   1.0000   0.0000   0.0000
     0.0000   0.0000   0.0000   0.0000   0.0000   0.0000

          k = 0.0000 0.1429 0.1429 (  7749 PWs)   bands (ev):

   -95.7742 -95.7558 -95.7557 -95.7548 -53.1902 -53.1889 -53.1889 -53.1378
   -53.1292 -53.1292 -53.1255 -53.1255 -53.1249 -53.0960 -53.0863 -53.0830
     7.7500  11.9465  11.9465  12.0607  12.4608  12.4608  12.4613  13.6873
    13.8956  13.9093  14.5933  14.7016  14.7594  14.8168  14.8168  15.0924
    15.1788  15.1788  15.3279  15.3279  15.3659  17.7118  17.7118  19.5424
    24.3914  26.1452  26.1452  26.4873  29.1552  29.1552

     occupation numbers 
     1.0000   1.0000   1.0000   1.0000   1.0000   1.0000   1.0000   1.0000
     1.0000   1.0000   1.0000   1.0000   1.0000   1.0000   1.0000   1.0000
     1.0000   1.0000   1.0000   1.0000   1.0000   1.0000   1.0000   1.0000
     1.0000   1.0000   1.0000   1.0000   1.0000   1.0000   1.0000   1.0000
     1.0000   1.0000   1.0000   1.0000   1.0000   0.0000   0.0000   0.0000
     0.0000   0.0000   0.0000   0.0000   0.0000   0.0000

          k = 0.0000 0.1429 0.2143 (  7745 PWs)   bands (ev):

   -95.7729 -95.7569 -95.7557 -95.7548 -53.1862 -53.1860 -53.1833 -53.1426
   -53.1332 -53.1263 -53.1252 -53.1236 -53.1223 -53.1037 -53.0891 -53.0845
     8.0589  11.9051  12.0944  12.1891  12.5397  12.5432  12.5486  13.6126
    13.9588  13.9594  14.4398  14.4767  14.5352  14.6110  14.7390  14.9971
    15.0739  15.1469  15.2040  15.3272  15.3411  16.7752  18.2883  20.1307
    24.4641  25.3272  26.3395  27.8140  28.0069  28.7598

     occupation numbers 
     1.0000   1.0000   1.0000   1.0000   1.0000   1.0000   1.0000   1.0000
     1.0000   1.0000   1.0000   1.0000   1.0000   1.0000   1.0000   1.0000
     1.0000   1.0000   1.0000   1.0000   1.0000   1.0000   1.0000   1.0000
     1.0000   1.0000   1.0000   1.0000   1.0000   1.0000   1.0000   1.0000
     1.0000   1.0000   1.0000   1.0000   1.0000   0.9926   0.0000   0.0000
     0.0000   0.0000   0.0000   0.0000   0.0000   0.0000

          k = 0.0000 0.1429 0.2857 (  7743 PWs)   bands (ev):

   -95.7713 -95.7586 -95.7556 -95.7549 -53.1820 -53.1808 -53.1758 -53.1480
   -53.1386 -53.1247 -53.1229 -53.1226 -53.1181 -53.1128 -53.0929 -53.0874
     8.4826  11.7640  12.2774  12.3486  12.6454  12.6553  12.6727  13.5041
    14.0155  14.0578  14.0688  14.1566  14.3524  14.4635  14.8017  14.8765
    14.9424  15.0476  15.0781  15.3263  15.3298  16.0111  18.9365  20.8533
    24.0013  24.8484  26.6148  26.8392  27.9156  29.6531

     occupation numbers 
     1.0000   1.0000   1.0000   1.0000   1.0000   1.0000   1.0000   1.0000
     1.0000   1.0000   1.0000   1.0000   1.0000   1.0000   1.0000   1.0000
     1.0000   1.0000   1.0000   1.0000   1.0000   1.0000   1.0000   1.0000
     1.0000   1.0000   1.0000   1.0000   1.0000   1.0000   1.0000   1.0000
     1.0000   1.0000   1.0000   1.0000   1.0000   1.0000   0.0000   0.0000
     0.0000   0.0000   0.0000   0.0000   0.0000   0.0000

          k = 0.0000 0.1429 0.3571 (  7738 PWs)   bands (ev):

   -95.7694 -95.7605 -95.7555 -95.7550 -53.1772 -53.1744 -53.1667 -53.1538
   -53.1450 -53.1242 -53.1231 -53.1226 -53.1181 -53.1131 -53.0974 -53.0915
     9.0096  11.4421  12.4679  12.5179  12.7730  12.7914  12.8336  13.3716
    13.7257  13.8367  14.0478  14.1109  14.1850  14.4280  14.7509  14.8021
    14.8712  14.8815  14.9606  15.3250  15.3252  15.5140  19.6383  21.6774
    23.0156  25.0569  25.6981  26.8690  27.2654  29.5793

     occupation numbers 
     1.0000   1.0000   1.0000   1.0000   1.0000   1.0000   1.0000   1.0000
     1.0000   1.0000   1.0000   1.0000   1.0000   1.0000   1.0000   1.0000
     1.0000   1.0000   1.0000   1.0000   1.0000   1.0000   1.0000   1.0000
     1.0000   1.0000   1.0000   1.0000   1.0000   1.0000   1.0000   1.0000
     1.0000   1.0000   1.0000   1.0000   1.0000   1.0000   0.0000   0.0000
     0.0000   0.0000   0.0000   0.0000   0.0000   0.0000

          k = 0.0000 0.1429 0.4286 (  7738 PWs)   bands (ev):

   -95.7672 -95.7627 -95.7554 -95.7551 -53.1717 -53.1672 -53.1598 -53.1565
   -53.1521 -53.1342 -53.1236 -53.1228 -53.1130 -53.1076 -53.1025 -53.0964
     9.6202  10.9193  12.6253  12.6564  12.9167  12.9521  13.0318  13.2239
    13.4200  13.5368  13.9828  14.0200  14.3362  14.4842  14.6544  14.6838
    14.6871  14.7932  14.9759  15.2440  15.3235  15.3242  20.3908  22.0717
    22.5842  24.6023  25.3975  26.3898  27.5579  28.8234

     occupation numbers 
     1.0000   1.0000   1.0000   1.0000   1.0000   1.0000   1.0000   1.0000
     1.0000   1.0000   1.0000   1.0000   1.0000   1.0000   1.0000   1.0000
     1.0000   1.0000   1.0000   1.0000   1.0000   1.0000   1.0000   1.0000
     1.0000   1.0000   1.0000   1.0000   1.0000   1.0000   1.0000   1.0000
     1.0000   1.0000   1.0000   1.0000   1.0000   1.0000   0.0000   0.0000
     0.0000   0.0000   0.0000   0.0000   0.0000   0.0000

          k = 0.0000 0.1429-0.5000 (  7740 PWs)   bands (ev):

   -95.7650 -95.7649 -95.7553 -95.7552 -53.1659 -53.1658 -53.1597 -53.1597
   -53.1455 -53.1454 -53.1232 -53.1231 -53.1078 -53.1077 -53.1019 -53.1019
    10.2785  10.2785  12.6999  12.6999  13.0696  13.0696  13.1592  13.1592
    13.2669  13.2669  13.9732  13.9732  14.5058  14.5059  14.6192  14.6192
    14.6267  14.6267  15.0891  15.0891  15.3234  15.3235  21.1989  21.1989
    23.5619  23.5619  25.8430  25.8430  28.1375  28.1375

     occupation numbers 
     1.0000   1.0000   1.0000   1.0000   1.0000   1.0000   1.0000   1.0000
     1.0000   1.0000   1.0000   1.0000   1.0000   1.0000   1.0000   1.0000
     1.0000   1.0000   1.0000   1.0000   1.0000   1.0000   1.0000   1.0000
     1.0000   1.0000   1.0000   1.0000   1.0000   1.0000   1.0000   1.0000
     1.0000   1.0000   1.0000   1.0000   1.0000   1.0000   0.0000   0.0000
     0.0000   0.0000   0.0000   0.0000   0.0000   0.0000

          k = 0.0000 0.2143 0.2143 (  7745 PWs)   bands (ev):

   -95.7718 -95.7568 -95.7568 -95.7550 -53.1822 -53.1817 -53.1817 -53.1478
   -53.1303 -53.1303 -53.1215 -53.1215 -53.1211 -53.1117 -53.0921 -53.0848
     8.3621  12.0667  12.0667  12.3067  12.6114  12.6212  12.6212  13.5643
    13.9774  14.0036  14.2382  14.2382  14.2819  14.5053  14.7793  14.9152
    15.0499  15.0499  15.2027  15.2027  15.2808  17.3149  17.3149  20.6683
    23.8763  24.8003  28.0191  28.0191  28.3879  28.3879

     occupation numbers 
     1.0000   1.0000   1.0000   1.0000   1.0000   1.0000   1.0000   1.0000
     1.0000   1.0000   1.0000   1.0000   1.0000   1.0000   1.0000   1.0000
     1.0000   1.0000   1.0000   1.0000   1.0000   1.0000   1.0000   1.0000
     1.0000   1.0000   1.0000   1.0000   1.0000   1.0000   1.0000   1.0000
     1.0000   1.0000   1.0000   1.0000   1.0000   0.0000   0.0000   0.0000
     0.0000   0.0000   0.0000   0.0000   0.0000   0.0000

          k = 0.0000 0.2143 0.2857 (  7732 PWs)   bands (ev):

   -95.7703 -95.7583 -95.7566 -95.7552 -53.1793 -53.1769 -53.1758 -53.1532
   -53.1355 -53.1264 -53.1208 -53.1205 -53.1193 -53.1167 -53.0959 -53.0866
     8.7772  11.9437  12.2690  12.4538  12.7021  12.7180  12.7358  13.4810
    13.8902  13.9941  14.0186  14.0370  14.0855  14.4545  14.8101  14.8617
    14.9250  14.9866  15.0461  15.2013  15.2409  16.4933  17.9024  21.3466
    22.7770  24.9563  27.2171  28.0775  28.5158  28.9006

     occupation numbers 
     1.0000   1.0000   1.0000   1.0000   1.0000   1.0000   1.0000   1.0000
     1.0000   1.0000   1.0000   1.0000   1.0000   1.0000   1.0000   1.0000
     1.0000   1.0000   1.0000   1.0000   1.0000   1.0000   1.0000   1.0000
     1.0000   1.0000   1.0000   1.0000   1.0000   1.0000   1.0000   1.0000
     1.0000   1.0000   1.0000   1.0000   1.0000   1.0000   0.0000   0.0000
     0.0000   0.0000   0.0000   0.0000   0.0000   0.0000

          k = 0.0000 0.2143 0.3571 (  7722 PWs)   bands (ev):

   -95.7685 -95.7601 -95.7564 -95.7554 -53.1763 -53.1706 -53.1685 -53.1585
   -53.1418 -53.1306 -53.1218 -53.1195 -53.1182 -53.1112 -53.1006 -53.0899
     9.2923  11.6420  12.4848  12.6178  12.8000  12.8346  12.8837  13.3699
    13.5759  13.7737  13.8553  13.9832  14.2016  14.4317  14.7002  14.7890
    14.8705  14.8790  14.9730  15.2000  15.2183  15.9012  18.5356  21.7450
    22.1349  25.2331  26.0803  27.3710  28.8281  29.5293

     occupation numbers 
     1.0000   1.0000   1.0000   1.0000   1.0000   1.0000   1.0000   1.0000
     1.0000   1.0000   1.0000   1.0000   1.0000   1.0000   1.0000   1.0000
     1.0000   1.0000   1.0000   1.0000   1.0000   1.0000   1.0000   1.0000
     1.0000   1.0000   1.0000   1.0000   1.0000   1.0000   1.0000   1.0000
     1.0000   1.0000   1.0000   1.0000   1.0000   1.0000   0.0000   0.0000
     0.0000   0.0000   0.0000   0.0000   0.0000   0.0000

          k = 0.0000 0.2143 0.4286 (  7705 PWs)   bands (ev):

   -95.7664 -95.7622 -95.7561 -95.7556 -53.1726 -53.1637 -53.1636 -53.1600
   -53.1488 -53.1407 -53.1185 -53.1178 -53.1166 -53.1057 -53.1054 -53.0943
     9.8869  11.1420  12.6752  12.7711  12.8924  12.9652  13.0645  13.2409
    13.2986  13.5154  13.8052  13.9247  14.3454  14.4791  14.6190  14.6700
    14.6881  14.7366  15.1094  15.1997  15.2066  15.5223  19.2225  20.8131
    23.0136  24.9947  25.6076  26.6752  29.3369  30.2589

     occupation numbers 
     1.0000   1.0000   1.0000   1.0000   1.0000   1.0000   1.0000   1.0000
     1.0000   1.0000   1.0000   1.0000   1.0000   1.0000   1.0000   1.0000
     1.0000   1.0000   1.0000   1.0000   1.0000   1.0000   1.0000   1.0000
     1.0000   1.0000   1.0000   1.0000   1.0000   1.0000   1.0000   1.0000
     1.0000   1.0000   1.0000   1.0000   1.0000   1.0000   0.0000   0.0000
     0.0000   0.0000   0.0000   0.0000   0.0000   0.0000

          k = 0.0000 0.2143-0.5000 (  7720 PWs)   bands (ev):

   -95.7643 -95.7643 -95.7559 -95.7559 -53.1684 -53.1684 -53.1562 -53.1562
   -53.1506 -53.1506 -53.1180 -53.1180 -53.1112 -53.1112 -53.0996 -53.0996
    10.5247  10.5247  12.7908  12.7908  13.0613  13.0613  13.1032  13.1032
    13.2764  13.2764  13.8471  13.8471  14.5101  14.5101  14.5909  14.5909
    14.6048  14.6048  15.2013  15.2013  15.2811  15.2811  19.9765  19.9765
    23.9699  23.9699  26.0862  26.0862  29.9486  29.9486

     occupation numbers 
     1.0000   1.0000   1.0000   1.0000   1.0000   1.0000   1.0000   1.0000
     1.0000   1.0000   1.0000   1.0000   1.0000   1.0000   1.0000   1.0000
     1.0000   1.0000   1.0000   1.0000   1.0000   1.0000   1.0000   1.0000
     1.0000   1.0000   1.0000   1.0000   1.0000   1.0000   1.0000   1.0000
     1.0000   1.0000   1.0000   1.0000   1.0000   1.0000   0.0000   0.0000
     0.0000   0.0000   0.0000   0.0000   0.0000   0.0000

          k = 0.0000 0.2857 0.2857 (  7719 PWs)   bands (ev):

   -95.7689 -95.7580 -95.7580 -95.7555 -53.1754 -53.1754 -53.1718 -53.1583
   -53.1316 -53.1315 -53.1295 -53.1163 -53.1152 -53.1152 -53.0999 -53.0873
     9.1794  12.1704  12.1704  12.5780  12.7695  12.8196  12.8196  13.4317
    13.7200  13.7200  13.8738  13.9727  14.1450  14.4141  14.7221  14.8686
    14.8686  14.9727  15.0451  15.0451  15.1649  17.0090  17.0090  21.6254
    21.9824  25.1799  27.7259  27.7259  28.6289  28.6289

     occupation numbers 
     1.0000   1.0000   1.0000   1.0000   1.0000   1.0000   1.0000   1.0000
     1.0000   1.0000   1.0000   1.0000   1.0000   1.0000   1.0000   1.0000
     1.0000   1.0000   1.0000   1.0000   1.0000   1.0000   1.0000   1.0000
     1.0000   1.0000   1.0000   1.0000   1.0000   1.0000   1.0000   1.0000
     1.0000   1.0000   1.0000   1.0000   1.0000   0.1917   0.1917   0.0000
     0.0000   0.0000   0.0000   0.0000   0.0000   0.0000

          k = 0.0000 0.2857 0.3571 (  7721 PWs)   bands (ev):

   -95.7672 -95.7597 -95.7576 -95.7558 -53.1744 -53.1701 -53.1657 -53.1630
   -53.1386 -53.1377 -53.1267 -53.1142 -53.1138 -53.1094 -53.1048 -53.0896
     9.6760  11.8956  12.4157  12.7057  12.8460  12.9197  12.9494  13.3546
    13.4583  13.6323  13.6822  13.9318  14.2407  14.3875  14.6282  14.7389
    14.7691  14.8715  15.0456  15.1112  15.1206  16.3260  17.5682  20.5915
    22.7340  25.4936  26.5945  27.7903  28.3511  29.1996

     occupation numbers 
     1.0000   1.0000   1.0000   1.0000   1.0000   1.0000   1.0000   1.0000
     1.0000   1.0000   1.0000   1.0000   1.0000   1.0000   1.0000   1.0000
     1.0000   1.0000   1.0000   1.0000   1.0000   1.0000   1.0000   1.0000
     1.0000   1.0000   1.0000   1.0000   1.0000   1.0000   1.0000   1.0000
     1.0000   1.0000   1.0000   1.0000   1.0000   1.0000   0.0000   0.0000
     0.0000   0.0000   0.0000   0.0000   0.0000   0.0000

          k = 0.0000 0.2857 0.4286 (  7724 PWs)   bands (ev):

   -95.7654 -95.7615 -95.7572 -95.7563 -53.1728 -53.1670 -53.1636 -53.1588
   -53.1476 -53.1445 -53.1214 -53.1129 -53.1129 -53.1101 -53.1035 -53.0932
    10.2452  11.4296  12.6387  12.8105  12.9176  13.0304  13.1058  13.2340
    13.2561  13.4808  13.6539  13.8505  14.3690  14.4185  14.5599  14.6227
    14.6395  14.6936  15.0492  15.0776  15.3021  15.8524  18.1864  19.6801
    23.5824  25.5212  25.9040  27.0489  29.0791  29.8720

     occupation numbers 
     1.0000   1.0000   1.0000   1.0000   1.0000   1.0000   1.0000   1.0000
     1.0000   1.0000   1.0000   1.0000   1.0000   1.0000   1.0000   1.0000
     1.0000   1.0000   1.0000   1.0000   1.0000   1.0000   1.0000   1.0000
     1.0000   1.0000   1.0000   1.0000   1.0000   1.0000   1.0000   1.0000
     1.0000   1.0000   1.0000   1.0000   1.0000   1.0000   0.0000   0.0000
     0.0000   0.0000   0.0000   0.0000   0.0000   0.0000

          k = 0.0000 0.2857-0.5000 (  7716 PWs)   bands (ev):

   -95.7635 -95.7634 -95.7567 -95.7567 -53.1703 -53.1703 -53.1560 -53.1560
   -53.1517 -53.1516 -53.1158 -53.1157 -53.1125 -53.1125 -53.0979 -53.0979
    10.8500  10.8500  12.7886  12.7886  13.0482  13.0482  13.1451  13.1452
    13.2850  13.2850  13.7440  13.7440  14.5110  14.5110  14.5228  14.5228
    14.5545  14.5545  15.0587  15.0587  15.5326  15.5326  18.8836  18.8836
    24.5146  24.5146  26.4201  26.4201  29.8990  29.8990

     occupation numbers 
     1.0000   1.0000   1.0000   1.0000   1.0000   1.0000   1.0000   1.0000
     1.0000   1.0000   1.0000   1.0000   1.0000   1.0000   1.0000   1.0000
     1.0000   1.0000   1.0000   1.0000   1.0000   1.0000   1.0000   1.0000
     1.0000   1.0000   1.0000   1.0000   1.0000   1.0000   1.0000   1.0000
     1.0000   1.0000   1.0000   1.0000   1.0000   1.0000   0.0000   0.0000
     0.0000   0.0000   0.0000   0.0000   0.0000   0.0000

          k = 0.0000 0.3571 0.3571 (  7710 PWs)   bands (ev):

   -95.7658 -95.7591 -95.7591 -95.7564 -53.1713 -53.1713 -53.1667 -53.1598
   -53.1467 -53.1327 -53.1326 -53.1109 -53.1098 -53.1079 -53.1079 -53.0907
    10.1456  12.1719  12.1719  12.7304  12.9553  13.0263  13.0263  13.3190
    13.4464  13.4464  13.5649  13.8755  14.3112  14.3423  14.5458  14.6473
    14.6473  14.8767  14.8767  15.0217  15.3089  16.7965  16.7965  19.5741
    23.4518  25.8448  27.2262  27.2262  28.3110  28.3110

     occupation numbers 
     1.0000   1.0000   1.0000   1.0000   1.0000   1.0000   1.0000   1.0000
     1.0000   1.0000   1.0000   1.0000   1.0000   1.0000   1.0000   1.0000
     1.0000   1.0000   1.0000   1.0000   1.0000   1.0000   1.0000   1.0000
     1.0000   1.0000   1.0000   1.0000   1.0000   1.0000   1.0000   1.0000
     1.0000   1.0000   1.0000   1.0000   1.0000   0.9836   0.9836   0.0000
     0.0000   0.0000   0.0000   0.0000   0.0000   0.0000

          k = 0.0000 0.3571 0.4286 (  7730 PWs)   bands (ev):

   -95.7641 -95.7607 -95.7584 -95.7571 -53.1717 -53.1695 -53.1669 -53.1543
   -53.1531 -53.1392 -53.1271 -53.1153 -53.1086 -53.1072 -53.1023 -53.0934
    10.6767  11.7538  12.4270  12.7056  13.0740  13.1087  13.1511  13.2625
    13.2985  13.4299  13.5332  13.7863  14.3462  14.4157  14.4820  14.5286
    14.5382  14.7075  14.8894  14.9566  15.5382  16.2301  17.3316  18.6981
    24.2710  26.1664  26.2954  27.5255  27.9623  28.9381

     occupation numbers 
     1.0000   1.0000   1.0000   1.0000   1.0000   1.0000   1.0000   1.0000
     1.0000   1.0000   1.0000   1.0000   1.0000   1.0000   1.0000   1.0000
     1.0000   1.0000   1.0000   1.0000   1.0000   1.0000   1.0000   1.0000
     1.0000   1.0000   1.0000   1.0000   1.0000   1.0000   1.0000   1.0000
     1.0000   1.0000   1.0000   1.0000   1.0000   1.0000   0.0000   0.0000
     0.0000   0.0000   0.0000   0.0000   0.0000   0.0000

          k = 0.0000 0.3571-0.5000 (  7720 PWs)   bands (ev):

   -95.7624 -95.7624 -95.7578 -95.7577 -53.1711 -53.1711 -53.1612 -53.1612
   -53.1462 -53.1462 -53.1212 -53.1212 -53.1074 -53.1074 -53.0973 -53.0973
    11.2314  11.2314  12.6121  12.6121  13.1816  13.1816  13.1900  13.1900
    13.2884  13.2884  13.6620  13.6620  14.4157  14.4157  14.4751  14.4751
    14.5504  14.5504  14.9142  14.9142  15.8302  15.8302  17.9568  17.9568
    25.1789  25.1789  26.8537  26.8537  28.7923  28.7923

     occupation numbers 
     1.0000   1.0000   1.0000   1.0000   1.0000   1.0000   1.0000   1.0000
     1.0000   1.0000   1.0000   1.0000   1.0000   1.0000   1.0000   1.0000
[...]
     1.0000   1.0000   1.0000   1.0000   1.0000   1.0000   1.0000   1.0000
     1.0000   1.0000   1.0000   1.0000   1.0000   1.0000   1.0000   1.0000
     1.0000   1.0000   1.0000   1.0000   1.0000   1.0000   0.0000   0.0000
     0.0000   0.0000   0.0000   0.0000   0.0000   0.0000

          k = 0.2857 0.3571 0.3571 (  7737 PWs)   bands (ev):

   -95.7640 -95.7591 -95.7590 -95.7582 -53.1916 -53.1894 -53.1894 -53.1725
   -53.1221 -53.1163 -53.1163 -53.1071 -53.1065 -53.1065 -53.0973 -53.0945
    10.7249  12.0202  12.0202  12.1863  13.3227  13.3817  13.3817  13.7362
    13.8229  13.8229  13.8821  13.8993  13.9002  14.1172  14.1172  14.1334
    14.9343  15.1034  15.2730  15.2876  15.2876  17.0502  17.0502  18.1264
    21.3338  22.5534  22.5534  25.7361  31.9640  33.4674

     occupation numbers 
     1.0000   1.0000   1.0000   1.0000   1.0000   1.0000   1.0000   1.0000
     1.0000   1.0000   1.0000   1.0000   1.0000   1.0000   1.0000   1.0000
     1.0000   1.0000   1.0000   1.0000   1.0000   1.0000   1.0000   1.0000
     1.0000   1.0000   1.0000   1.0000   1.0000   1.0000   1.0000   1.0000
     1.0000   1.0000   1.0000   1.0000   1.0000   0.0729   0.0729   0.0000
     0.0000   0.0000   0.0000   0.0000   0.0000   0.0000

          k = 0.2857 0.3571 0.4286 (  7744 PWs)   bands (ev):

   -95.7628 -95.7603 -95.7588 -95.7584 -53.1934 -53.1922 -53.1881 -53.1795
   -53.1198 -53.1169 -53.1092 -53.1055 -53.1052 -53.1033 -53.1003 -53.0964
    11.0825  11.7446  12.0465  12.1273  13.4047  13.4413  13.5554  13.8136
    13.8380  13.8535  13.9093  13.9302  13.9893  14.0229  14.0717  14.0747
    15.0263  15.2405  15.2460  15.2487  15.2890  16.2365  17.3992  18.0462
    21.0567  21.7775  23.1861  24.7788  32.5198  33.6974

     occupation numbers 
     1.0000   1.0000   1.0000   1.0000   1.0000   1.0000   1.0000   1.0000
     1.0000   1.0000   1.0000   1.0000   1.0000   1.0000   1.0000   1.0000
     1.0000   1.0000   1.0000   1.0000   1.0000   1.0000   1.0000   1.0000
     1.0000   1.0000   1.0000   1.0000   1.0000   1.0000   1.0000   1.0000
     1.0000   1.0000   1.0000   1.0000   1.0000   1.0000   0.0000   0.0000
     0.0000   0.0000   0.0000   0.0000   0.0000   0.0000

          k = 0.2857 0.3571-0.5000 (  7744 PWs)   bands (ev):

   -95.7615 -95.7615 -95.7586 -95.7586 -53.1936 -53.1936 -53.1848 -53.1848
   -53.1181 -53.1181 -53.1048 -53.1048 -53.1040 -53.1040 -53.0996 -53.0996
    11.4291  11.4291  12.0809  12.0809  13.4447  13.4448  13.7071  13.7072
    13.8650  13.8651  13.9536  13.9536  14.0061  14.0061  14.0537  14.0537
    15.1617  15.1617  15.2241  15.2242  15.6363  15.6363  17.7647  17.7647
    21.2426  21.2426  23.9288  23.9288  33.1537  33.1537

     occupation numbers 
     1.0000   1.0000   1.0000   1.0000   1.0000   1.0000   1.0000   1.0000
     1.0000   1.0000   1.0000   1.0000   1.0000   1.0000   1.0000   1.0000
     1.0000   1.0000   1.0000   1.0000   1.0000   1.0000   1.0000   1.0000
     1.0000   1.0000   1.0000   1.0000   1.0000   1.0000   1.0000   1.0000
     1.0000   1.0000   1.0000   1.0000   1.0000   1.0000   0.0000   0.0000
     0.0000   0.0000   0.0000   0.0000   0.0000   0.0000

          k = 0.2857 0.4286 0.4286 (  7737 PWs)   bands (ev):

   -95.7618 -95.7598 -95.7598 -95.7588 -53.1948 -53.1921 -53.1921 -53.1855
   -53.1162 -53.1110 -53.1110 -53.1033 -53.1031 -53.1020 -53.1020 -53.0969
    11.3437  11.8269  11.8269  12.0140  13.5057  13.5903  13.5903  13.7886
    13.8858  13.9573  13.9573  13.9980  14.0154  14.0481  14.0481  14.1066
    15.0251  15.1983  15.1983  15.2047  15.5452  16.5821  16.5821  17.5600
    21.1959  22.3371  22.3371  23.8456  33.0943  34.4894

     occupation numbers 
     1.0000   1.0000   1.0000   1.0000   1.0000   1.0000   1.0000   1.0000
     1.0000   1.0000   1.0000   1.0000   1.0000   1.0000   1.0000   1.0000
     1.0000   1.0000   1.0000   1.0000   1.0000   1.0000   1.0000   1.0000
     1.0000   1.0000   1.0000   1.0000   1.0000   1.0000   1.0000   1.0000
     1.0000   1.0000   1.0000   1.0000   1.0000   1.0000   1.0000   0.0000
     0.0000   0.0000   0.0000   0.0000   0.0000   0.0000

          k = 0.2857 0.4286-0.5000 (  7730 PWs)   bands (ev):

   -95.7608 -95.7608 -95.7593 -95.7593 -53.1944 -53.1944 -53.1898 -53.1898
   -53.1133 -53.1133 -53.1066 -53.1065 -53.1020 -53.1020 -53.0989 -53.0989
    11.5932  11.5932  11.9148  11.9148  13.5694  13.5695  13.7099  13.7099
    13.9087  13.9087  13.9628  13.9628  14.0808  14.0808  14.1356  14.1356
    15.1081  15.1081  15.1780  15.1780  15.9529  15.9529  17.0337  17.0337
    21.6584  21.6584  23.0305  23.0305  33.7605  33.7605

     occupation numbers 
     1.0000   1.0000   1.0000   1.0000   1.0000   1.0000   1.0000   1.0000
     1.0000   1.0000   1.0000   1.0000   1.0000   1.0000   1.0000   1.0000
     1.0000   1.0000   1.0000   1.0000   1.0000   1.0000   1.0000   1.0000
     1.0000   1.0000   1.0000   1.0000   1.0000   1.0000   1.0000   1.0000
     1.0000   1.0000   1.0000   1.0000   1.0000   1.0000   0.1110   0.1110
     0.0000   0.0000   0.0000   0.0000   0.0000   0.0000

          k = 0.2857-0.5000-0.5000 (  7748 PWs)   bands (ev):

   -95.7601 -95.7600 -95.7600 -95.7600 -53.1931 -53.1931 -53.1931 -53.1931
   -53.1096 -53.1096 -53.1096 -53.1096 -53.0999 -53.0999 -53.0998 -53.0998
    11.7537  11.7537  11.7537  11.7537  13.6614  13.6614  13.6614  13.6614
    13.9154  13.9154  13.9154  13.9154  14.1788  14.1788  14.1788  14.1788
    15.1189  15.1189  15.1189  15.1190  16.4113  16.4113  16.4113  16.4113
    22.2687  22.2687  22.2687  22.2687  34.4513  34.4513

     occupation numbers 
     1.0000   1.0000   1.0000   1.0000   1.0000   1.0000   1.0000   1.0000
     1.0000   1.0000   1.0000   1.0000   1.0000   1.0000   1.0000   1.0000
     1.0000   1.0000   1.0000   1.0000   1.0000   1.0000   1.0000   1.0000
     1.0000   1.0000   1.0000   1.0000   1.0000   1.0000   1.0000   1.0000
     1.0000   1.0000   1.0000   1.0000   1.0000   1.0000   1.0000   1.0000
     0.0000   0.0000   0.0000   0.0000   0.0000   0.0000

          k = 0.3571 0.3571 0.3571 (  7739 PWs)   bands (ev):

   -95.7631 -95.7591 -95.7590 -95.7590 -53.1937 -53.1937 -53.1936 -53.1802
   -53.1134 -53.1134 -53.1134 -53.1052 -53.1052 -53.1052 -53.0964 -53.0964
    10.9857  11.9735  11.9735  11.9735  13.4802  13.4802  13.4802  13.8614
    13.8614  13.9815  14.0108  14.0109  14.0109  14.0244  14.0244  14.0244
    15.0631  15.0631  15.2985  15.2985  15.2986  17.1867  17.1867  17.1867
    21.7085  21.7085  21.7085  24.6878  33.9311  33.9311

     occupation numbers 
     1.0000   1.0000   1.0000   1.0000   1.0000   1.0000   1.0000   1.0000
     1.0000   1.0000   1.0000   1.0000   1.0000   1.0000   1.0000   1.0000
     1.0000   1.0000   1.0000   1.0000   1.0000   1.0000   1.0000   1.0000
     1.0000   1.0000   1.0000   1.0000   1.0000   1.0000   1.0000   1.0000
     1.0000   1.0000   1.0000   1.0000   1.0000   0.0004   0.0004   0.0004
     0.0000   0.0000   0.0000   0.0000   0.0000   0.0000

          k = 0.3571 0.3571 0.4286 (  7749 PWs)   bands (ev):

   -95.7621 -95.7600 -95.7591 -95.7590 -53.1964 -53.1964 -53.1935 -53.1865
   -53.1121 -53.1120 -53.1062 -53.1038 -53.1038 -53.1030 -53.0986 -53.0976
    11.2511  11.7473  11.9423  11.9423  13.5384  13.5384  13.6253  13.8166
    13.8550  13.9386  13.9672  13.9672  14.1192  14.1770  14.1773  14.1774
    15.1687  15.1900  15.2746  15.2746  15.2896  16.3274  17.3092  17.3093
    21.1444  21.1444  22.2596  23.7574  34.4443  34.4443

     occupation numbers 
     1.0000   1.0000   1.0000   1.0000   1.0000   1.0000   1.0000   1.0000
     1.0000   1.0000   1.0000   1.0000   1.0000   1.0000   1.0000   1.0000
     1.0000   1.0000   1.0000   1.0000   1.0000   1.0000   1.0000   1.0000
     1.0000   1.0000   1.0000   1.0000   1.0000   1.0000   1.0000   1.0000
     1.0000   1.0000   1.0000   1.0000   1.0000   1.0000   0.0000   0.0000
     0.0000   0.0000   0.0000   0.0000   0.0000   0.0000

          k = 0.3571 0.3571-0.5000 (  7728 PWs)   bands (ev):

   -95.7611 -95.7611 -95.7591 -95.7590 -53.1973 -53.1973 -53.1910 -53.1910
   -53.1117 -53.1117 -53.1033 -53.1033 -53.1009 -53.1009 -53.1008 -53.1008
    11.5067  11.5067  11.9314  11.9314  13.5573  13.5574  13.7395  13.7395
    13.8811  13.8811  13.9480  13.9481  14.2010  14.2010  14.2468  14.2468
    15.2455  15.2456  15.2572  15.2572  15.6302  15.6302  17.3610  17.3610
    20.9422  20.9422  22.9467  22.9467  34.8131  34.8131

     occupation numbers 
     1.0000   1.0000   1.0000   1.0000   1.0000   1.0000   1.0000   1.0000
     1.0000   1.0000   1.0000   1.0000   1.0000   1.0000   1.0000   1.0000
     1.0000   1.0000   1.0000   1.0000   1.0000   1.0000   1.0000   1.0000
     1.0000   1.0000   1.0000   1.0000   1.0000   1.0000   1.0000   1.0000
     1.0000   1.0000   1.0000   1.0000   1.0000   1.0000   0.0000   0.0000
     0.0000   0.0000   0.0000   0.0000   0.0000   0.0000

          k = 0.3571 0.4286 0.4286 (  7750 PWs)   bands (ev):

   -95.7614 -95.7598 -95.7598 -95.7593 -53.1987 -53.1972 -53.1972 -53.1921
   -53.1090 -53.1061 -53.1061 -53.1024 -53.1018 -53.1018 -53.1000 -53.0979
    11.4212  11.7639  11.7639  11.8594  13.6116  13.6551  13.6551  13.8013
    13.8236  13.8888  13.8888  13.9024  14.3608  14.3608  14.3775  14.4814
    15.1387  15.2633  15.2689  15.2689  15.3823  16.5157  16.5157  17.0916
    20.9064  21.5355  21.5355  22.8699  35.0111  36.0913

     occupation numbers 
     1.0000   1.0000   1.0000   1.0000   1.0000   1.0000   1.0000   1.0000
     1.0000   1.0000   1.0000   1.0000   1.0000   1.0000   1.0000   1.0000
     1.0000   1.0000   1.0000   1.0000   1.0000   1.0000   1.0000   1.0000
     1.0000   1.0000   1.0000   1.0000   1.0000   1.0000   1.0000   1.0000
     1.0000   1.0000   1.0000   1.0000   1.0000   1.0000   1.0000   0.0207
     0.0000   0.0000   0.0000   0.0000   0.0000   0.0000

          k = 0.3571 0.4286-0.5000 (  7732 PWs)   bands (ev):

   -95.7606 -95.7606 -95.7596 -95.7595 -53.1990 -53.1990 -53.1957 -53.1957
   -53.1072 -53.1072 -53.1024 -53.1023 -53.1015 -53.1014 -53.0995 -53.0995
    11.5912  11.5912  11.8001  11.8001  13.6518  13.6518  13.7441  13.7441
    13.8395  13.8395  13.8748  13.8748  14.4634  14.4634  14.5064  14.5064
    15.2158  15.2158  15.2470  15.2470  15.8222  15.8222  16.7927  16.7927
    21.0609  21.0609  22.1241  22.1241  35.6193  35.6193

     occupation numbers 
     1.0000   1.0000   1.0000   1.0000   1.0000   1.0000   1.0000   1.0000
     1.0000   1.0000   1.0000   1.0000   1.0000   1.0000   1.0000   1.0000
     1.0000   1.0000   1.0000   1.0000   1.0000   1.0000   1.0000   1.0000
     1.0000   1.0000   1.0000   1.0000   1.0000   1.0000   1.0000   1.0000
     1.0000   1.0000   1.0000   1.0000   1.0000   1.0000   0.9856   0.9856
     0.0000   0.0000   0.0000   0.0000   0.0000   0.0000

          k = 0.3571-0.5000-0.5000 (  7732 PWs)   bands (ev):

   -95.7601 -95.7600 -95.7600 -95.7600 -53.1984 -53.1984 -53.1984 -53.1984
   -53.1043 -53.1043 -53.1043 -53.1043 -53.0999 -53.0999 -53.0998 -53.0998
    11.6875  11.6875  11.6875  11.6875  13.7176  13.7176  13.7176  13.7176
    13.8350  13.8351  13.8351  13.8351  14.5965  14.5965  14.5965  14.5965
    15.2080  15.2080  15.2080  15.2080  16.2303  16.2303  16.2303  16.2303
    21.4822  21.4822  21.4822  21.4822  36.2874  36.2874

     occupation numbers 
     1.0000   1.0000   1.0000   1.0000   1.0000   1.0000   1.0000   1.0000
     1.0000   1.0000   1.0000   1.0000   1.0000   1.0000   1.0000   1.0000
     1.0000   1.0000   1.0000   1.0000   1.0000   1.0000   1.0000   1.0000
     1.0000   1.0000   1.0000   1.0000   1.0000   1.0000   1.0000   1.0000
     1.0000   1.0000   1.0000   1.0000   1.0000   1.0000   1.0000   1.0000
     0.0000   0.0000   0.0000   0.0000   0.0000   0.0000

          k = 0.4286 0.4286 0.4286 (  7736 PWs)   bands (ev):

   -95.7609 -95.7598 -95.7598 -95.7598 -53.2004 -53.2004 -53.2004 -53.1970
   -53.1036 -53.1035 -53.1035 -53.1013 -53.1013 -53.1012 -53.0989 -53.0989
    11.5074  11.7234  11.7234  11.7234  13.6990  13.6990  13.6990  13.7936
    13.7936  13.8342  13.8342  13.8342  14.6520  14.6520  14.6520  15.0133
    15.2232  15.2232  15.2871  15.2871  15.2871  16.4441  16.4441  16.4441
    21.0192  21.0192  21.0192  22.0568  36.8288  36.8288

     occupation numbers 
     1.0000   1.0000   1.0000   1.0000   1.0000   1.0000   1.0000   1.0000
     1.0000   1.0000   1.0000   1.0000   1.0000   1.0000   1.0000   1.0000
     1.0000   1.0000   1.0000   1.0000   1.0000   1.0000   1.0000   1.0000
     1.0000   1.0000   1.0000   1.0000   1.0000   1.0000   1.0000   1.0000
     1.0000   1.0000   1.0000   1.0000   1.0000   1.0000   1.0000   1.0000
     0.0000   0.0000   0.0000   0.0000   0.0000   0.0000

          k = 0.4286 0.4286-0.5000 (  7722 PWs)   bands (ev):

   -95.7604 -95.7603 -95.7598 -95.7598 -53.2015 -53.2015 -53.1998 -53.1998
   -53.1030 -53.1030 -53.1007 -53.1007 -53.1001 -53.1001 -53.1001 -53.1001
    11.6067  11.6067  11.7094  11.7094  13.7157  13.7157  13.7603  13.7603
    13.7973  13.7973  13.8139  13.8139  14.7838  14.7838  14.9126  14.9126
    15.2736  15.2736  15.2762  15.2763  15.7473  15.7473  16.4102  16.4102
    20.8399  20.8399  21.4274  21.4274  37.1410  37.1410

     occupation numbers 
     1.0000   1.0000   1.0000   1.0000   1.0000   1.0000   1.0000   1.0000
     1.0000   1.0000   1.0000   1.0000   1.0000   1.0000   1.0000   1.0000
     1.0000   1.0000   1.0000   1.0000   1.0000   1.0000   1.0000   1.0000
     1.0000   1.0000   1.0000   1.0000   1.0000   1.0000   1.0000   1.0000
     1.0000   1.0000   1.0000   1.0000   1.0000   1.0000   1.0000   1.0000
     0.0000   0.0000   0.0000   0.0000   0.0000   0.0000

          k = 0.4286-0.5000-0.5000 (  7724 PWs)   bands (ev):

   -95.7601 -95.7600 -95.7600 -95.7600 -53.2018 -53.2018 -53.2018 -53.2018
   -53.1010 -53.1010 -53.1010 -53.1010 -53.0999 -53.0999 -53.0998 -53.0998
    11.6451  11.6451  11.6451  11.6451  13.7550  13.7550  13.7550  13.7550
    13.7850  13.7850  13.7850  13.7851  15.0213  15.0213  15.0213  15.0213
    15.2640  15.2640  15.2640  15.2640  15.9758  15.9758  15.9758  15.9758
    20.9812  20.9812  20.9812  20.9812  37.8324  37.8324

     occupation numbers 
     1.0000   1.0000   1.0000   1.0000   1.0000   1.0000   1.0000   1.0000
     1.0000   1.0000   1.0000   1.0000   1.0000   1.0000   1.0000   1.0000
     1.0000   1.0000   1.0000   1.0000   1.0000   1.0000   1.0000   1.0000
     1.0000   1.0000   1.0000   1.0000   1.0000   1.0000   1.0000   1.0000
     1.0000   1.0000   1.0000   1.0000   1.0000   1.0000   1.0000   1.0000
     0.0000   0.0000   0.0000   0.0000   0.0000   0.0000

          k =-0.5000-0.5000-0.5000 (  7664 PWs)   bands (ev):

   -95.7601 -95.7600 -95.7600 -95.7600 -53.2029 -53.2029 -53.2029 -53.2029
   -53.0999 -53.0999 -53.0999 -53.0998 -53.0998 -53.0998 -53.0998 -53.0998
    11.6306  11.6306  11.6306  11.6306  13.7681  13.7681  13.7681  13.7681
    13.7681  13.7681  13.7681  13.7681  15.2831  15.2831  15.2831  15.2831
    15.2831  15.2831  15.2831  15.2831  15.7761  15.7761  15.7761  15.7761
    20.8088  20.8088  20.8088  20.8088  38.2923  38.2923

     occupation numbers 
     1.0000   1.0000   1.0000   1.0000   1.0000   1.0000   1.0000   1.0000
     1.0000   1.0000   1.0000   1.0000   1.0000   1.0000   1.0000   1.0000
     1.0000   1.0000   1.0000   1.0000   1.0000   1.0000   1.0000   1.0000
     1.0000   1.0000   1.0000   1.0000   1.0000   1.0000   1.0000   1.0000
     1.0000   1.0000   1.0000   1.0000   1.0000   1.0000   1.0000   1.0000
     0.0000   0.0000   0.0000   0.0000   0.0000   0.0000

     the Fermi energy is    16.9474 ev

!    total energy              =   -1947.54862155 Ry
     total all-electron energy =    -13239.895036 Ry
     estimated scf accuracy    <          3.1E-09 Ry
     smearing contrib. (-TS)   =      -0.00031560 Ry
     internal energy E=F+TS    =   -1947.54830595 Ry

     The total energy is F=E-TS. E is the sum of the following terms:
     one-electron contribution =    -968.00795495 Ry
     hartree contribution      =     548.52395098 Ry
     xc contribution           =    -153.30411338 Ry
     ewald contribution        =    -979.31718513 Ry
     one-center paw contrib.   =    -395.44300347 Ry
      -> PAW hartree energy AE =     319.33888024 Ry
      -> PAW hartree energy PS =    -321.31649882 Ry
      -> PAW xc energy AE      =    -133.83813738 Ry
      -> PAW xc energy PS      =      36.95500013 Ry
      -> total E_H with PAW    =     546.54633240 Ry
      -> total E_XC with PAW   =    -250.18725063 Ry

     convergence has been achieved in   4 iterations

     Writing all to output data dir ./out/Cu.save/

     init_run     :      1.47s CPU      1.74s WALL (       1 calls)
     electrons    :    173.21s CPU    179.97s WALL (       1 calls)

     Called by init_run:
     wfcinit      :      1.03s CPU      1.24s WALL (       1 calls)
     potinit      :      0.18s CPU      0.21s WALL (       1 calls)
     hinit0       :      0.16s CPU      0.16s WALL (       1 calls)

     Called by electrons:
     c_bands      :    155.19s CPU    160.74s WALL (       5 calls)
     sum_band     :     17.03s CPU     18.22s WALL (       5 calls)
     v_of_rho     :      0.06s CPU      0.06s WALL (       5 calls)
     v_h          :      0.00s CPU      0.01s WALL (       5 calls)
     v_xc         :      0.06s CPU      0.06s WALL (       5 calls)
     newd         :      0.27s CPU      0.28s WALL (       5 calls)
     PAW_pot      :      0.85s CPU      0.90s WALL (       5 calls)
     mix_rho      :      0.01s CPU      0.01s WALL (       5 calls)

     Called by c_bands:
     init_us_2    :      1.37s CPU      1.39s WALL (    1200 calls)
     init_us_2:cp :      1.36s CPU      1.38s WALL (    1200 calls)
     cegterg      :    150.86s CPU    156.36s WALL (     600 calls)

     Called by sum_band:
     sum_band:wei :      0.02s CPU      0.02s WALL (       5 calls)
     sum_band:loo :     16.82s CPU     17.99s WALL (       5 calls)
     sum_band:buf :      0.53s CPU      0.54s WALL (     600 calls)
     sum_band:ini :      0.60s CPU      0.60s WALL (     600 calls)
     sum_band:cal :      6.17s CPU      6.34s WALL (     600 calls)
     sum_band:bec :      0.11s CPU      0.11s WALL (     600 calls)
     addusdens    :      0.18s CPU      0.20s WALL (       5 calls)
                                        0.00s GPU  (       5 calls)
     addusd:skk   :      0.00s CPU      0.00s WALL (       5 calls)
                                        0.00s GPU  (       5 calls)

     Called by *egterg:
     cdiaghg      :      8.69s CPU      8.72s WALL (    1322 calls)
     cegterg:over :     18.08s CPU     18.29s WALL (     962 calls)
     cegterg:upda :      9.00s CPU      9.01s WALL (     962 calls)
     cegterg:last :     21.25s CPU     21.29s WALL (     960 calls)
     h_psi        :     68.92s CPU     73.97s WALL (    1562 calls)
     s_psi        :     13.61s CPU     13.65s WALL (    1562 calls)
     g_psi        :      0.61s CPU      0.61s WALL (     962 calls)

     Called by h_psi:
     h_psi:calbec :     14.45s CPU     14.92s WALL (    1562 calls)
     vloc_psi     :     40.23s CPU     44.76s WALL (    1562 calls)
     add_vuspsi   :     13.60s CPU     13.64s WALL (    1562 calls)

     General routines
     calbec       :     20.61s CPU     21.25s WALL (    2162 calls)
     fft          :      0.11s CPU      0.11s WALL (      56 calls)
     ffts         :      0.00s CPU      0.00s WALL (       5 calls)
     fftw         :     43.07s CPU     47.91s WALL (  149088 calls)

     Parallel routines

     PAW routines
     PAW_pot      :      0.85s CPU      0.90s WALL (       5 calls)
     PAW_symme    :      0.01s CPU      0.01s WALL (       9 calls)

     PWSCF        :   2m55.82s CPU   3m 4.23s WALL


   This run was terminated on:  17:21:13  15Feb2024            

=------------------------------------------------------------------------------=
   JOB DONE.
=------------------------------------------------------------------------------=
