
     Program PWSCF v.7.2 starts on 18Jul2024 at  2:38:58 

     This program is part of the open-source Quantum ESPRESSO suite
     for quantum simulation of materials; please cite
         "P. Giannozzi et al., J. Phys.:Condens. Matter 21 395502 (2009);
         "P. Giannozzi et al., J. Phys.:Condens. Matter 29 465901 (2017);
         "P. Giannozzi et al., J. Chem. Phys. 152 154105 (2020);
          URL http://www.quantum-espresso.org", 
     in publications or presentations arising from this work. More details at
     http://www.quantum-espresso.org/quote

     Parallel version (MPI), running on  1456 processors

     MPI processes distributed on    13 nodes
     221870 MiB available memory on the printing compute node when the environment starts
 
     Reading input from 2.Cu_vac_in_ZnS.nscf.q0.unrlxd.U5.in

     Current dimensions of program PWSCF are:
     Max number of different atomic species (ntypx) = 10
     Max number of k-points (npk) =  40000
     Max angular momentum in pseudopotentials (lmaxx) =  4

     Atomic positions and unit cell read from directory:
     ./out/Cu_vac_q0_U5_unrlxd.save/
 
     file S.pbe-n-kjpaw_psl.1.0.0.UPF: wavefunction(s)  3S 3P renormalized
     file Zn.pbe-dnl-kjpaw_psl.1.0.0.UPF: wavefunction(s)  4S 3D renormalized
     file Cu.pbe-spn-kjpaw_psl.1.0.0.UPF: wavefunction(s)  4S 3P 3D renormalized
     [opt_tetra]  Optimized tetrahedron method is used.
 
     K-points division:     npool     =      13
     R & G space division:  proc/nbgrp/npool/nimage =     112
     Subspace diagonalization in iterative solution of the eigenvalue problem:
     one sub-group per band group will be used
     scalapack distributed-memory algorithm (size of sub-group:  3*  3 procs)

 
     Parallelization info
     --------------------
     sticks:   dense  smooth     PW     G-vecs:    dense   smooth      PW
     Min         180     180     46                19282    19282    2562
     Max         181     181     47                19291    19291    2573
     Sum       20217   20217   5249              2160009  2160009  287777
 
     Using Slab Decomposition
 


     bravais-lattice index     =            1
     lattice parameter (alat)  =      20.5686  a.u.
     unit-cell volume          =    8701.8437 (a.u.)^3
     number of atoms/cell      =           63
     number of atomic types    =            3
     number of electrons       =       577.00
     number of Kohn-Sham states=          347
     kinetic-energy cutoff     =     150.0000  Ry
     charge density cutoff     =     600.0000  Ry
     Exchange-correlation= SLA  PW   PBX  PBC
                           (   1   4   3   4   0   0   0)
     Hubbard projectors: ortho-atomic
     Hubbard parameters of DFT+U (Dudarev formulation) in eV:
     U(Zn-3d) =  7.0000
     U(Cu-3d) =  5.0000

     Internal variables: lda_plus_u = T, lda_plus_u_kind = 0

     celldm(1)=  20.568554  celldm(2)=   0.000000  celldm(3)=   0.000000
     celldm(4)=   0.000000  celldm(5)=   0.000000  celldm(6)=   0.000000

     crystal axes: (cart. coord. in units of alat)
               a(1) = (   1.000000   0.000000   0.000000 )  
               a(2) = (   0.000000   1.000000   0.000000 )  
               a(3) = (   0.000000   0.000000   1.000000 )  

     reciprocal axes: (cart. coord. in units 2 pi/alat)
               b(1) = (  1.000000  0.000000  0.000000 )  
               b(2) = (  0.000000  1.000000  0.000000 )  
               b(3) = (  0.000000  0.000000  1.000000 )  


     PseudoPot. # 1 for S  read from file:
     /arf/home/amuhaymin/pseudo/S.pbe-n-kjpaw_psl.1.0.0.UPF
     MD5 check sum: fb45dfebcf3e72a4e1bd4a866ec2e262
     Pseudo is Projector augmented-wave + core cor, Zval =  6.0
     Generated using &quot;atomic&quot; code by A. Dal Corso  v.6.3
     Shape of augmentation charge: PSQ
     Using radial grid of 1151 points,  6 beta functions with: 
                l(1) =   0
                l(2) =   0
                l(3) =   1
                l(4) =   1
                l(5) =   2
                l(6) =   2
     Q(r) pseudized with 0 coefficients 


     PseudoPot. # 2 for Zn read from file:
     /arf/home/amuhaymin/pseudo/Zn.pbe-dnl-kjpaw_psl.1.0.0.UPF
     MD5 check sum: c608214d9520ac179f507641260889e3
     Pseudo is Projector augmented-wave + core cor, Zval = 12.0
     Generated using &quot;atomic&quot; code by A. Dal Corso  v.6.2.2
     Shape of augmentation charge: PSQ
     Using radial grid of 1201 points,  6 beta functions with: 
                l(1) =   0
                l(2) =   0
                l(3) =   1
                l(4) =   1
                l(5) =   2
                l(6) =   2
     Q(r) pseudized with 0 coefficients 


     PseudoPot. # 3 for Cu read from file:
     /arf/home/amuhaymin/pseudo/Cu.pbe-spn-kjpaw_psl.1.0.0.UPF
     MD5 check sum: e7cbaad2f97193e5fe23251a619a52b0
     Pseudo is Projector augmented-wave + core cor, Zval = 19.0
     Generated using &quot;atomic&quot; code by A. Dal Corso  v.6.3
     Shape of augmentation charge: PSQ
     Using radial grid of 1199 points,  6 beta functions with: 
                l(1) =   0
                l(2) =   0
                l(3) =   1
                l(4) =   1
                l(5) =   2
                l(6) =   2
     Q(r) pseudized with 0 coefficients 


     atomic species   valence    mass     pseudopotential
        S              6.00    32.06500     S ( 1.00)
        Zn            12.00    65.38000     Zn( 1.00)
        Cu            19.00    63.54600     Cu( 1.00)

     Starting magnetic structure 
     atomic species   magnetization
        S            0.000
        Zn           0.000
        Cu           0.053

      6 Sym. Ops. (no inversion) found


                                    s                        frac. trans.

      isym =  1     identity                                     

 cryst.   s( 1) = (     1          0          0      )
                  (     0          1          0      )
                  (     0          0          1      )

 cart.    s( 1) = (  1.0000000  0.0000000  0.0000000 )
                  (  0.0000000  1.0000000  0.0000000 )
                  (  0.0000000  0.0000000  1.0000000 )


      isym =  2     120 deg rotation - cart. axis [-1,-1,-1]     

 cryst.   s( 2) = (     0          0          1      )
                  (     1          0          0      )
                  (     0          1          0      )

 cart.    s( 2) = (  0.0000000  1.0000000  0.0000000 )
                  (  0.0000000  0.0000000  1.0000000 )
                  (  1.0000000  0.0000000  0.0000000 )


      isym =  3     120 deg rotation - cart. axis [1,1,1]        

 cryst.   s( 3) = (     0          1          0      )
                  (     0          0          1      )
                  (     1          0          0      )

 cart.    s( 3) = (  0.0000000  0.0000000  1.0000000 )
                  (  1.0000000  0.0000000  0.0000000 )
                  (  0.0000000  1.0000000  0.0000000 )


      isym =  4     inv. 180 deg rotation - cart. axis [1,-1,0]  

 cryst.   s( 4) = (     0          1          0      )
                  (     1          0          0      )
                  (     0          0          1      )

 cart.    s( 4) = (  0.0000000  1.0000000  0.0000000 )
                  (  1.0000000  0.0000000  0.0000000 )
                  (  0.0000000  0.0000000  1.0000000 )


      isym =  5     inv. 180 deg rotation - cart. axis [-1,0,1]  

 cryst.   s( 5) = (     0          0          1      )
                  (     0          1          0      )
                  (     1          0          0      )

 cart.    s( 5) = (  0.0000000  0.0000000  1.0000000 )
                  (  0.0000000  1.0000000  0.0000000 )
                  (  1.0000000  0.0000000  0.0000000 )


      isym =  6     inv. 180 deg rotation - cart. axis [0,1,-1]  

 cryst.   s( 6) = (     1          0          0      )
                  (     0          0          1      )
                  (     0          1          0      )

 cart.    s( 6) = (  1.0000000  0.0000000  0.0000000 )
                  (  0.0000000  0.0000000  1.0000000 )
                  (  0.0000000  1.0000000  0.0000000 )


     point group C_3v (3m)  
     there are  3 classes
     the character table:

       E     2C3   3s_v 
A_1    1.00  1.00  1.00
A_2    1.00  1.00 -1.00
E      2.00 -1.00  0.00

     the symmetry operations in each class and the name of the first element:

     E        1
          identity                                               
     2C3      2    3
          120 deg rotation - cart. axis [-1,-1,-1]               
     3s_v     4    5    6
          inv. 180 deg rotation - cart. axis [1,-1,0]            

   Cartesian axes

     site n.     atom                  positions (alat units)
         1           Zn  tau(   1) = (   0.0000000   0.0000000   0.0000000  )
         2           Zn  tau(   2) = (   0.0000000   0.2500000   0.2500000  )
         3           Zn  tau(   3) = (   0.2500000   0.0000000   0.2500000  )
         4           Zn  tau(   4) = (   0.2500000   0.2500000   0.0000000  )
         5           S   tau(   5) = (   0.1250000   0.3750000   0.3750000  )
         6           S   tau(   6) = (   0.1250000   0.1250000   0.1250000  )
         7           S   tau(   7) = (   0.3750000   0.3750000   0.1250000  )
         8           S   tau(   8) = (   0.3750000   0.1250000   0.3750000  )
         9           Zn  tau(   9) = (   0.0000000   0.0000000   0.5000000  )
        10           Zn  tau(  10) = (   0.0000000   0.2500000   0.7500000  )
        11           Zn  tau(  11) = (   0.2500000   0.0000000   0.7500000  )
        12           Zn  tau(  12) = (   0.2500000   0.2500000   0.5000000  )
        13           S   tau(  13) = (   0.1250000   0.3750000   0.8750000  )
        14           S   tau(  14) = (   0.1250000   0.1250000   0.6250000  )
        15           S   tau(  15) = (   0.3750000   0.3750000   0.6250000  )
        16           S   tau(  16) = (   0.3750000   0.1250000   0.8750000  )
        17           Zn  tau(  17) = (   0.0000000   0.5000000   0.0000000  )
        18           Zn  tau(  18) = (   0.0000000   0.7500000   0.2500000  )
        19           Zn  tau(  19) = (   0.2500000   0.5000000   0.2500000  )
        20           Zn  tau(  20) = (   0.2500000   0.7500000   0.0000000  )
        21           S   tau(  21) = (   0.1250000   0.8750000   0.3750000  )
        22           S   tau(  22) = (   0.1250000   0.6250000   0.1250000  )
        23           S   tau(  23) = (   0.3750000   0.8750000   0.1250000  )
        24           S   tau(  24) = (   0.3750000   0.6250000   0.3750000  )
        25           Zn  tau(  25) = (   0.0000000   0.5000000   0.5000000  )
        26           Zn  tau(  26) = (   0.0000000   0.7500000   0.7500000  )
        27           Zn  tau(  27) = (   0.2500000   0.5000000   0.7500000  )
        28           Zn  tau(  28) = (   0.2500000   0.7500000   0.5000000  )
        29           S   tau(  29) = (   0.1250000   0.8750000   0.8750000  )
        30           S   tau(  30) = (   0.1250000   0.6250000   0.6250000  )
        31           S   tau(  31) = (   0.3750000   0.8750000   0.6250000  )
        32           S   tau(  32) = (   0.3750000   0.6250000   0.8750000  )
        33           Zn  tau(  33) = (   0.5000000   0.0000000   0.0000000  )
        34           Zn  tau(  34) = (   0.5000000   0.2500000   0.2500000  )
        35           Zn  tau(  35) = (   0.7500000   0.0000000   0.2500000  )
        36           Zn  tau(  36) = (   0.7500000   0.2500000   0.0000000  )
        37           S   tau(  37) = (   0.6250000   0.3750000   0.3750000  )
        38           S   tau(  38) = (   0.6250000   0.1250000   0.1250000  )
        39           S   tau(  39) = (   0.8750000   0.3750000   0.1250000  )
        40           S   tau(  40) = (   0.8750000   0.1250000   0.3750000  )
        41           Zn  tau(  41) = (   0.5000000   0.0000000   0.5000000  )
        42           Zn  tau(  42) = (   0.5000000   0.2500000   0.7500000  )
        43           Zn  tau(  43) = (   0.7500000   0.0000000   0.7500000  )
        44           Zn  tau(  44) = (   0.7500000   0.2500000   0.5000000  )
        45           S   tau(  45) = (   0.6250000   0.3750000   0.8750000  )
        46           S   tau(  46) = (   0.6250000   0.1250000   0.6250000  )
        47           S   tau(  47) = (   0.8750000   0.3750000   0.6250000  )
        48           S   tau(  48) = (   0.8750000   0.1250000   0.8750000  )
        49           Zn  tau(  49) = (   0.5000000   0.5000000   0.0000000  )
        50           Zn  tau(  50) = (   0.5000000   0.7500000   0.2500000  )
        51           Zn  tau(  51) = (   0.7500000   0.5000000   0.2500000  )
        52           Zn  tau(  52) = (   0.7500000   0.7500000   0.0000000  )
        53           S   tau(  53) = (   0.6250000   0.8750000   0.3750000  )
        54           S   tau(  54) = (   0.6250000   0.6250000   0.1250000  )
        55           S   tau(  55) = (   0.8750000   0.8750000   0.1250000  )
        56           S   tau(  56) = (   0.8750000   0.6250000   0.3750000  )
        57           Cu  tau(  57) = (   0.5000000   0.5000000   0.5000000  )
        58           Zn  tau(  58) = (   0.5000000   0.7500000   0.7500000  )
        59           Zn  tau(  59) = (   0.7500000   0.5000000   0.7500000  )
        60           Zn  tau(  60) = (   0.7500000   0.7500000   0.5000000  )
        61           S   tau(  61) = (   0.6250000   0.8750000   0.8750000  )
        62           S   tau(  62) = (   0.8750000   0.8750000   0.6250000  )
        63           S   tau(  63) = (   0.8750000   0.6250000   0.8750000  )

   Crystallographic axes

     site n.     atom                  positions (cryst. coord.)
         1           Zn  tau(   1) = (  0.0000000  0.0000000  0.0000000  )
         2           Zn  tau(   2) = (  0.0000000  0.2500000  0.2500000  )
         3           Zn  tau(   3) = (  0.2500000  0.0000000  0.2500000  )
         4           Zn  tau(   4) = (  0.2500000  0.2500000  0.0000000  )
         5           S   tau(   5) = (  0.1250000  0.3750000  0.3750000  )
         6           S   tau(   6) = (  0.1250000  0.1250000  0.1250000  )
         7           S   tau(   7) = (  0.3750000  0.3750000  0.1250000  )
         8           S   tau(   8) = (  0.3750000  0.1250000  0.3750000  )
         9           Zn  tau(   9) = (  0.0000000  0.0000000  0.5000000  )
        10           Zn  tau(  10) = (  0.0000000  0.2500000  0.7500000  )
        11           Zn  tau(  11) = (  0.2500000  0.0000000  0.7500000  )
        12           Zn  tau(  12) = (  0.2500000  0.2500000  0.5000000  )
        13           S   tau(  13) = (  0.1250000  0.3750000  0.8750000  )
        14           S   tau(  14) = (  0.1250000  0.1250000  0.6250000  )
        15           S   tau(  15) = (  0.3750000  0.3750000  0.6250000  )
        16           S   tau(  16) = (  0.3750000  0.1250000  0.8750000  )
        17           Zn  tau(  17) = (  0.0000000  0.5000000  0.0000000  )
        18           Zn  tau(  18) = (  0.0000000  0.7500000  0.2500000  )
        19           Zn  tau(  19) = (  0.2500000  0.5000000  0.2500000  )
        20           Zn  tau(  20) = (  0.2500000  0.7500000  0.0000000  )
        21           S   tau(  21) = (  0.1250000  0.8750000  0.3750000  )
        22           S   tau(  22) = (  0.1250000  0.6250000  0.1250000  )
        23           S   tau(  23) = (  0.3750000  0.8750000  0.1250000  )
        24           S   tau(  24) = (  0.3750000  0.6250000  0.3750000  )
        25           Zn  tau(  25) = (  0.0000000  0.5000000  0.5000000  )
        26           Zn  tau(  26) = (  0.0000000  0.7500000  0.7500000  )
        27           Zn  tau(  27) = (  0.2500000  0.5000000  0.7500000  )
        28           Zn  tau(  28) = (  0.2500000  0.7500000  0.5000000  )
        29           S   tau(  29) = (  0.1250000  0.8750000  0.8750000  )
        30           S   tau(  30) = (  0.1250000  0.6250000  0.6250000  )
        31           S   tau(  31) = (  0.3750000  0.8750000  0.6250000  )
        32           S   tau(  32) = (  0.3750000  0.6250000  0.8750000  )
        33           Zn  tau(  33) = (  0.5000000  0.0000000  0.0000000  )
        34           Zn  tau(  34) = (  0.5000000  0.2500000  0.2500000  )
        35           Zn  tau(  35) = (  0.7500000  0.0000000  0.2500000  )
        36           Zn  tau(  36) = (  0.7500000  0.2500000  0.0000000  )
        37           S   tau(  37) = (  0.6250000  0.3750000  0.3750000  )
        38           S   tau(  38) = (  0.6250000  0.1250000  0.1250000  )
        39           S   tau(  39) = (  0.8750000  0.3750000  0.1250000  )
        40           S   tau(  40) = (  0.8750000  0.1250000  0.3750000  )
        41           Zn  tau(  41) = (  0.5000000  0.0000000  0.5000000  )
        42           Zn  tau(  42) = (  0.5000000  0.2500000  0.7500000  )
        43           Zn  tau(  43) = (  0.7500000  0.0000000  0.7500000  )
        44           Zn  tau(  44) = (  0.7500000  0.2500000  0.5000000  )
        45           S   tau(  45) = (  0.6250000  0.3750000  0.8750000  )
        46           S   tau(  46) = (  0.6250000  0.1250000  0.6250000  )
        47           S   tau(  47) = (  0.8750000  0.3750000  0.6250000  )
        48           S   tau(  48) = (  0.8750000  0.1250000  0.8750000  )
        49           Zn  tau(  49) = (  0.5000000  0.5000000  0.0000000  )
        50           Zn  tau(  50) = (  0.5000000  0.7500000  0.2500000  )
        51           Zn  tau(  51) = (  0.7500000  0.5000000  0.2500000  )
        52           Zn  tau(  52) = (  0.7500000  0.7500000  0.0000000  )
        53           S   tau(  53) = (  0.6250000  0.8750000  0.3750000  )
        54           S   tau(  54) = (  0.6250000  0.6250000  0.1250000  )
        55           S   tau(  55) = (  0.8750000  0.8750000  0.1250000  )
        56           S   tau(  56) = (  0.8750000  0.6250000  0.3750000  )
        57           Cu  tau(  57) = (  0.5000000  0.5000000  0.5000000  )
        58           Zn  tau(  58) = (  0.5000000  0.7500000  0.7500000  )
        59           Zn  tau(  59) = (  0.7500000  0.5000000  0.7500000  )
        60           Zn  tau(  60) = (  0.7500000  0.7500000  0.5000000  )
        61           S   tau(  61) = (  0.6250000  0.8750000  0.8750000  )
        62           S   tau(  62) = (  0.8750000  0.8750000  0.6250000  )
        63           S   tau(  63) = (  0.8750000  0.6250000  0.8750000  )

     number of k points=    13 (tetrahedron method)
                       cart. coord. in units 2pi/alat
        k(    1) = (   0.0000000   0.0000000   0.0000000), wk =   0.0156250
        k(    2) = (   0.0000000   0.0000000   0.2500000), wk =   0.0937500
        k(    3) = (   0.0000000   0.0000000  -0.5000000), wk =   0.0468750
        k(    4) = (   0.0000000   0.2500000   0.2500000), wk =   0.0937500
        k(    5) = (   0.0000000   0.2500000  -0.5000000), wk =   0.1875000
        k(    6) = (   0.0000000  -0.5000000  -0.5000000), wk =   0.0468750
        k(    7) = (   0.2500000   0.2500000   0.2500000), wk =   0.0312500
        k(    8) = (   0.2500000   0.2500000  -0.5000000), wk =   0.0937500
        k(    9) = (   0.2500000  -0.5000000  -0.5000000), wk =   0.0937500
        k(   10) = (  -0.5000000  -0.5000000  -0.5000000), wk =   0.0156250
        k(   11) = (  -0.2500000   0.0000000   0.2500000), wk =   0.0937500
        k(   12) = (   0.2500000  -0.2500000   0.2500000), wk =   0.0937500
        k(   13) = (   0.2500000  -0.2500000  -0.5000000), wk =   0.0937500

                       cryst. coord.
        k(    1) = (   0.0000000   0.0000000   0.0000000), wk =   0.0156250
        k(    2) = (   0.0000000   0.0000000   0.2500000), wk =   0.0937500
        k(    3) = (   0.0000000   0.0000000  -0.5000000), wk =   0.0468750
        k(    4) = (   0.0000000   0.2500000   0.2500000), wk =   0.0937500
        k(    5) = (   0.0000000   0.2500000  -0.5000000), wk =   0.1875000
        k(    6) = (   0.0000000  -0.5000000  -0.5000000), wk =   0.0468750
        k(    7) = (   0.2500000   0.2500000   0.2500000), wk =   0.0312500
        k(    8) = (   0.2500000   0.2500000  -0.5000000), wk =   0.0937500
        k(    9) = (   0.2500000  -0.5000000  -0.5000000), wk =   0.0937500
        k(   10) = (  -0.5000000  -0.5000000  -0.5000000), wk =   0.0156250
        k(   11) = (  -0.2500000   0.0000000   0.2500000), wk =   0.0937500
        k(   12) = (   0.2500000  -0.2500000   0.2500000), wk =   0.0937500
        k(   13) = (   0.2500000  -0.2500000  -0.5000000), wk =   0.0937500

     Dense  grid:  2160009 G-vectors     FFT dimensions: ( 162, 162, 162)

     Dynamical RAM for                 wfc:      12.76 MB

     Dynamical RAM for     wfc (w. buffer):      38.28 MB

     Dynamical RAM for             U proj.:       5.88 MB

     Dynamical RAM for  U proj. (w. buff.):      17.65 MB

     Dynamical RAM for           str. fact:       0.88 MB

     Dynamical RAM for           local pot:       0.00 MB

     Dynamical RAM for          nlocal pot:      41.70 MB

     Dynamical RAM for                qrad:       5.90 MB

     Dynamical RAM for          rho,v,vnew:       4.17 MB

     Dynamical RAM for           G-vectors:       1.25 MB

     Dynamical RAM for          h,s,v(r/c):       2.44 MB

     Dynamical RAM for          <psi|beta>:       6.00 MB

     Dynamical RAM for                 psi:      25.52 MB

     Dynamical RAM for                hpsi:      25.52 MB

     Dynamical RAM for                spsi:      25.52 MB

     Dynamical RAM for      wfcinit/wfcrot:      34.28 MB

     Dynamical RAM for           addusdens:       5.48 MB

     Estimated static dynamical RAM per process >     113.41 MB

     Estimated max dynamical RAM per process >     198.42 MB

     Estimated total dynamical RAM >     282.13 GB
     Generating pointlists ...
     new r_m :   0.0893 (alat units)  1.8370 (a.u.) for type    1
     new r_m :   0.0893 (alat units)  1.8370 (a.u.) for type    2
     new r_m :   0.0893 (alat units)  1.8370 (a.u.) for type    3

     The potential is recalculated from file :
     ./out/Cu_vac_q0_U5_unrlxd.save/charge-density


     HUBBARD ENERGY =    0.2738  (Ry)

     STARTING HUBBARD OCCUPATIONS:

     =================== HUBBARD OCCUPATIONS ===================
     ------------------------ ATOM    1 ------------------------
     Tr[ns(  1)] (up, down, total) =   4.98372  4.98369  9.96740
     Atomic magnetic moment for atom   1 =   0.00003
     SPIN  1
     eigenvalues:
       0.996  0.996  0.996  0.998  0.998
     eigenvectors (columns):
       0.000 -0.006  0.003 -0.126 -0.992
       0.577  0.005  0.816 -0.004  0.003
       0.577 -0.709 -0.404  0.005  0.002
      -0.000  0.003  0.006  0.992 -0.126
      -0.577 -0.705  0.412  0.001  0.006
     occupation matrix ns (before diag.):
       0.998 -0.000 -0.000  0.000 -0.000
      -0.000  0.996 -0.000 -0.000  0.000
      -0.000 -0.000  0.996  0.000  0.000
       0.000 -0.000  0.000  0.998 -0.000
      -0.000  0.000  0.000 -0.000  0.996
     SPIN  2
     eigenvalues:
       0.996  0.996  0.996  0.998  0.998
     eigenvectors (columns):
       0.000  0.005 -0.003 -0.293 -0.956
       0.577 -0.013 -0.816 -0.003  0.004
       0.577  0.714  0.397  0.005  0.001
      -0.000 -0.003 -0.005  0.956 -0.293
      -0.577  0.700 -0.420  0.001  0.005
     occupation matrix ns (before diag.):
       0.998 -0.000 -0.000  0.000 -0.000
      -0.000  0.996 -0.000 -0.000  0.000
      -0.000 -0.000  0.996  0.000  0.000
       0.000 -0.000  0.000  0.998 -0.000
      -0.000  0.000  0.000 -0.000  0.996
     ------------------------ ATOM    2 ------------------------
     Tr[ns(  2)] (up, down, total) =   4.98371  4.98368  9.96740
     Atomic magnetic moment for atom   2 =   0.00003
     SPIN  1
     eigenvalues:
       0.996  0.996  0.996  0.998  0.998
     eigenvectors (columns):
       0.001 -0.005 -0.000 -0.500  0.866
       0.617 -0.707  0.345  0.001 -0.004
       0.487 -0.000 -0.873  0.002 -0.000
      -0.002 -0.003  0.001  0.866  0.500
      -0.617 -0.707 -0.345 -0.001 -0.004
     occupation matrix ns (before diag.):
       0.998 -0.000 -0.000  0.000 -0.000
      -0.000  0.996 -0.000 -0.000  0.000
      -0.000 -0.000  0.996  0.000  0.000
       0.000 -0.000  0.000  0.998 -0.000
      -0.000  0.000  0.000 -0.000  0.996
     SPIN  2
     eigenvalues:
       0.996  0.996  0.996  0.998  0.998
     eigenvectors (columns):
       0.001 -0.005 -0.000 -0.500  0.866
       0.615 -0.707  0.349  0.001 -0.004
       0.494 -0.000 -0.870  0.001 -0.000
      -0.002 -0.003  0.000  0.866  0.500
      -0.615 -0.707 -0.349 -0.001 -0.004
     occupation matrix ns (before diag.):
       0.998 -0.000 -0.000  0.000 -0.000
      -0.000  0.996 -0.000 -0.000  0.000
      -0.000 -0.000  0.996  0.000  0.000
       0.000 -0.000  0.000  0.998 -0.000
      -0.000  0.000  0.000 -0.000  0.996
     ------------------------ ATOM    3 ------------------------
     Tr[ns(  3)] (up, down, total) =   4.98371  4.98368  9.96740
     Atomic magnetic moment for atom   3 =   0.00003
     SPIN  1
     eigenvalues:
       0.996  0.996  0.996  0.998  0.998
     eigenvectors (columns):
       0.001 -0.005 -0.000 -0.500  0.866
       0.487 -0.000 -0.873  0.002 -0.000
       0.617 -0.707  0.345  0.001 -0.004
       0.002  0.003 -0.001 -0.866 -0.500
      -0.617 -0.707 -0.345 -0.001 -0.004
     occupation matrix ns (before diag.):
       0.998 -0.000 -0.000 -0.000 -0.000
      -0.000  0.996 -0.000 -0.000  0.000
      -0.000 -0.000  0.996  0.000  0.000
      -0.000 -0.000  0.000  0.998  0.000
      -0.000  0.000  0.000  0.000  0.996
     SPIN  2
     eigenvalues:
       0.996  0.996  0.996  0.998  0.998
     eigenvectors (columns):
       0.001 -0.005 -0.000 -0.500  0.866
       0.494 -0.000 -0.870  0.001 -0.000
       0.615 -0.707  0.349  0.001 -0.004
       0.002  0.003 -0.000 -0.866 -0.500
      -0.615 -0.707 -0.349 -0.001 -0.004
     occupation matrix ns (before diag.):
       0.998 -0.000 -0.000 -0.000 -0.000
      -0.000  0.996 -0.000 -0.000  0.000
      -0.000 -0.000  0.996  0.000  0.000
      -0.000 -0.000  0.000  0.998  0.000
      -0.000  0.000  0.000  0.000  0.996
     ------------------------ ATOM    4 ------------------------
     Tr[ns(  4)] (up, down, total) =   4.98371  4.98368  9.96740
     Atomic magnetic moment for atom   4 =   0.00003
     SPIN  1
     eigenvalues:
       0.996  0.996  0.996  0.998  0.998
     eigenvectors (columns):
      -0.003 -0.000  0.001 -1.000  0.000
       0.617  0.707  0.345 -0.001 -0.004
       0.617 -0.707  0.345 -0.001  0.004
      -0.000  0.005  0.000  0.000  1.000
      -0.487 -0.000  0.873  0.002 -0.000
     occupation matrix ns (before diag.):
       0.998  0.000  0.000  0.000 -0.000
       0.000  0.996 -0.000 -0.000  0.000
       0.000 -0.000  0.996  0.000  0.000
       0.000 -0.000  0.000  0.998 -0.000
      -0.000  0.000  0.000 -0.000  0.996
     SPIN  2
     eigenvalues:
       0.996  0.996  0.996  0.998  0.998
     eigenvectors (columns):
       0.002 -0.000 -0.000 -1.000  0.000
      -0.615  0.707 -0.349 -0.001 -0.004
      -0.615 -0.707 -0.349 -0.001  0.004
       0.000  0.006 -0.000  0.000  1.000
       0.494 -0.000 -0.870  0.001 -0.000
     occupation matrix ns (before diag.):
       0.998  0.000  0.000  0.000 -0.000
       0.000  0.996 -0.000 -0.000  0.000
       0.000 -0.000  0.996  0.000  0.000
       0.000 -0.000  0.000  0.998 -0.000
      -0.000  0.000  0.000 -0.000  0.996
     ------------------------ ATOM    9 ------------------------
     Tr[ns(  9)] (up, down, total) =   4.98369  4.98342  9.96711
     Atomic magnetic moment for atom   9 =   0.00027
     SPIN  1
     eigenvalues:
       0.996  0.996  0.996  0.998  0.998
     eigenvectors (columns):
       0.030  0.000 -0.002  0.000  1.000
       0.614  0.707  0.350  0.007 -0.018
       0.614 -0.707  0.350 -0.007 -0.018
      -0.000  0.010  0.000 -1.000  0.000
      -0.495 -0.000  0.869  0.000  0.016
     occupation matrix ns (before diag.):
       0.998 -0.000 -0.000  0.000  0.000
      -0.000  0.996 -0.000 -0.000  0.000
      -0.000 -0.000  0.996  0.000  0.000
       0.000 -0.000  0.000  0.998 -0.000
       0.000  0.000  0.000 -0.000  0.996
     SPIN  2
     eigenvalues:
       0.996  0.996  0.996  0.998  0.998
     eigenvectors (columns):
       0.061  0.000 -0.005  0.998 -0.000
       0.696  0.707  0.115 -0.042  0.003
       0.696 -0.707  0.115 -0.042 -0.003
      -0.000  0.005  0.000 -0.000 -1.000
      -0.162  0.000  0.987  0.015  0.000
     occupation matrix ns (before diag.):
       0.998 -0.000 -0.000  0.000  0.000
      -0.000  0.996 -0.000 -0.000  0.000
      -0.000 -0.000  0.996  0.000  0.000
       0.000 -0.000  0.000  0.998 -0.000
       0.000  0.000  0.000 -0.000  0.996
     ------------------------ ATOM   10 ------------------------
     Tr[ns( 10)] (up, down, total) =   4.98370  4.98347  9.96717
     Atomic magnetic moment for atom  10 =   0.00023
     SPIN  1
     eigenvalues:
       0.996  0.996  0.996  0.998  0.998
     eigenvectors (columns):
      -0.023 -0.008  0.005  0.992 -0.120
       0.766 -0.571  0.295  0.012 -0.002
      -0.620 -0.777  0.108 -0.022 -0.007
       0.006  0.007 -0.005 -0.120 -0.993
      -0.167  0.266  0.949 -0.007 -0.003
     occupation matrix ns (before diag.):
       0.998  0.000 -0.000  0.000 -0.000
       0.000  0.996  0.000  0.000  0.000
      -0.000  0.000  0.996  0.000 -0.000
       0.000  0.000  0.000  0.998  0.000
      -0.000  0.000 -0.000  0.000  0.996
     SPIN  2
     eigenvalues:
       0.996  0.996  0.996  0.998  0.998
     eigenvectors (columns):
      -0.049 -0.007  0.004  0.998 -0.031
       0.730 -0.632  0.258  0.031 -0.000
      -0.673 -0.729  0.122 -0.039 -0.003
       0.004  0.002 -0.004 -0.031 -1.000
      -0.111  0.263  0.958 -0.007 -0.003
     occupation matrix ns (before diag.):
       0.998  0.000 -0.000  0.000 -0.000
       0.000  0.996  0.000 -0.000  0.000
      -0.000  0.000  0.996  0.000 -0.000
       0.000 -0.000  0.000  0.998  0.000
      -0.000  0.000 -0.000  0.000  0.996
     ------------------------ ATOM   11 ------------------------
     Tr[ns( 11)] (up, down, total) =   4.98370  4.98347  9.96717
     Atomic magnetic moment for atom  11 =   0.00023
     SPIN  1
     eigenvalues:
       0.996  0.996  0.996  0.998  0.998
     eigenvectors (columns):
      -0.023 -0.008  0.005  0.992 -0.120
      -0.620 -0.777  0.108 -0.022 -0.007
       0.766 -0.571  0.295  0.012 -0.002
      -0.006 -0.007  0.005  0.120  0.993
      -0.167  0.266  0.949 -0.007 -0.003
     occupation matrix ns (before diag.):
       0.998 -0.000  0.000 -0.000 -0.000
      -0.000  0.996  0.000 -0.000 -0.000
       0.000  0.000  0.996 -0.000  0.000
      -0.000 -0.000 -0.000  0.998 -0.000
      -0.000 -0.000  0.000 -0.000  0.996
     SPIN  2
     eigenvalues:
       0.996  0.996  0.996  0.998  0.998
     eigenvectors (columns):
      -0.049 -0.007  0.004  0.998 -0.031
      -0.673 -0.729  0.122 -0.039 -0.003
       0.730 -0.632  0.258  0.031 -0.000
      -0.004 -0.002  0.004  0.031  1.000
      -0.111  0.263  0.958 -0.007 -0.003
     occupation matrix ns (before diag.):
       0.998 -0.000  0.000 -0.000 -0.000
      -0.000  0.996  0.000 -0.000 -0.000
       0.000  0.000  0.996  0.000  0.000
      -0.000 -0.000  0.000  0.998 -0.000
      -0.000 -0.000  0.000 -0.000  0.996
     ------------------------ ATOM   12 ------------------------
     Tr[ns( 12)] (up, down, total) =   4.98375  4.98359  9.96734
     Atomic magnetic moment for atom  12 =   0.00016
     SPIN  1
     eigenvalues:
       0.996  0.996  0.996  0.998  0.998
     eigenvectors (columns):
      -0.012  0.000  0.056 -0.000 -0.998
      -0.496  0.707  0.503 -0.023  0.034
      -0.496 -0.707  0.503  0.023  0.034
       0.000  0.033  0.000  0.999 -0.000
       0.713 -0.000  0.701 -0.000  0.031
     occupation matrix ns (before diag.):
       0.998 -0.000 -0.000  0.000 -0.000
      -0.000  0.996  0.000 -0.000  0.000
      -0.000  0.000  0.996  0.000  0.000
       0.000 -0.000  0.000  0.998 -0.000
      -0.000  0.000  0.000 -0.000  0.996
     SPIN  2
     eigenvalues:
       0.996  0.996  0.996  0.998  0.998
     eigenvectors (columns):
      -0.012  0.000 -0.045 -0.000 -0.999
      -0.598  0.707 -0.377 -0.025  0.024
      -0.598 -0.707 -0.377  0.025  0.024
       0.000  0.036 -0.000  0.999 -0.000
       0.535 -0.000 -0.845 -0.000  0.032
     occupation matrix ns (before diag.):
       0.998 -0.000 -0.000  0.000 -0.000
      -0.000  0.996 -0.000 -0.000  0.000
      -0.000 -0.000  0.996  0.000  0.000
       0.000 -0.000  0.000  0.998 -0.000
      -0.000  0.000  0.000 -0.000  0.996
     ------------------------ ATOM   17 ------------------------
     Tr[ns( 17)] (up, down, total) =   4.98369  4.98342  9.96711
     Atomic magnetic moment for atom  17 =   0.00027
     SPIN  1
     eigenvalues:
       0.996  0.996  0.996  0.998  0.998
     eigenvectors (columns):
       0.015 -0.008  0.001 -0.866 -0.500
      -0.495  0.000 -0.869  0.000 -0.016
      -0.614 -0.707  0.350  0.007 -0.018
       0.026  0.005  0.001  0.500 -0.866
       0.614 -0.707 -0.350  0.007  0.018
     occupation matrix ns (before diag.):
       0.998  0.000  0.000  0.000 -0.000
       0.000  0.996 -0.000  0.000  0.000
       0.000 -0.000  0.996  0.000  0.000
       0.000  0.000  0.000  0.998 -0.000
      -0.000  0.000  0.000 -0.000  0.996
     SPIN  2
     eigenvalues:
       0.996  0.996  0.996  0.998  0.998
     eigenvectors (columns):
       0.030  0.004  0.003 -0.499 -0.866
      -0.162 -0.000 -0.987 -0.015  0.000
      -0.696  0.707  0.115 -0.042  0.003
       0.053 -0.002  0.004 -0.864  0.500
       0.696  0.707 -0.115  0.042  0.003
     occupation matrix ns (before diag.):
       0.998  0.000  0.000 -0.000 -0.000
       0.000  0.996 -0.000  0.000  0.000
       0.000 -0.000  0.996  0.000  0.000
      -0.000  0.000  0.000  0.998 -0.000
      -0.000  0.000  0.000 -0.000  0.996
     ------------------------ ATOM   18 ------------------------
     Tr[ns( 18)] (up, down, total) =   4.98370  4.98347  9.96717
     Atomic magnetic moment for atom  18 =   0.00023
     SPIN  1
     eigenvalues:
       0.996  0.996  0.996  0.998  0.998
     eigenvectors (columns):
      -0.006  0.002  0.002 -0.392 -0.920
      -0.167  0.266 -0.949  0.007 -0.003
       0.620  0.777  0.108 -0.022  0.007
      -0.023 -0.010 -0.007 -0.920  0.392
       0.766 -0.571 -0.295 -0.012 -0.002
     occupation matrix ns (before diag.):
       0.998 -0.000  0.000 -0.000  0.000
      -0.000  0.996  0.000 -0.000  0.000
       0.000  0.000  0.996  0.000 -0.000
      -0.000 -0.000  0.000  0.998  0.000
       0.000  0.000 -0.000  0.000  0.996
     SPIN  2
     eigenvalues:
       0.996  0.996  0.996  0.998  0.998
     eigenvectors (columns):
      -0.021 -0.002  0.001 -0.473 -0.881
      -0.111  0.263 -0.958  0.007 -0.003
       0.673  0.729  0.122 -0.039  0.003
      -0.045 -0.007 -0.005 -0.880  0.473
       0.730 -0.632 -0.258 -0.031 -0.000
     occupation matrix ns (before diag.):
       0.998 -0.000  0.000 -0.000  0.000
      -0.000  0.996  0.000 -0.000  0.000
       0.000  0.000  0.996  0.000 -0.000
      -0.000 -0.000  0.000  0.998  0.000
       0.000  0.000 -0.000  0.000  0.996
     ------------------------ ATOM   19 ------------------------
     Tr[ns( 19)] (up, down, total) =   4.98375  4.98359  9.96734
     Atomic magnetic moment for atom  19 =   0.00016
     SPIN  1
     eigenvalues:
       0.996  0.996  0.996  0.998  0.998
     eigenvectors (columns):
       0.006 -0.028  0.028 -0.866 -0.499
      -0.713  0.000  0.701  0.000  0.031
      -0.496 -0.707 -0.503  0.023 -0.034
       0.010  0.016  0.049  0.500 -0.865
       0.496 -0.707  0.503  0.023  0.034
     occupation matrix ns (before diag.):
       0.998 -0.000 -0.000  0.000 -0.000
      -0.000  0.996 -0.000 -0.000  0.000
      -0.000 -0.000  0.996  0.000 -0.000
       0.000 -0.000  0.000  0.998 -0.000
      -0.000  0.000 -0.000 -0.000  0.996
     SPIN  2
     eigenvalues:
       0.996  0.996  0.996  0.998  0.998
     eigenvectors (columns):
       0.006 -0.031 -0.023  0.865  0.499
      -0.535 -0.000 -0.845 -0.000 -0.032
      -0.598 -0.707  0.377 -0.025  0.024
       0.010  0.018 -0.039 -0.500  0.865
       0.598 -0.707 -0.377 -0.025 -0.024
     occupation matrix ns (before diag.):
       0.998 -0.000 -0.000  0.000 -0.000
      -0.000  0.996 -0.000 -0.000  0.000
      -0.000 -0.000  0.996  0.000  0.000
       0.000 -0.000  0.000  0.998 -0.000
      -0.000  0.000  0.000 -0.000  0.996
     ------------------------ ATOM   20 ------------------------
     Tr[ns( 20)] (up, down, total) =   4.98370  4.98347  9.96717
     Atomic magnetic moment for atom  20 =   0.00023
     SPIN  1
     eigenvalues:
       0.996  0.996  0.996  0.998  0.998
     eigenvectors (columns):
       0.017  0.010 -0.006 -0.600 -0.800
       0.167 -0.266 -0.949  0.007  0.003
       0.766 -0.571  0.295  0.012 -0.002
       0.017  0.003 -0.002 -0.799  0.601
       0.620  0.777 -0.108  0.022  0.007
     occupation matrix ns (before diag.):
       0.998 -0.000 -0.000 -0.000 -0.000
      -0.000  0.996 -0.000 -0.000 -0.000
      -0.000 -0.000  0.996 -0.000 -0.000
      -0.000 -0.000 -0.000  0.998 -0.000
      -0.000 -0.000 -0.000 -0.000  0.996
     SPIN  2
     eigenvalues:
       0.996  0.996  0.996  0.998  0.998
     eigenvectors (columns):
      -0.028 -0.005 -0.005  0.526 -0.850
      -0.111  0.263 -0.958 -0.007  0.003
      -0.730  0.632  0.258 -0.031 -0.000
      -0.041 -0.005 -0.001  0.849  0.526
      -0.673 -0.729 -0.122 -0.039  0.003
     occupation matrix ns (before diag.):
       0.998 -0.000 -0.000 -0.000 -0.000
      -0.000  0.996 -0.000 -0.000 -0.000
      -0.000 -0.000  0.996 -0.000 -0.000
      -0.000 -0.000 -0.000  0.998 -0.000
      -0.000 -0.000 -0.000 -0.000  0.996
     ------------------------ ATOM   25 ------------------------
     Tr[ns( 25)] (up, down, total) =   4.98381  4.98376  9.96757
     Atomic magnetic moment for atom  25 =   0.00004
     SPIN  1
     eigenvalues:
       0.996  0.996  0.996  0.998  0.998
     eigenvectors (columns):
       0.005 -0.006 -0.008 -0.866 -0.500
      -0.667 -0.707 -0.235  0.005 -0.003
       0.333  0.000 -0.943  0.000  0.019
      -0.009 -0.003  0.014 -0.500  0.866
       0.667 -0.707  0.235  0.005  0.003
     occupation matrix ns (before diag.):
       0.998 -0.000 -0.000 -0.000 -0.000
      -0.000  0.996  0.000 -0.000  0.000
      -0.000  0.000  0.996  0.000 -0.000
      -0.000 -0.000  0.000  0.998  0.000
      -0.000  0.000 -0.000  0.000  0.996
     SPIN  2
     eigenvalues:
       0.996  0.996  0.996  0.998  0.998
     eigenvectors (columns):
      -0.010  0.010 -0.005 -0.866 -0.500
       0.640  0.301 -0.707  0.004 -0.007
      -0.425  0.905 -0.000  0.000  0.027
       0.018 -0.018 -0.003 -0.500  0.866
      -0.640 -0.301 -0.707  0.004  0.007
     occupation matrix ns (before diag.):
       0.998  0.000 -0.000 -0.000 -0.000
       0.000  0.996  0.000 -0.000  0.000
      -0.000  0.000  0.996  0.000 -0.000
      -0.000 -0.000  0.000  0.998  0.000
      -0.000  0.000 -0.000  0.000  0.996
     ------------------------ ATOM   26 ------------------------
     Tr[ns( 26)] (up, down, total) =   4.98376  4.98369  9.96745
     Atomic magnetic moment for atom  26 =   0.00006
     SPIN  1
     eigenvalues:
       0.996  0.996  0.996  0.998  0.998
     eigenvectors (columns):
      -0.001 -0.008  0.017 -0.866 -0.500
      -0.702 -0.088 -0.707 -0.014  0.003
       0.125 -0.992 -0.000 -0.000  0.015
       0.002  0.013  0.010 -0.500  0.866
       0.702  0.088 -0.707 -0.014 -0.003
     occupation matrix ns (before diag.):
       0.998  0.000 -0.000 -0.000  0.000
       0.000  0.996  0.000  0.000  0.000
      -0.000  0.000  0.996  0.000 -0.000
      -0.000  0.000  0.000  0.998  0.000
       0.000  0.000 -0.000  0.000  0.996
     SPIN  2
     eigenvalues:
       0.996  0.996  0.996  0.998  0.998
     eigenvectors (columns):
      -0.010 -0.011 -0.016  0.500  0.866
      -0.681  0.191  0.707 -0.009  0.013
      -0.269 -0.963  0.000 -0.027 -0.000
       0.017  0.020 -0.009 -0.866  0.500
       0.681 -0.191  0.707  0.009  0.013
     occupation matrix ns (before diag.):
       0.998  0.000 -0.000  0.000  0.000
       0.000  0.996 -0.000  0.000  0.000
      -0.000 -0.000  0.996  0.000  0.000
       0.000  0.000  0.000  0.998 -0.000
       0.000  0.000  0.000 -0.000  0.996
     ------------------------ ATOM   27 ------------------------
     Tr[ns( 27)] (up, down, total) =   4.98377  4.98372  9.96749
     Atomic magnetic moment for atom  27 =   0.00004
     SPIN  1
     eigenvalues:
       0.996  0.996  0.996  0.998  0.998
     eigenvectors (columns):
      -0.009 -0.038  0.053 -0.875 -0.480
      -0.753  0.011 -0.655 -0.003 -0.052
       0.512 -0.618 -0.595  0.010 -0.044
      -0.001  0.005  0.068  0.483 -0.873
       0.413  0.785 -0.457 -0.038 -0.053
     occupation matrix ns (before diag.):
       0.998  0.000  0.000  0.000  0.000
       0.000  0.996  0.000  0.000  0.000
       0.000  0.000  0.996  0.000 -0.000
       0.000  0.000  0.000  0.998  0.000
       0.000  0.000 -0.000  0.000  0.996
     SPIN  2
     eigenvalues:
       0.996  0.996  0.996  0.998  0.998
     eigenvectors (columns):
      -0.012 -0.036  0.059 -0.840 -0.538
      -0.737 -0.015 -0.674 -0.003 -0.051
       0.533 -0.628 -0.565  0.005 -0.041
       0.000  0.005  0.060  0.542 -0.838
       0.416  0.777 -0.468 -0.038 -0.053
     occupation matrix ns (before diag.):
       0.998  0.000  0.000  0.000  0.000
       0.000  0.996  0.000  0.000  0.000
       0.000  0.000  0.996  0.000 -0.000
       0.000  0.000  0.000  0.998  0.000
       0.000  0.000 -0.000  0.000  0.996
     ------------------------ ATOM   28 ------------------------
     Tr[ns( 28)] (up, down, total) =   4.98377  4.98372  9.96749
     Atomic magnetic moment for atom  28 =   0.00004
     SPIN  1
     eigenvalues:
       0.996  0.996  0.996  0.998  0.998
     eigenvectors (columns):
       0.005  0.015  0.085  0.019  0.996
      -0.413 -0.785 -0.457  0.038  0.053
       0.512 -0.618  0.595  0.010 -0.044
       0.008  0.036  0.012  0.999 -0.021
       0.753 -0.011 -0.655  0.003  0.052
     occupation matrix ns (before diag.):
       0.998  0.000 -0.000 -0.000  0.000
       0.000  0.996  0.000  0.000  0.000
      -0.000  0.000  0.996  0.000 -0.000
      -0.000  0.000  0.000  0.998  0.000
       0.000  0.000 -0.000  0.000  0.996
     SPIN  2
     eigenvalues:
       0.996  0.996  0.996  0.998  0.998
     eigenvectors (columns):
       0.006  0.013  0.082 -0.049  0.995
      -0.416 -0.777 -0.468  0.038  0.053
       0.533 -0.628  0.565  0.005 -0.041
       0.011  0.034  0.021  0.998  0.047
       0.737  0.015 -0.674  0.003  0.051
     occupation matrix ns (before diag.):
       0.998  0.000 -0.000  0.000  0.000
       0.000  0.996  0.000  0.000  0.000
      -0.000  0.000  0.996  0.000 -0.000
       0.000  0.000  0.000  0.998  0.000
       0.000  0.000 -0.000  0.000  0.996
     ------------------------ ATOM   33 ------------------------
     Tr[ns( 33)] (up, down, total) =   4.98369  4.98342  9.96711
     Atomic magnetic moment for atom  33 =   0.00027
     SPIN  1
     eigenvalues:
       0.996  0.996  0.996  0.998  0.998
     eigenvectors (columns):
       0.015  0.008 -0.001 -0.866 -0.500
      -0.614  0.707 -0.350  0.007 -0.018
      -0.495  0.000  0.869  0.000 -0.016
      -0.026  0.005  0.001 -0.500  0.866
       0.614  0.707  0.350  0.007  0.018
     occupation matrix ns (before diag.):
       0.998  0.000  0.000 -0.000 -0.000
       0.000  0.996 -0.000 -0.000  0.000
       0.000 -0.000  0.996 -0.000  0.000
      -0.000 -0.000 -0.000  0.998  0.000
      -0.000  0.000  0.000  0.000  0.996
     SPIN  2
     eigenvalues:
       0.996  0.996  0.996  0.998  0.998
     eigenvectors (columns):
      -0.030  0.004 -0.003 -0.499 -0.866
       0.696  0.707 -0.115 -0.042  0.003
       0.162 -0.000  0.987 -0.015 -0.000
       0.053  0.002  0.004  0.864 -0.500
      -0.696  0.707  0.115  0.042  0.003
     occupation matrix ns (before diag.):
       0.998  0.000  0.000  0.000 -0.000
       0.000  0.996 -0.000 -0.000  0.000
       0.000 -0.000  0.996 -0.000  0.000
       0.000 -0.000 -0.000  0.998  0.000
      -0.000  0.000  0.000  0.000  0.996
     ------------------------ ATOM   34 ------------------------
     Tr[ns( 34)] (up, down, total) =   4.98375  4.98359  9.96734
     Atomic magnetic moment for atom  34 =   0.00016
     SPIN  1
     eigenvalues:
       0.996  0.996  0.996  0.998  0.998
     eigenvectors (columns):
       0.006 -0.028  0.028 -0.866 -0.499
      -0.496 -0.707 -0.503  0.023 -0.034
      -0.713 -0.000  0.701  0.000  0.031
      -0.010 -0.016 -0.049 -0.500  0.865
       0.496 -0.707  0.503  0.023  0.034
     occupation matrix ns (before diag.):
       0.998 -0.000 -0.000 -0.000 -0.000
      -0.000  0.996 -0.000 -0.000 -0.000
      -0.000 -0.000  0.996  0.000  0.000
      -0.000 -0.000  0.000  0.998  0.000
      -0.000 -0.000  0.000  0.000  0.996
     SPIN  2
     eigenvalues:
       0.996  0.996  0.996  0.998  0.998
     eigenvectors (columns):
       0.006  0.031  0.023  0.865  0.499
      -0.598  0.707 -0.377 -0.025  0.024
      -0.535  0.000  0.845  0.000 -0.032
      -0.010  0.018 -0.039  0.500 -0.865
       0.598  0.707  0.377 -0.025 -0.024
     occupation matrix ns (before diag.):
       0.998 -0.000 -0.000 -0.000 -0.000
      -0.000  0.996 -0.000 -0.000  0.000
      -0.000 -0.000  0.996  0.000  0.000
      -0.000 -0.000  0.000  0.998  0.000
      -0.000  0.000  0.000  0.000  0.996
     ------------------------ ATOM   35 ------------------------
     Tr[ns( 35)] (up, down, total) =   4.98370  4.98347  9.96717
     Atomic magnetic moment for atom  35 =   0.00023
     SPIN  1
     eigenvalues:
       0.996  0.996  0.996  0.998  0.998
     eigenvectors (columns):
      -0.006 -0.002 -0.002 -0.392 -0.920
       0.620 -0.777 -0.108 -0.022  0.007
      -0.167 -0.266  0.949  0.007 -0.003
       0.023 -0.010 -0.007  0.920 -0.392
       0.766  0.571  0.295 -0.012 -0.002
     occupation matrix ns (before diag.):
       0.998  0.000 -0.000  0.000  0.000
       0.000  0.996  0.000 -0.000 -0.000
      -0.000  0.000  0.996  0.000  0.000
       0.000 -0.000  0.000  0.998 -0.000
       0.000 -0.000  0.000 -0.000  0.996
     SPIN  2
     eigenvalues:
       0.996  0.996  0.996  0.998  0.998
     eigenvectors (columns):
      -0.021  0.002 -0.001 -0.473 -0.881
       0.673 -0.729 -0.122 -0.039  0.003
      -0.111 -0.263  0.958  0.007 -0.003
       0.045 -0.007 -0.005  0.880 -0.473
       0.730  0.632  0.258 -0.031 -0.000
     occupation matrix ns (before diag.):
       0.998  0.000 -0.000  0.000  0.000
       0.000  0.996  0.000 -0.000 -0.000
      -0.000  0.000  0.996  0.000  0.000
       0.000 -0.000  0.000  0.998 -0.000
       0.000 -0.000  0.000 -0.000  0.996
     ------------------------ ATOM   36 ------------------------
     Tr[ns( 36)] (up, down, total) =   4.98370  4.98347  9.96717
     Atomic magnetic moment for atom  36 =   0.00023
     SPIN  1
     eigenvalues:
       0.996  0.996  0.996  0.998  0.998
     eigenvectors (columns):
      -0.017 -0.010 -0.006 -0.600 -0.800
      -0.766  0.571  0.295  0.012 -0.002
      -0.167  0.266 -0.949  0.007  0.003
       0.017  0.003  0.002  0.799 -0.601
      -0.620 -0.777 -0.108  0.022  0.007
     occupation matrix ns (before diag.):
       0.998 -0.000 -0.000  0.000 -0.000
      -0.000  0.996 -0.000  0.000 -0.000
      -0.000 -0.000  0.996  0.000 -0.000
       0.000  0.000  0.000  0.998  0.000
      -0.000 -0.000 -0.000  0.000  0.996
     SPIN  2
     eigenvalues:
       0.996  0.996  0.996  0.998  0.998
     eigenvectors (columns):
       0.028 -0.005 -0.005 -0.526 -0.850
       0.730  0.632  0.258  0.031 -0.000
       0.111  0.263 -0.958  0.007  0.003
      -0.041  0.005  0.001  0.849 -0.526
       0.673 -0.729 -0.122  0.039  0.003
     occupation matrix ns (before diag.):
       0.998 -0.000 -0.000  0.000 -0.000
      -0.000  0.996 -0.000  0.000 -0.000
      -0.000 -0.000  0.996  0.000 -0.000
       0.000  0.000  0.000  0.998  0.000
      -0.000 -0.000 -0.000  0.000  0.996
     ------------------------ ATOM   41 ------------------------
     Tr[ns( 41)] (up, down, total) =   4.98381  4.98376  9.96757
     Atomic magnetic moment for atom  41 =   0.00004
     SPIN  1
     eigenvalues:
       0.996  0.996  0.996  0.998  0.998
     eigenvectors (columns):
       0.005  0.006  0.008  0.866  0.500
       0.333 -0.000  0.943 -0.000 -0.019
      -0.667  0.707  0.235 -0.005  0.003
       0.009 -0.003  0.014 -0.500  0.866
       0.667  0.707 -0.235 -0.005 -0.003
     occupation matrix ns (before diag.):
       0.998 -0.000 -0.000  0.000 -0.000
      -0.000  0.996  0.000 -0.000 -0.000
      -0.000  0.000  0.996  0.000  0.000
       0.000 -0.000  0.000  0.998 -0.000
      -0.000 -0.000  0.000 -0.000  0.996
     SPIN  2
     eigenvalues:
       0.996  0.996  0.996  0.998  0.998
     eigenvectors (columns):
      -0.010  0.010 -0.005 -0.866 -0.500
      -0.425  0.905 -0.000  0.000  0.027
       0.640  0.301 -0.707  0.004 -0.007
      -0.018  0.018  0.003  0.500 -0.866
      -0.640 -0.301 -0.707  0.004  0.007
     occupation matrix ns (before diag.):
       0.998 -0.000  0.000  0.000 -0.000
      -0.000  0.996  0.000 -0.000 -0.000
       0.000  0.000  0.996  0.000  0.000
       0.000 -0.000  0.000  0.998 -0.000
      -0.000 -0.000  0.000 -0.000  0.996
     ------------------------ ATOM   42 ------------------------
     Tr[ns( 42)] (up, down, total) =   4.98377  4.98372  9.96749
     Atomic magnetic moment for atom  42 =   0.00004
     SPIN  1
     eigenvalues:
       0.996  0.996  0.996  0.998  0.998
     eigenvectors (columns):
      -0.009 -0.038  0.053 -0.875 -0.480
       0.512 -0.618 -0.595  0.010 -0.044
      -0.753  0.011 -0.655 -0.003 -0.052
       0.001 -0.005 -0.068 -0.483  0.873
       0.413  0.785 -0.457 -0.038 -0.053
     occupation matrix ns (before diag.):
       0.998  0.000  0.000 -0.000  0.000
       0.000  0.996  0.000 -0.000 -0.000
       0.000  0.000  0.996 -0.000  0.000
      -0.000 -0.000 -0.000  0.998 -0.000
       0.000 -0.000  0.000 -0.000  0.996
     SPIN  2
     eigenvalues:
       0.996  0.996  0.996  0.998  0.998
     eigenvectors (columns):
      -0.012 -0.036  0.059 -0.840 -0.538
       0.533 -0.628 -0.565  0.005 -0.041
      -0.737 -0.015 -0.674 -0.003 -0.051
      -0.000 -0.005 -0.060 -0.542  0.838
       0.416  0.777 -0.468 -0.038 -0.053
     occupation matrix ns (before diag.):
       0.998  0.000  0.000 -0.000  0.000
       0.000  0.996  0.000 -0.000 -0.000
       0.000  0.000  0.996 -0.000  0.000
      -0.000 -0.000 -0.000  0.998 -0.000
       0.000 -0.000  0.000 -0.000  0.996
     ------------------------ ATOM   43 ------------------------
     Tr[ns( 43)] (up, down, total) =   4.98376  4.98369  9.96745
     Atomic magnetic moment for atom  43 =   0.00006
     SPIN  1
     eigenvalues:
       0.996  0.996  0.996  0.998  0.998
     eigenvectors (columns):
      -0.001  0.008 -0.017 -0.866 -0.500
       0.125  0.992  0.000  0.000  0.015
      -0.702  0.088  0.707 -0.014  0.003
      -0.002  0.013  0.010  0.500 -0.866
       0.702 -0.088  0.707 -0.014 -0.003
     occupation matrix ns (before diag.):
       0.998 -0.000  0.000  0.000  0.000
      -0.000  0.996  0.000 -0.000 -0.000
       0.000  0.000  0.996 -0.000  0.000
       0.000 -0.000 -0.000  0.998 -0.000
       0.000 -0.000  0.000 -0.000  0.996
     SPIN  2
     eigenvalues:
       0.996  0.996  0.996  0.998  0.998
     eigenvectors (columns):
      -0.010 -0.011 -0.016  0.500  0.866
      -0.269 -0.963  0.000 -0.027 -0.000
      -0.681  0.191  0.707 -0.009  0.013
      -0.017 -0.020  0.009  0.866 -0.500
       0.681 -0.191  0.707  0.009  0.013
     occupation matrix ns (before diag.):
       0.998 -0.000  0.000 -0.000  0.000
      -0.000  0.996 -0.000 -0.000  0.000
       0.000 -0.000  0.996 -0.000  0.000
      -0.000 -0.000 -0.000  0.998  0.000
       0.000  0.000  0.000  0.000  0.996
     ------------------------ ATOM   44 ------------------------
     Tr[ns( 44)] (up, down, total) =   4.98377  4.98372  9.96749
     Atomic magnetic moment for atom  44 =   0.00004
     SPIN  1
     eigenvalues:
       0.996  0.996  0.996  0.998  0.998
     eigenvectors (columns):
       0.005 -0.015 -0.085 -0.019 -0.996
       0.512  0.618 -0.595 -0.010  0.044
      -0.413  0.785  0.457 -0.038 -0.053
      -0.008  0.036  0.012  0.999 -0.021
       0.753  0.011  0.655 -0.003 -0.052
     occupation matrix ns (before diag.):
       0.998 -0.000  0.000  0.000  0.000
      -0.000  0.996  0.000 -0.000 -0.000
       0.000  0.000  0.996 -0.000  0.000
       0.000 -0.000 -0.000  0.998 -0.000
       0.000 -0.000  0.000 -0.000  0.996
     SPIN  2
     eigenvalues:
       0.996  0.996  0.996  0.998  0.998
     eigenvectors (columns):
       0.006 -0.013 -0.082 -0.049  0.995
       0.533  0.628 -0.565  0.005 -0.041
      -0.416  0.777  0.468  0.038  0.053
      -0.011  0.034  0.021 -0.998 -0.047
       0.737 -0.015  0.674  0.003  0.051
     occupation matrix ns (before diag.):
       0.998 -0.000  0.000 -0.000  0.000
      -0.000  0.996  0.000 -0.000 -0.000
       0.000  0.000  0.996 -0.000  0.000
      -0.000 -0.000 -0.000  0.998 -0.000
       0.000 -0.000  0.000 -0.000  0.996
     ------------------------ ATOM   49 ------------------------
     Tr[ns( 49)] (up, down, total) =   4.98381  4.98376  9.96757
     Atomic magnetic moment for atom  49 =   0.00004
     SPIN  1
     eigenvalues:
       0.996  0.996  0.996  0.998  0.998
     eigenvectors (columns):
      -0.011  0.000  0.017 -0.000  1.000
      -0.667  0.707 -0.235 -0.005 -0.003
      -0.667 -0.707 -0.235  0.005 -0.003
       0.000  0.007  0.000  1.000  0.000
      -0.333  0.000  0.943 -0.000 -0.019
     occupation matrix ns (before diag.):
       0.998 -0.000 -0.000  0.000 -0.000
      -0.000  0.996 -0.000 -0.000 -0.000
      -0.000 -0.000  0.996  0.000 -0.000
       0.000 -0.000  0.000  0.998 -0.000
      -0.000 -0.000 -0.000 -0.000  0.996
     SPIN  2
     eigenvalues:
       0.996  0.996  0.996  0.998  0.998
     eigenvectors (columns):
      -0.021  0.020 -0.000 -0.000  1.000
      -0.640 -0.301  0.707 -0.004 -0.007
      -0.640 -0.301 -0.707  0.004 -0.007
       0.000  0.000  0.005  1.000  0.000
      -0.425  0.905 -0.000 -0.000 -0.027
     occupation matrix ns (before diag.):
       0.998 -0.000 -0.000  0.000 -0.000
      -0.000  0.996 -0.000 -0.000 -0.000
      -0.000 -0.000  0.996  0.000 -0.000
       0.000 -0.000  0.000  0.998 -0.000
      -0.000 -0.000 -0.000 -0.000  0.996
     ------------------------ ATOM   50 ------------------------
     Tr[ns( 50)] (up, down, total) =   4.98377  4.98372  9.96749
     Atomic magnetic moment for atom  50 =   0.00004
     SPIN  1
     eigenvalues:
       0.996  0.996  0.996  0.998  0.998
     eigenvectors (columns):
       0.004 -0.023  0.032 -0.856 -0.516
      -0.413  0.785  0.457 -0.038  0.053
      -0.753 -0.011 -0.655  0.003 -0.052
       0.009 -0.031 -0.080 -0.516  0.852
      -0.512 -0.618  0.595  0.010  0.044
     occupation matrix ns (before diag.):
       0.998  0.000  0.000 -0.000 -0.000
       0.000  0.996 -0.000  0.000 -0.000
       0.000 -0.000  0.996 -0.000 -0.000
      -0.000  0.000 -0.000  0.998  0.000
      -0.000 -0.000 -0.000  0.000  0.996
     SPIN  2
     eigenvalues:
       0.996  0.996  0.996  0.998  0.998
     eigenvectors (columns):
       0.007 -0.023  0.022 -0.889 -0.457
      -0.416  0.777  0.468 -0.038  0.053
      -0.737  0.015 -0.674  0.003 -0.051
       0.011 -0.029 -0.081 -0.456  0.885
      -0.533 -0.628  0.565  0.005  0.041
     occupation matrix ns (before diag.):
       0.998  0.000  0.000 -0.000 -0.000
       0.000  0.996 -0.000  0.000 -0.000
       0.000 -0.000  0.996 -0.000 -0.000
      -0.000  0.000 -0.000  0.998  0.000
      -0.000 -0.000 -0.000  0.000  0.996
     ------------------------ ATOM   51 ------------------------
     Tr[ns( 51)] (up, down, total) =   4.98377  4.98372  9.96749
     Atomic magnetic moment for atom  51 =   0.00004
     SPIN  1
     eigenvalues:
       0.996  0.996  0.996  0.998  0.998
     eigenvectors (columns):
       0.004 -0.023  0.032 -0.856 -0.516
      -0.753 -0.011 -0.655  0.003 -0.052
      -0.413  0.785  0.457 -0.038  0.053
      -0.009  0.031  0.080  0.516 -0.852
      -0.512 -0.618  0.595  0.010  0.044
     occupation matrix ns (before diag.):
       0.998  0.000  0.000  0.000 -0.000
       0.000  0.996 -0.000  0.000 -0.000
       0.000 -0.000  0.996 -0.000 -0.000
       0.000  0.000 -0.000  0.998 -0.000
      -0.000 -0.000 -0.000 -0.000  0.996
     SPIN  2
     eigenvalues:
       0.996  0.996  0.996  0.998  0.998
     eigenvectors (columns):
       0.007 -0.023  0.022 -0.889 -0.457
      -0.737  0.015 -0.674  0.003 -0.051
      -0.416  0.777  0.468 -0.038  0.053
      -0.011  0.029  0.081  0.456 -0.885
      -0.533 -0.628  0.565  0.005  0.041
     occupation matrix ns (before diag.):
       0.998  0.000  0.000  0.000 -0.000
       0.000  0.996 -0.000  0.000 -0.000
       0.000 -0.000  0.996 -0.000 -0.000
       0.000  0.000 -0.000  0.998 -0.000
      -0.000 -0.000 -0.000 -0.000  0.996
     ------------------------ ATOM   52 ------------------------
     Tr[ns( 52)] (up, down, total) =   4.98376  4.98369  9.96745
     Atomic magnetic moment for atom  52 =   0.00006
     SPIN  1
     eigenvalues:
       0.996  0.996  0.996  0.998  0.998
     eigenvectors (columns):
       0.003  0.015 -0.000 -0.000  1.000
      -0.702 -0.088  0.707  0.014  0.003
      -0.702 -0.088 -0.707 -0.014  0.003
       0.000  0.000 -0.020  1.000  0.000
      -0.125  0.992 -0.000 -0.000 -0.015
     occupation matrix ns (before diag.):
       0.998  0.000  0.000  0.000 -0.000
       0.000  0.996 -0.000  0.000 -0.000
       0.000 -0.000  0.996 -0.000 -0.000
       0.000  0.000 -0.000  0.998 -0.000
      -0.000 -0.000 -0.000 -0.000  0.996
     SPIN  2
     eigenvalues:
       0.996  0.996  0.996  0.998  0.998
     eigenvectors (columns):
      -0.020  0.023  0.000 -1.000 -0.000
       0.681  0.191 -0.707 -0.009 -0.013
       0.681  0.191  0.707 -0.009  0.013
      -0.000  0.000  0.018  0.000 -1.000
      -0.269  0.963  0.000  0.027  0.000
     occupation matrix ns (before diag.):
       0.998  0.000  0.000  0.000 -0.000
       0.000  0.996 -0.000  0.000  0.000
       0.000 -0.000  0.996 -0.000  0.000
       0.000  0.000 -0.000  0.998 -0.000
      -0.000  0.000  0.000 -0.000  0.996
     ------------------------ ATOM   57 ------------------------
     Tr[ns( 57)] (up, down, total) =   4.95063  4.94557  9.89620
     Atomic magnetic moment for atom  57 =   0.00506
     SPIN  1
     eigenvalues:
       0.986  0.986  0.992  0.993  0.993
     eigenvectors (columns):
      -0.004 -0.002 -0.000  0.221  0.975
      -0.005  0.816 -0.577 -0.003  0.002
       0.710 -0.404 -0.577  0.003  0.001
       0.002 -0.004  0.000 -0.975  0.221
       0.705  0.412  0.577  0.001  0.003
     occupation matrix ns (before diag.):
       0.993  0.000  0.000  0.000  0.000
       0.000  0.988  0.002  0.000 -0.002
       0.000  0.002  0.988 -0.000 -0.002
       0.000  0.000 -0.000  0.993 -0.000
       0.000 -0.002 -0.002 -0.000  0.988
     SPIN  2
     eigenvalues:
       0.985  0.987  0.987  0.994  0.994
     eigenvectors (columns):
      -0.000  0.042  0.027 -0.281 -0.958
      -0.577 -0.044  0.814 -0.028  0.030
      -0.577  0.727 -0.369  0.040  0.010
       0.000 -0.027  0.042  0.958 -0.281
       0.577  0.683  0.445  0.012  0.039
     occupation matrix ns (before diag.):
       0.994 -0.000 -0.000  0.000 -0.000
      -0.000  0.986 -0.000 -0.000  0.000
      -0.000 -0.000  0.986  0.000  0.000
       0.000 -0.000  0.000  0.994 -0.000
      -0.000  0.000  0.000 -0.000  0.986
     ------------------------ ATOM   58 ------------------------
     Tr[ns( 58)] (up, down, total) =   4.98646  4.98672  9.97318
     Atomic magnetic moment for atom  58 =  -0.00026
     SPIN  1
     eigenvalues:
       0.996  0.996  0.998  0.998  0.998
     eigenvectors (columns):
       0.015  0.025  0.003 -0.866 -0.499
      -0.707  0.395  0.586 -0.013  0.023
       0.000  0.828 -0.559 -0.000  0.038
       0.009 -0.043 -0.005 -0.500  0.865
      -0.707 -0.395 -0.586 -0.013 -0.023
     occupation matrix ns (before diag.):
       0.998  0.000 -0.000 -0.000  0.000
       0.000  0.997 -0.001  0.000 -0.001
      -0.000 -0.001  0.997  0.000  0.001
      -0.000  0.000  0.000  0.998 -0.000
       0.000 -0.001  0.001 -0.000  0.997
     SPIN  2
     eigenvalues:
       0.996  0.996  0.997  0.998  0.998
     eigenvectors (columns):
       0.071 -0.050  0.029 -0.863 -0.497
      -0.705 -0.443 -0.551 -0.058  0.013
       0.000 -0.773  0.624 -0.000  0.114
       0.041  0.087 -0.049 -0.498  0.860
      -0.705  0.443  0.551 -0.058 -0.013
     occupation matrix ns (before diag.):
       0.998  0.000 -0.000 -0.000  0.000
       0.000  0.997 -0.000  0.000 -0.000
      -0.000 -0.000  0.997  0.000  0.000
      -0.000  0.000  0.000  0.998  0.000
       0.000 -0.000  0.000  0.000  0.997
     ------------------------ ATOM   59 ------------------------
     Tr[ns( 59)] (up, down, total) =   4.98646  4.98672  9.97318
     Atomic magnetic moment for atom  59 =  -0.00026
     SPIN  1
     eigenvalues:
       0.996  0.996  0.998  0.998  0.998
     eigenvectors (columns):
      -0.015 -0.025 -0.003 -0.866  0.499
       0.000 -0.828  0.559 -0.000 -0.038
       0.707 -0.395 -0.586 -0.013 -0.023
       0.009 -0.043 -0.005  0.500  0.865
       0.707  0.395  0.586 -0.013  0.023
     occupation matrix ns (before diag.):
       0.998 -0.000  0.000  0.000  0.000
      -0.000  0.997 -0.001 -0.000  0.001
       0.000 -0.001  0.997 -0.000 -0.001
       0.000 -0.000 -0.000  0.998  0.000
       0.000  0.001 -0.001  0.000  0.997
     SPIN  2
     eigenvalues:
       0.996  0.996  0.997  0.998  0.998
     eigenvectors (columns):
       0.071 -0.050  0.029 -0.863 -0.497
       0.000 -0.773  0.624 -0.000  0.114
      -0.705 -0.443 -0.551 -0.058  0.013
      -0.041 -0.087  0.049  0.498 -0.860
      -0.705  0.443  0.551 -0.058 -0.013
     occupation matrix ns (before diag.):
       0.998 -0.000  0.000  0.000  0.000
      -0.000  0.997 -0.000 -0.000  0.000
       0.000 -0.000  0.997 -0.000 -0.000
       0.000 -0.000 -0.000  0.998 -0.000
       0.000  0.000 -0.000 -0.000  0.997
     ------------------------ ATOM   60 ------------------------
     Tr[ns( 60)] (up, down, total) =   4.98646  4.98672  9.97318
     Atomic magnetic moment for atom  60 =  -0.00026
     SPIN  1
     eigenvalues:
       0.996  0.996  0.998  0.998  0.998
     eigenvectors (columns):
       0.000  0.049 -0.006 -0.000 -0.999
       0.707 -0.395  0.586  0.013 -0.023
      -0.707 -0.395  0.586 -0.013 -0.023
      -0.018  0.000 -0.000  1.000 -0.000
       0.000  0.828  0.559 -0.000  0.038
     occupation matrix ns (before diag.):
       0.998  0.000  0.000  0.000 -0.000
       0.000  0.997  0.001  0.000  0.001
       0.000  0.001  0.997 -0.000  0.001
       0.000  0.000 -0.000  0.998 -0.000
      -0.000  0.001  0.001 -0.000  0.997
     SPIN  2
     eigenvalues:
       0.996  0.996  0.997  0.998  0.998
     eigenvectors (columns):
       0.000  0.101  0.057 -0.000 -0.993
       0.705 -0.443  0.551  0.058 -0.013
      -0.705 -0.443  0.551 -0.058 -0.013
      -0.082  0.000 -0.000  0.997 -0.000
       0.000  0.773  0.624  0.000  0.114
     occupation matrix ns (before diag.):
       0.998  0.000  0.000  0.000 -0.000
       0.000  0.997  0.000  0.000  0.000
       0.000  0.000  0.997 -0.000  0.000
       0.000  0.000 -0.000  0.998 -0.000
      -0.000  0.000  0.000 -0.000  0.997

     Number of occupied Hubbard levels =  318.9017

     Atomic wfc used for Hubbard projectors are orthogonalized

     Starting wfcs are  413 randomized atomic wfcs
     Checking if some PAW data can be deallocated... 
       PAW data deallocated on  740 nodes for type:  1
       PAW data deallocated on  739 nodes for type:  2
       PAW data deallocated on 1433 nodes for type:  3

     Band Structure Calculation
     Davidson diagonalization with overlap

     Computing kpt #:     1  of     2 on this pool
     total cpu time spent up to now is       86.0 secs

     Computing kpt #:     2  of     2 on this pool
     c_bands:  1 eigenvalues not converged
     total cpu time spent up to now is      161.2 secs

     ethr =  1.73E-12,  avg # of iterations = 92.4

     total cpu time spent up to now is      161.6 secs

     End of band structure calculation

 ------ SPIN UP ------------


          k = 0.0000 0.0000 0.0000 (269825 PWs)   bands (ev):

  -103.8973 -61.3733 -61.2905 -61.2905  -7.6057  -7.2297  -7.2297  -7.1920
    -7.1844  -7.1844  -7.1253  -7.0559  -7.0559  -7.0154  -7.0003  -6.9603
    -6.9603  -6.9277  -6.9262  -6.9262  -6.9109  -6.9109  -6.8946  -6.8570
    -6.8570  -6.8233  -6.7761  -6.7761  -6.7281  -6.7071  -6.6862  -6.6862
    -6.4564  -6.3212  -6.3212  -3.9885  -3.9711  -3.9711  -3.9683  -3.9546
    -3.9546  -3.9460  -3.9460  -3.9374  -3.9371  -3.9266  -3.9266  -3.9121
    -3.9075  -3.9075  -3.7969  -3.7969  -3.7946  -3.7716  -3.7716  -3.7656
    -3.7628  -3.7595  -3.7595  -3.7524  -3.7524  -3.7465  -3.7465  -3.7450
    -3.7393  -3.7393  -3.7371  -3.7334  -3.7307  -3.7307  -3.7280  -3.7200
    -3.7200  -3.7199  -3.7136  -3.7136  -3.7056  -3.6981  -3.6981  -3.6930
    -3.6874  -3.6874  -3.6846  -3.6799  -3.6799  -3.6779  -3.6692  -3.6647
    -3.6647  -3.6573  -3.6573  -3.6554  -3.6554  -3.6527  -3.6462  -3.6447
    -3.6447  -3.6383  -3.6383  -3.6273  -3.6273  -3.6255  -3.6249  -3.6128
    -3.6128  -3.6113  -3.6059  -3.6003  -3.5995  -3.5995  -3.5957  -3.5878
    -3.5878  -3.5865  -3.5865  -3.5855  -3.5829  -3.5828  -3.5780  -3.5780
    -3.5748  -3.5748  -3.5746  -3.5746  -3.5649  -3.5615  -3.5615  -3.5614
    -3.5524  -3.5524  -3.5507  -3.5435  -3.5397  -3.5397  -3.5296  -3.5283
    -3.5283  -3.5150  -3.5150  -3.5028  -3.5028  -3.5002  -3.5002  -3.4963
    -3.4963  -3.4962  -3.4858  -3.4791  -3.4560  -3.4540  -3.4540  -3.4381
    -3.4381  -3.4358  -3.4251  -3.4234  -3.4234  -3.4172  -3.4172  -3.4140
    -3.4140  -3.4096  -3.4033  -3.3975  -3.3975  -3.3866  -3.2511  -3.2478
    -3.2478  -3.2341  -3.2341  -3.2293  -3.2014  -3.2014  -3.1851  -3.1851
    -3.1801  -3.1256  -3.1064  -3.1064  -3.0736  -3.0142  -3.0142  -2.9805
    -2.8950  -2.8667  -2.8667  -2.8656  -2.8415  -2.8415   0.2354   0.2815
     0.3066   0.3066   0.6388   0.6456   0.6456   0.8424   0.8551   0.8551
     0.8655   0.9067   0.9067   1.0859   1.2237   1.2237   1.2430   1.2430
     1.3000   1.3073   1.3079   1.3079   1.4226   1.4226   1.8872   2.3103
     2.3309   2.3309   2.4906   2.4906   2.5033   2.5234   2.5234   2.5494
     2.5723   2.5723   2.6823   2.6824   2.6824   2.7120   2.7136   2.7136
     2.7410   2.7410   2.7534   2.7727   2.7748   2.7748   2.8084   2.8440
     2.8440   2.9691   3.0052   3.0052   3.0424   3.1264   3.1264   3.1811
     3.2604   3.2925   3.2925   3.4802   3.4802   3.5485   3.5485   3.7483
     4.0146   4.0146   4.0218   4.0338   4.0748   4.0748   4.1332   4.1332
     4.1450   4.2215   4.2715   4.2715   4.2912   4.2912   4.2971   4.3173
     4.3173   4.3382   4.3879   4.3879   4.3928   4.3954   4.4062   4.4062
     4.5296   4.6386   4.6386   4.9339   4.9339   5.1502   5.4341   5.4341
     5.9051   7.7349   8.2513   8.2513   8.7348   8.7567   8.7567   8.8112
     8.9102   8.9102   9.0730   9.3421   9.5201   9.5282   9.5282   9.8690
     9.8690   9.9623   9.9689   9.9689  10.0029  10.0150  10.0150  10.0251
    10.0453  10.0453  10.1875  10.1875  10.1968  10.2177  10.2177  10.2412
    10.2412  10.2456  10.2844  10.6010  10.6010  10.6945  11.0681  11.1438
    11.1438  11.1812  11.1812  11.3108  11.3564  11.3564  11.3699  11.6376
    11.6621  11.6621  11.8530  11.8673  11.8700  11.8700  12.0402  12.0402
    12.0476  12.0617  12.0617

     occupation numbers 
     1.0000   1.0000   1.0000   1.0000   1.0000   1.0000   1.0000   1.0000
     1.0000   1.0000   1.0000   1.0000   1.0000   1.0000   1.0000   1.0000
     1.0000   1.0000   1.0000   1.0000   1.0000   1.0000   1.0000   1.0000
     1.0000   1.0000   1.0000   1.0000   1.0000   1.0000   1.0000   1.0000
     1.0000   1.0000   1.0000   1.0000   1.0000   1.0000   1.0000   1.0000
     1.0000   1.0000   1.0000   1.0000   1.0000   1.0000   1.0000   1.0000
     1.0000   1.0000   1.0000   1.0000   1.0000   1.0000   1.0000   1.0000
     1.0000   1.0000   1.0000   1.0000   1.0000   1.0000   1.0000   1.0000
     1.0000   1.0000   1.0000   1.0000   1.0000   1.0000   1.0000   1.0000
     1.0000   1.0000   1.0000   1.0000   1.0000   1.0000   1.0000   1.0000
     1.0000   1.0000   1.0000   1.0000   1.0000   1.0000   1.0000   1.0000
     1.0000   1.0000   1.0000   1.0000   1.0000   1.0000   1.0000   1.0000
     1.0000   1.0000   1.0000   1.0000   1.0000   1.0000   1.0000   1.0000
     1.0000   1.0000   1.0000   1.0000   1.0000   1.0000   1.0000   1.0000
     1.0000   1.0000   1.0000   1.0000   1.0000   1.0000   1.0000   1.0000
     1.0000   1.0000   1.0000   1.0000   1.0000   1.0000   1.0000   1.0000
     1.0000   1.0000   1.0000   1.0000   1.0000   1.0000   1.0000   1.0000
     1.0000   1.0000   1.0000   1.0000   1.0000   1.0000   1.0000   1.0000
     1.0000   1.0000   1.0000   1.0000   1.0000   1.0000   1.0000   1.0000
     1.0000   1.0000   1.0000   1.0000   1.0000   1.0000   1.0000   1.0000
     1.0000   1.0000   1.0000   1.0000   1.0000   1.0000   1.0000   1.0000
     1.0000   1.0000   1.0000   1.0000   1.0000   1.0000   1.0000   1.0000
     1.0000   1.0000   1.0000   1.0000   1.0000   1.0000   1.0000   1.0000
     1.0000   1.0000   1.0000   1.0000   1.0000   1.0000   1.0000   1.0000
     1.0000   1.0000   1.0000   1.0000   1.0000   1.0000   1.0000   1.0000
     1.0000   1.0000   1.0000   1.0000   1.0000   1.0000   1.0000   1.0000
     1.0000   1.0000   1.0000   1.0000   1.0000   1.0000   1.0000   1.0000
     1.0000   1.0000   1.0000   1.0000   1.0000   1.0000   1.0000   1.0000
     1.0000   1.0000   1.0000   1.0000   1.0000   1.0000   1.0000   1.0000
     1.0000   1.0000   1.0000   1.0000   1.0000   1.0000   1.0000   1.0000
     1.0000   1.0000   1.0000   1.0000   1.0000   1.0000   1.0000   1.0000
     1.0000   1.0000   1.0000   1.0000   1.0000   1.0000   1.0000   1.0000
     1.0000   1.0000   1.0000   1.0000   1.0000   1.0000   1.0000   1.0000
     1.0000   1.0000   1.0000   1.0000   1.0000   1.0000   1.0000   1.0000
     1.0000   1.0000   1.0000   1.0000   1.0000   1.0000   1.0000   1.0000
     1.0000   1.0000   1.0000   1.0000   1.0000   1.0000   1.0000   1.0000
     1.0000   0.0000   0.0000   0.0000   0.0000   0.0000   0.0000   0.0000
     0.0000   0.0000   0.0000   0.0000   0.0000   0.0000   0.0000   0.0000
     0.0000   0.0000   0.0000   0.0000   0.0000   0.0000   0.0000   0.0000
     0.0000   0.0000   0.0000   0.0000   0.0000   0.0000   0.0000   0.0000
     0.0000   0.0000   0.0000   0.0000   0.0000   0.0000   0.0000   0.0000
     0.0000   0.0000   0.0000   0.0000   0.0000   0.0000   0.0000   0.0000
     0.0000   0.0000   0.0000   0.0000   0.0000   0.0000   0.0000   0.0000
     0.0000   0.0000   0.0000

          k = 0.0000 0.0000 0.2500 (269876 PWs)   bands (ev):

  -103.8973 -61.3733 -61.2905 -61.2905  -7.5762  -7.3484  -7.2157  -7.1839
    -7.1723  -7.1429  -7.0880  -7.0865  -7.0557  -7.0289  -7.0075  -6.9834
    -6.9794  -6.9279  -6.9177  -6.9097  -6.9011  -6.8914  -6.8725  -6.8501
    -6.8430  -6.8103  -6.7839  -6.7721  -6.7349  -6.7195  -6.6956  -6.6923
    -6.4534  -6.3243  -6.3215  -3.9881  -3.9716  -3.9711  -3.9675  -3.9549
    -3.9542  -3.9462  -3.9459  -3.9377  -3.9364  -3.9264  -3.9260  -3.9122
    -3.9077  -3.9074  -3.7956  -3.7949  -3.7906  -3.7722  -3.7705  -3.7674
    -3.7646  -3.7626  -3.7582  -3.7564  -3.7545  -3.7529  -3.7523  -3.7473
    -3.7449  -3.7390  -3.7369  -3.7327  -3.7324  -3.7279  -3.7246  -3.7222
    -3.7154  -3.7149  -3.7106  -3.7104  -3.7056  -3.7007  -3.7000  -3.6965
    -3.6905  -3.6888  -3.6807  -3.6806  -3.6765  -3.6745  -3.6713  -3.6658
    -3.6614  -3.6598  -3.6587  -3.6562  -3.6508  -3.6501  -3.6478  -3.6444
    -3.6409  -3.6390  -3.6361  -3.6293  -3.6272  -3.6242  -3.6241  -3.6187
    -3.6167  -3.6117  -3.6105  -3.6035  -3.6012  -3.6007  -3.5978  -3.5946
    -3.5871  -3.5863  -3.5861  -3.5830  -3.5823  -3.5784  -3.5766  -3.5745
    -3.5719  -3.5713  -3.5688  -3.5667  -3.5658  -3.5617  -3.5595  -3.5592
    -3.5526  -3.5494  -3.5459  -3.5432  -3.5383  -3.5381  -3.5327  -3.5291
    -3.5269  -3.5120  -3.5099  -3.5069  -3.5064  -3.4999  -3.4984  -3.4953
    -3.4895  -3.4830  -3.4764  -3.4640  -3.4546  -3.4522  -3.4473  -3.4391
    -3.4369  -3.4307  -3.4250  -3.4250  -3.4172  -3.4160  -3.4145  -3.4145
    -3.4096  -3.4042  -3.4013  -3.3971  -3.3885  -3.3825  -3.3379  -3.3371
    -3.3319  -3.2849  -3.2201  -3.2152  -3.2132  -3.1627  -3.1473  -3.1331
    -3.1237  -3.0858  -3.0757  -3.0709  -3.0694  -3.0488  -2.9968  -2.9712
    -2.9082  -2.8908  -2.8864  -2.8839  -2.8620  -2.8620   0.3308   0.3797
     0.4017   0.4078   0.6585   0.6705   0.7349   0.7940   0.8316   0.8572
     0.8605   0.8848   0.9124   1.0023   1.0287   1.0337   1.0573   1.0749
     1.1073   1.1439   1.3819   1.5672   1.6082   1.6468   1.7444   2.0226
     2.2054   2.2352   2.3406   2.3636   2.3737   2.3963   2.4284   2.4742
     2.4753   2.5170   2.5514   2.6107   2.6482   2.7187   2.7687   2.8250
     2.8576   2.9068   2.9372   3.0026   3.0320   3.0501   3.0696   3.0747
     3.0936   3.1001   3.1050   3.1643   3.1837   3.2032   3.2068   3.2422
     3.2879   3.3158   3.4051   3.4979   3.5129   3.5843   3.6031   3.7064
     3.8091   3.8364   3.9532   3.9606   3.9852   4.0379   4.0511   4.0840
     4.1271   4.1290   4.1519   4.1815   4.1938   4.2318   4.2596   4.2867
     4.3168   4.3195   4.3602   4.3895   4.4016   4.4165   4.4429   4.4601
     4.5259   4.5721   4.6418   4.7163   4.8834   5.0036   5.3067   5.3954
     6.0963   7.8971   8.2211   8.2604   8.8911   8.9309   8.9644   8.9723
     9.0588   9.1281   9.1427   9.4019   9.5054   9.6084   9.6504   9.7175
     9.7356   9.9234   9.9284   9.9699   9.9765   9.9939  10.0742  10.0887
    10.1020  10.1568  10.1610  10.2080  10.2116  10.2487  10.2777  10.2912
    10.3481  10.3564  10.5003  10.5474  10.5660  10.6643  10.6947  10.7975
    10.9106  10.9590  10.9823  11.1258  11.2139  11.2637  11.4578  11.5302
    11.5979  11.6055  11.6713  11.7258  11.7458  11.7783  11.8050  11.8815
    11.8979  11.9154  11.9263

     occupation numbers 
     1.0000   1.0000   1.0000   1.0000   1.0000   1.0000   1.0000   1.0000
     1.0000   1.0000   1.0000   1.0000   1.0000   1.0000   1.0000   1.0000
     1.0000   1.0000   1.0000   1.0000   1.0000   1.0000   1.0000   1.0000
     1.0000   1.0000   1.0000   1.0000   1.0000   1.0000   1.0000   1.0000
     1.0000   1.0000   1.0000   1.0000   1.0000   1.0000   1.0000   1.0000
     1.0000   1.0000   1.0000   1.0000   1.0000   1.0000   1.0000   1.0000
     1.0000   1.0000   1.0000   1.0000   1.0000   1.0000   1.0000   1.0000
     1.0000   1.0000   1.0000   1.0000   1.0000   1.0000   1.0000   1.0000
     1.0000   1.0000   1.0000   1.0000   1.0000   1.0000   1.0000   1.0000
     1.0000   1.0000   1.0000   1.0000   1.0000   1.0000   1.0000   1.0000
     1.0000   1.0000   1.0000   1.0000   1.0000   1.0000   1.0000   1.0000
     1.0000   1.0000   1.0000   1.0000   1.0000   1.0000   1.0000   1.0000
     1.0000   1.0000   1.0000   1.0000   1.0000   1.0000   1.0000   1.0000
     1.0000   1.0000   1.0000   1.0000   1.0000   1.0000   1.0000   1.0000
     1.0000   1.0000   1.0000   1.0000   1.0000   1.0000   1.0000   1.0000
     1.0000   1.0000   1.0000   1.0000   1.0000   1.0000   1.0000   1.0000
     1.0000   1.0000   1.0000   1.0000   1.0000   1.0000   1.0000   1.0000
     1.0000   1.0000   1.0000   1.0000   1.0000   1.0000   1.0000   1.0000
     1.0000   1.0000   1.0000   1.0000   1.0000   1.0000   1.0000   1.0000
     1.0000   1.0000   1.0000   1.0000   1.0000   1.0000   1.0000   1.0000
     1.0000   1.0000   1.0000   1.0000   1.0000   1.0000   1.0000   1.0000
     1.0000   1.0000   1.0000   1.0000   1.0000   1.0000   1.0000   1.0000
     1.0000   1.0000   1.0000   1.0000   1.0000   1.0000   1.0000   1.0000
     1.0000   1.0000   1.0000   1.0000   1.0000   1.0000   1.0000   1.0000
     1.0000   1.0000   1.0000   1.0000   1.0000   1.0000   1.0000   1.0000
     1.0000   1.0000   1.0000   1.0000   1.0000   1.0000   1.0000   1.0000
     1.0000   1.0000   1.0000   1.0000   1.0000   1.0000   1.0000   1.0000
     1.0000   1.0000   1.0000   1.0000   1.0000   1.0000   1.0000   1.0000
     1.0000   1.0000   1.0000   1.0000   1.0000   1.0000   1.0000   1.0000
     1.0000   1.0000   1.0000   1.0000   1.0000   1.0000   1.0000   1.0000
     1.0000   1.0000   1.0000   1.0000   1.0000   1.0000   1.0000   1.0000
     1.0000   1.0000   1.0000   1.0000   1.0000   1.0000   1.0000   1.0000
     1.0000   1.0000   1.0000   1.0000   1.0000   1.0000   1.0000   1.0000
     1.0000   1.0000   1.0000   1.0000   1.0000   1.0000   1.0000   1.0000
     1.0000   1.0000   1.0000   1.0000   1.0000   1.0000   1.0000   1.0000
     1.0000   1.0000   1.0000   1.0000   1.0000   1.0000   1.0000   1.0000
     1.0000   0.0000   0.0000   0.0000   0.0000   0.0000   0.0000   0.0000
     0.0000   0.0000   0.0000   0.0000   0.0000   0.0000   0.0000   0.0000
     0.0000   0.0000   0.0000   0.0000   0.0000   0.0000   0.0000   0.0000
     0.0000   0.0000   0.0000   0.0000   0.0000   0.0000   0.0000   0.0000
     0.0000   0.0000   0.0000   0.0000   0.0000   0.0000   0.0000   0.0000
     0.0000   0.0000   0.0000   0.0000   0.0000   0.0000   0.0000   0.0000
     0.0000   0.0000   0.0000   0.0000   0.0000   0.0000   0.0000   0.0000
     0.0000   0.0000   0.0000

          k = 0.0000 0.0000-0.5000 (270152 PWs)   bands (ev):

  -103.8973 -61.3733 -61.2905 -61.2905  -7.5154  -7.4512  -7.1942  -7.1648
    -7.1538  -7.1264  -7.1251  -7.1132  -7.0577  -7.0574  -6.9981  -6.9918
    -6.9478  -6.9320  -6.9145  -6.9017  -6.8972  -6.8851  -6.8541  -6.8441
    -6.8284  -6.8016  -6.7694  -6.7661  -6.7548  -6.7385  -6.7097  -6.6954
    -6.4503  -6.3276  -6.3219  -3.9878  -3.9719  -3.9710  -3.9669  -3.9552
    -3.9539  -3.9464  -3.9457  -3.9381  -3.9357  -3.9263  -3.9253  -3.9123
    -3.9078  -3.9072  -3.7938  -3.7926  -3.7822  -3.7743  -3.7735  -3.7691
    -3.7661  -3.7644  -3.7625  -3.7593  -3.7554  -3.7552  -3.7537  -3.7534
    -3.7472  -3.7403  -3.7372  -3.7339  -3.7333  -3.7295  -3.7265  -3.7215
    -3.7142  -3.7124  -3.7080  -3.7073  -3.7047  -3.6987  -3.6937  -3.6927
    -3.6915  -3.6902  -3.6868  -3.6796  -3.6784  -3.6715  -3.6686  -3.6663
    -3.6610  -3.6600  -3.6583  -3.6577  -3.6514  -3.6506  -3.6493  -3.6412
    -3.6381  -3.6381  -3.6314  -3.6293  -3.6269  -3.6250  -3.6229  -3.6207
    -3.6185  -3.6145  -3.6135  -3.6111  -3.6057  -3.5999  -3.5972  -3.5947
    -3.5896  -3.5866  -3.5843  -3.5802  -3.5792  -3.5758  -3.5757  -3.5710
    -3.5699  -3.5666  -3.5665  -3.5633  -3.5609  -3.5598  -3.5578  -3.5532
    -3.5512  -3.5507  -3.5441  -3.5426  -3.5400  -3.5400  -3.5352  -3.5240
    -3.5236  -3.5147  -3.5140  -3.5056  -3.5054  -3.4996  -3.4916  -3.4831
    -3.4815  -3.4699  -3.4642  -3.4529  -3.4517  -3.4491  -3.4478  -3.4395
    -3.4379  -3.4334  -3.4301  -3.4268  -3.4199  -3.4124  -3.4121  -3.4100
    -3.4086  -3.4055  -3.4023  -3.3983  -3.3942  -3.3887  -3.3885  -3.3827
    -3.3632  -3.2417  -3.2103  -3.2066  -3.2033  -3.1939  -3.1556  -3.1551
    -3.1379  -3.1242  -3.0458  -3.0108  -2.9919  -2.9842  -2.9542  -2.9513
    -2.9483  -2.9298  -2.9289  -2.9181  -2.8913  -2.8869   0.4911   0.5997
     0.6342   0.6475   0.6626   0.6882   0.6885   0.6993   0.7281   0.7501
     0.7629   0.8123   0.8850   0.8891   0.9101   0.9191   0.9602   1.0062
     1.0299   1.1611   1.1879   1.5399   1.7722   1.9064   1.9618   2.0067
     2.0130   2.0524   2.0557   2.2976   2.3058   2.3303   2.3314   2.3462
     2.4051   2.4216   2.5168   2.5873   2.7746   2.7902   2.8245   2.8344
[...]
    10.0390  10.0880  10.1212  10.1420  10.2059  10.2229  10.2985  10.3275
    10.4331  10.5493  10.5817  10.6193  10.6423  10.7410  10.7643  10.7803
    10.8238  10.9115  10.9316  10.9943  11.1516  11.2553  11.3275  11.3764
    11.4394  11.5186  11.5708  11.6309  11.6876  11.7078  11.7120  11.7822
    11.8145  11.8326  11.8498

     occupation numbers 
     1.0000   1.0000   1.0000   1.0000   1.0000   1.0000   1.0000   1.0000
     1.0000   1.0000   1.0000   1.0000   1.0000   1.0000   1.0000   1.0000
     1.0000   1.0000   1.0000   1.0000   1.0000   1.0000   1.0000   1.0000
     1.0000   1.0000   1.0000   1.0000   1.0000   1.0000   1.0000   1.0000
     1.0000   1.0000   1.0000   1.0000   1.0000   1.0000   1.0000   1.0000
     1.0000   1.0000   1.0000   1.0000   1.0000   1.0000   1.0000   1.0000
     1.0000   1.0000   1.0000   1.0000   1.0000   1.0000   1.0000   1.0000
     1.0000   1.0000   1.0000   1.0000   1.0000   1.0000   1.0000   1.0000
     1.0000   1.0000   1.0000   1.0000   1.0000   1.0000   1.0000   1.0000
     1.0000   1.0000   1.0000   1.0000   1.0000   1.0000   1.0000   1.0000
     1.0000   1.0000   1.0000   1.0000   1.0000   1.0000   1.0000   1.0000
     1.0000   1.0000   1.0000   1.0000   1.0000   1.0000   1.0000   1.0000
     1.0000   1.0000   1.0000   1.0000   1.0000   1.0000   1.0000   1.0000
     1.0000   1.0000   1.0000   1.0000   1.0000   1.0000   1.0000   1.0000
     1.0000   1.0000   1.0000   1.0000   1.0000   1.0000   1.0000   1.0000
     1.0000   1.0000   1.0000   1.0000   1.0000   1.0000   1.0000   1.0000
     1.0000   1.0000   1.0000   1.0000   1.0000   1.0000   1.0000   1.0000
     1.0000   1.0000   1.0000   1.0000   1.0000   1.0000   1.0000   1.0000
     1.0000   1.0000   1.0000   1.0000   1.0000   1.0000   1.0000   1.0000
     1.0000   1.0000   1.0000   1.0000   1.0000   1.0000   1.0000   1.0000
     1.0000   1.0000   1.0000   1.0000   1.0000   1.0000   1.0000   1.0000
     1.0000   1.0000   1.0000   1.0000   1.0000   1.0000   1.0000   1.0000
     1.0000   1.0000   1.0000   1.0000   1.0000   1.0000   1.0000   1.0000
     1.0000   1.0000   1.0000   1.0000   1.0000   1.0000   1.0000   1.0000
     1.0000   1.0000   1.0000   1.0000   1.0000   1.0000   1.0000   1.0000
     1.0000   1.0000   1.0000   1.0000   1.0000   1.0000   1.0000   1.0000
     1.0000   1.0000   1.0000   1.0000   1.0000   1.0000   1.0000   1.0000
     1.0000   1.0000   1.0000   1.0000   1.0000   1.0000   1.0000   1.0000
     1.0000   1.0000   1.0000   1.0000   1.0000   1.0000   1.0000   1.0000
     1.0000   1.0000   1.0000   1.0000   1.0000   1.0000   1.0000   1.0000
     1.0000   1.0000   1.0000   1.0000   1.0000   1.0000   1.0000   1.0000
     1.0000   1.0000   1.0000   1.0000   1.0000   1.0000   1.0000   1.0000
     1.0000   1.0000   1.0000   1.0000   1.0000   1.0000   1.0000   1.0000
     1.0000   1.0000   1.0000   1.0000   1.0000   1.0000   1.0000   1.0000
     1.0000   1.0000   1.0000   1.0000   1.0000   1.0000   1.0000   1.0000
     1.0000   1.0000   1.0000   1.0000   1.0000   1.0000   1.0000   1.0000
     0.0000   0.0000   0.0000   0.0000   0.0000   0.0000   0.0000   0.0000
     0.0000   0.0000   0.0000   0.0000   0.0000   0.0000   0.0000   0.0000
     0.0000   0.0000   0.0000   0.0000   0.0000   0.0000   0.0000   0.0000
     0.0000   0.0000   0.0000   0.0000   0.0000   0.0000   0.0000   0.0000
     0.0000   0.0000   0.0000   0.0000   0.0000   0.0000   0.0000   0.0000
     0.0000   0.0000   0.0000   0.0000   0.0000   0.0000   0.0000   0.0000
     0.0000   0.0000   0.0000   0.0000   0.0000   0.0000   0.0000   0.0000
     0.0000   0.0000   0.0000

          k = 0.2500-0.2500 0.2500 (269935 PWs)   bands (ev):

  -103.8895 -61.3551 -61.2877 -61.2877  -7.5103  -7.3138  -7.3059  -7.2665
    -7.1624  -7.1449  -7.0951  -7.0274  -7.0247  -7.0017  -6.9916  -6.9746
    -6.9434  -6.9280  -6.8895  -6.8822  -6.8744  -6.8627  -6.8618  -6.8301
    -6.8289  -6.8004  -6.7841  -6.7720  -6.7446  -6.7323  -6.7123  -6.7114
    -6.4408  -6.3185  -6.3184  -3.9542  -3.9514  -3.9507  -3.9455  -3.9409
    -3.9404  -3.9282  -3.9176  -3.9166  -3.9161  -3.9084  -3.9077  -3.8950
    -3.8934  -3.8927  -3.7910  -3.7909  -3.7844  -3.7720  -3.7711  -3.7694
    -3.7662  -3.7629  -3.7595  -3.7580  -3.7538  -3.7534  -3.7508  -3.7502
    -3.7417  -3.7370  -3.7344  -3.7277  -3.7261  -3.7205  -3.7196  -3.7179
    -3.7144  -3.7099  -3.7094  -3.7019  -3.6982  -3.6962  -3.6945  -3.6914
    -3.6913  -3.6873  -3.6849  -3.6801  -3.6752  -3.6708  -3.6705  -3.6657
    -3.6653  -3.6587  -3.6562  -3.6523  -3.6517  -3.6504  -3.6479  -3.6408
    -3.6394  -3.6363  -3.6337  -3.6320  -3.6260  -3.6234  -3.6217  -3.6204
    -3.6192  -3.6137  -3.6106  -3.6067  -3.6065  -3.6032  -3.5996  -3.5968
    -3.5929  -3.5908  -3.5872  -3.5841  -3.5821  -3.5790  -3.5742  -3.5702
    -3.5686  -3.5671  -3.5669  -3.5631  -3.5615  -3.5594  -3.5552  -3.5545
    -3.5533  -3.5506  -3.5473  -3.5421  -3.5411  -3.5376  -3.5370  -3.5341
    -3.5277  -3.5147  -3.5139  -3.5124  -3.5112  -3.5062  -3.5005  -3.4997
    -3.4833  -3.4722  -3.4663  -3.4555  -3.4553  -3.4438  -3.4437  -3.4403
    -3.4387  -3.4303  -3.4255  -3.4251  -3.4178  -3.4158  -3.4086  -3.4066
    -3.4063  -3.4002  -3.3997  -3.3933  -3.3887  -3.3878  -3.3484  -3.3424
    -3.3142  -3.2902  -3.2102  -3.2024  -3.1777  -3.1631  -3.1497  -3.1216
    -3.1048  -3.0769  -3.0461  -3.0398  -3.0385  -2.9983  -2.9926  -2.9788
    -2.9290  -2.9253  -2.9205  -2.9067  -2.9011  -2.8990   0.4271   0.4759
     0.4924   0.6900   0.7276   0.7373   0.7738   0.7817   0.7900   0.8360
     0.8439   0.8612   0.8743   0.8935   0.9127   0.9940   1.0457   1.0951
     1.0955   1.1163   1.2152   1.4093   1.5887   1.6300   1.7258   1.8353
     1.8444   2.1533   2.4084   2.4432   2.4573   2.4918   2.4928   2.5213
     2.5819   2.5852   2.6006   2.6410   2.6672   2.7805   2.8423   2.8740
     2.9184   2.9901   3.0165   3.0477   3.0739   3.0844   3.1223   3.1786
     3.1877   3.2259   3.2298   3.2734   3.2985   3.3223   3.3514   3.3862
     3.4203   3.4726   3.4770   3.5531   3.5545   3.6991   3.7085   3.7561
     3.7849   3.7856   3.8052   3.8439   3.8854   3.9136   3.9376   3.9667
     3.9709   3.9879   4.0124   4.0330   4.0714   4.0925   4.0981   4.1628
     4.2385   4.2997   4.3534   4.4120   4.4228   4.4910   4.4993   4.5225
     4.5581   4.6130   4.7267   4.7528   4.9423   5.0283   5.2216   5.3862
     6.7331   8.0503   8.4546   8.6157   8.8737   9.0892   9.2591   9.2612
     9.2844   9.3837   9.3936   9.4557   9.4921   9.5557   9.5992   9.6077
     9.6573   9.7894   9.8313   9.8923   9.9254  10.0219  10.0237  10.0775
    10.1205  10.1311  10.2028  10.2073  10.2233  10.2428  10.2635  10.2751
    10.2865  10.3115  10.3273  10.3569  10.4325  10.5304  10.7432  10.8193
    10.9920  11.0541  11.0863  11.1380  11.3109  11.3122  11.3435  11.3706
    11.3876  11.4196  11.4426  11.5383  11.5389  11.5988  11.7353  11.7453
    11.7738  11.8194  11.8330

     occupation numbers 
     1.0000   1.0000   1.0000   1.0000   1.0000   1.0000   1.0000   1.0000
     1.0000   1.0000   1.0000   1.0000   1.0000   1.0000   1.0000   1.0000
     1.0000   1.0000   1.0000   1.0000   1.0000   1.0000   1.0000   1.0000
     1.0000   1.0000   1.0000   1.0000   1.0000   1.0000   1.0000   1.0000
     1.0000   1.0000   1.0000   1.0000   1.0000   1.0000   1.0000   1.0000
     1.0000   1.0000   1.0000   1.0000   1.0000   1.0000   1.0000   1.0000
     1.0000   1.0000   1.0000   1.0000   1.0000   1.0000   1.0000   1.0000
     1.0000   1.0000   1.0000   1.0000   1.0000   1.0000   1.0000   1.0000
     1.0000   1.0000   1.0000   1.0000   1.0000   1.0000   1.0000   1.0000
     1.0000   1.0000   1.0000   1.0000   1.0000   1.0000   1.0000   1.0000
     1.0000   1.0000   1.0000   1.0000   1.0000   1.0000   1.0000   1.0000
     1.0000   1.0000   1.0000   1.0000   1.0000   1.0000   1.0000   1.0000
     1.0000   1.0000   1.0000   1.0000   1.0000   1.0000   1.0000   1.0000
     1.0000   1.0000   1.0000   1.0000   1.0000   1.0000   1.0000   1.0000
     1.0000   1.0000   1.0000   1.0000   1.0000   1.0000   1.0000   1.0000
     1.0000   1.0000   1.0000   1.0000   1.0000   1.0000   1.0000   1.0000
     1.0000   1.0000   1.0000   1.0000   1.0000   1.0000   1.0000   1.0000
     1.0000   1.0000   1.0000   1.0000   1.0000   1.0000   1.0000   1.0000
     1.0000   1.0000   1.0000   1.0000   1.0000   1.0000   1.0000   1.0000
     1.0000   1.0000   1.0000   1.0000   1.0000   1.0000   1.0000   1.0000
     1.0000   1.0000   1.0000   1.0000   1.0000   1.0000   1.0000   1.0000
     1.0000   1.0000   1.0000   1.0000   1.0000   1.0000   1.0000   1.0000
     1.0000   1.0000   1.0000   1.0000   1.0000   1.0000   1.0000   1.0000
     1.0000   1.0000   1.0000   1.0000   1.0000   1.0000   1.0000   1.0000
     1.0000   1.0000   1.0000   1.0000   1.0000   1.0000   1.0000   1.0000
     1.0000   1.0000   1.0000   1.0000   1.0000   1.0000   1.0000   1.0000
     1.0000   1.0000   1.0000   1.0000   1.0000   1.0000   1.0000   1.0000
     1.0000   1.0000   1.0000   1.0000   1.0000   1.0000   1.0000   1.0000
     1.0000   1.0000   1.0000   1.0000   1.0000   1.0000   1.0000   1.0000
     1.0000   1.0000   1.0000   1.0000   1.0000   1.0000   1.0000   1.0000
     1.0000   1.0000   1.0000   1.0000   1.0000   1.0000   1.0000   1.0000
     1.0000   1.0000   1.0000   1.0000   1.0000   1.0000   1.0000   1.0000
     1.0000   1.0000   1.0000   1.0000   1.0000   1.0000   1.0000   1.0000
     1.0000   1.0000   1.0000   1.0000   1.0000   1.0000   1.0000   1.0000
     1.0000   1.0000   1.0000   1.0000   1.0000   1.0000   1.0000   1.0000
     1.0000   1.0000   1.0000   1.0000   1.0000   1.0000   1.0000   1.0000
     0.0000   0.0000   0.0000   0.0000   0.0000   0.0000   0.0000   0.0000
     0.0000   0.0000   0.0000   0.0000   0.0000   0.0000   0.0000   0.0000
     0.0000   0.0000   0.0000   0.0000   0.0000   0.0000   0.0000   0.0000
     0.0000   0.0000   0.0000   0.0000   0.0000   0.0000   0.0000   0.0000
     0.0000   0.0000   0.0000   0.0000   0.0000   0.0000   0.0000   0.0000
     0.0000   0.0000   0.0000   0.0000   0.0000   0.0000   0.0000   0.0000
     0.0000   0.0000   0.0000   0.0000   0.0000   0.0000   0.0000   0.0000
     0.0000   0.0000   0.0000

          k = 0.2500-0.2500-0.5000 (269988 PWs)   bands (ev):

  -103.8895 -61.3551 -61.2877 -61.2877  -7.4524  -7.3968  -7.2628  -7.2546
    -7.2318  -7.1663  -7.1131  -7.0217  -7.0184  -6.9933  -6.9809  -6.9610
    -6.9352  -6.9013  -6.8930  -6.8702  -6.8669  -6.8468  -6.8431  -6.8373
    -6.8251  -6.8040  -6.7758  -6.7703  -6.7593  -6.7492  -6.7255  -6.7188
    -6.4383  -6.3217  -6.3187  -3.9538  -3.9516  -3.9505  -3.9453  -3.9412
    -3.9400  -3.9287  -3.9171  -3.9164  -3.9158  -3.9079  -3.9072  -3.8950
    -3.8934  -3.8927  -3.7914  -3.7890  -3.7805  -3.7751  -3.7733  -3.7695
    -3.7687  -3.7637  -3.7621  -3.7549  -3.7526  -3.7510  -3.7498  -3.7460
    -3.7429  -3.7383  -3.7362  -3.7290  -3.7264  -3.7202  -3.7192  -3.7164
    -3.7141  -3.7092  -3.7043  -3.7009  -3.6986  -3.6952  -3.6911  -3.6895
    -3.6876  -3.6859  -3.6831  -3.6794  -3.6781  -3.6711  -3.6699  -3.6669
    -3.6651  -3.6619  -3.6560  -3.6557  -3.6523  -3.6479  -3.6458  -3.6443
    -3.6395  -3.6381  -3.6320  -3.6288  -3.6279  -3.6268  -3.6227  -3.6184
    -3.6170  -3.6148  -3.6109  -3.6088  -3.6075  -3.6025  -3.6006  -3.5965
    -3.5933  -3.5902  -3.5876  -3.5842  -3.5807  -3.5774  -3.5754  -3.5703
    -3.5682  -3.5678  -3.5662  -3.5617  -3.5604  -3.5581  -3.5569  -3.5537
    -3.5521  -3.5498  -3.5465  -3.5433  -3.5421  -3.5388  -3.5360  -3.5340
    -3.5293  -3.5213  -3.5175  -3.5171  -3.5096  -3.5059  -3.5018  -3.4994
    -3.4958  -3.4896  -3.4794  -3.4659  -3.4469  -3.4461  -3.4443  -3.4423
    -3.4414  -3.4296  -3.4269  -3.4248  -3.4159  -3.4153  -3.4095  -3.4063
    -3.4054  -3.4010  -3.3980  -3.3946  -3.3911  -3.3899  -3.3661  -3.3007
    -3.2708  -3.2614  -3.2443  -3.1816  -3.1723  -3.1605  -3.1234  -3.1117
    -3.1034  -3.0571  -3.0474  -3.0299  -3.0102  -2.9998  -2.9975  -2.9848
    -2.9672  -2.9544  -2.9328  -2.9237  -2.9185  -2.9089   0.5069   0.5615
     0.6133   0.6972   0.7145   0.7409   0.7538   0.7699   0.7805   0.7917
     0.8097   0.8463   0.8511   0.8811   0.8927   0.9403   0.9769   1.0956
     1.1539   1.2361   1.2877   1.3356   1.3618   1.4105   1.5400   1.8955
     2.1735   2.2644   2.3271   2.3853   2.4110   2.4449   2.4826   2.5311
     2.5803   2.6320   2.6504   2.6527   2.6922   2.7512   2.7800   2.8425
     2.9161   2.9341   3.0368   3.1008   3.1640   3.1878   3.2348   3.2942
     3.3195   3.3329   3.3440   3.3573   3.3801   3.3975   3.4316   3.4613
     3.4797   3.4874   3.5117   3.5279   3.5491   3.5599   3.5851   3.6085
     3.6424   3.6717   3.6940   3.7314   3.7754   3.7963   3.8707   3.8850
     3.9323   3.9748   4.0076   4.0314   4.0856   4.0986   4.1505   4.1850
     4.2450   4.2519   4.2813   4.3167   4.4119   4.4969   4.5776   4.6582
     4.6762   4.7196   4.7704   4.8485   4.8641   4.8907   5.2784   5.3506
     6.7528   8.2006   8.3040   8.8681   8.9559   9.0677   9.1396   9.2268
     9.3503   9.3862   9.4486   9.5251   9.5462   9.5927   9.6133   9.6323
     9.6638   9.7412   9.7519   9.7988   9.8325   9.8656   9.8828   9.9555
     9.9848   9.9930  10.0636  10.0950  10.1044  10.1817  10.1995  10.3264
    10.3542  10.3926  10.4391  10.6064  10.6980  10.7496  10.7787  10.8261
    10.8524  10.9578  11.0428  11.1417  11.2314  11.2862  11.3502  11.4135
    11.4666  11.4942  11.5032  11.5314  11.5858  11.5973  11.6278  11.6410
    11.6542  11.6786  11.6921

     occupation numbers 
     1.0000   1.0000   1.0000   1.0000   1.0000   1.0000   1.0000   1.0000
     1.0000   1.0000   1.0000   1.0000   1.0000   1.0000   1.0000   1.0000
     1.0000   1.0000   1.0000   1.0000   1.0000   1.0000   1.0000   1.0000
     1.0000   1.0000   1.0000   1.0000   1.0000   1.0000   1.0000   1.0000
     1.0000   1.0000   1.0000   1.0000   1.0000   1.0000   1.0000   1.0000
     1.0000   1.0000   1.0000   1.0000   1.0000   1.0000   1.0000   1.0000
     1.0000   1.0000   1.0000   1.0000   1.0000   1.0000   1.0000   1.0000
     1.0000   1.0000   1.0000   1.0000   1.0000   1.0000   1.0000   1.0000
     1.0000   1.0000   1.0000   1.0000   1.0000   1.0000   1.0000   1.0000
     1.0000   1.0000   1.0000   1.0000   1.0000   1.0000   1.0000   1.0000
     1.0000   1.0000   1.0000   1.0000   1.0000   1.0000   1.0000   1.0000
     1.0000   1.0000   1.0000   1.0000   1.0000   1.0000   1.0000   1.0000
     1.0000   1.0000   1.0000   1.0000   1.0000   1.0000   1.0000   1.0000
     1.0000   1.0000   1.0000   1.0000   1.0000   1.0000   1.0000   1.0000
     1.0000   1.0000   1.0000   1.0000   1.0000   1.0000   1.0000   1.0000
     1.0000   1.0000   1.0000   1.0000   1.0000   1.0000   1.0000   1.0000
     1.0000   1.0000   1.0000   1.0000   1.0000   1.0000   1.0000   1.0000
     1.0000   1.0000   1.0000   1.0000   1.0000   1.0000   1.0000   1.0000
     1.0000   1.0000   1.0000   1.0000   1.0000   1.0000   1.0000   1.0000
     1.0000   1.0000   1.0000   1.0000   1.0000   1.0000   1.0000   1.0000
     1.0000   1.0000   1.0000   1.0000   1.0000   1.0000   1.0000   1.0000
     1.0000   1.0000   1.0000   1.0000   1.0000   1.0000   1.0000   1.0000
     1.0000   1.0000   1.0000   1.0000   1.0000   1.0000   1.0000   1.0000
     1.0000   1.0000   1.0000   1.0000   1.0000   1.0000   1.0000   1.0000
     1.0000   1.0000   1.0000   1.0000   1.0000   1.0000   1.0000   1.0000
     1.0000   1.0000   1.0000   1.0000   1.0000   1.0000   1.0000   1.0000
     1.0000   1.0000   1.0000   1.0000   1.0000   1.0000   1.0000   1.0000
     1.0000   1.0000   1.0000   1.0000   1.0000   1.0000   1.0000   1.0000
     1.0000   1.0000   1.0000   1.0000   1.0000   1.0000   1.0000   1.0000
     1.0000   1.0000   1.0000   1.0000   1.0000   1.0000   1.0000   1.0000
     1.0000   1.0000   1.0000   1.0000   1.0000   1.0000   1.0000   1.0000
     1.0000   1.0000   1.0000   1.0000   1.0000   1.0000   1.0000   1.0000
     1.0000   1.0000   1.0000   1.0000   1.0000   1.0000   1.0000   1.0000
     1.0000   1.0000   1.0000   1.0000   1.0000   1.0000   1.0000   1.0000
     1.0000   1.0000   1.0000   1.0000   1.0000   1.0000   1.0000   1.0000
     1.0000   1.0000   1.0000   1.0000   1.0000   1.0000   1.0000   1.0000
     0.0000   0.0000   0.0000   0.0000   0.0000   0.0000   0.0000   0.0000
     0.0000   0.0000   0.0000   0.0000   0.0000   0.0000   0.0000   0.0000
     0.0000   0.0000   0.0000   0.0000   0.0000   0.0000   0.0000   0.0000
     0.0000   0.0000   0.0000   0.0000   0.0000   0.0000   0.0000   0.0000
     0.0000   0.0000   0.0000   0.0000   0.0000   0.0000   0.0000   0.0000
     0.0000   0.0000   0.0000   0.0000   0.0000   0.0000   0.0000   0.0000
     0.0000   0.0000   0.0000   0.0000   0.0000   0.0000   0.0000   0.0000
     0.0000   0.0000   0.0000

     the Fermi energy is     6.2915 ev
     (compare with:     6.3290 eV, computed in scf)

     Writing all to output data dir ./out/Cu_vac_q0_U5_unrlxd.save/
 
     init_run     :      5.38s CPU      6.53s WALL (       1 calls)
     electrons    :    148.96s CPU    150.69s WALL (       1 calls)

     Called by init_run:
     wfcinit      :      2.03s CPU      2.62s WALL (       1 calls)
     wfcinit:atom :      0.03s CPU      0.03s WALL (       2 calls)
     wfcinit:wfcr :      3.09s CPU      3.20s WALL (       2 calls)
     potinit      :      0.64s CPU      0.90s WALL (       1 calls)
     hinit0       :      0.45s CPU      0.53s WALL (       1 calls)

     Called by electrons:
     c_bands      :    148.65s CPU    150.35s WALL (       1 calls)
     v_of_rho     :      0.28s CPU      0.36s WALL (       1 calls)
     v_h          :      0.01s CPU      0.01s WALL (       1 calls)
     v_xc         :      0.28s CPU      0.35s WALL (       1 calls)
     newd         :      0.04s CPU      0.04s WALL (       1 calls)
     PAW_pot      :      0.09s CPU      0.11s WALL (       1 calls)

     Called by c_bands:
     init_us_2    :      0.11s CPU      0.13s WALL (       4 calls)
     init_us_2:cp :      0.11s CPU      0.13s WALL (       4 calls)
     cegterg      :    140.11s CPU    141.67s WALL (      12 calls)

     Called by sum_band:

     Called by *egterg:
     cdiaghg      :     13.99s CPU     14.08s WALL (     224 calls)
     cegterg:over :     10.85s CPU     11.03s WALL (     222 calls)
     cegterg:upda :     10.65s CPU     10.72s WALL (     222 calls)
     cegterg:last :     19.63s CPU     19.76s WALL (      67 calls)
     cdiaghg:chol :      0.90s CPU      0.91s WALL (     224 calls)
     cdiaghg:inve :      1.31s CPU      1.32s WALL (     224 calls)
     cdiaghg:para :      2.11s CPU      2.13s WALL (     448 calls)
     h_psi        :     73.20s CPU     74.08s WALL (     236 calls)
     s_psi        :     12.58s CPU     12.69s WALL (     238 calls)
     g_psi        :      0.39s CPU      0.39s WALL (     222 calls)

     Called by h_psi:
     h_psi:calbec :     12.15s CPU     12.25s WALL (     236 calls)
     vloc_psi     :     29.66s CPU     30.02s WALL (     236 calls)
     add_vuspsi   :     12.79s CPU     12.90s WALL (     236 calls)
     vhpsi        :     18.01s CPU     18.19s WALL (     236 calls)

     General routines
     calbec       :     14.77s CPU     14.90s WALL (     474 calls)
     fft          :      0.47s CPU      0.64s WALL (      21 calls)
     fftw         :     27.54s CPU     27.89s WALL (   50756 calls)
     davcio       :      0.00s CPU      0.01s WALL (       2 calls)
 
     Parallel routines

     Hubbard U routines
     vhpsi        :     18.01s CPU     18.19s WALL (     236 calls)

     PAW routines
     PAW_pot      :      0.09s CPU      0.11s WALL (       1 calls)
 
     PWSCF        :   2m54.61s CPU   3m18.15s WALL

 
   This run was terminated on:   2:42:15  18Jul2024            

=------------------------------------------------------------------------------=
   JOB DONE.
=------------------------------------------------------------------------------=
