### Running on host: hamsi18.yonetim

     Program PWSCF v.7.2 starts on 22Mar2024 at  0:52:24 

     This program is part of the open-source Quantum ESPRESSO suite
     for quantum simulation of materials; please cite
         "P. Giannozzi et al., J. Phys.:Condens. Matter 21 395502 (2009);
         "P. Giannozzi et al., J. Phys.:Condens. Matter 29 465901 (2017);
         "P. Giannozzi et al., J. Chem. Phys. 152 154105 (2020);
          URL http://www.quantum-espresso.org", 
     in publications or presentations arising from this work. More details at
     http://www.quantum-espresso.org/quote

     Parallel version (MPI), running on    28 processors

     MPI processes distributed on     1 nodes
     102044 MiB available memory on the printing compute node when the environment starts
 
     Reading input from scf.m-p.degauss-0.001.in

     Current dimensions of program PWSCF are:
     Max number of different atomic species (ntypx) = 10
     Max number of k-points (npk) = 120000
     Max angular momentum in pseudopotentials (lmaxx) =  4
     file Ni.pbe-spn-kjpaw_psl.1.0.0.UPF: wavefunction(s)  3P 3D renormalized
     Found identity + (  0.0000 -0.5000 -0.5000) symmetry
     This is a supercell, fractional translations are disabled
     Message from routine setup:
     using ibrav=0 with symmetry is DISCOURAGED, use correct ibrav instead
 
     K-points division:     npool     =       2
     R & G space division:  proc/nbgrp/npool/nimage =      14
     Subspace diagonalization in iterative solution of the eigenvalue problem:
     a serial algorithm will be used

 
     Parallelization info
     --------------------
     sticks:   dense  smooth     PW     G-vecs:    dense   smooth      PW
     Min         196     147     42                 7724     5021     768
     Max         198     148     43                 7726     5024     771
     Sum        2749    2061    593               108143    70319   10779
 
     Using Slab Decomposition
 


     bravais-lattice index     =            0
     lattice parameter (alat)  =       6.5671  a.u.
     unit-cell volume          =     283.2147 (a.u.)^3
     number of atoms/cell      =            4
     number of atomic types    =            1
     number of electrons       =        72.00
     number of Kohn-Sham states=           43
     kinetic-energy cutoff     =     150.0000  Ry
     charge density cutoff     =     800.0000  Ry
     scf convergence threshold =      8.0E-08
     mixing beta               =       0.7000
     number of iterations used =            8  plain     mixing
     Exchange-correlation= SLA  PW   PBX  PBC
                           (   1   4   3   4   0   0   0)

     celldm(1)=   6.567074  celldm(2)=   0.000000  celldm(3)=   0.000000
     celldm(4)=   0.000000  celldm(5)=   0.000000  celldm(6)=   0.000000

     crystal axes: (cart. coord. in units of alat)
               a(1) = (   1.000000   0.000000   0.000000 )  
               a(2) = (   0.000000   1.000000   0.000000 )  
               a(3) = (   0.000000   0.000000   1.000000 )  

     reciprocal axes: (cart. coord. in units 2 pi/alat)
               b(1) = (  1.000000  0.000000  0.000000 )  
               b(2) = (  0.000000  1.000000  0.000000 )  
               b(3) = (  0.000000  0.000000  1.000000 )  


     PseudoPot. # 1 for Ni read from file:
     /truba/home/amuhaymin/ZnS/pseudo/QE/Ni.pbe-spn-kjpaw_psl.1.0.0.UPF
     MD5 check sum: 6e86b733589c3ad8389697b807d86aa7
     Pseudo is Projector augmented-wave + core cor, Zval = 18.0
     Generated using &quot;atomic&quot; code by A. Dal Corso  v.6.3
     Shape of augmentation charge: PSQ
     Using radial grid of 1195 points,  6 beta functions with: 
                l(1) =   0
                l(2) =   0
                l(3) =   1
                l(4) =   1
                l(5) =   2
                l(6) =   2
     Q(r) pseudized with 0 coefficients 


     atomic species   valence    mass     pseudopotential
        Ni            18.00    58.69340     Ni( 1.00)

     Starting magnetic structure 
     atomic species   magnetization
        Ni           0.278

     48 Sym. Ops., with inversion, found


                                    s                        frac. trans.

      isym =  1     identity                                     

 cryst.   s( 1) = (     1          0          0      )
                  (     0          1          0      )
                  (     0          0          1      )

 cart.    s( 1) = (  1.0000000  0.0000000  0.0000000 )
                  (  0.0000000  1.0000000  0.0000000 )
                  (  0.0000000  0.0000000  1.0000000 )


      isym =  2     180 deg rotation - cart. axis [0,0,1]        

 cryst.   s( 2) = (    -1          0          0      )
                  (     0         -1          0      )
                  (     0          0          1      )

 cart.    s( 2) = ( -1.0000000  0.0000000  0.0000000 )
                  (  0.0000000 -1.0000000  0.0000000 )
                  (  0.0000000  0.0000000  1.0000000 )


      isym =  3     180 deg rotation - cart. axis [0,1,0]        

 cryst.   s( 3) = (    -1          0          0      )
                  (     0          1          0      )
                  (     0          0         -1      )

 cart.    s( 3) = ( -1.0000000  0.0000000  0.0000000 )
                  (  0.0000000  1.0000000  0.0000000 )
                  (  0.0000000  0.0000000 -1.0000000 )


      isym =  4     180 deg rotation - cart. axis [1,0,0]        

 cryst.   s( 4) = (     1          0          0      )
                  (     0         -1          0      )
                  (     0          0         -1      )

 cart.    s( 4) = (  1.0000000  0.0000000  0.0000000 )
                  (  0.0000000 -1.0000000  0.0000000 )
                  (  0.0000000  0.0000000 -1.0000000 )


      isym =  5     180 deg rotation - cart. axis [1,1,0]        

 cryst.   s( 5) = (     0          1          0      )
                  (     1          0          0      )
                  (     0          0         -1      )

 cart.    s( 5) = (  0.0000000  1.0000000  0.0000000 )
                  (  1.0000000  0.0000000  0.0000000 )
                  (  0.0000000  0.0000000 -1.0000000 )


      isym =  6     180 deg rotation - cart. axis [1,-1,0]       

 cryst.   s( 6) = (     0         -1          0      )
                  (    -1          0          0      )
                  (     0          0         -1      )

 cart.    s( 6) = (  0.0000000 -1.0000000  0.0000000 )
                  ( -1.0000000  0.0000000  0.0000000 )
                  (  0.0000000  0.0000000 -1.0000000 )


      isym =  7      90 deg rotation - cart. axis [0,0,-1]       

 cryst.   s( 7) = (     0         -1          0      )
                  (     1          0          0      )
                  (     0          0          1      )

 cart.    s( 7) = (  0.0000000  1.0000000  0.0000000 )
                  ( -1.0000000  0.0000000  0.0000000 )
                  (  0.0000000  0.0000000  1.0000000 )


      isym =  8      90 deg rotation - cart. axis [0,0,1]        

 cryst.   s( 8) = (     0          1          0      )
                  (    -1          0          0      )
                  (     0          0          1      )

 cart.    s( 8) = (  0.0000000 -1.0000000  0.0000000 )
                  (  1.0000000  0.0000000  0.0000000 )
                  (  0.0000000  0.0000000  1.0000000 )


      isym =  9     180 deg rotation - cart. axis [1,0,1]        

 cryst.   s( 9) = (     0          0          1      )
                  (     0         -1          0      )
                  (     1          0          0      )

 cart.    s( 9) = (  0.0000000  0.0000000  1.0000000 )
                  (  0.0000000 -1.0000000  0.0000000 )
                  (  1.0000000  0.0000000  0.0000000 )


      isym = 10     180 deg rotation - cart. axis [-1,0,1]       

 cryst.   s(10) = (     0          0         -1      )
                  (     0         -1          0      )
                  (    -1          0          0      )

 cart.    s(10) = (  0.0000000  0.0000000 -1.0000000 )
                  (  0.0000000 -1.0000000  0.0000000 )
                  ( -1.0000000  0.0000000  0.0000000 )


      isym = 11      90 deg rotation - cart. axis [0,1,0]        

 cryst.   s(11) = (     0          0         -1      )
                  (     0          1          0      )
                  (     1          0          0      )

 cart.    s(11) = (  0.0000000  0.0000000  1.0000000 )
                  (  0.0000000  1.0000000  0.0000000 )
                  ( -1.0000000  0.0000000  0.0000000 )


      isym = 12      90 deg rotation - cart. axis [0,-1,0]       

 cryst.   s(12) = (     0          0          1      )
                  (     0          1          0      )
                  (    -1          0          0      )

 cart.    s(12) = (  0.0000000  0.0000000 -1.0000000 )
                  (  0.0000000  1.0000000  0.0000000 )
                  (  1.0000000  0.0000000  0.0000000 )


      isym = 13     180 deg rotation - cart. axis [0,1,1]        

 cryst.   s(13) = (    -1          0          0      )
                  (     0          0          1      )
                  (     0          1          0      )

 cart.    s(13) = ( -1.0000000  0.0000000  0.0000000 )
                  (  0.0000000  0.0000000  1.0000000 )
                  (  0.0000000  1.0000000  0.0000000 )


      isym = 14     180 deg rotation - cart. axis [0,1,-1]       

 cryst.   s(14) = (    -1          0          0      )
                  (     0          0         -1      )
                  (     0         -1          0      )

 cart.    s(14) = ( -1.0000000  0.0000000  0.0000000 )
                  (  0.0000000  0.0000000 -1.0000000 )
                  (  0.0000000 -1.0000000  0.0000000 )


      isym = 15      90 deg rotation - cart. axis [-1,0,0]       

 cryst.   s(15) = (     1          0          0      )
                  (     0          0         -1      )
                  (     0          1          0      )

 cart.    s(15) = (  1.0000000  0.0000000  0.0000000 )
                  (  0.0000000  0.0000000  1.0000000 )
                  (  0.0000000 -1.0000000  0.0000000 )


      isym = 16      90 deg rotation - cart. axis [1,0,0]        

 cryst.   s(16) = (     1          0          0      )
                  (     0          0          1      )
                  (     0         -1          0      )

 cart.    s(16) = (  1.0000000  0.0000000  0.0000000 )
                  (  0.0000000  0.0000000 -1.0000000 )
                  (  0.0000000  1.0000000  0.0000000 )


      isym = 17     120 deg rotation - cart. axis [-1,-1,-1]     

 cryst.   s(17) = (     0          0          1      )
                  (     1          0          0      )
                  (     0          1          0      )

 cart.    s(17) = (  0.0000000  1.0000000  0.0000000 )
                  (  0.0000000  0.0000000  1.0000000 )
                  (  1.0000000  0.0000000  0.0000000 )


      isym = 18     120 deg rotation - cart. axis [-1,1,1]       

 cryst.   s(18) = (     0          0         -1      )
                  (    -1          0          0      )
                  (     0          1          0      )

 cart.    s(18) = (  0.0000000 -1.0000000  0.0000000 )
                  (  0.0000000  0.0000000  1.0000000 )
                  ( -1.0000000  0.0000000  0.0000000 )


      isym = 19     120 deg rotation - cart. axis [1,1,-1]       

 cryst.   s(19) = (     0          0         -1      )
                  (     1          0          0      )
                  (     0         -1          0      )

 cart.    s(19) = (  0.0000000  1.0000000  0.0000000 )
                  (  0.0000000  0.0000000 -1.0000000 )
                  ( -1.0000000  0.0000000  0.0000000 )


      isym = 20     120 deg rotation - cart. axis [1,-1,1]       

 cryst.   s(20) = (     0          0          1      )
                  (    -1          0          0      )
                  (     0         -1          0      )

 cart.    s(20) = (  0.0000000 -1.0000000  0.0000000 )
                  (  0.0000000  0.0000000 -1.0000000 )
                  (  1.0000000  0.0000000  0.0000000 )


      isym = 21     120 deg rotation - cart. axis [1,1,1]        

 cryst.   s(21) = (     0          1          0      )
                  (     0          0          1      )
                  (     1          0          0      )

 cart.    s(21) = (  0.0000000  0.0000000  1.0000000 )
                  (  1.0000000  0.0000000  0.0000000 )
                  (  0.0000000  1.0000000  0.0000000 )


      isym = 22     120 deg rotation - cart. axis [-1,1,-1]      

 cryst.   s(22) = (     0         -1          0      )
                  (     0          0         -1      )
                  (     1          0          0      )

 cart.    s(22) = (  0.0000000  0.0000000  1.0000000 )
                  ( -1.0000000  0.0000000  0.0000000 )
                  (  0.0000000 -1.0000000  0.0000000 )


      isym = 23     120 deg rotation - cart. axis [1,-1,-1]      

 cryst.   s(23) = (     0         -1          0      )
                  (     0          0          1      )
                  (    -1          0          0      )

 cart.    s(23) = (  0.0000000  0.0000000 -1.0000000 )
                  ( -1.0000000  0.0000000  0.0000000 )
                  (  0.0000000  1.0000000  0.0000000 )


      isym = 24     120 deg rotation - cart. axis [-1,-1,1]      

 cryst.   s(24) = (     0          1          0      )
                  (     0          0         -1      )
                  (    -1          0          0      )

 cart.    s(24) = (  0.0000000  0.0000000 -1.0000000 )
                  (  1.0000000  0.0000000  0.0000000 )
                  (  0.0000000 -1.0000000  0.0000000 )


      isym = 25     inversion                                    

 cryst.   s(25) = (    -1          0          0      )
                  (     0         -1          0      )
                  (     0          0         -1      )

 cart.    s(25) = ( -1.0000000  0.0000000  0.0000000 )
                  (  0.0000000 -1.0000000  0.0000000 )
                  (  0.0000000  0.0000000 -1.0000000 )


      isym = 26     inv. 180 deg rotation - cart. axis [0,0,1]   

 cryst.   s(26) = (     1          0          0      )
                  (     0          1          0      )
                  (     0          0         -1      )

 cart.    s(26) = (  1.0000000  0.0000000  0.0000000 )
                  (  0.0000000  1.0000000  0.0000000 )
                  (  0.0000000  0.0000000 -1.0000000 )


      isym = 27     inv. 180 deg rotation - cart. axis [0,1,0]   

 cryst.   s(27) = (     1          0          0      )
                  (     0         -1          0      )
                  (     0          0          1      )

 cart.    s(27) = (  1.0000000  0.0000000  0.0000000 )
                  (  0.0000000 -1.0000000  0.0000000 )
                  (  0.0000000  0.0000000  1.0000000 )


      isym = 28     inv. 180 deg rotation - cart. axis [1,0,0]   

 cryst.   s(28) = (    -1          0          0      )
                  (     0          1          0      )
                  (     0          0          1      )

 cart.    s(28) = ( -1.0000000  0.0000000  0.0000000 )
                  (  0.0000000  1.0000000  0.0000000 )
                  (  0.0000000  0.0000000  1.0000000 )


      isym = 29     inv. 180 deg rotation - cart. axis [1,1,0]   

 cryst.   s(29) = (     0         -1          0      )
                  (    -1          0          0      )
                  (     0          0          1      )

 cart.    s(29) = (  0.0000000 -1.0000000  0.0000000 )
                  ( -1.0000000  0.0000000  0.0000000 )
                  (  0.0000000  0.0000000  1.0000000 )


      isym = 30     inv. 180 deg rotation - cart. axis [1,-1,0]  

 cryst.   s(30) = (     0          1          0      )
                  (     1          0          0      )
                  (     0          0          1      )

 cart.    s(30) = (  0.0000000  1.0000000  0.0000000 )
                  (  1.0000000  0.0000000  0.0000000 )
                  (  0.0000000  0.0000000  1.0000000 )


      isym = 31     inv.  90 deg rotation - cart. axis [0,0,-1]  

 cryst.   s(31) = (     0          1          0      )
                  (    -1          0          0      )
                  (     0          0         -1      )

 cart.    s(31) = (  0.0000000 -1.0000000  0.0000000 )
                  (  1.0000000  0.0000000  0.0000000 )
                  (  0.0000000  0.0000000 -1.0000000 )


      isym = 32     inv.  90 deg rotation - cart. axis [0,0,1]   

 cryst.   s(32) = (     0         -1          0      )
                  (     1          0          0      )
                  (     0          0         -1      )

 cart.    s(32) = (  0.0000000  1.0000000  0.0000000 )
                  ( -1.0000000  0.0000000  0.0000000 )
                  (  0.0000000  0.0000000 -1.0000000 )


      isym = 33     inv. 180 deg rotation - cart. axis [1,0,1]   

 cryst.   s(33) = (     0          0         -1      )
                  (     0          1          0      )
                  (    -1          0          0      )

 cart.    s(33) = (  0.0000000  0.0000000 -1.0000000 )
                  (  0.0000000  1.0000000  0.0000000 )
                  ( -1.0000000  0.0000000  0.0000000 )


      isym = 34     inv. 180 deg rotation - cart. axis [-1,0,1]  

 cryst.   s(34) = (     0          0          1      )
                  (     0          1          0      )
                  (     1          0          0      )

 cart.    s(34) = (  0.0000000  0.0000000  1.0000000 )
                  (  0.0000000  1.0000000  0.0000000 )
                  (  1.0000000  0.0000000  0.0000000 )


      isym = 35     inv.  90 deg rotation - cart. axis [0,1,0]   

 cryst.   s(35) = (     0          0          1      )
                  (     0         -1          0      )
                  (    -1          0          0      )

 cart.    s(35) = (  0.0000000  0.0000000 -1.0000000 )
                  (  0.0000000 -1.0000000  0.0000000 )
                  (  1.0000000  0.0000000  0.0000000 )


      isym = 36     inv.  90 deg rotation - cart. axis [0,-1,0]  

 cryst.   s(36) = (     0          0         -1      )
                  (     0         -1          0      )
                  (     1          0          0      )

 cart.    s(36) = (  0.0000000  0.0000000  1.0000000 )
                  (  0.0000000 -1.0000000  0.0000000 )
                  ( -1.0000000  0.0000000  0.0000000 )


      isym = 37     inv. 180 deg rotation - cart. axis [0,1,1]   

 cryst.   s(37) = (     1          0          0      )
                  (     0          0         -1      )
                  (     0         -1          0      )

 cart.    s(37) = (  1.0000000  0.0000000  0.0000000 )
                  (  0.0000000  0.0000000 -1.0000000 )
                  (  0.0000000 -1.0000000  0.0000000 )


      isym = 38     inv. 180 deg rotation - cart. axis [0,1,-1]  

 cryst.   s(38) = (     1          0          0      )
                  (     0          0          1      )
                  (     0          1          0      )

 cart.    s(38) = (  1.0000000  0.0000000  0.0000000 )
                  (  0.0000000  0.0000000  1.0000000 )
                  (  0.0000000  1.0000000  0.0000000 )


      isym = 39     inv.  90 deg rotation - cart. axis [-1,0,0]  

 cryst.   s(39) = (    -1          0          0      )
                  (     0          0          1      )
                  (     0         -1          0      )

 cart.    s(39) = ( -1.0000000  0.0000000  0.0000000 )
                  (  0.0000000  0.0000000 -1.0000000 )
                  (  0.0000000  1.0000000  0.0000000 )


      isym = 40     inv.  90 deg rotation - cart. axis [1,0,0]   

 cryst.   s(40) = (    -1          0          0      )
                  (     0          0         -1      )
                  (     0          1          0      )

 cart.    s(40) = ( -1.0000000  0.0000000  0.0000000 )
                  (  0.0000000  0.0000000  1.0000000 )
                  (  0.0000000 -1.0000000  0.0000000 )


      isym = 41     inv. 120 deg rotation - cart. axis [-1,-1,-1]

 cryst.   s(41) = (     0          0         -1      )
                  (    -1          0          0      )
                  (     0         -1          0      )

 cart.    s(41) = (  0.0000000 -1.0000000  0.0000000 )
                  (  0.0000000  0.0000000 -1.0000000 )
                  ( -1.0000000  0.0000000  0.0000000 )


      isym = 42     inv. 120 deg rotation - cart. axis [-1,1,1]  

 cryst.   s(42) = (     0          0          1      )
                  (     1          0          0      )
                  (     0         -1          0      )

 cart.    s(42) = (  0.0000000  1.0000000  0.0000000 )
                  (  0.0000000  0.0000000 -1.0000000 )
                  (  1.0000000  0.0000000  0.0000000 )


      isym = 43     inv. 120 deg rotation - cart. axis [1,1,-1]  

 cryst.   s(43) = (     0          0          1      )
                  (    -1          0          0      )
                  (     0          1          0      )

 cart.    s(43) = (  0.0000000 -1.0000000  0.0000000 )
                  (  0.0000000  0.0000000  1.0000000 )
                  (  1.0000000  0.0000000  0.0000000 )


      isym = 44     inv. 120 deg rotation - cart. axis [1,-1,1]  

 cryst.   s(44) = (     0          0         -1      )
                  (     1          0          0      )
                  (     0          1          0      )

 cart.    s(44) = (  0.0000000  1.0000000  0.0000000 )
                  (  0.0000000  0.0000000  1.0000000 )
                  ( -1.0000000  0.0000000  0.0000000 )


      isym = 45     inv. 120 deg rotation - cart. axis [1,1,1]   

 cryst.   s(45) = (     0         -1          0      )
                  (     0          0         -1      )
                  (    -1          0          0      )

 cart.    s(45) = (  0.0000000  0.0000000 -1.0000000 )
                  ( -1.0000000  0.0000000  0.0000000 )
                  (  0.0000000 -1.0000000  0.0000000 )


      isym = 46     inv. 120 deg rotation - cart. axis [-1,1,-1] 

 cryst.   s(46) = (     0          1          0      )
                  (     0          0          1      )
                  (    -1          0          0      )

 cart.    s(46) = (  0.0000000  0.0000000 -1.0000000 )
                  (  1.0000000  0.0000000  0.0000000 )
                  (  0.0000000  1.0000000  0.0000000 )


      isym = 47     inv. 120 deg rotation - cart. axis [1,-1,-1] 

 cryst.   s(47) = (     0          1          0      )
                  (     0          0         -1      )
                  (     1          0          0      )

 cart.    s(47) = (  0.0000000  0.0000000  1.0000000 )
                  (  1.0000000  0.0000000  0.0000000 )
                  (  0.0000000 -1.0000000  0.0000000 )


      isym = 48     inv. 120 deg rotation - cart. axis [-1,-1,1] 

 cryst.   s(48) = (     0         -1          0      )
                  (     0          0          1      )
                  (     1          0          0      )

 cart.    s(48) = (  0.0000000  0.0000000  1.0000000 )
                  ( -1.0000000  0.0000000  0.0000000 )
                  (  0.0000000  1.0000000  0.0000000 )


   Cartesian axes

     site n.     atom                  positions (alat units)
         1           Ni  tau(   1) = (   0.0000000   0.0000000   0.0000000  )
         2           Ni  tau(   2) = (   0.0000000   0.5000000   0.5000000  )
         3           Ni  tau(   3) = (   0.5000000   0.0000000   0.5000000  )
         4           Ni  tau(   4) = (   0.5000000   0.5000000   0.0000000  )

   Crystallographic axes

     site n.     atom                  positions (cryst. coord.)
         1           Ni  tau(   1) = (  0.0000000  0.0000000  0.0000000  )
         2           Ni  tau(   2) = (  0.0000000  0.5000000  0.5000000  )
         3           Ni  tau(   3) = (  0.5000000  0.0000000  0.5000000  )
         4           Ni  tau(   4) = (  0.5000000  0.5000000  0.0000000  )

     number of k points=    84  Methfessel-Paxton smearing, width (Ry)=  0.0010
                       cart. coord. in units 2pi/alat
        k(    1) = (   0.0000000   0.0000000   0.0000000), wk =   0.0005787
        k(    2) = (   0.0000000   0.0000000   0.0833333), wk =   0.0034722
        k(    3) = (   0.0000000   0.0000000   0.1666667), wk =   0.0034722
        k(    4) = (   0.0000000   0.0000000   0.2500000), wk =   0.0034722
        k(    5) = (   0.0000000   0.0000000   0.3333333), wk =   0.0034722
        k(    6) = (   0.0000000   0.0000000   0.4166667), wk =   0.0034722
        k(    7) = (   0.0000000   0.0000000  -0.5000000), wk =   0.0017361
        k(    8) = (   0.0000000   0.0833333   0.0833333), wk =   0.0069444
        k(    9) = (   0.0000000   0.0833333   0.1666667), wk =   0.0138889
        k(   10) = (   0.0000000   0.0833333   0.2500000), wk =   0.0138889
        k(   11) = (   0.0000000   0.0833333   0.3333333), wk =   0.0138889
        k(   12) = (   0.0000000   0.0833333   0.4166667), wk =   0.0138889
        k(   13) = (   0.0000000   0.0833333  -0.5000000), wk =   0.0069444
        k(   14) = (   0.0000000   0.1666667   0.1666667), wk =   0.0069444
        k(   15) = (   0.0000000   0.1666667   0.2500000), wk =   0.0138889
        k(   16) = (   0.0000000   0.1666667   0.3333333), wk =   0.0138889
        k(   17) = (   0.0000000   0.1666667   0.4166667), wk =   0.0138889
        k(   18) = (   0.0000000   0.1666667  -0.5000000), wk =   0.0069444
        k(   19) = (   0.0000000   0.2500000   0.2500000), wk =   0.0069444
        k(   20) = (   0.0000000   0.2500000   0.3333333), wk =   0.0138889
        k(   21) = (   0.0000000   0.2500000   0.4166667), wk =   0.0138889
        k(   22) = (   0.0000000   0.2500000  -0.5000000), wk =   0.0069444
        k(   23) = (   0.0000000   0.3333333   0.3333333), wk =   0.0069444
        k(   24) = (   0.0000000   0.3333333   0.4166667), wk =   0.0138889
        k(   25) = (   0.0000000   0.3333333  -0.5000000), wk =   0.0069444
        k(   26) = (   0.0000000   0.4166667   0.4166667), wk =   0.0069444
        k(   27) = (   0.0000000   0.4166667  -0.5000000), wk =   0.0069444
        k(   28) = (   0.0000000  -0.5000000  -0.5000000), wk =   0.0017361
        k(   29) = (   0.0833333   0.0833333   0.0833333), wk =   0.0046296
        k(   30) = (   0.0833333   0.0833333   0.1666667), wk =   0.0138889
        k(   31) = (   0.0833333   0.0833333   0.2500000), wk =   0.0138889
        k(   32) = (   0.0833333   0.0833333   0.3333333), wk =   0.0138889
        k(   33) = (   0.0833333   0.0833333   0.4166667), wk =   0.0138889
        k(   34) = (   0.0833333   0.0833333  -0.5000000), wk =   0.0069444
        k(   35) = (   0.0833333   0.1666667   0.1666667), wk =   0.0138889
        k(   36) = (   0.0833333   0.1666667   0.2500000), wk =   0.0277778
        k(   37) = (   0.0833333   0.1666667   0.3333333), wk =   0.0277778
        k(   38) = (   0.0833333   0.1666667   0.4166667), wk =   0.0277778
        k(   39) = (   0.0833333   0.1666667  -0.5000000), wk =   0.0138889
        k(   40) = (   0.0833333   0.2500000   0.2500000), wk =   0.0138889
        k(   41) = (   0.0833333   0.2500000   0.3333333), wk =   0.0277778
        k(   42) = (   0.0833333   0.2500000   0.4166667), wk =   0.0277778
        k(   43) = (   0.0833333   0.2500000  -0.5000000), wk =   0.0138889
        k(   44) = (   0.0833333   0.3333333   0.3333333), wk =   0.0138889
        k(   45) = (   0.0833333   0.3333333   0.4166667), wk =   0.0277778
        k(   46) = (   0.0833333   0.3333333  -0.5000000), wk =   0.0138889
        k(   47) = (   0.0833333   0.4166667   0.4166667), wk =   0.0138889
        k(   48) = (   0.0833333   0.4166667  -0.5000000), wk =   0.0138889
        k(   49) = (   0.0833333  -0.5000000  -0.5000000), wk =   0.0034722
        k(   50) = (   0.1666667   0.1666667   0.1666667), wk =   0.0046296
        k(   51) = (   0.1666667   0.1666667   0.2500000), wk =   0.0138889
        k(   52) = (   0.1666667   0.1666667   0.3333333), wk =   0.0138889
        k(   53) = (   0.1666667   0.1666667   0.4166667), wk =   0.0138889
        k(   54) = (   0.1666667   0.1666667  -0.5000000), wk =   0.0069444
        k(   55) = (   0.1666667   0.2500000   0.2500000), wk =   0.0138889
        k(   56) = (   0.1666667   0.2500000   0.3333333), wk =   0.0277778
        k(   57) = (   0.1666667   0.2500000   0.4166667), wk =   0.0277778
        k(   58) = (   0.1666667   0.2500000  -0.5000000), wk =   0.0138889
        k(   59) = (   0.1666667   0.3333333   0.3333333), wk =   0.0138889
        k(   60) = (   0.1666667   0.3333333   0.4166667), wk =   0.0277778
        k(   61) = (   0.1666667   0.3333333  -0.5000000), wk =   0.0138889
        k(   62) = (   0.1666667   0.4166667   0.4166667), wk =   0.0138889
        k(   63) = (   0.1666667   0.4166667  -0.5000000), wk =   0.0138889
        k(   64) = (   0.1666667  -0.5000000  -0.5000000), wk =   0.0034722
        k(   65) = (   0.2500000   0.2500000   0.2500000), wk =   0.0046296
        k(   66) = (   0.2500000   0.2500000   0.3333333), wk =   0.0138889
        k(   67) = (   0.2500000   0.2500000   0.4166667), wk =   0.0138889
        k(   68) = (   0.2500000   0.2500000  -0.5000000), wk =   0.0069444
        k(   69) = (   0.2500000   0.3333333   0.3333333), wk =   0.0138889
        k(   70) = (   0.2500000   0.3333333   0.4166667), wk =   0.0277778
        k(   71) = (   0.2500000   0.3333333  -0.5000000), wk =   0.0138889
        k(   72) = (   0.2500000   0.4166667   0.4166667), wk =   0.0138889
        k(   73) = (   0.2500000   0.4166667  -0.5000000), wk =   0.0138889
        k(   74) = (   0.2500000  -0.5000000  -0.5000000), wk =   0.0034722
        k(   75) = (   0.3333333   0.3333333   0.3333333), wk =   0.0046296
        k(   76) = (   0.3333333   0.3333333   0.4166667), wk =   0.0138889
        k(   77) = (   0.3333333   0.3333333  -0.5000000), wk =   0.0069444
        k(   78) = (   0.3333333   0.4166667   0.4166667), wk =   0.0138889
        k(   79) = (   0.3333333   0.4166667  -0.5000000), wk =   0.0138889
        k(   80) = (   0.3333333  -0.5000000  -0.5000000), wk =   0.0034722
        k(   81) = (   0.4166667   0.4166667   0.4166667), wk =   0.0046296
        k(   82) = (   0.4166667   0.4166667  -0.5000000), wk =   0.0069444
        k(   83) = (   0.4166667  -0.5000000  -0.5000000), wk =   0.0034722
        k(   84) = (  -0.5000000  -0.5000000  -0.5000000), wk =   0.0005787

                       cryst. coord.
        k(    1) = (   0.0000000   0.0000000   0.0000000), wk =   0.0005787
        k(    2) = (   0.0000000   0.0000000   0.0833333), wk =   0.0034722
        k(    3) = (   0.0000000   0.0000000   0.1666667), wk =   0.0034722
        k(    4) = (   0.0000000   0.0000000   0.2500000), wk =   0.0034722
        k(    5) = (   0.0000000   0.0000000   0.3333333), wk =   0.0034722
        k(    6) = (   0.0000000   0.0000000   0.4166667), wk =   0.0034722
        k(    7) = (   0.0000000   0.0000000  -0.5000000), wk =   0.0017361
        k(    8) = (   0.0000000   0.0833333   0.0833333), wk =   0.0069444
        k(    9) = (   0.0000000   0.0833333   0.1666667), wk =   0.0138889
        k(   10) = (   0.0000000   0.0833333   0.2500000), wk =   0.0138889
        k(   11) = (   0.0000000   0.0833333   0.3333333), wk =   0.0138889
        k(   12) = (   0.0000000   0.0833333   0.4166667), wk =   0.0138889
        k(   13) = (   0.0000000   0.0833333  -0.5000000), wk =   0.0069444
        k(   14) = (   0.0000000   0.1666667   0.1666667), wk =   0.0069444
        k(   15) = (   0.0000000   0.1666667   0.2500000), wk =   0.0138889
        k(   16) = (   0.0000000   0.1666667   0.3333333), wk =   0.0138889
        k(   17) = (   0.0000000   0.1666667   0.4166667), wk =   0.0138889
        k(   18) = (   0.0000000   0.1666667  -0.5000000), wk =   0.0069444
        k(   19) = (   0.0000000   0.2500000   0.2500000), wk =   0.0069444
        k(   20) = (   0.0000000   0.2500000   0.3333333), wk =   0.0138889
        k(   21) = (   0.0000000   0.2500000   0.4166667), wk =   0.0138889
        k(   22) = (   0.0000000   0.2500000  -0.5000000), wk =   0.0069444
        k(   23) = (   0.0000000   0.3333333   0.3333333), wk =   0.0069444
        k(   24) = (   0.0000000   0.3333333   0.4166667), wk =   0.0138889
        k(   25) = (   0.0000000   0.3333333  -0.5000000), wk =   0.0069444
        k(   26) = (   0.0000000   0.4166667   0.4166667), wk =   0.0069444
        k(   27) = (   0.0000000   0.4166667  -0.5000000), wk =   0.0069444
        k(   28) = (   0.0000000  -0.5000000  -0.5000000), wk =   0.0017361
        k(   29) = (   0.0833333   0.0833333   0.0833333), wk =   0.0046296
        k(   30) = (   0.0833333   0.0833333   0.1666667), wk =   0.0138889
        k(   31) = (   0.0833333   0.0833333   0.2500000), wk =   0.0138889
        k(   32) = (   0.0833333   0.0833333   0.3333333), wk =   0.0138889
        k(   33) = (   0.0833333   0.0833333   0.4166667), wk =   0.0138889
        k(   34) = (   0.0833333   0.0833333  -0.5000000), wk =   0.0069444
        k(   35) = (   0.0833333   0.1666667   0.1666667), wk =   0.0138889
        k(   36) = (   0.0833333   0.1666667   0.2500000), wk =   0.0277778
        k(   37) = (   0.0833333   0.1666667   0.3333333), wk =   0.0277778
        k(   38) = (   0.0833333   0.1666667   0.4166667), wk =   0.0277778
        k(   39) = (   0.0833333   0.1666667  -0.5000000), wk =   0.0138889
        k(   40) = (   0.0833333   0.2500000   0.2500000), wk =   0.0138889
        k(   41) = (   0.0833333   0.2500000   0.3333333), wk =   0.0277778
        k(   42) = (   0.0833333   0.2500000   0.4166667), wk =   0.0277778
        k(   43) = (   0.0833333   0.2500000  -0.5000000), wk =   0.0138889
        k(   44) = (   0.0833333   0.3333333   0.3333333), wk =   0.0138889
        k(   45) = (   0.0833333   0.3333333   0.4166667), wk =   0.0277778
        k(   46) = (   0.0833333   0.3333333  -0.5000000), wk =   0.0138889
        k(   47) = (   0.0833333   0.4166667   0.4166667), wk =   0.0138889
        k(   48) = (   0.0833333   0.4166667  -0.5000000), wk =   0.0138889
        k(   49) = (   0.0833333  -0.5000000  -0.5000000), wk =   0.0034722
        k(   50) = (   0.1666667   0.1666667   0.1666667), wk =   0.0046296
        k(   51) = (   0.1666667   0.1666667   0.2500000), wk =   0.0138889
        k(   52) = (   0.1666667   0.1666667   0.3333333), wk =   0.0138889
        k(   53) = (   0.1666667   0.1666667   0.4166667), wk =   0.0138889
        k(   54) = (   0.1666667   0.1666667  -0.5000000), wk =   0.0069444
        k(   55) = (   0.1666667   0.2500000   0.2500000), wk =   0.0138889
        k(   56) = (   0.1666667   0.2500000   0.3333333), wk =   0.0277778
        k(   57) = (   0.1666667   0.2500000   0.4166667), wk =   0.0277778
        k(   58) = (   0.1666667   0.2500000  -0.5000000), wk =   0.0138889
        k(   59) = (   0.1666667   0.3333333   0.3333333), wk =   0.0138889
        k(   60) = (   0.1666667   0.3333333   0.4166667), wk =   0.0277778
        k(   61) = (   0.1666667   0.3333333  -0.5000000), wk =   0.0138889
        k(   62) = (   0.1666667   0.4166667   0.4166667), wk =   0.0138889
        k(   63) = (   0.1666667   0.4166667  -0.5000000), wk =   0.0138889
        k(   64) = (   0.1666667  -0.5000000  -0.5000000), wk =   0.0034722
        k(   65) = (   0.2500000   0.2500000   0.2500000), wk =   0.0046296
        k(   66) = (   0.2500000   0.2500000   0.3333333), wk =   0.0138889
        k(   67) = (   0.2500000   0.2500000   0.4166667), wk =   0.0138889
        k(   68) = (   0.2500000   0.2500000  -0.5000000), wk =   0.0069444
        k(   69) = (   0.2500000   0.3333333   0.3333333), wk =   0.0138889
        k(   70) = (   0.2500000   0.3333333   0.4166667), wk =   0.0277778
        k(   71) = (   0.2500000   0.3333333  -0.5000000), wk =   0.0138889
        k(   72) = (   0.2500000   0.4166667   0.4166667), wk =   0.0138889
        k(   73) = (   0.2500000   0.4166667  -0.5000000), wk =   0.0138889
        k(   74) = (   0.2500000  -0.5000000  -0.5000000), wk =   0.0034722
        k(   75) = (   0.3333333   0.3333333   0.3333333), wk =   0.0046296
        k(   76) = (   0.3333333   0.3333333   0.4166667), wk =   0.0138889
        k(   77) = (   0.3333333   0.3333333  -0.5000000), wk =   0.0069444
        k(   78) = (   0.3333333   0.4166667   0.4166667), wk =   0.0138889
        k(   79) = (   0.3333333   0.4166667  -0.5000000), wk =   0.0138889
        k(   80) = (   0.3333333  -0.5000000  -0.5000000), wk =   0.0034722
        k(   81) = (   0.4166667   0.4166667   0.4166667), wk =   0.0046296
        k(   82) = (   0.4166667   0.4166667  -0.5000000), wk =   0.0069444
        k(   83) = (   0.4166667  -0.5000000  -0.5000000), wk =   0.0034722
        k(   84) = (  -0.5000000  -0.5000000  -0.5000000), wk =   0.0005787

     Dense  grid:   108143 G-vectors     FFT dimensions: (  60,  60,  60)

     Smooth grid:    70319 G-vectors     FFT dimensions: (  54,  54,  54)

     Dynamical RAM for                 wfc:       0.41 MB

     Dynamical RAM for     wfc (w. buffer):      34.97 MB

     Dynamical RAM for           str. fact:       0.12 MB

     Dynamical RAM for           local pot:       0.00 MB

     Dynamical RAM for          nlocal pot:       0.69 MB

     Dynamical RAM for                qrad:       2.27 MB

     Dynamical RAM for          rho,v,vnew:       1.53 MB

     Dynamical RAM for               rhoin:       0.51 MB

     Dynamical RAM for            rho*nmix:       3.77 MB

     Dynamical RAM for           G-vectors:       0.48 MB

     Dynamical RAM for          h,s,v(r/c):       0.34 MB

     Dynamical RAM for          <psi|beta>:       0.05 MB

     Dynamical RAM for                 psi:       0.82 MB

     Dynamical RAM for                hpsi:       0.82 MB

     Dynamical RAM for                spsi:       0.82 MB

     Dynamical RAM for      wfcinit/wfcrot:       0.87 MB

     Dynamical RAM for           addusdens:      11.37 MB

     Estimated static dynamical RAM per process >      41.63 MB

     Estimated max dynamical RAM per process >      56.77 MB

     Estimated total dynamical RAM >       1.50 GB
     Generating pointlists ...
     new r_m :   0.2917 (alat units)  1.9155 (a.u.) for type    1

     The initial density is read from file :
     out/Ni.save/charge-density

     Starting wfcs from file
     Checking if some PAW data can be deallocated... 

     total cpu time spent up to now is        1.0 secs

     Self-consistent Calculation

     iteration #  1     ecut=   150.00 Ry     beta= 0.70
     Davidson diagonalization with overlap

---- Real-time Memory Report at c_bands before calling an iterative solver
            81 MiB given to the printing process from OS
             0 MiB allocation reported by mallinfo(arena+hblkhd)
        100353 MiB available memory on the node where the printing process lives
------------------
     ethr =  1.00E-05,  avg # of iterations =  1.8

     Threshold (ethr) on eigenvalues was too large:
     Diagonalizing with lowered threshold

     Davidson diagonalization with overlap

---- Real-time Memory Report at c_bands before calling an iterative solver
           107 MiB given to the printing process from OS
             0 MiB allocation reported by mallinfo(arena+hblkhd)
         99730 MiB available memory on the node where the printing process lives
------------------
     ethr =  1.49E-08,  avg # of iterations =  1.0

     total cpu time spent up to now is       10.4 secs

     total energy              =   -1716.65399488 Ry
     estimated scf accuracy    <       0.00001084 Ry

     total magnetization       =     2.61 Bohr mag/cell
     absolute magnetization    =     2.97 Bohr mag/cell

     iteration #  2     ecut=   150.00 Ry     beta= 0.70
     Davidson diagonalization with overlap

---- Real-time Memory Report at c_bands before calling an iterative solver
           110 MiB given to the printing process from OS
             0 MiB allocation reported by mallinfo(arena+hblkhd)
         99659 MiB available memory on the node where the printing process lives
------------------
     ethr =  1.51E-08,  avg # of iterations =  2.5

     total cpu time spent up to now is       16.1 secs

     total energy              =   -1716.65398654 Ry
     estimated scf accuracy    <       0.00007130 Ry

     total magnetization       =     2.61 Bohr mag/cell
     absolute magnetization    =     2.97 Bohr mag/cell

     iteration #  3     ecut=   150.00 Ry     beta= 0.70
     Davidson diagonalization with overlap

---- Real-time Memory Report at c_bands before calling an iterative solver
           111 MiB given to the printing process from OS
             0 MiB allocation reported by mallinfo(arena+hblkhd)
         99650 MiB available memory on the node where the printing process lives
------------------
     ethr =  1.51E-08,  avg # of iterations =  2.3

     total cpu time spent up to now is       21.6 secs

     total energy              =   -1716.65399020 Ry
     estimated scf accuracy    <       0.00012255 Ry

     total magnetization       =     2.61 Bohr mag/cell
     absolute magnetization    =     2.96 Bohr mag/cell

     iteration #  4     ecut=   150.00 Ry     beta= 0.70
     Davidson diagonalization with overlap

---- Real-time Memory Report at c_bands before calling an iterative solver
           112 MiB given to the printing process from OS
             0 MiB allocation reported by mallinfo(arena+hblkhd)
         99638 MiB available memory on the node where the printing process lives
------------------
     ethr =  1.51E-08,  avg # of iterations =  2.0

     total cpu time spent up to now is       27.0 secs

     total energy              =   -1716.65399766 Ry
     estimated scf accuracy    <       0.00000609 Ry

     total magnetization       =     2.60 Bohr mag/cell
     absolute magnetization    =     2.96 Bohr mag/cell

     iteration #  5     ecut=   150.00 Ry     beta= 0.70
     Davidson diagonalization with overlap

---- Real-time Memory Report at c_bands before calling an iterative solver
           114 MiB given to the printing process from OS
             0 MiB allocation reported by mallinfo(arena+hblkhd)
         99623 MiB available memory on the node where the printing process lives
------------------
     ethr =  8.46E-09,  avg # of iterations =  1.5
 
     Magnetic moment per site  (integrated on atomic sphere of radius R)
     atom   1 (R=0.292)  charge= 16.6726  magn=  0.6889
     atom   2 (R=0.292)  charge= 16.6724  magn=  0.6890
     atom   3 (R=0.292)  charge= 16.6724  magn=  0.6890
     atom   4 (R=0.292)  charge= 16.6724  magn=  0.6890

     total cpu time spent up to now is       31.9 secs

     End of self-consistent calculation

 ------ SPIN UP ------------


          k = 0.0000 0.0000 0.0000 (  8733 PWs)   bands (ev):

   -84.9575 -84.9051 -84.9049 -84.9049 -45.4310 -45.4310 -45.4310 -45.2886
   -45.2886 -45.2886 -45.2884 -45.2884 -45.2884 -45.1954 -45.1954 -45.1954
     9.4380  13.8934  13.8935  13.8935  14.3742  14.3742  14.3742  16.2530
    16.2530  16.2530  17.5127  17.5127  18.2692  18.2692  18.2693  18.3450
    18.3450  18.3450  18.3451  18.3451  18.3451  21.2013  21.2013  21.2013
    28.3034  28.3034  28.3034

     occupation numbers 
     1.0000   1.0000   1.0000   1.0000   1.0000   1.0000   1.0000   1.0000
     1.0000   1.0000   1.0000   1.0000   1.0000   1.0000   1.0000   1.0000
     1.0000   1.0000   1.0000   1.0000   1.0000   1.0000   1.0000   1.0000
     1.0000   1.0000   1.0000   1.0000   1.0000   1.0000   1.0000   1.0000
     1.0000   1.0000   1.0000   1.0000   1.0000  -0.0000  -0.0000  -0.0000
    -0.0000  -0.0000  -0.0000

          k = 0.0000 0.0000 0.0833 (  8797 PWs)   bands (ev):

   -84.9566 -84.9059 -84.9051 -84.9049 -45.4286 -45.4286 -45.4271 -45.2909
   -45.2909 -45.2887 -45.2886 -45.2869 -45.2869 -45.1996 -45.1970 -45.1970
     9.5315  13.9009  13.9431  13.9431  14.4036  14.4066  14.4066  16.2180
    16.2799  16.2799  17.4804  17.5252  18.1194  18.1194  18.2271  18.2272
    18.2559  18.2964  18.2964  18.3450  18.3451  20.7216  21.5041  21.5041
    28.3239  28.3239  28.9422

     occupation numbers 
     1.0000   1.0000   1.0000   1.0000   1.0000   1.0000   1.0000   1.0000
     1.0000   1.0000   1.0000   1.0000   1.0000   1.0000   1.0000   1.0000
     1.0000   1.0000   1.0000   1.0000   1.0000   1.0000   1.0000   1.0000
     1.0000   1.0000   1.0000   1.0000   1.0000   1.0000   1.0000   1.0000
     1.0000   1.0000   1.0000   1.0000   1.0000  -0.0000  -0.0000  -0.0000
    -0.0000  -0.0000  -0.0000

          k = 0.0000 0.0000 0.1667 (  8777 PWs)   bands (ev):

   -84.9540 -84.9085 -84.9051 -84.9049 -45.4215 -45.4215 -45.4158 -45.2981
   -45.2981 -45.2890 -45.2889 -45.2823 -45.2823 -45.2118 -45.2017 -45.2017
     9.8093  13.9065  14.0851  14.0851  14.4902  14.5042  14.5042  16.1162
    16.3599  16.3599  17.3871  17.5619  17.6186  17.6186  18.1051  18.1052
    18.1577  18.1577  18.2170  18.3453  18.3453  19.6498  22.2358  22.2358
    28.3878  28.3878  30.5012

     occupation numbers 
     1.0000   1.0000   1.0000   1.0000   1.0000   1.0000   1.0000   1.0000
     1.0000   1.0000   1.0000   1.0000   1.0000   1.0000   1.0000   1.0000
     1.0000   1.0000   1.0000   1.0000   1.0000   1.0000   1.0000   1.0000
     1.0000   1.0000   1.0000   1.0000   1.0000   1.0000   1.0000   1.0000
     1.0000   1.0000   1.0000   1.0000   1.0000  -0.0000  -0.0000  -0.0000
    -0.0000  -0.0000  -0.0000

          k = 0.0000 0.0000 0.2500 (  8778 PWs)   bands (ev):

   -84.9498 -84.9127 -84.9050 -84.9049 -45.4102 -45.4102 -45.3976 -45.3094
   -45.3094 -45.2894 -45.2893 -45.2749 -45.2749 -45.2311 -45.2091 -45.2091
    10.2624  13.8521  14.2979  14.2979  14.6294  14.6678  14.6678  15.9562
    16.4911  16.4911  17.0504  17.0504  17.2452  17.6204  17.9186  17.9187
    17.9481  17.9481  18.1552  18.3455  18.3456  18.4903  23.1870  23.1870
    28.5008  28.5008  30.7778

     occupation numbers 
     1.0000   1.0000   1.0000   1.0000   1.0000   1.0000   1.0000   1.0000
     1.0000   1.0000   1.0000   1.0000   1.0000   1.0000   1.0000   1.0000
     1.0000   1.0000   1.0000   1.0000   1.0000   1.0000   1.0000   1.0000
     1.0000   1.0000   1.0000   1.0000   1.0000   1.0000   1.0000   1.0000
     1.0000   1.0000   1.0000   1.0000   1.0000   1.0000  -0.0000  -0.0000
    -0.0000  -0.0000  -0.0000

          k = 0.0000 0.0000 0.3333 (  8770 PWs)   bands (ev):

   -84.9444 -84.9181 -84.9050 -84.9049 -45.3955 -45.3955 -45.3738 -45.3242
   -45.3242 -45.2899 -45.2897 -45.2652 -45.2652 -45.2561 -45.2187 -45.2187
    10.8731  13.6272  14.5400  14.5400  14.8137  14.8988  14.8988  15.7512
    16.5011  16.5011  16.6699  16.6699  17.0778  17.5548  17.6928  17.6928
    17.6972  17.7012  17.7013  18.0753  18.3458  18.3459  24.2683  24.2683
    28.6669  28.6669  29.3805

     occupation numbers 
     1.0000   1.0000   1.0000   1.0000   1.0000   1.0000   1.0000   1.0000
     1.0000   1.0000   1.0000   1.0000   1.0000   1.0000   1.0000   1.0000
     1.0000   1.0000   1.0000   1.0000   1.0000   1.0000   1.0000   1.0000
     1.0000   1.0000   1.0000   1.0000   1.0000   1.0000   1.0000   1.0000
     1.0000   1.0000   1.0000   1.0000   1.0000   1.0000  -0.0000  -0.0000
    -0.0000  -0.0000  -0.0000

          k = 0.0000 0.0000 0.4167 (  8782 PWs)   bands (ev):

   -84.9381 -84.9245 -84.9050 -84.9049 -45.3783 -45.3783 -45.3458 -45.3414
   -45.3414 -45.2902 -45.2901 -45.2849 -45.2540 -45.2540 -45.2300 -45.2300
    11.6075  13.1267  14.7445  14.7445  15.0323  15.1982  15.1982  15.5174
    16.0023  16.0023  16.8906  16.8906  16.9264  17.0216  17.4173  17.4173
    17.5139  17.5140  17.7872  17.9830  18.3460  18.3461  25.4441  25.4441
    28.0129  28.0129  28.8658

     occupation numbers 
     1.0000   1.0000   1.0000   1.0000   1.0000   1.0000   1.0000   1.0000
     1.0000   1.0000   1.0000   1.0000   1.0000   1.0000   1.0000   1.0000
     1.0000   1.0000   1.0000   1.0000   1.0000   1.0000   1.0000   1.0000
     1.0000   1.0000   1.0000   1.0000   1.0000   1.0000   1.0000   1.0000
     1.0000   1.0000   1.0000   1.0000   1.0000   1.0000  -0.0000  -0.0000
    -0.0000  -0.0000  -0.0000

          k = 0.0000 0.0000-0.5000 (  8778 PWs)   bands (ev):

   -84.9313 -84.9312 -84.9050 -84.9049 -45.3599 -45.3599 -45.3598 -45.3598
   -45.3156 -45.3154 -45.2903 -45.2902 -45.2421 -45.2421 -45.2419 -45.2419
    12.3998  12.3999  14.8274  14.8275  15.2721  15.2721  15.5664  15.5664
    15.5665  15.5665  16.8647  16.8648  17.1440  17.1440  17.1441  17.1441
    17.4371  17.4372  17.8846  17.8847  18.3461  18.3462  26.6964  26.6964
    26.6964  26.6964  28.9799

     occupation numbers 
     1.0000   1.0000   1.0000   1.0000   1.0000   1.0000   1.0000   1.0000
     1.0000   1.0000   1.0000   1.0000   1.0000   1.0000   1.0000   1.0000
     1.0000   1.0000   1.0000   1.0000   1.0000   1.0000   1.0000   1.0000
     1.0000   1.0000   1.0000   1.0000   1.0000   1.0000   1.0000   1.0000
     1.0000   1.0000   1.0000   1.0000   1.0000   1.0000  -0.0000  -0.0000
    -0.0000  -0.0000  -0.0000

          k = 0.0000 0.0833 0.0833 (  8804 PWs)   bands (ev):

   -84.9558 -84.9060 -84.9058 -84.9050 -45.4262 -45.4250 -45.4250 -45.2958
   -45.2894 -45.2893 -45.2870 -45.2869 -45.2862 -45.2060 -45.1986 -45.1963
     9.6245  13.9514  13.9514  13.9913  14.4354  14.4354  14.4382  16.1981
    16.2925  16.3043  17.4713  17.5170  17.9576  18.0426  18.0427  18.1870
    18.2307  18.2308  18.2963  18.2963  18.3142  21.0254  21.0254  21.7742
    28.3424  28.9733  28.9733

     occupation numbers 
     1.0000   1.0000   1.0000   1.0000   1.0000   1.0000   1.0000   1.0000
     1.0000   1.0000   1.0000   1.0000   1.0000   1.0000   1.0000   1.0000
     1.0000   1.0000   1.0000   1.0000   1.0000   1.0000   1.0000   1.0000
     1.0000   1.0000   1.0000   1.0000   1.0000   1.0000   1.0000   1.0000
     1.0000   1.0000   1.0000   1.0000   1.0000  -0.0000  -0.0000  -0.0000
    -0.0000  -0.0000  -0.0000

          k = 0.0000 0.0833 0.1667 (  8769 PWs)   bands (ev):

   -84.9532 -84.9085 -84.9058 -84.9050 -45.4191 -45.4185 -45.4143 -45.3043
   -45.2964 -45.2870 -45.2847 -45.2847 -45.2820 -45.2194 -45.2033 -45.1993
     9.9006  13.9597  14.0962  14.1296  14.5203  14.5312  14.5332  16.1063
    16.3647  16.3764  17.3902  17.5250  17.5344  17.5497  17.8478  18.0702
    18.1094  18.1574  18.2051  18.2962  18.2974  19.9835  21.7322  22.4552
    28.3941  29.0693  30.5448

     occupation numbers 
     1.0000   1.0000   1.0000   1.0000   1.0000   1.0000   1.0000   1.0000
     1.0000   1.0000   1.0000   1.0000   1.0000   1.0000   1.0000   1.0000
     1.0000   1.0000   1.0000   1.0000   1.0000   1.0000   1.0000   1.0000
     1.0000   1.0000   1.0000   1.0000   1.0000   1.0000   1.0000   1.0000
     1.0000   1.0000   1.0000   1.0000   1.0000  -0.0000  -0.0000  -0.0000
    -0.0000  -0.0000  -0.0000

          k = 0.0000 0.0833 0.2500 (  8773 PWs)   bands (ev):

   -84.9491 -84.9126 -84.9057 -84.9051 -45.4083 -45.4079 -45.3972 -45.3158
   -45.3077 -45.2870 -45.2843 -45.2772 -45.2742 -45.2387 -45.2108 -45.2060
    10.3510  13.9097  14.3138  14.3375  14.6567  14.6912  14.6918  15.9522
    16.4915  16.4936  16.9703  16.9987  17.2588  17.5376  17.6141  17.8912
    17.9251  17.9475  18.1343  18.2934  18.2959  18.9279  22.6207  23.3696
    28.4328  29.2359  29.6154

     occupation numbers 
     1.0000   1.0000   1.0000   1.0000   1.0000   1.0000   1.0000   1.0000
     1.0000   1.0000   1.0000   1.0000   1.0000   1.0000   1.0000   1.0000
     1.0000   1.0000   1.0000   1.0000   1.0000   1.0000   1.0000   1.0000
     1.0000   1.0000   1.0000   1.0000   1.0000   1.0000   1.0000   1.0000
     1.0000   1.0000   1.0000   1.0000   1.0000  -0.0000  -0.0000  -0.0000
    -0.0000  -0.0000  -0.0000

          k = 0.0000 0.0833 0.3333 (  8781 PWs)   bands (ev):

   -84.9437 -84.9179 -84.9056 -84.9052 -45.3950 -45.3933 -45.3747 -45.3299
   -45.3224 -45.2868 -45.2846 -45.2675 -45.2640 -45.2629 -45.2205 -45.2156
    10.9577  13.6898  14.5630  14.5779  14.8371  14.9088  14.9182  15.7530
    16.4315  16.4757  16.6312  16.6712  17.1220  17.1265  17.6823  17.6920
    17.6999  17.7090  17.9563  18.2456  18.2928  18.2954  23.6045  24.4268
    27.9561  29.0078  29.4660

     occupation numbers 
     1.0000   1.0000   1.0000   1.0000   1.0000   1.0000   1.0000   1.0000
     1.0000   1.0000   1.0000   1.0000   1.0000   1.0000   1.0000   1.0000
     1.0000   1.0000   1.0000   1.0000   1.0000   1.0000   1.0000   1.0000
     1.0000   1.0000   1.0000   1.0000   1.0000   1.0000   1.0000   1.0000
     1.0000   1.0000   1.0000   1.0000   1.0000   1.0000  -0.0000  -0.0000
    -0.0000  -0.0000  -0.0000

          k = 0.0000 0.0833 0.4167 (  8804 PWs)   bands (ev):

   -84.9375 -84.9241 -84.9055 -84.9053 -45.3794 -45.3762 -45.3483 -45.3458
   -45.3395 -45.2905 -45.2865 -45.2853 -45.2562 -45.2522 -45.2319 -45.2271
    11.6868  13.1942  14.7768  14.7862  15.0511  15.1843  15.2112  15.5250
    15.9466  15.9944  16.7152  16.8027  16.8910  17.0962  17.4167  17.5038
    17.5195  17.5908  17.8012  18.0355  18.2932  18.2948  24.6492  25.5863
    26.8627  28.1368  29.1711

     occupation numbers 
     1.0000   1.0000   1.0000   1.0000   1.0000   1.0000   1.0000   1.0000
     1.0000   1.0000   1.0000   1.0000   1.0000   1.0000   1.0000   1.0000
     1.0000   1.0000   1.0000   1.0000   1.0000   1.0000   1.0000   1.0000
     1.0000   1.0000   1.0000   1.0000   1.0000   1.0000   1.0000   1.0000
     1.0000   1.0000   1.0000   1.0000   1.0000   1.0000  -0.0000  -0.0000
    -0.0000  -0.0000  -0.0000

          k = 0.0000 0.0833-0.5000 (  8802 PWs)   bands (ev):

   -84.9309 -84.9307 -84.9055 -84.9053 -45.3627 -45.3626 -45.3579 -45.3578
   -45.3196 -45.3195 -45.2860 -45.2859 -45.2441 -45.2440 -45.2397 -45.2396
    12.4730  12.4731  14.8683  14.8683  15.2854  15.2855  15.5285  15.5285
    15.5707  15.5708  16.7048  16.7049  17.1438  17.1439  17.2840  17.2841
    17.4358  17.4360  17.9128  17.9129  18.2940  18.2940  25.7387  25.7388
    26.8275  26.8276  29.4819

     occupation numbers 
     1.0000   1.0000   1.0000   1.0000   1.0000   1.0000   1.0000   1.0000
     1.0000   1.0000   1.0000   1.0000   1.0000   1.0000   1.0000   1.0000
     1.0000   1.0000   1.0000   1.0000   1.0000   1.0000   1.0000   1.0000
     1.0000   1.0000   1.0000   1.0000   1.0000   1.0000   1.0000   1.0000
     1.0000   1.0000   1.0000   1.0000   1.0000   1.0000  -0.0000  -0.0000
    -0.0000  -0.0000  -0.0000

          k = 0.0000 0.1667 0.1667 (  8758 PWs)   bands (ev):

   -84.9507 -84.9083 -84.9082 -84.9052 -45.4122 -45.4098 -45.4098 -45.3153
   -45.2917 -45.2916 -45.2813 -45.2812 -45.2796 -45.2349 -45.2082 -45.1990
    10.1718  14.1129  14.1129  14.2567  14.6108  14.6108  14.6204  16.0505
    16.4077  16.4245  17.2451  17.3106  17.3106  17.3609  17.5553  17.9681
    18.0957  18.0958  18.1564  18.1564  18.2227  20.6689  20.6689  23.0430
    28.3368  29.4953  30.6740

     occupation numbers 
     1.0000   1.0000   1.0000   1.0000   1.0000   1.0000   1.0000   1.0000
     1.0000   1.0000   1.0000   1.0000   1.0000   1.0000   1.0000   1.0000
     1.0000   1.0000   1.0000   1.0000   1.0000   1.0000   1.0000   1.0000
     1.0000   1.0000   1.0000   1.0000   1.0000   1.0000   1.0000   1.0000
     1.0000   1.0000   1.0000   1.0000   1.0000  -0.0000  -0.0000  -0.0000
    -0.0000  -0.0000  -0.0000

          k = 0.0000 0.1667 0.2500 (  8774 PWs)   bands (ev):

   -84.9468 -84.9122 -84.9080 -84.9055 -45.4026 -45.4012 -45.3957 -45.3278
   -45.3027 -45.2840 -45.2800 -45.2763 -45.2723 -45.2551 -45.2158 -45.2030
    10.6137  14.0761  14.3448  14.4489  14.7386  14.7623  14.7628  15.9272
    16.4963  16.5162  16.7606  16.8399  16.9945  17.2672  17.6265  17.8096
    17.9204  17.9458  18.0302  18.1549  18.1794  19.5973  21.4717  23.8780
    27.6142  28.9463  30.8652

     occupation numbers 
     1.0000   1.0000   1.0000   1.0000   1.0000   1.0000   1.0000   1.0000
     1.0000   1.0000   1.0000   1.0000   1.0000   1.0000   1.0000   1.0000
     1.0000   1.0000   1.0000   1.0000   1.0000   1.0000   1.0000   1.0000
     1.0000   1.0000   1.0000   1.0000   1.0000   1.0000   1.0000   1.0000
     1.0000   1.0000   1.0000   1.0000   1.0000  -0.0000  -0.0000  -0.0000
    -0.0000  -0.0000  -0.0000

          k = 0.0000 0.1667 0.3333 (  8791 PWs)   bands (ev):

   -84.9417 -84.9172 -84.9076 -84.9058 -45.3931 -45.3868 -45.3770 -45.3414
   -45.3172 -45.2786 -45.2785 -45.2747 -45.2740 -45.2608 -45.2258 -45.2108
    11.2079  13.8707  14.6155  14.6810  14.9072  14.9449  14.9751  15.7517
    16.2521  16.3966  16.5608  16.6728  16.6831  17.1781  17.6235  17.6903
    17.7103  17.7410  17.8862  18.1531  18.1602  18.7900  22.3358  24.8774
    26.4219  29.0793  29.8510

     occupation numbers 
     1.0000   1.0000   1.0000   1.0000   1.0000   1.0000   1.0000   1.0000
     1.0000   1.0000   1.0000   1.0000   1.0000   1.0000   1.0000   1.0000
     1.0000   1.0000   1.0000   1.0000   1.0000   1.0000   1.0000   1.0000
     1.0000   1.0000   1.0000   1.0000   1.0000   1.0000   1.0000   1.0000
     1.0000   1.0000   1.0000   1.0000   1.0000   1.0000  -0.0000  -0.0000
    -0.0000  -0.0000  -0.0000

          k = 0.0000 0.1667 0.4167 (  8789 PWs)   bands (ev):

   -84.9358 -84.9231 -84.9072 -84.9062 -45.3816 -45.3700 -45.3552 -45.3546
   -45.3339 -45.3039 -45.2769 -45.2746 -45.2624 -45.2477 -45.2374 -45.2216
    11.9205  13.3897  14.8590  14.9047  15.1065  15.1475  15.2490  15.5445
    15.8029  15.9686  16.4897  16.5517  16.8966  17.2041  17.4160  17.4678
    17.5188  17.6467  17.8849  18.1515  18.1527  18.3186  23.2510  25.2777
    25.9959  28.4980  29.3929

     occupation numbers 
     1.0000   1.0000   1.0000   1.0000   1.0000   1.0000   1.0000   1.0000
     1.0000   1.0000   1.0000   1.0000   1.0000   1.0000   1.0000   1.0000
     1.0000   1.0000   1.0000   1.0000   1.0000   1.0000   1.0000   1.0000
     1.0000   1.0000   1.0000   1.0000   1.0000   1.0000   1.0000   1.0000
     1.0000   1.0000   1.0000   1.0000   1.0000   1.0000  -0.0000  -0.0000
    -0.0000  -0.0000  -0.0000

          k = 0.0000 0.1667-0.5000 (  8786 PWs)   bands (ev):

   -84.9295 -84.9294 -84.9068 -84.9066 -45.3689 -45.3688 -45.3520 -45.3519
   -45.3298 -45.3297 -45.2755 -45.2754 -45.2500 -45.2499 -45.2343 -45.2342
    12.6871  12.6871  14.9828  14.9828  15.3239  15.3239  15.4256  15.4256
    15.5820  15.5820  16.4845  16.4846  17.1455  17.1456  17.3834  17.3835
    17.4213  17.4214  18.0623  18.0623  18.1508  18.1509  24.2255  24.2256
    27.2082  27.2082  29.8410

     occupation numbers 
     1.0000   1.0000   1.0000   1.0000   1.0000   1.0000   1.0000   1.0000
     1.0000   1.0000   1.0000   1.0000   1.0000   1.0000   1.0000   1.0000
     1.0000   1.0000   1.0000   1.0000   1.0000   1.0000   1.0000   1.0000
     1.0000   1.0000   1.0000   1.0000   1.0000   1.0000   1.0000   1.0000
     1.0000   1.0000   1.0000   1.0000   1.0000   1.0000  -0.0000  -0.0000
    -0.0000  -0.0000  -0.0000

          k = 0.0000 0.2500 0.2500 (  8790 PWs)   bands (ev):

   -84.9432 -84.9116 -84.9115 -84.9061 -45.3930 -45.3930 -45.3904 -45.3408
   -45.2948 -45.2947 -45.2754 -45.2696 -45.2695 -45.2694 -45.2238 -45.2037
    11.0406  14.3303  14.3303  14.6130  14.8750  14.8750  14.8824  15.8555
    16.4903  16.4903  16.5069  16.5814  16.5891  17.2185  17.6797  17.7156
    17.8655  17.8655  17.9436  17.9436  18.0738  20.3183  20.3184  24.6327
    26.2398  29.0340  31.8012

     occupation numbers 
     1.0000   1.0000   1.0000   1.0000   1.0000   1.0000   1.0000   1.0000
     1.0000   1.0000   1.0000   1.0000   1.0000   1.0000   1.0000   1.0000
     1.0000   1.0000   1.0000   1.0000   1.0000   1.0000   1.0000   1.0000
     1.0000   1.0000   1.0000   1.0000   1.0000   1.0000   1.0000   1.0000
     1.0000   1.0000   1.0000   1.0000   1.0000  -0.0000  -0.0000  -0.0000
    -0.0000  -0.0000  -0.0000

          k = 0.0000 0.2500 0.3333 (  8796 PWs)   bands (ev):

   -84.9386 -84.9162 -84.9107 -84.9069 -45.3888 -45.3795 -45.3764 -45.3534
   -45.3088 -45.2977 -45.2844 -45.2665 -45.2650 -45.2566 -45.2342 -45.2087
    11.6125  14.1478  14.6331  14.8116  15.0228  15.0284  15.0652  15.7303
    16.0414  16.2594  16.2704  16.5001  16.7261  17.1562  17.5237  17.6657
    17.6893  17.7364  17.8771  17.9421  18.0050  19.3948  21.0819  24.9491
    25.5658  29.2905  30.4075

     occupation numbers 
     1.0000   1.0000   1.0000   1.0000   1.0000   1.0000   1.0000   1.0000
     1.0000   1.0000   1.0000   1.0000   1.0000   1.0000   1.0000   1.0000
     1.0000   1.0000   1.0000   1.0000   1.0000   1.0000   1.0000   1.0000
     1.0000   1.0000   1.0000   1.0000   1.0000   1.0000   1.0000   1.0000
     1.0000   1.0000   1.0000   1.0000   1.0000  -0.0000  -0.0000  -0.0000
    -0.0000  -0.0000  -0.0000

          k = 0.0000 0.2500 0.4167 (  8789 PWs)   bands (ev):

   -84.9332 -84.9216 -84.9098 -84.9078 -45.3827 -45.3649 -45.3625 -45.3601
   -45.3251 -45.3205 -45.2723 -45.2640 -45.2627 -45.2463 -45.2427 -45.2175
    12.2945  13.6913  14.9210  15.0439  15.1341  15.1960  15.3071  15.5660
    15.6518  15.9194  16.2135  16.4277  16.9197  17.1805  17.3951  17.4189
    17.4774  17.5379  17.9430  17.9676  18.0902  18.7658  21.8999  23.8041
    26.6330  29.0700  29.6747

     occupation numbers 
     1.0000   1.0000   1.0000   1.0000   1.0000   1.0000   1.0000   1.0000
     1.0000   1.0000   1.0000   1.0000   1.0000   1.0000   1.0000   1.0000
     1.0000   1.0000   1.0000   1.0000   1.0000   1.0000   1.0000   1.0000
     1.0000   1.0000   1.0000   1.0000   1.0000   1.0000   1.0000   1.0000
     1.0000   1.0000   1.0000   1.0000   1.0000   1.0000  -0.0000  -0.0000
    -0.0000  -0.0000  -0.0000

          k = 0.0000 0.2500-0.5000 (  8810 PWs)   bands (ev):

   -84.9274 -84.9273 -84.9088 -84.9087 -45.3747 -45.3747 -45.3427 -45.3426
   -45.3426 -45.3425 -45.2626 -45.2625 -45.2594 -45.2592 -45.2293 -45.2292
    13.0239  13.0240  15.1085  15.1085  15.3211  15.3211  15.3820  15.3821
    15.5953  15.5954  16.3011  16.3011  17.1560  17.1560  17.3255  17.3256
    17.3699  17.3700  17.9497  17.9498  18.3663  18.3663  22.7967  22.7968
    27.8070  27.8071  30.1957

     occupation numbers 
     1.0000   1.0000   1.0000   1.0000   1.0000   1.0000   1.0000   1.0000
     1.0000   1.0000   1.0000   1.0000   1.0000   1.0000   1.0000   1.0000
     1.0000   1.0000   1.0000   1.0000   1.0000   1.0000   1.0000   1.0000
     1.0000   1.0000   1.0000   1.0000   1.0000   1.0000   1.0000   1.0000
     1.0000   1.0000   1.0000   1.0000   1.0000   1.0000  -0.0000  -0.0000
    -0.0000  -0.0000  -0.0000

          k = 0.0000 0.3333 0.3333 (  8780 PWs)   bands (ev):

   -84.9345 -84.9149 -84.9147 -84.9082 -45.3812 -45.3811 -45.3641 -45.3630
   -45.3179 -45.2980 -45.2978 -45.2572 -45.2528 -45.2527 -45.2451 -45.2107
    12.1499  14.4782  14.4782  14.9211  15.1720  15.1815  15.1815  15.6724
    15.9290  15.9290  16.0680  16.4401  16.8218  17.0912  17.3955  17.5504
    17.5505  17.6919  17.6919  17.8736  18.1003  20.0442  20.0443  23.6423
    26.4381  29.6159  31.1390

     occupation numbers 
     1.0000   1.0000   1.0000   1.0000   1.0000   1.0000   1.0000   1.0000
     1.0000   1.0000   1.0000   1.0000   1.0000   1.0000   1.0000   1.0000
     1.0000   1.0000   1.0000   1.0000   1.0000   1.0000   1.0000   1.0000
     1.0000   1.0000   1.0000   1.0000   1.0000   1.0000   1.0000   1.0000
     1.0000   1.0000   1.0000   1.0000   1.0000  -0.0000  -0.0000  -0.0000
    -0.0000  -0.0000  -0.0000

          k = 0.0000 0.3333 0.4167 (  8796 PWs)   bands (ev):

   -84.9297 -84.9195 -84.9132 -84.9098 -45.3809 -45.3725 -45.3700 -45.3473
   -45.3375 -45.3136 -45.2852 -45.2579 -45.2522 -45.2502 -45.2388 -45.2168
    12.7827  14.0567  14.7895  14.9968  15.3142  15.3236  15.3781  15.5754
    15.6571  15.8407  15.9949  16.3331  16.9779  17.0858  17.2852  17.3723
    17.3741  17.4317  17.7031  17.7833  18.3887  19.2836  20.7574  22.5194
    27.4543  29.8204  30.0673

     occupation numbers 
     1.0000   1.0000   1.0000   1.0000   1.0000   1.0000   1.0000   1.0000
     1.0000   1.0000   1.0000   1.0000   1.0000   1.0000   1.0000   1.0000
     1.0000   1.0000   1.0000   1.0000   1.0000   1.0000   1.0000   1.0000
     1.0000   1.0000   1.0000   1.0000   1.0000   1.0000   1.0000   1.0000
     1.0000   1.0000   1.0000   1.0000   1.0000  -0.0000  -0.0000  -0.0000
    -0.0000  -0.0000  -0.0000

          k = 0.0000 0.3333-0.5000 (  8792 PWs)   bands (ev):

   -84.9247 -84.9246 -84.9116 -84.9114 -45.3781 -45.3781 -45.3552 -45.3552
   -45.3305 -45.3304 -45.2716 -45.2715 -45.2499 -45.2498 -45.2265 -45.2265
    13.4497  13.4498  14.9801  14.9802  15.4506  15.4506  15.4632  15.4632
    15.6031  15.6032  16.1637  16.1638  17.1867  17.1867  17.1935  17.1936
    17.2672  17.2674  17.7301  17.7302  18.7613  18.7613  21.5688  21.5688
    28.5877  28.5878  30.6602

     occupation numbers 
     1.0000   1.0000   1.0000   1.0000   1.0000   1.0000   1.0000   1.0000
     1.0000   1.0000   1.0000   1.0000   1.0000   1.0000   1.0000   1.0000
     1.0000   1.0000   1.0000   1.0000   1.0000   1.0000   1.0000   1.0000
     1.0000   1.0000   1.0000   1.0000   1.0000   1.0000   1.0000   1.0000
     1.0000   1.0000   1.0000   1.0000   1.0000   1.0000  -0.0000  -0.0000
    -0.0000  -0.0000  -0.0000

          k = 0.0000 0.4167 0.4167 (  8794 PWs)   bands (ev):

   -84.9257 -84.9172 -84.9171 -84.9121 -45.3770 -45.3755 -45.3754 -45.3531
   -45.3323 -45.3002 -45.3001 -45.2713 -45.2441 -45.2375 -45.2374 -45.2200
    13.3423  14.4200  14.4200  14.8894  15.4521  15.4521  15.5322  15.5601
    15.7307  15.8334  15.8334  16.2236  17.0231  17.0870  17.1732  17.2163
    17.2164  17.4636  17.4637  17.6322  18.7605  19.8756  19.8757  21.4479
    28.4246  30.5906  30.7196

     occupation numbers 
     1.0000   1.0000   1.0000   1.0000   1.0000   1.0000   1.0000   1.0000
     1.0000   1.0000   1.0000   1.0000   1.0000   1.0000   1.0000   1.0000
     1.0000   1.0000   1.0000   1.0000   1.0000   1.0000   1.0000   1.0000
     1.0000   1.0000   1.0000   1.0000   1.0000   1.0000   1.0000   1.0000
     1.0000   1.0000   1.0000   1.0000   1.0000  -0.0000  -0.0000  -0.0000
    -0.0000  -0.0000  -0.0000

          k = 0.0000 0.4167-0.5000 (  8792 PWs)   bands (ev):

   -84.9215 -84.9214 -84.9147 -84.9146 -45.3779 -45.3779 -45.3660 -45.3660
   -45.3163 -45.3162 -45.2858 -45.2857 -45.2391 -45.2391 -45.2271 -45.2271
    13.9120  13.9121  14.7074  14.7075  15.5168  15.5168  15.5964  15.5964
    15.6978  15.6978  16.0500  16.0500  17.0726  17.0727  17.1349  17.1350
    17.2518  17.2518  17.5268  17.5268  19.2338  19.2338  20.5800  20.5800
    29.5186  29.5186  31.2589

     occupation numbers 
     1.0000   1.0000   1.0000   1.0000   1.0000   1.0000   1.0000   1.0000
     1.0000   1.0000   1.0000   1.0000   1.0000   1.0000   1.0000   1.0000
     1.0000   1.0000   1.0000   1.0000   1.0000   1.0000   1.0000   1.0000
     1.0000   1.0000   1.0000   1.0000   1.0000   1.0000   1.0000   1.0000
     1.0000   1.0000   1.0000   1.0000  -0.0000  -0.0000  -0.0000  -0.0000
    -0.0000  -0.0000  -0.0000

          k = 0.0000-0.5000-0.5000 (  8836 PWs)   bands (ev):

   -84.9183 -84.9180 -84.9180 -84.9180 -45.3739 -45.3739 -45.3738 -45.3738
   -45.3012 -45.3010 -45.3009 -45.3009 -45.2314 -45.2314 -45.2313 -45.2313
    14.3471  14.3472  14.3472  14.3472  15.5678  15.5678  15.5679  15.5679
    15.9052  15.9053  15.9054  15.9054  17.0459  17.0461  17.0461  17.0461
    17.3639  17.3639  17.3640  17.3640  19.8194  19.8195  19.8195  19.8195
    30.5762  30.5762  30.5762

     occupation numbers 
     1.0000   1.0000   1.0000   1.0000   1.0000   1.0000   1.0000   1.0000
     1.0000   1.0000   1.0000   1.0000   1.0000   1.0000   1.0000   1.0000
     1.0000   1.0000   1.0000   1.0000   1.0000   1.0000   1.0000   1.0000
     1.0000   1.0000   1.0000   1.0000   1.0000   1.0000   1.0000   1.0000
     1.0000   1.0000   1.0000   1.0000  -0.0000  -0.0000  -0.0000  -0.0000
    -0.0000  -0.0000  -0.0000

          k = 0.0833 0.0833 0.0833 (  8784 PWs)   bands (ev):

   -84.9549 -84.9060 -84.9058 -84.9058 -45.4228 -45.4228 -45.4228 -45.2940
   -45.2938 -45.2938 -45.2847 -45.2847 -45.2846 -45.2123 -45.1979 -45.1979
     9.7169  14.0004  14.0004  14.0004  14.4665  14.4665  14.4665  16.1796
    16.3154  16.3154  17.4868  17.4868  17.8898  17.8898  17.8898  18.1305
    18.1305  18.1306  18.3123  18.3123  18.3124  21.2890  21.2891  21.2891
    29.0021  29.0021  29.0021

     occupation numbers 
     1.0000   1.0000   1.0000   1.0000   1.0000   1.0000   1.0000   1.0000
     1.0000   1.0000   1.0000   1.0000   1.0000   1.0000   1.0000   1.0000
     1.0000   1.0000   1.0000   1.0000   1.0000   1.0000   1.0000   1.0000
     1.0000   1.0000   1.0000   1.0000   1.0000   1.0000   1.0000   1.0000
     1.0000   1.0000   1.0000   1.0000   1.0000  -0.0000  -0.0000  -0.0000
    -0.0000  -0.0000  -0.0000

          k = 0.0833 0.0833 0.1667 (  8759 PWs)   bands (ev):

   -84.9524 -84.9084 -84.9059 -84.9058 -45.4165 -45.4165 -45.4128 -45.3021
   -45.3021 -45.2884 -45.2831 -45.2830 -45.2802 -45.2264 -45.2024 -45.2000
     9.9913  14.0108  14.1408  14.1408  14.5500  14.5600  14.5600  16.0963
    16.3773  16.3837  17.4011  17.4477  17.4477  17.5323  17.6872  17.9890
    18.0281  18.0282  18.2862  18.2903  18.2904  20.2448  21.9372  21.9372
    29.0822  29.0822  30.5823

     occupation numbers 
     1.0000   1.0000   1.0000   1.0000   1.0000   1.0000   1.0000   1.0000
     1.0000   1.0000   1.0000   1.0000   1.0000   1.0000   1.0000   1.0000
     1.0000   1.0000   1.0000   1.0000   1.0000   1.0000   1.0000   1.0000
     1.0000   1.0000   1.0000   1.0000   1.0000   1.0000   1.0000   1.0000
     1.0000   1.0000   1.0000   1.0000   1.0000  -0.0000  -0.0000  -0.0000
    -0.0000  -0.0000  -0.0000

          k = 0.0833 0.0833 0.2500 (  8777 PWs)   bands (ev):

   -84.9483 -84.9124 -84.9059 -84.9058 -45.4065 -45.4065 -45.3969 -45.3132
   -45.3132 -45.2825 -45.2824 -45.2796 -45.2730 -45.2459 -45.2095 -45.2062
    10.4386  13.9642  14.3522  14.3522  14.6842  14.7153  14.7153  15.9492
    16.4893  16.4964  16.9242  16.9242  17.2783  17.3562  17.6045  17.7908
    17.8718  17.8719  18.2273  18.2696  18.2697  19.1807  22.7836  22.7836
    29.0860  29.0860  29.8366

     occupation numbers 
     1.0000   1.0000   1.0000   1.0000   1.0000   1.0000   1.0000   1.0000
     1.0000   1.0000   1.0000   1.0000   1.0000   1.0000   1.0000   1.0000
     1.0000   1.0000   1.0000   1.0000   1.0000   1.0000   1.0000   1.0000
     1.0000   1.0000   1.0000   1.0000   1.0000   1.0000   1.0000   1.0000
     1.0000   1.0000   1.0000   1.0000   1.0000  -0.0000  -0.0000  -0.0000
    -0.0000  -0.0000  -0.0000

          k = 0.0833 0.0833 0.3333 (  8778 PWs)   bands (ev):

   -84.9431 -84.9177 -84.9059 -84.9058 -45.3937 -45.3936 -45.3759 -45.3267
   -45.3267 -45.2824 -45.2822 -45.2697 -45.2683 -45.2637 -45.2188 -45.2159
    11.0409  13.7484  14.5984  14.5984  14.8615  14.9276  14.9276  15.7563
    16.4128  16.4128  16.6141  16.6512  16.9624  17.1700  17.5575  17.6747
    17.6748  17.6982  18.1414  18.2591  18.2592  18.3660  23.7355  23.7355
    28.2073  28.2074  29.7208

     occupation numbers 
     1.0000   1.0000   1.0000   1.0000   1.0000   1.0000   1.0000   1.0000
     1.0000   1.0000   1.0000   1.0000   1.0000   1.0000   1.0000   1.0000
     1.0000   1.0000   1.0000   1.0000   1.0000   1.0000   1.0000   1.0000
     1.0000   1.0000   1.0000   1.0000   1.0000   1.0000   1.0000   1.0000
     1.0000   1.0000   1.0000   1.0000   1.0000   1.0000  -0.0000  -0.0000
    -0.0000  -0.0000  -0.0000

          k = 0.0833 0.0833 0.4167 (  8811 PWs)   bands (ev):

   -84.9369 -84.9238 -84.9059 -84.9058 -45.3793 -45.3792 -45.3511 -45.3414
   -45.3413 -45.2963 -45.2824 -45.2823 -45.2553 -45.2529 -45.2297 -45.2280
    11.7641  13.2577  14.8173  14.8173  15.0714  15.1887  15.1887  15.5345
    15.9520  15.9520  16.6577  16.6890  16.8439  17.2041  17.3099  17.4985
    17.4986  17.8067  17.8180  18.0369  18.2545  18.2546  24.7410  24.7410
    27.0647  27.0647  30.0547

     occupation numbers 
     1.0000   1.0000   1.0000   1.0000   1.0000   1.0000   1.0000   1.0000
     1.0000   1.0000   1.0000   1.0000   1.0000   1.0000   1.0000   1.0000
     1.0000   1.0000   1.0000   1.0000   1.0000   1.0000   1.0000   1.0000
     1.0000   1.0000   1.0000   1.0000   1.0000   1.0000   1.0000   1.0000
     1.0000   1.0000   1.0000   1.0000   1.0000   1.0000  -0.0000  -0.0000
    -0.0000  -0.0000  -0.0000

          k = 0.0833 0.0833-0.5000 (  8792 PWs)   bands (ev):

   -84.9304 -84.9303 -84.9059 -84.9058 -45.3695 -45.3694 -45.3514 -45.3512
   -45.3240 -45.3239 -45.2825 -45.2823 -45.2416 -45.2415 -45.2413 -45.2412
    12.5433  12.5434  14.9098  14.9099  15.3007  15.3008  15.4333  15.4333
    15.6351  15.6352  16.6244  16.6244  17.0670  17.0671  17.4251  17.4252
    17.4403  17.4403  17.9224  17.9225  18.2533  18.2534  25.5328  25.5329
    26.2243  26.2244  30.3235

     occupation numbers 
     1.0000   1.0000   1.0000   1.0000   1.0000   1.0000   1.0000   1.0000
     1.0000   1.0000   1.0000   1.0000   1.0000   1.0000   1.0000   1.0000
     1.0000   1.0000   1.0000   1.0000   1.0000   1.0000   1.0000   1.0000
     1.0000   1.0000   1.0000   1.0000   1.0000   1.0000   1.0000   1.0000
     1.0000   1.0000   1.0000   1.0000   1.0000   1.0000  -0.0000  -0.0000
    -0.0000  -0.0000  -0.0000

          k = 0.0833 0.1667 0.1667 (  8753 PWs)   bands (ev):

   -84.9499 -84.9083 -84.9082 -84.9060 -45.4106 -45.4087 -45.4087 -45.3121
   -45.2957 -45.2956 -45.2784 -45.2784 -45.2782 -45.2420 -45.2061 -45.2004
    10.2603  14.1574  14.1574  14.2678  14.6393  14.6393  14.6467  16.0441
    16.4167  16.4266  17.1764  17.2330  17.2331  17.3875  17.5303  17.8872
    17.9022  17.9022  18.2549  18.2647  18.2647  20.8500  20.8500  22.4787
    28.9420  29.7452  30.6356

     occupation numbers 
     1.0000   1.0000   1.0000   1.0000   1.0000   1.0000   1.0000   1.0000
     1.0000   1.0000   1.0000   1.0000   1.0000   1.0000   1.0000   1.0000
     1.0000   1.0000   1.0000   1.0000   1.0000   1.0000   1.0000   1.0000
     1.0000   1.0000   1.0000   1.0000   1.0000   1.0000   1.0000   1.0000
     1.0000   1.0000   1.0000   1.0000   1.0000  -0.0000  -0.0000  -0.0000
    -0.0000  -0.0000  -0.0000

          k = 0.0833 0.1667 0.2500 (  8768 PWs)   bands (ev):

   -84.9461 -84.9121 -84.9080 -84.9062 -45.4021 -45.4014 -45.3960 -45.3234
   -45.3058 -45.2857 -45.2769 -45.2749 -45.2708 -45.2622 -45.2132 -45.2042
    10.6983  14.1202  14.3785  14.4591  14.7670  14.7875  14.7880  15.9281
    16.4945  16.5104  16.7263  16.7794  16.9242  17.3029  17.6081  17.7094
    17.7414  17.7916  18.2062  18.2063  18.2108  19.7419  21.6041  23.2286
    27.8775  29.6110  29.8504

     occupation numbers 
     1.0000   1.0000   1.0000   1.0000   1.0000   1.0000   1.0000   1.0000
     1.0000   1.0000   1.0000   1.0000   1.0000   1.0000   1.0000   1.0000
     1.0000   1.0000   1.0000   1.0000   1.0000   1.0000   1.0000   1.0000
     1.0000   1.0000   1.0000   1.0000   1.0000   1.0000   1.0000   1.0000
     1.0000   1.0000   1.0000   1.0000   1.0000  -0.0000  -0.0000  -0.0000
    -0.0000  -0.0000  -0.0000

          k = 0.0833 0.1667 0.3333 (  8794 PWs)   bands (ev):

   -84.9411 -84.9171 -84.9078 -84.9064 -45.3937 -45.3902 -45.3789 -45.3347
   -45.3182 -45.2854 -45.2756 -45.2734 -45.2732 -45.2608 -45.2228 -45.2119
    11.2867  13.9159  14.6393  14.6906  14.9354  14.9651  14.9869  15.7605
    16.2510  16.3529  16.5546  16.6163  16.6475  17.2415  17.4800  17.5780
    17.6305  17.7273  18.0965  18.1691  18.1707  18.8605  22.4339  24.0814
    26.6706  28.6122  29.8912

     occupation numbers 
     1.0000   1.0000   1.0000   1.0000   1.0000   1.0000   1.0000   1.0000
     1.0000   1.0000   1.0000   1.0000   1.0000   1.0000   1.0000   1.0000
     1.0000   1.0000   1.0000   1.0000   1.0000   1.0000   1.0000   1.0000
     1.0000   1.0000   1.0000   1.0000   1.0000   1.0000   1.0000   1.0000
     1.0000   1.0000   1.0000   1.0000   1.0000  -0.0181  -0.0000  -0.0000
    -0.0000  -0.0000  -0.0000

          k = 0.0833 0.1667 0.4167 (  8798 PWs)   bands (ev):

   -84.9353 -84.9229 -84.9074 -84.9067 -45.3846 -45.3798 -45.3582 -45.3433
   -45.3315 -45.3101 -45.2743 -45.2727 -45.2600 -45.2487 -45.2341 -45.2228
    11.9913  13.4406  14.8875  14.9270  15.1328  15.1357  15.2059  15.5605
    15.8493  15.9606  16.4511  16.5351  16.8170  17.2422  17.3227  17.4333
    17.4668  17.8703  17.8866  18.1494  18.1502  18.3040  23.3142  24.7636
    25.8225  27.4374  30.3304

     occupation numbers 
     1.0000   1.0000   1.0000   1.0000   1.0000   1.0000   1.0000   1.0000
     1.0000   1.0000   1.0000   1.0000   1.0000   1.0000   1.0000   1.0000
     1.0000   1.0000   1.0000   1.0000   1.0000   1.0000   1.0000   1.0000
     1.0000   1.0000   1.0000   1.0000   1.0000   1.0000   1.0000   1.0000
     1.0000   1.0000   1.0000   1.0000   1.0000   1.0000  -0.0000  -0.0000
    -0.0000  -0.0000  -0.0000

          k = 0.0833 0.1667-0.5000 (  8798 PWs)   bands (ev):

   -84.9292 -84.9290 -84.9072 -84.9070 -45.3777 -45.3776 -45.3424 -45.3423
   -45.3349 -45.3348 -45.2733 -45.2732 -45.2467 -45.2466 -45.2357 -45.2356
    12.7479  12.7480  15.0259  15.0259  15.2909  15.2910  15.3460  15.3460
    15.6934  15.6935  16.4585  16.4586  17.0169  17.0169  17.3836  17.3837
    17.5708  17.5708  18.0393  18.0394  18.1438  18.1439  24.2176  24.2177
    26.3760  26.3761  30.9077

     occupation numbers 
     1.0000   1.0000   1.0000   1.0000   1.0000   1.0000   1.0000   1.0000
     1.0000   1.0000   1.0000   1.0000   1.0000   1.0000   1.0000   1.0000
     1.0000   1.0000   1.0000   1.0000   1.0000   1.0000   1.0000   1.0000
     1.0000   1.0000   1.0000   1.0000   1.0000   1.0000   1.0000   1.0000
     1.0000   1.0000   1.0000   1.0000   1.0000   1.0000  -0.0000  -0.0000
    -0.0000  -0.0000  -0.0000

          k = 0.0833 0.2500 0.2500 (  8773 PWs)   bands (ev):

   -84.9426 -84.9116 -84.9115 -84.9067 -45.3943 -45.3943 -45.3939 -45.3335
   -45.2951 -45.2949 -45.2826 -45.2684 -45.2681 -45.2680 -45.2206 -45.2049
    11.1199  14.3549  14.3549  14.6130  14.9057  14.9057  14.9105  15.8645
    16.4700  16.4701  16.5048  16.5398  16.5663  17.2723  17.5890  17.6325
    17.6325  17.6940  18.1257  18.1258  18.1289  20.4144  20.4144  23.8493
    26.5033  29.8177  30.4348

     occupation numbers 
     1.0000   1.0000   1.0000   1.0000   1.0000   1.0000   1.0000   1.0000
     1.0000   1.0000   1.0000   1.0000   1.0000   1.0000   1.0000   1.0000
     1.0000   1.0000   1.0000   1.0000   1.0000   1.0000   1.0000   1.0000
     1.0000   1.0000   1.0000   1.0000   1.0000   1.0000   1.0000   1.0000
     1.0000   1.0000   1.0000   1.0000   1.0000  -0.0000  -0.0000  -0.0000
    -0.0000  -0.0000  -0.0000

          k = 0.0833 0.2500 0.3333 (  8799 PWs)   bands (ev):

   -84.9381 -84.9161 -84.9108 -84.9074 -45.3916 -45.3863 -45.3827 -45.3404
   -45.3067 -45.3049 -45.2822 -45.2651 -45.2639 -45.2565 -45.2305 -45.2097
    11.6835  14.1662  14.6287  14.7934  15.0597  15.0605  15.0933  15.7494
    16.0628  16.2457  16.2630  16.4981  16.6696  17.2413  17.4199  17.4412
    17.5160  17.8551  17.9937  18.0488  18.0581  19.4399  21.1478  24.3291
    25.5524  29.1564  30.1711

     occupation numbers 
     1.0000   1.0000   1.0000   1.0000   1.0000   1.0000   1.0000   1.0000
     1.0000   1.0000   1.0000   1.0000   1.0000   1.0000   1.0000   1.0000
     1.0000   1.0000   1.0000   1.0000   1.0000   1.0000   1.0000   1.0000
     1.0000   1.0000   1.0000   1.0000   1.0000   1.0000   1.0000   1.0000
     1.0000   1.0000   1.0000   1.0000   1.0000  -0.0000  -0.0000  -0.0000
[...]
    -0.0000  -0.0000  -0.0000

          k = 0.2500 0.2500-0.5000 (  8778 PWs)   bands (ev):

   -84.0577 -84.0575 -84.0442 -84.0440 -44.5710 -44.5709 -44.5387 -44.5387
   -44.4515 -44.4514 -44.4063 -44.4062 -44.3908 -44.3908 -44.3903 -44.3901
    13.4927  13.4927  15.1393  15.1393  15.9307  15.9308  16.2992  16.2992
    16.7703  16.7704  16.9158  16.9158  17.3530  17.3530  17.5711  17.5712
    18.8375  18.8375  18.9008  18.9008  18.9382  18.9382  22.4991  22.4991
    25.4511  25.4511  30.1438

     occupation numbers 
     1.0000   1.0000   1.0000   1.0000   1.0000   1.0000   1.0000   1.0000
     1.0000   1.0000   1.0000   1.0000   1.0000   1.0000   1.0000   1.0000
     1.0000   1.0000   1.0000   1.0000   1.0000   1.0000   1.0000   1.0000
     1.0000   1.0000   1.0000   1.0000   1.0000   1.0000   1.0000   1.0000
     0.4818   0.4811  -0.0000  -0.0000  -0.0000  -0.0000  -0.0000  -0.0000
    -0.0000  -0.0000  -0.0000

          k = 0.2500 0.3333 0.3333 (  8782 PWs)   bands (ev):

   -84.0638 -84.0475 -84.0474 -84.0446 -44.5738 -44.5690 -44.5690 -44.5213
   -44.4457 -44.4293 -44.4292 -44.4045 -44.4032 -44.4030 -44.3781 -44.3704
    12.6973  14.7059  14.7060  14.9968  15.9401  16.0274  16.0274  16.5746
    16.8119  16.8119  16.8858  17.1255  17.1607  17.5315  17.5315  17.5497
    18.3757  18.6350  18.9979  19.0112  19.0112  20.7610  20.7611  22.0637
    25.6842  27.2007  27.2008

     occupation numbers 
     1.0000   1.0000   1.0000   1.0000   1.0000   1.0000   1.0000   1.0000
     1.0000   1.0000   1.0000   1.0000   1.0000   1.0000   1.0000   1.0000
     1.0000   1.0000   1.0000   1.0000   1.0000   1.0000   1.0000   1.0000
     1.0000   1.0000   1.0000   1.0000   1.0000   1.0000   1.0000   1.0000
     1.0000   1.0000  -0.0000  -0.0000  -0.0000  -0.0000  -0.0000  -0.0000
    -0.0000  -0.0000  -0.0000

          k = 0.2500 0.3333 0.4167 (  8803 PWs)   bands (ev):

   -84.0599 -84.0514 -84.0468 -84.0453 -44.5781 -44.5757 -44.5652 -44.5403
   -44.4403 -44.4317 -44.4104 -44.4003 -44.3997 -44.3943 -44.3861 -44.3753
    13.2235  14.2769  14.7976  14.9390  16.0940  16.1527  16.2829  16.5783
    16.8367  16.8506  16.9265  17.0212  17.1727  17.3686  17.4391  17.4404
    18.5079  18.8766  18.9247  18.9396  18.9420  19.8365  21.1893  21.9670
    25.3563  26.2547  27.9763

     occupation numbers 
     1.0000   1.0000   1.0000   1.0000   1.0000   1.0000   1.0000   1.0000
     1.0000   1.0000   1.0000   1.0000   1.0000   1.0000   1.0000   1.0000
     1.0000   1.0000   1.0000   1.0000   1.0000   1.0000   1.0000   1.0000
     1.0000   1.0000   1.0000   1.0000   1.0000   1.0000   1.0000   1.0000
     1.0000  -0.0002  -0.0000  -0.0000  -0.0000  -0.0000  -0.0000  -0.0000
    -0.0000  -0.0000  -0.0000

          k = 0.2500 0.3333-0.5000 (  8784 PWs)   bands (ev):

   -84.0557 -84.0555 -84.0461 -84.0460 -44.5789 -44.5788 -44.5554 -44.5554
   -44.4356 -44.4355 -44.3986 -44.3985 -44.3964 -44.3963 -44.3842 -44.3842
    13.7679  13.7680  14.8722  14.8722  16.1768  16.1769  16.4886  16.4886
    16.9039  16.9039  16.9153  16.9154  17.2453  17.2453  17.3994  17.3995
    18.7419  18.7420  18.9089  18.9090  19.2193  19.2193  21.6266  21.6267
    25.5992  25.5992  28.8825

     occupation numbers 
     1.0000   1.0000   1.0000   1.0000   1.0000   1.0000   1.0000   1.0000
     1.0000   1.0000   1.0000   1.0000   1.0000   1.0000   1.0000   1.0000
     1.0000   1.0000   1.0000   1.0000   1.0000   1.0000   1.0000   1.0000
     1.0000   1.0000   1.0000   1.0000   1.0000   1.0000   1.0000   1.0000
     1.0000   1.0000  -0.0000  -0.0000  -0.0000  -0.0000  -0.0000  -0.0000
    -0.0000  -0.0000  -0.0000

          k = 0.2500 0.4167 0.4167 (  8787 PWs)   bands (ev):

   -84.0567 -84.0500 -84.0498 -84.0468 -44.5821 -44.5754 -44.5753 -44.5568
   -44.4308 -44.4159 -44.4158 -44.3942 -44.3940 -44.3908 -44.3906 -44.3766
    13.6389  14.4444  14.4444  14.7673  16.2976  16.4281  16.4281  16.7010
    16.8983  16.8983  16.9622  17.0130  17.1290  17.2882  17.2883  17.3122
    18.5339  18.8415  18.8416  18.8705  19.1836  20.2531  20.2532  21.3680
    25.5496  26.9442  26.9442

     occupation numbers 
     1.0000   1.0000   1.0000   1.0000   1.0000   1.0000   1.0000   1.0000
     1.0000   1.0000   1.0000   1.0000   1.0000   1.0000   1.0000   1.0000
     1.0000   1.0000   1.0000   1.0000   1.0000   1.0000   1.0000   1.0000
     1.0000   1.0000   1.0000   1.0000   1.0000   1.0000   1.0000   1.0000
     1.0000   0.2461   0.2436  -0.0014  -0.0000  -0.0000  -0.0000  -0.0000
    -0.0000  -0.0000  -0.0000

          k = 0.2500 0.4167-0.5000 (  8784 PWs)   bands (ev):

   -84.0534 -84.0532 -84.0484 -84.0483 -44.5812 -44.5812 -44.5689 -44.5689
   -44.4228 -44.4227 -44.4037 -44.4036 -44.3907 -44.3907 -44.3822 -44.3822
    14.0546  14.0547  14.6045  14.6045  16.4287  16.4288  16.6579  16.6579
    16.9123  16.9123  16.9974  16.9974  17.1751  17.1752  17.2586  17.2587
    18.6738  18.6738  18.8174  18.8175  19.6007  19.6007  20.7630  20.7630
    26.1211  26.1211  27.7890

     occupation numbers 
     1.0000   1.0000   1.0000   1.0000   1.0000   1.0000   1.0000   1.0000
     1.0000   1.0000   1.0000   1.0000   1.0000   1.0000   1.0000   1.0000
     1.0000   1.0000   1.0000   1.0000   1.0000   1.0000   1.0000   1.0000
     1.0000   1.0000   1.0000   1.0000   1.0000   1.0000   1.0000   1.0000
     1.0000   1.0000   1.0296   1.0298  -0.0000  -0.0000  -0.0000  -0.0000
    -0.0000  -0.0000  -0.0000

          k = 0.2500-0.5000-0.5000 (  8804 PWs)   bands (ev):

   -84.0511 -84.0507 -84.0507 -84.0507 -44.5778 -44.5778 -44.5778 -44.5777
   -44.4125 -44.4123 -44.4123 -44.4123 -44.3847 -44.3847 -44.3846 -44.3846
    14.3340  14.3340  14.3340  14.3341  16.6229  16.6229  16.6230  16.6230
    16.9881  16.9881  16.9881  16.9882  17.1718  17.1719  17.1719  17.1719
    18.7082  18.7082  18.7082  18.7083  20.0879  20.0879  20.0880  20.0880
    26.8654  26.8654  26.8654

     occupation numbers 
     1.0000   1.0000   1.0000   1.0000   1.0000   1.0000   1.0000   1.0000
     1.0000   1.0000   1.0000   1.0000   1.0000   1.0000   1.0000   1.0000
     1.0000   1.0000   1.0000   1.0000   1.0000   1.0000   1.0000   1.0000
     1.0000   1.0000   1.0000   1.0000   1.0000   1.0000   1.0000   1.0000
     1.0000   1.0000   1.0000   1.0000  -0.0000  -0.0000  -0.0000  -0.0000
    -0.0000  -0.0000  -0.0000

          k = 0.3333 0.3333 0.3333 (  8802 PWs)   bands (ev):

   -84.0610 -84.0476 -84.0474 -84.0474 -44.5799 -44.5799 -44.5798 -44.5419
   -44.4225 -44.4223 -44.4223 -44.3995 -44.3995 -44.3994 -44.3754 -44.3754
    13.0743  14.6790  14.6790  14.6790  16.2035  16.2035  16.2036  16.7220
    16.9600  16.9601  16.9601  17.0913  17.0913  17.3696  17.3696  17.3697
    18.5980  18.5980  19.0361  19.0361  19.0362  20.8926  20.8926  20.8926
    26.1641  26.1641  26.1641

     occupation numbers 
     1.0000   1.0000   1.0000   1.0000   1.0000   1.0000   1.0000   1.0000
     1.0000   1.0000   1.0000   1.0000   1.0000   1.0000   1.0000   1.0000
     1.0000   1.0000   1.0000   1.0000   1.0000   1.0000   1.0000   1.0000
     1.0000   1.0000   1.0000   1.0000   1.0000   1.0000   1.0000   1.0000
     1.0000   1.0000  -0.0000  -0.0000  -0.0000  -0.0000  -0.0000  -0.0000
    -0.0000  -0.0000  -0.0000

          k = 0.3333 0.3333 0.4167 (  8776 PWs)   bands (ev):

   -84.0577 -84.0507 -84.0475 -84.0474 -44.5870 -44.5870 -44.5793 -44.5595
   -44.4191 -44.4189 -44.4026 -44.3959 -44.3958 -44.3936 -44.3812 -44.3785
    13.4932  14.3162  14.6521  14.6521  16.3507  16.3507  16.4848  16.8368
    17.0087  17.0202  17.0789  17.0933  17.0934  17.2235  17.2696  17.2696
    18.7245  18.7869  18.9938  18.9939  19.0138  19.8864  21.0143  21.0143
    25.4885  25.4886  26.8427

     occupation numbers 
     1.0000   1.0000   1.0000   1.0000   1.0000   1.0000   1.0000   1.0000
     1.0000   1.0000   1.0000   1.0000   1.0000   1.0000   1.0000   1.0000
     1.0000   1.0000   1.0000   1.0000   1.0000   1.0000   1.0000   1.0000
     1.0000   1.0000   1.0000   1.0000   1.0000   1.0000   1.0000   1.0000
     1.0000   1.0000  -0.0000  -0.0000  -0.0000  -0.0000  -0.0000  -0.0000
    -0.0000  -0.0000  -0.0000

          k = 0.3333 0.3333-0.5000 (  8796 PWs)   bands (ev):

   -84.0543 -84.0541 -84.0475 -84.0473 -44.5895 -44.5895 -44.5723 -44.5723
   -44.4181 -44.4180 -44.3944 -44.3943 -44.3878 -44.3877 -44.3875 -44.3873
    13.9163  13.9163  14.6412  14.6412  16.4056  16.4056  16.7336  16.7336
    17.0147  17.0148  17.1241  17.1241  17.1589  17.1590  17.2301  17.2302
    18.9289  18.9290  18.9633  18.9634  19.1439  19.1439  21.0652  21.0653
    25.2513  25.2513  27.6793

     occupation numbers 
     1.0000   1.0000   1.0000   1.0000   1.0000   1.0000   1.0000   1.0000
     1.0000   1.0000   1.0000   1.0000   1.0000   1.0000   1.0000   1.0000
     1.0000   1.0000   1.0000   1.0000   1.0000   1.0000   1.0000   1.0000
     1.0000   1.0000   1.0000   1.0000   1.0000   1.0000   1.0000   1.0000
    -0.0000  -0.0000  -0.0000  -0.0000  -0.0000  -0.0000  -0.0000  -0.0000
    -0.0000  -0.0000  -0.0000

          k = 0.3333 0.4167 0.4167 (  8788 PWs)   bands (ev):

   -84.0552 -84.0500 -84.0498 -84.0482 -44.5935 -44.5894 -44.5894 -44.5750
   -44.4106 -44.4025 -44.4024 -44.3916 -44.3903 -44.3901 -44.3852 -44.3791
    13.7819  14.3626  14.3626  14.5258  16.5278  16.6127  16.6128  16.9629
    17.0187  17.1275  17.1275  17.1356  17.1513  17.2290  17.2291  17.2922
    18.7360  18.9724  18.9760  18.9761  18.9997  20.0720  20.0721  20.7090
    25.2191  25.9735  25.9735

     occupation numbers 
     1.0000   1.0000   1.0000   1.0000   1.0000   1.0000   1.0000   1.0000
     1.0000   1.0000   1.0000   1.0000   1.0000   1.0000   1.0000   1.0000
     1.0000   1.0000   1.0000   1.0000   1.0000   1.0000   1.0000   1.0000
     1.0000   1.0000   1.0000   1.0000   1.0000   1.0000   1.0000   1.0000
     1.0000  -0.0000  -0.0000  -0.0000  -0.0000  -0.0000  -0.0000  -0.0000
    -0.0000  -0.0000  -0.0000

          k = 0.3333 0.4167-0.5000 (  8776 PWs)   bands (ev):

   -84.0527 -84.0525 -84.0491 -84.0490 -44.5943 -44.5943 -44.5853 -44.5853
   -44.4056 -44.4055 -44.3919 -44.3918 -44.3892 -44.3891 -44.3836 -44.3836
    14.0730  14.0731  14.4295  14.4295  16.6251  16.6251  16.8301  16.8302
    17.0452  17.0452  17.1026  17.1026  17.2659  17.2659  17.3576  17.3577
    18.8677  18.8677  18.9404  18.9405  19.3709  19.3709  20.3627  20.3627
    25.4104  25.4105  26.6857

     occupation numbers 
     1.0000   1.0000   1.0000   1.0000   1.0000   1.0000   1.0000   1.0000
     1.0000   1.0000   1.0000   1.0000   1.0000   1.0000   1.0000   1.0000
     1.0000   1.0000   1.0000   1.0000   1.0000   1.0000   1.0000   1.0000
     1.0000   1.0000   1.0000   1.0000   1.0000   1.0000   1.0000   1.0000
    -0.0034  -0.0034  -0.0000  -0.0000  -0.0000  -0.0000  -0.0000  -0.0000
    -0.0000  -0.0000  -0.0000

          k = 0.3333-0.5000-0.5000 (  8784 PWs)   bands (ev):

   -84.0510 -84.0507 -84.0507 -84.0507 -44.5929 -44.5929 -44.5929 -44.5928
   -44.3976 -44.3974 -44.3974 -44.3974 -44.3847 -44.3847 -44.3846 -44.3845
    14.2415  14.2415  14.2415  14.2416  16.7818  16.7819  16.7820  16.7820
    17.0332  17.0332  17.0332  17.0333  17.4286  17.4287  17.4287  17.4287
    18.8671  18.8671  18.8671  18.8671  19.7653  19.7654  19.7654  19.7654
    25.9181  25.9181  25.9182

     occupation numbers 
     1.0000   1.0000   1.0000   1.0000   1.0000   1.0000   1.0000   1.0000
     1.0000   1.0000   1.0000   1.0000   1.0000   1.0000   1.0000   1.0000
     1.0000   1.0000   1.0000   1.0000   1.0000   1.0000   1.0000   1.0000
     1.0000   1.0000   1.0000   1.0000   1.0000   1.0000   1.0000   1.0000
    -0.0041  -0.0041  -0.0041  -0.0040  -0.0000  -0.0000  -0.0000  -0.0000
    -0.0000  -0.0000  -0.0000

          k = 0.4167 0.4167 0.4167 (  8786 PWs)   bands (ev):

   -84.0535 -84.0500 -84.0498 -84.0498 -44.5986 -44.5986 -44.5985 -44.5888
   -44.3953 -44.3951 -44.3951 -44.3886 -44.3886 -44.3885 -44.3821 -44.3821
    13.9378  14.3049  14.3049  14.3049  16.7395  16.7395  16.7395  16.9644
    16.9644  17.0336  17.0336  17.0337  17.5599  17.5600  17.5600  17.5644
    18.8910  18.8910  19.0133  19.0133  19.0134  19.8904  19.8905  19.8905
    25.3690  25.3690  25.3690

     occupation numbers 
     1.0000   1.0000   1.0000   1.0000   1.0000   1.0000   1.0000   1.0000
     1.0000   1.0000   1.0000   1.0000   1.0000   1.0000   1.0000   1.0000
     1.0000   1.0000   1.0000   1.0000   1.0000   1.0000   1.0000   1.0000
     1.0000   1.0000   1.0000   1.0000   1.0000   1.0000   1.0000   1.0000
    -0.0000  -0.0000  -0.0000  -0.0000  -0.0000  -0.0000  -0.0000  -0.0000
    -0.0000  -0.0000  -0.0000

          k = 0.4167 0.4167-0.5000 (  8786 PWs)   bands (ev):

   -84.0518 -84.0516 -84.0500 -84.0498 -44.6017 -44.6017 -44.5970 -44.5969
   -44.3936 -44.3935 -44.3871 -44.3870 -44.3855 -44.3854 -44.3854 -44.3853
    14.1099  14.1099  14.2842  14.2843  16.7858  16.7858  16.8894  16.8894
    16.9697  16.9697  16.9963  16.9964  17.7251  17.7252  17.7322  17.7322
    18.9859  18.9859  18.9936  18.9937  19.1733  19.1733  19.8141  19.8142
    25.1646  25.1647  25.8574

     occupation numbers 
     1.0000   1.0000   1.0000   1.0000   1.0000   1.0000   1.0000   1.0000
     1.0000   1.0000   1.0000   1.0000   1.0000   1.0000   1.0000   1.0000
     1.0000   1.0000   1.0000   1.0000   1.0000   1.0000   1.0000   1.0000
     1.0000   1.0000   1.0000   1.0000   1.0000   1.0000   1.0000   1.0000
    -0.0000  -0.0000  -0.0000  -0.0000  -0.0000  -0.0000  -0.0000  -0.0000
    -0.0000  -0.0000  -0.0000

          k = 0.4167-0.5000-0.5000 (  8776 PWs)   bands (ev):

   -84.0510 -84.0507 -84.0507 -84.0507 -44.6026 -44.6026 -44.6026 -44.6025
   -44.3880 -44.3878 -44.3878 -44.3878 -44.3847 -44.3847 -44.3845 -44.3845
    14.1778  14.1778  14.1778  14.1778  16.8813  16.8813  16.8814  16.8814
    16.9452  16.9453  16.9453  16.9454  17.9527  17.9528  17.9528  17.9528
    18.9698  18.9698  18.9698  18.9699  19.3311  19.3311  19.3312  19.3312
    25.3359  25.3359  25.3360

     occupation numbers 
     1.0000   1.0000   1.0000   1.0000   1.0000   1.0000   1.0000   1.0000
     1.0000   1.0000   1.0000   1.0000   1.0000   1.0000   1.0000   1.0000
     1.0000   1.0000   1.0000   1.0000   1.0000   1.0000   1.0000   1.0000
     1.0000   1.0000   1.0000   1.0000   1.0000   1.0000   1.0000   1.0000
    -0.0000  -0.0000  -0.0000  -0.0000  -0.0000  -0.0000  -0.0000  -0.0000
    -0.0000  -0.0000  -0.0000

          k =-0.5000-0.5000-0.5000 (  8744 PWs)   bands (ev):

   -84.0510 -84.0507 -84.0507 -84.0507 -44.6059 -44.6059 -44.6059 -44.6059
   -44.3847 -44.3847 -44.3847 -44.3845 -44.3845 -44.3845 -44.3845 -44.3845
    14.1552  14.1552  14.1552  14.1553  16.9152  16.9152  16.9153  16.9153
    16.9153  16.9153  16.9153  16.9153  18.3102  18.3103  18.3103  18.3103
    19.0053  19.0053  19.0053  19.0053  19.0053  19.0054  19.0054  19.0054
    25.1411  25.1411  25.1411

     occupation numbers 
     1.0000   1.0000   1.0000   1.0000   1.0000   1.0000   1.0000   1.0000
     1.0000   1.0000   1.0000   1.0000   1.0000   1.0000   1.0000   1.0000
     1.0000   1.0000   1.0000   1.0000   1.0000   1.0000   1.0000   1.0000
     1.0000   1.0000   1.0000   1.0000   1.0000   1.0000   1.0000   1.0000
    -0.0000  -0.0000  -0.0000  -0.0000  -0.0000  -0.0000  -0.0000  -0.0000
    -0.0000  -0.0000  -0.0000

     the Fermi energy is    18.8372 ev

!    total energy              =   -1716.65399847 Ry
     total all-electron energy =    -12166.382429 Ry
     estimated scf accuracy    <       0.00000007 Ry
     smearing contrib. (-TS)   =      -0.00000482 Ry
     internal energy E=F+TS    =   -1716.65399365 Ry

     The total energy is F=E-TS. E is the sum of the following terms:
     one-electron contribution =    -721.92444536 Ry
     hartree contribution      =     411.91386075 Ry
     xc contribution           =    -137.44808415 Ry
     ewald contribution        =    -904.81412341 Ry
     one-center paw contrib.   =    -364.38120148 Ry
      -> PAW hartree energy AE =     268.05291950 Ry
      -> PAW hartree energy PS =    -266.35964152 Ry
      -> PAW xc energy AE      =    -125.61314859 Ry
      -> PAW xc energy PS      =      32.82455369 Ry
      -> total E_H with PAW    =     413.60713874 Ry
      -> total E_XC with PAW   =    -230.23667905 Ry

     total magnetization       =     2.60 Bohr mag/cell
     absolute magnetization    =     2.96 Bohr mag/cell

     convergence has been achieved in   5 iterations

     Writing all to output data dir out/Ni.save/
 
     init_run     :      0.70s CPU      0.88s WALL (       1 calls)
     electrons    :     30.22s CPU     30.95s WALL (       1 calls)

     Called by init_run:
     wfcinit      :      0.39s CPU      0.54s WALL (       1 calls)
     potinit      :      0.13s CPU      0.15s WALL (       1 calls)
     hinit0       :      0.07s CPU      0.07s WALL (       1 calls)

     Called by electrons:
     c_bands      :     25.10s CPU     25.65s WALL (       6 calls)
     sum_band     :      4.41s CPU      4.54s WALL (       6 calls)
     v_of_rho     :      0.11s CPU      0.11s WALL (       6 calls)
     v_h          :      0.00s CPU      0.00s WALL (       6 calls)
     v_xc         :      0.10s CPU      0.11s WALL (       6 calls)
     newd         :      0.07s CPU      0.07s WALL (       6 calls)
     PAW_pot      :      0.62s CPU      0.66s WALL (       6 calls)
     mix_rho      :      0.01s CPU      0.01s WALL (       6 calls)

     Called by c_bands:
     init_us_2    :      0.21s CPU      0.22s WALL (    1008 calls)
     init_us_2:cp :      0.20s CPU      0.22s WALL (    1008 calls)
     cegterg      :     23.37s CPU     23.88s WALL (     504 calls)

     Called by sum_band:
     sum_band:wei :      0.03s CPU      0.03s WALL (       6 calls)
     sum_band:loo :      4.20s CPU      4.31s WALL (       6 calls)
     sum_band:buf :      0.05s CPU      0.05s WALL (     504 calls)
     sum_band:ini :      0.09s CPU      0.10s WALL (     504 calls)
     sum_band:cal :      0.22s CPU      0.23s WALL (     504 calls)
     sum_band:bec :      0.01s CPU      0.01s WALL (     504 calls)
     addusdens    :      0.14s CPU      0.15s WALL (       6 calls)
                                        0.00s GPU  (       6 calls)
     addusd:skk   :      0.00s CPU      0.00s WALL (       6 calls)
                                        0.00s GPU  (       6 calls)

     Called by *egterg:
     cdiaghg      :      2.53s CPU      2.57s WALL (    1363 calls)
     cegterg:over :      0.87s CPU      0.92s WALL (    1027 calls)
     cegterg:upda :      0.35s CPU      0.35s WALL (    1027 calls)
     cegterg:last :      0.67s CPU      0.68s WALL (     907 calls)
     h_psi        :     17.92s CPU     18.30s WALL (    1531 calls)
     s_psi        :      0.38s CPU      0.39s WALL (    1531 calls)
     g_psi        :      0.05s CPU      0.06s WALL (    1027 calls)

     Called by h_psi:
     h_psi:calbec :      0.62s CPU      0.64s WALL (    1531 calls)
     vloc_psi     :     16.75s CPU     17.10s WALL (    1531 calls)
     add_vuspsi   :      0.46s CPU      0.47s WALL (    1531 calls)

     General routines
     calbec       :      0.83s CPU      0.86s WALL (    2035 calls)
     fft          :      0.06s CPU      0.06s WALL (     146 calls)
     ffts         :      0.01s CPU      0.01s WALL (      24 calls)
     fftw         :     18.84s CPU     19.24s WALL (  122734 calls)
     interpolate  :      0.01s CPU      0.01s WALL (      12 calls)
 
     Parallel routines

     PAW routines
     PAW_pot      :      0.62s CPU      0.66s WALL (       6 calls)
     PAW_symme    :      0.01s CPU      0.01s WALL (      11 calls)
 
     PWSCF        :     31.45s CPU     34.20s WALL

 
   This run was terminated on:   0:52:58  22Mar2024            

=------------------------------------------------------------------------------=
   JOB DONE.
=------------------------------------------------------------------------------=
