### Running on host: hamsi18.yonetim

     Program PWSCF v.7.2 starts on 22Mar2024 at  0:55:30 

     This program is part of the open-source Quantum ESPRESSO suite
     for quantum simulation of materials; please cite
         "P. Giannozzi et al., J. Phys.:Condens. Matter 21 395502 (2009);
         "P. Giannozzi et al., J. Phys.:Condens. Matter 29 465901 (2017);
         "P. Giannozzi et al., J. Chem. Phys. 152 154105 (2020);
          URL http://www.quantum-espresso.org", 
     in publications or presentations arising from this work. More details at
     http://www.quantum-espresso.org/quote

     Parallel version (MPI), running on    28 processors

     MPI processes distributed on     1 nodes
     102335 MiB available memory on the printing compute node when the environment starts
 
     Reading input from scf.gauss.degauss-0.01.in

     Current dimensions of program PWSCF are:
     Max number of different atomic species (ntypx) = 10
     Max number of k-points (npk) = 120000
     Max angular momentum in pseudopotentials (lmaxx) =  4
     file Ni.pbe-spn-kjpaw_psl.1.0.0.UPF: wavefunction(s)  3P 3D renormalized
     Found identity + (  0.0000 -0.5000 -0.5000) symmetry
     This is a supercell, fractional translations are disabled
     Message from routine setup:
     using ibrav=0 with symmetry is DISCOURAGED, use correct ibrav instead
 
     K-points division:     npool     =       2
     R & G space division:  proc/nbgrp/npool/nimage =      14
     Subspace diagonalization in iterative solution of the eigenvalue problem:
     a serial algorithm will be used

 
     Parallelization info
     --------------------
     sticks:   dense  smooth     PW     G-vecs:    dense   smooth      PW
     Min         196     147     42                 7724     5021     768
     Max         198     148     43                 7726     5024     771
     Sum        2749    2061    593               108143    70319   10779
 
     Using Slab Decomposition
 


     bravais-lattice index     =            0
     lattice parameter (alat)  =       6.5671  a.u.
     unit-cell volume          =     283.2147 (a.u.)^3
     number of atoms/cell      =            4
     number of atomic types    =            1
     number of electrons       =        72.00
     number of Kohn-Sham states=           43
     kinetic-energy cutoff     =     150.0000  Ry
     charge density cutoff     =     800.0000  Ry
     scf convergence threshold =      8.0E-08
     mixing beta               =       0.7000
     number of iterations used =            8  plain     mixing
     Exchange-correlation= SLA  PW   PBX  PBC
                           (   1   4   3   4   0   0   0)

     celldm(1)=   6.567074  celldm(2)=   0.000000  celldm(3)=   0.000000
     celldm(4)=   0.000000  celldm(5)=   0.000000  celldm(6)=   0.000000

     crystal axes: (cart. coord. in units of alat)
               a(1) = (   1.000000   0.000000   0.000000 )  
               a(2) = (   0.000000   1.000000   0.000000 )  
               a(3) = (   0.000000   0.000000   1.000000 )  

     reciprocal axes: (cart. coord. in units 2 pi/alat)
               b(1) = (  1.000000  0.000000  0.000000 )  
               b(2) = (  0.000000  1.000000  0.000000 )  
               b(3) = (  0.000000  0.000000  1.000000 )  


     PseudoPot. # 1 for Ni read from file:
     /truba/home/amuhaymin/ZnS/pseudo/QE/Ni.pbe-spn-kjpaw_psl.1.0.0.UPF
     MD5 check sum: 6e86b733589c3ad8389697b807d86aa7
     Pseudo is Projector augmented-wave + core cor, Zval = 18.0
     Generated using &quot;atomic&quot; code by A. Dal Corso  v.6.3
     Shape of augmentation charge: PSQ
     Using radial grid of 1195 points,  6 beta functions with: 
                l(1) =   0
                l(2) =   0
                l(3) =   1
                l(4) =   1
                l(5) =   2
                l(6) =   2
     Q(r) pseudized with 0 coefficients 


     atomic species   valence    mass     pseudopotential
        Ni            18.00    58.69340     Ni( 1.00)

     Starting magnetic structure 
     atomic species   magnetization
        Ni           0.278

     48 Sym. Ops., with inversion, found


                                    s                        frac. trans.

      isym =  1     identity                                     

 cryst.   s( 1) = (     1          0          0      )
                  (     0          1          0      )
                  (     0          0          1      )

 cart.    s( 1) = (  1.0000000  0.0000000  0.0000000 )
                  (  0.0000000  1.0000000  0.0000000 )
                  (  0.0000000  0.0000000  1.0000000 )


      isym =  2     180 deg rotation - cart. axis [0,0,1]        

 cryst.   s( 2) = (    -1          0          0      )
                  (     0         -1          0      )
                  (     0          0          1      )

 cart.    s( 2) = ( -1.0000000  0.0000000  0.0000000 )
                  (  0.0000000 -1.0000000  0.0000000 )
                  (  0.0000000  0.0000000  1.0000000 )


      isym =  3     180 deg rotation - cart. axis [0,1,0]        

 cryst.   s( 3) = (    -1          0          0      )
                  (     0          1          0      )
                  (     0          0         -1      )

 cart.    s( 3) = ( -1.0000000  0.0000000  0.0000000 )
                  (  0.0000000  1.0000000  0.0000000 )
                  (  0.0000000  0.0000000 -1.0000000 )


      isym =  4     180 deg rotation - cart. axis [1,0,0]        

 cryst.   s( 4) = (     1          0          0      )
                  (     0         -1          0      )
                  (     0          0         -1      )

 cart.    s( 4) = (  1.0000000  0.0000000  0.0000000 )
                  (  0.0000000 -1.0000000  0.0000000 )
                  (  0.0000000  0.0000000 -1.0000000 )


      isym =  5     180 deg rotation - cart. axis [1,1,0]        

 cryst.   s( 5) = (     0          1          0      )
                  (     1          0          0      )
                  (     0          0         -1      )

 cart.    s( 5) = (  0.0000000  1.0000000  0.0000000 )
                  (  1.0000000  0.0000000  0.0000000 )
                  (  0.0000000  0.0000000 -1.0000000 )


      isym =  6     180 deg rotation - cart. axis [1,-1,0]       

 cryst.   s( 6) = (     0         -1          0      )
                  (    -1          0          0      )
                  (     0          0         -1      )

 cart.    s( 6) = (  0.0000000 -1.0000000  0.0000000 )
                  ( -1.0000000  0.0000000  0.0000000 )
                  (  0.0000000  0.0000000 -1.0000000 )


      isym =  7      90 deg rotation - cart. axis [0,0,-1]       

 cryst.   s( 7) = (     0         -1          0      )
                  (     1          0          0      )
                  (     0          0          1      )

 cart.    s( 7) = (  0.0000000  1.0000000  0.0000000 )
                  ( -1.0000000  0.0000000  0.0000000 )
                  (  0.0000000  0.0000000  1.0000000 )


      isym =  8      90 deg rotation - cart. axis [0,0,1]        

 cryst.   s( 8) = (     0          1          0      )
                  (    -1          0          0      )
                  (     0          0          1      )

 cart.    s( 8) = (  0.0000000 -1.0000000  0.0000000 )
                  (  1.0000000  0.0000000  0.0000000 )
                  (  0.0000000  0.0000000  1.0000000 )


      isym =  9     180 deg rotation - cart. axis [1,0,1]        

 cryst.   s( 9) = (     0          0          1      )
                  (     0         -1          0      )
                  (     1          0          0      )

 cart.    s( 9) = (  0.0000000  0.0000000  1.0000000 )
                  (  0.0000000 -1.0000000  0.0000000 )
                  (  1.0000000  0.0000000  0.0000000 )


      isym = 10     180 deg rotation - cart. axis [-1,0,1]       

 cryst.   s(10) = (     0          0         -1      )
                  (     0         -1          0      )
                  (    -1          0          0      )

 cart.    s(10) = (  0.0000000  0.0000000 -1.0000000 )
                  (  0.0000000 -1.0000000  0.0000000 )
                  ( -1.0000000  0.0000000  0.0000000 )


      isym = 11      90 deg rotation - cart. axis [0,1,0]        

 cryst.   s(11) = (     0          0         -1      )
                  (     0          1          0      )
                  (     1          0          0      )

 cart.    s(11) = (  0.0000000  0.0000000  1.0000000 )
                  (  0.0000000  1.0000000  0.0000000 )
                  ( -1.0000000  0.0000000  0.0000000 )


      isym = 12      90 deg rotation - cart. axis [0,-1,0]       

 cryst.   s(12) = (     0          0          1      )
                  (     0          1          0      )
                  (    -1          0          0      )

 cart.    s(12) = (  0.0000000  0.0000000 -1.0000000 )
                  (  0.0000000  1.0000000  0.0000000 )
                  (  1.0000000  0.0000000  0.0000000 )


      isym = 13     180 deg rotation - cart. axis [0,1,1]        

 cryst.   s(13) = (    -1          0          0      )
                  (     0          0          1      )
                  (     0          1          0      )

 cart.    s(13) = ( -1.0000000  0.0000000  0.0000000 )
                  (  0.0000000  0.0000000  1.0000000 )
                  (  0.0000000  1.0000000  0.0000000 )


      isym = 14     180 deg rotation - cart. axis [0,1,-1]       

 cryst.   s(14) = (    -1          0          0      )
                  (     0          0         -1      )
                  (     0         -1          0      )

 cart.    s(14) = ( -1.0000000  0.0000000  0.0000000 )
                  (  0.0000000  0.0000000 -1.0000000 )
                  (  0.0000000 -1.0000000  0.0000000 )


      isym = 15      90 deg rotation - cart. axis [-1,0,0]       

 cryst.   s(15) = (     1          0          0      )
                  (     0          0         -1      )
                  (     0          1          0      )

 cart.    s(15) = (  1.0000000  0.0000000  0.0000000 )
                  (  0.0000000  0.0000000  1.0000000 )
                  (  0.0000000 -1.0000000  0.0000000 )


      isym = 16      90 deg rotation - cart. axis [1,0,0]        

 cryst.   s(16) = (     1          0          0      )
                  (     0          0          1      )
                  (     0         -1          0      )

 cart.    s(16) = (  1.0000000  0.0000000  0.0000000 )
                  (  0.0000000  0.0000000 -1.0000000 )
                  (  0.0000000  1.0000000  0.0000000 )


      isym = 17     120 deg rotation - cart. axis [-1,-1,-1]     

 cryst.   s(17) = (     0          0          1      )
                  (     1          0          0      )
                  (     0          1          0      )

 cart.    s(17) = (  0.0000000  1.0000000  0.0000000 )
                  (  0.0000000  0.0000000  1.0000000 )
                  (  1.0000000  0.0000000  0.0000000 )


      isym = 18     120 deg rotation - cart. axis [-1,1,1]       

 cryst.   s(18) = (     0          0         -1      )
                  (    -1          0          0      )
                  (     0          1          0      )

 cart.    s(18) = (  0.0000000 -1.0000000  0.0000000 )
                  (  0.0000000  0.0000000  1.0000000 )
                  ( -1.0000000  0.0000000  0.0000000 )


      isym = 19     120 deg rotation - cart. axis [1,1,-1]       

 cryst.   s(19) = (     0          0         -1      )
                  (     1          0          0      )
                  (     0         -1          0      )

 cart.    s(19) = (  0.0000000  1.0000000  0.0000000 )
                  (  0.0000000  0.0000000 -1.0000000 )
                  ( -1.0000000  0.0000000  0.0000000 )


      isym = 20     120 deg rotation - cart. axis [1,-1,1]       

 cryst.   s(20) = (     0          0          1      )
                  (    -1          0          0      )
                  (     0         -1          0      )

 cart.    s(20) = (  0.0000000 -1.0000000  0.0000000 )
                  (  0.0000000  0.0000000 -1.0000000 )
                  (  1.0000000  0.0000000  0.0000000 )


      isym = 21     120 deg rotation - cart. axis [1,1,1]        

 cryst.   s(21) = (     0          1          0      )
                  (     0          0          1      )
                  (     1          0          0      )

 cart.    s(21) = (  0.0000000  0.0000000  1.0000000 )
                  (  1.0000000  0.0000000  0.0000000 )
                  (  0.0000000  1.0000000  0.0000000 )


      isym = 22     120 deg rotation - cart. axis [-1,1,-1]      

 cryst.   s(22) = (     0         -1          0      )
                  (     0          0         -1      )
                  (     1          0          0      )

 cart.    s(22) = (  0.0000000  0.0000000  1.0000000 )
                  ( -1.0000000  0.0000000  0.0000000 )
                  (  0.0000000 -1.0000000  0.0000000 )


      isym = 23     120 deg rotation - cart. axis [1,-1,-1]      

 cryst.   s(23) = (     0         -1          0      )
                  (     0          0          1      )
                  (    -1          0          0      )

 cart.    s(23) = (  0.0000000  0.0000000 -1.0000000 )
                  ( -1.0000000  0.0000000  0.0000000 )
                  (  0.0000000  1.0000000  0.0000000 )


      isym = 24     120 deg rotation - cart. axis [-1,-1,1]      

 cryst.   s(24) = (     0          1          0      )
                  (     0          0         -1      )
                  (    -1          0          0      )

 cart.    s(24) = (  0.0000000  0.0000000 -1.0000000 )
                  (  1.0000000  0.0000000  0.0000000 )
                  (  0.0000000 -1.0000000  0.0000000 )


      isym = 25     inversion                                    

 cryst.   s(25) = (    -1          0          0      )
                  (     0         -1          0      )
                  (     0          0         -1      )

 cart.    s(25) = ( -1.0000000  0.0000000  0.0000000 )
                  (  0.0000000 -1.0000000  0.0000000 )
                  (  0.0000000  0.0000000 -1.0000000 )


      isym = 26     inv. 180 deg rotation - cart. axis [0,0,1]   

 cryst.   s(26) = (     1          0          0      )
                  (     0          1          0      )
                  (     0          0         -1      )

 cart.    s(26) = (  1.0000000  0.0000000  0.0000000 )
                  (  0.0000000  1.0000000  0.0000000 )
                  (  0.0000000  0.0000000 -1.0000000 )


      isym = 27     inv. 180 deg rotation - cart. axis [0,1,0]   

 cryst.   s(27) = (     1          0          0      )
                  (     0         -1          0      )
                  (     0          0          1      )

 cart.    s(27) = (  1.0000000  0.0000000  0.0000000 )
                  (  0.0000000 -1.0000000  0.0000000 )
                  (  0.0000000  0.0000000  1.0000000 )


      isym = 28     inv. 180 deg rotation - cart. axis [1,0,0]   

 cryst.   s(28) = (    -1          0          0      )
                  (     0          1          0      )
                  (     0          0          1      )

 cart.    s(28) = ( -1.0000000  0.0000000  0.0000000 )
                  (  0.0000000  1.0000000  0.0000000 )
                  (  0.0000000  0.0000000  1.0000000 )


      isym = 29     inv. 180 deg rotation - cart. axis [1,1,0]   

 cryst.   s(29) = (     0         -1          0      )
                  (    -1          0          0      )
                  (     0          0          1      )

 cart.    s(29) = (  0.0000000 -1.0000000  0.0000000 )
                  ( -1.0000000  0.0000000  0.0000000 )
                  (  0.0000000  0.0000000  1.0000000 )


      isym = 30     inv. 180 deg rotation - cart. axis [1,-1,0]  

 cryst.   s(30) = (     0          1          0      )
                  (     1          0          0      )
                  (     0          0          1      )

 cart.    s(30) = (  0.0000000  1.0000000  0.0000000 )
                  (  1.0000000  0.0000000  0.0000000 )
                  (  0.0000000  0.0000000  1.0000000 )


      isym = 31     inv.  90 deg rotation - cart. axis [0,0,-1]  

 cryst.   s(31) = (     0          1          0      )
                  (    -1          0          0      )
                  (     0          0         -1      )

 cart.    s(31) = (  0.0000000 -1.0000000  0.0000000 )
                  (  1.0000000  0.0000000  0.0000000 )
                  (  0.0000000  0.0000000 -1.0000000 )


      isym = 32     inv.  90 deg rotation - cart. axis [0,0,1]   

 cryst.   s(32) = (     0         -1          0      )
                  (     1          0          0      )
                  (     0          0         -1      )

 cart.    s(32) = (  0.0000000  1.0000000  0.0000000 )
                  ( -1.0000000  0.0000000  0.0000000 )
                  (  0.0000000  0.0000000 -1.0000000 )


      isym = 33     inv. 180 deg rotation - cart. axis [1,0,1]   

 cryst.   s(33) = (     0          0         -1      )
                  (     0          1          0      )
                  (    -1          0          0      )

 cart.    s(33) = (  0.0000000  0.0000000 -1.0000000 )
                  (  0.0000000  1.0000000  0.0000000 )
                  ( -1.0000000  0.0000000  0.0000000 )


      isym = 34     inv. 180 deg rotation - cart. axis [-1,0,1]  

 cryst.   s(34) = (     0          0          1      )
                  (     0          1          0      )
                  (     1          0          0      )

 cart.    s(34) = (  0.0000000  0.0000000  1.0000000 )
                  (  0.0000000  1.0000000  0.0000000 )
                  (  1.0000000  0.0000000  0.0000000 )


      isym = 35     inv.  90 deg rotation - cart. axis [0,1,0]   

 cryst.   s(35) = (     0          0          1      )
                  (     0         -1          0      )
                  (    -1          0          0      )

 cart.    s(35) = (  0.0000000  0.0000000 -1.0000000 )
                  (  0.0000000 -1.0000000  0.0000000 )
                  (  1.0000000  0.0000000  0.0000000 )


      isym = 36     inv.  90 deg rotation - cart. axis [0,-1,0]  

 cryst.   s(36) = (     0          0         -1      )
                  (     0         -1          0      )
                  (     1          0          0      )

 cart.    s(36) = (  0.0000000  0.0000000  1.0000000 )
                  (  0.0000000 -1.0000000  0.0000000 )
                  ( -1.0000000  0.0000000  0.0000000 )


      isym = 37     inv. 180 deg rotation - cart. axis [0,1,1]   

 cryst.   s(37) = (     1          0          0      )
                  (     0          0         -1      )
                  (     0         -1          0      )

 cart.    s(37) = (  1.0000000  0.0000000  0.0000000 )
                  (  0.0000000  0.0000000 -1.0000000 )
                  (  0.0000000 -1.0000000  0.0000000 )


      isym = 38     inv. 180 deg rotation - cart. axis [0,1,-1]  

 cryst.   s(38) = (     1          0          0      )
                  (     0          0          1      )
                  (     0          1          0      )

 cart.    s(38) = (  1.0000000  0.0000000  0.0000000 )
                  (  0.0000000  0.0000000  1.0000000 )
                  (  0.0000000  1.0000000  0.0000000 )


      isym = 39     inv.  90 deg rotation - cart. axis [-1,0,0]  

 cryst.   s(39) = (    -1          0          0      )
                  (     0          0          1      )
                  (     0         -1          0      )

 cart.    s(39) = ( -1.0000000  0.0000000  0.0000000 )
                  (  0.0000000  0.0000000 -1.0000000 )
                  (  0.0000000  1.0000000  0.0000000 )


      isym = 40     inv.  90 deg rotation - cart. axis [1,0,0]   

 cryst.   s(40) = (    -1          0          0      )
                  (     0          0         -1      )
                  (     0          1          0      )

 cart.    s(40) = ( -1.0000000  0.0000000  0.0000000 )
                  (  0.0000000  0.0000000  1.0000000 )
                  (  0.0000000 -1.0000000  0.0000000 )


      isym = 41     inv. 120 deg rotation - cart. axis [-1,-1,-1]

 cryst.   s(41) = (     0          0         -1      )
                  (    -1          0          0      )
                  (     0         -1          0      )

 cart.    s(41) = (  0.0000000 -1.0000000  0.0000000 )
                  (  0.0000000  0.0000000 -1.0000000 )
                  ( -1.0000000  0.0000000  0.0000000 )


      isym = 42     inv. 120 deg rotation - cart. axis [-1,1,1]  

 cryst.   s(42) = (     0          0          1      )
                  (     1          0          0      )
                  (     0         -1          0      )

 cart.    s(42) = (  0.0000000  1.0000000  0.0000000 )
                  (  0.0000000  0.0000000 -1.0000000 )
                  (  1.0000000  0.0000000  0.0000000 )


      isym = 43     inv. 120 deg rotation - cart. axis [1,1,-1]  

 cryst.   s(43) = (     0          0          1      )
                  (    -1          0          0      )
                  (     0          1          0      )

 cart.    s(43) = (  0.0000000 -1.0000000  0.0000000 )
                  (  0.0000000  0.0000000  1.0000000 )
                  (  1.0000000  0.0000000  0.0000000 )


      isym = 44     inv. 120 deg rotation - cart. axis [1,-1,1]  

 cryst.   s(44) = (     0          0         -1      )
                  (     1          0          0      )
                  (     0          1          0      )

 cart.    s(44) = (  0.0000000  1.0000000  0.0000000 )
                  (  0.0000000  0.0000000  1.0000000 )
                  ( -1.0000000  0.0000000  0.0000000 )


      isym = 45     inv. 120 deg rotation - cart. axis [1,1,1]   

 cryst.   s(45) = (     0         -1          0      )
                  (     0          0         -1      )
                  (    -1          0          0      )

 cart.    s(45) = (  0.0000000  0.0000000 -1.0000000 )
                  ( -1.0000000  0.0000000  0.0000000 )
                  (  0.0000000 -1.0000000  0.0000000 )


      isym = 46     inv. 120 deg rotation - cart. axis [-1,1,-1] 

 cryst.   s(46) = (     0          1          0      )
                  (     0          0          1      )
                  (    -1          0          0      )

 cart.    s(46) = (  0.0000000  0.0000000 -1.0000000 )
                  (  1.0000000  0.0000000  0.0000000 )
                  (  0.0000000  1.0000000  0.0000000 )


      isym = 47     inv. 120 deg rotation - cart. axis [1,-1,-1] 

 cryst.   s(47) = (     0          1          0      )
                  (     0          0         -1      )
                  (     1          0          0      )

 cart.    s(47) = (  0.0000000  0.0000000  1.0000000 )
                  (  1.0000000  0.0000000  0.0000000 )
                  (  0.0000000 -1.0000000  0.0000000 )


      isym = 48     inv. 120 deg rotation - cart. axis [-1,-1,1] 

 cryst.   s(48) = (     0         -1          0      )
                  (     0          0          1      )
                  (     1          0          0      )

 cart.    s(48) = (  0.0000000  0.0000000  1.0000000 )
                  ( -1.0000000  0.0000000  0.0000000 )
                  (  0.0000000  1.0000000  0.0000000 )


   Cartesian axes

     site n.     atom                  positions (alat units)
         1           Ni  tau(   1) = (   0.0000000   0.0000000   0.0000000  )
         2           Ni  tau(   2) = (   0.0000000   0.5000000   0.5000000  )
         3           Ni  tau(   3) = (   0.5000000   0.0000000   0.5000000  )
         4           Ni  tau(   4) = (   0.5000000   0.5000000   0.0000000  )

   Crystallographic axes

     site n.     atom                  positions (cryst. coord.)
         1           Ni  tau(   1) = (  0.0000000  0.0000000  0.0000000  )
         2           Ni  tau(   2) = (  0.0000000  0.5000000  0.5000000  )
         3           Ni  tau(   3) = (  0.5000000  0.0000000  0.5000000  )
         4           Ni  tau(   4) = (  0.5000000  0.5000000  0.0000000  )

     number of k points=    84  Gaussian smearing, width (Ry)=  0.0100
                       cart. coord. in units 2pi/alat
        k(    1) = (   0.0000000   0.0000000   0.0000000), wk =   0.0005787
        k(    2) = (   0.0000000   0.0000000   0.0833333), wk =   0.0034722
        k(    3) = (   0.0000000   0.0000000   0.1666667), wk =   0.0034722
        k(    4) = (   0.0000000   0.0000000   0.2500000), wk =   0.0034722
        k(    5) = (   0.0000000   0.0000000   0.3333333), wk =   0.0034722
        k(    6) = (   0.0000000   0.0000000   0.4166667), wk =   0.0034722
        k(    7) = (   0.0000000   0.0000000  -0.5000000), wk =   0.0017361
        k(    8) = (   0.0000000   0.0833333   0.0833333), wk =   0.0069444
        k(    9) = (   0.0000000   0.0833333   0.1666667), wk =   0.0138889
        k(   10) = (   0.0000000   0.0833333   0.2500000), wk =   0.0138889
        k(   11) = (   0.0000000   0.0833333   0.3333333), wk =   0.0138889
        k(   12) = (   0.0000000   0.0833333   0.4166667), wk =   0.0138889
        k(   13) = (   0.0000000   0.0833333  -0.5000000), wk =   0.0069444
        k(   14) = (   0.0000000   0.1666667   0.1666667), wk =   0.0069444
        k(   15) = (   0.0000000   0.1666667   0.2500000), wk =   0.0138889
        k(   16) = (   0.0000000   0.1666667   0.3333333), wk =   0.0138889
        k(   17) = (   0.0000000   0.1666667   0.4166667), wk =   0.0138889
        k(   18) = (   0.0000000   0.1666667  -0.5000000), wk =   0.0069444
        k(   19) = (   0.0000000   0.2500000   0.2500000), wk =   0.0069444
        k(   20) = (   0.0000000   0.2500000   0.3333333), wk =   0.0138889
        k(   21) = (   0.0000000   0.2500000   0.4166667), wk =   0.0138889
        k(   22) = (   0.0000000   0.2500000  -0.5000000), wk =   0.0069444
        k(   23) = (   0.0000000   0.3333333   0.3333333), wk =   0.0069444
        k(   24) = (   0.0000000   0.3333333   0.4166667), wk =   0.0138889
        k(   25) = (   0.0000000   0.3333333  -0.5000000), wk =   0.0069444
        k(   26) = (   0.0000000   0.4166667   0.4166667), wk =   0.0069444
        k(   27) = (   0.0000000   0.4166667  -0.5000000), wk =   0.0069444
        k(   28) = (   0.0000000  -0.5000000  -0.5000000), wk =   0.0017361
        k(   29) = (   0.0833333   0.0833333   0.0833333), wk =   0.0046296
        k(   30) = (   0.0833333   0.0833333   0.1666667), wk =   0.0138889
        k(   31) = (   0.0833333   0.0833333   0.2500000), wk =   0.0138889
        k(   32) = (   0.0833333   0.0833333   0.3333333), wk =   0.0138889
        k(   33) = (   0.0833333   0.0833333   0.4166667), wk =   0.0138889
        k(   34) = (   0.0833333   0.0833333  -0.5000000), wk =   0.0069444
        k(   35) = (   0.0833333   0.1666667   0.1666667), wk =   0.0138889
        k(   36) = (   0.0833333   0.1666667   0.2500000), wk =   0.0277778
        k(   37) = (   0.0833333   0.1666667   0.3333333), wk =   0.0277778
        k(   38) = (   0.0833333   0.1666667   0.4166667), wk =   0.0277778
        k(   39) = (   0.0833333   0.1666667  -0.5000000), wk =   0.0138889
        k(   40) = (   0.0833333   0.2500000   0.2500000), wk =   0.0138889
        k(   41) = (   0.0833333   0.2500000   0.3333333), wk =   0.0277778
        k(   42) = (   0.0833333   0.2500000   0.4166667), wk =   0.0277778
        k(   43) = (   0.0833333   0.2500000  -0.5000000), wk =   0.0138889
        k(   44) = (   0.0833333   0.3333333   0.3333333), wk =   0.0138889
        k(   45) = (   0.0833333   0.3333333   0.4166667), wk =   0.0277778
        k(   46) = (   0.0833333   0.3333333  -0.5000000), wk =   0.0138889
        k(   47) = (   0.0833333   0.4166667   0.4166667), wk =   0.0138889
        k(   48) = (   0.0833333   0.4166667  -0.5000000), wk =   0.0138889
        k(   49) = (   0.0833333  -0.5000000  -0.5000000), wk =   0.0034722
        k(   50) = (   0.1666667   0.1666667   0.1666667), wk =   0.0046296
        k(   51) = (   0.1666667   0.1666667   0.2500000), wk =   0.0138889
        k(   52) = (   0.1666667   0.1666667   0.3333333), wk =   0.0138889
        k(   53) = (   0.1666667   0.1666667   0.4166667), wk =   0.0138889
        k(   54) = (   0.1666667   0.1666667  -0.5000000), wk =   0.0069444
        k(   55) = (   0.1666667   0.2500000   0.2500000), wk =   0.0138889
        k(   56) = (   0.1666667   0.2500000   0.3333333), wk =   0.0277778
        k(   57) = (   0.1666667   0.2500000   0.4166667), wk =   0.0277778
        k(   58) = (   0.1666667   0.2500000  -0.5000000), wk =   0.0138889
        k(   59) = (   0.1666667   0.3333333   0.3333333), wk =   0.0138889
        k(   60) = (   0.1666667   0.3333333   0.4166667), wk =   0.0277778
        k(   61) = (   0.1666667   0.3333333  -0.5000000), wk =   0.0138889
        k(   62) = (   0.1666667   0.4166667   0.4166667), wk =   0.0138889
        k(   63) = (   0.1666667   0.4166667  -0.5000000), wk =   0.0138889
        k(   64) = (   0.1666667  -0.5000000  -0.5000000), wk =   0.0034722
        k(   65) = (   0.2500000   0.2500000   0.2500000), wk =   0.0046296
        k(   66) = (   0.2500000   0.2500000   0.3333333), wk =   0.0138889
        k(   67) = (   0.2500000   0.2500000   0.4166667), wk =   0.0138889
        k(   68) = (   0.2500000   0.2500000  -0.5000000), wk =   0.0069444
        k(   69) = (   0.2500000   0.3333333   0.3333333), wk =   0.0138889
        k(   70) = (   0.2500000   0.3333333   0.4166667), wk =   0.0277778
        k(   71) = (   0.2500000   0.3333333  -0.5000000), wk =   0.0138889
        k(   72) = (   0.2500000   0.4166667   0.4166667), wk =   0.0138889
        k(   73) = (   0.2500000   0.4166667  -0.5000000), wk =   0.0138889
        k(   74) = (   0.2500000  -0.5000000  -0.5000000), wk =   0.0034722
        k(   75) = (   0.3333333   0.3333333   0.3333333), wk =   0.0046296
        k(   76) = (   0.3333333   0.3333333   0.4166667), wk =   0.0138889
        k(   77) = (   0.3333333   0.3333333  -0.5000000), wk =   0.0069444
        k(   78) = (   0.3333333   0.4166667   0.4166667), wk =   0.0138889
        k(   79) = (   0.3333333   0.4166667  -0.5000000), wk =   0.0138889
        k(   80) = (   0.3333333  -0.5000000  -0.5000000), wk =   0.0034722
        k(   81) = (   0.4166667   0.4166667   0.4166667), wk =   0.0046296
        k(   82) = (   0.4166667   0.4166667  -0.5000000), wk =   0.0069444
        k(   83) = (   0.4166667  -0.5000000  -0.5000000), wk =   0.0034722
        k(   84) = (  -0.5000000  -0.5000000  -0.5000000), wk =   0.0005787

                       cryst. coord.
        k(    1) = (   0.0000000   0.0000000   0.0000000), wk =   0.0005787
        k(    2) = (   0.0000000   0.0000000   0.0833333), wk =   0.0034722
        k(    3) = (   0.0000000   0.0000000   0.1666667), wk =   0.0034722
        k(    4) = (   0.0000000   0.0000000   0.2500000), wk =   0.0034722
        k(    5) = (   0.0000000   0.0000000   0.3333333), wk =   0.0034722
        k(    6) = (   0.0000000   0.0000000   0.4166667), wk =   0.0034722
        k(    7) = (   0.0000000   0.0000000  -0.5000000), wk =   0.0017361
        k(    8) = (   0.0000000   0.0833333   0.0833333), wk =   0.0069444
        k(    9) = (   0.0000000   0.0833333   0.1666667), wk =   0.0138889
        k(   10) = (   0.0000000   0.0833333   0.2500000), wk =   0.0138889
        k(   11) = (   0.0000000   0.0833333   0.3333333), wk =   0.0138889
        k(   12) = (   0.0000000   0.0833333   0.4166667), wk =   0.0138889
        k(   13) = (   0.0000000   0.0833333  -0.5000000), wk =   0.0069444
        k(   14) = (   0.0000000   0.1666667   0.1666667), wk =   0.0069444
        k(   15) = (   0.0000000   0.1666667   0.2500000), wk =   0.0138889
        k(   16) = (   0.0000000   0.1666667   0.3333333), wk =   0.0138889
        k(   17) = (   0.0000000   0.1666667   0.4166667), wk =   0.0138889
        k(   18) = (   0.0000000   0.1666667  -0.5000000), wk =   0.0069444
        k(   19) = (   0.0000000   0.2500000   0.2500000), wk =   0.0069444
        k(   20) = (   0.0000000   0.2500000   0.3333333), wk =   0.0138889
        k(   21) = (   0.0000000   0.2500000   0.4166667), wk =   0.0138889
        k(   22) = (   0.0000000   0.2500000  -0.5000000), wk =   0.0069444
        k(   23) = (   0.0000000   0.3333333   0.3333333), wk =   0.0069444
        k(   24) = (   0.0000000   0.3333333   0.4166667), wk =   0.0138889
        k(   25) = (   0.0000000   0.3333333  -0.5000000), wk =   0.0069444
        k(   26) = (   0.0000000   0.4166667   0.4166667), wk =   0.0069444
        k(   27) = (   0.0000000   0.4166667  -0.5000000), wk =   0.0069444
        k(   28) = (   0.0000000  -0.5000000  -0.5000000), wk =   0.0017361
        k(   29) = (   0.0833333   0.0833333   0.0833333), wk =   0.0046296
        k(   30) = (   0.0833333   0.0833333   0.1666667), wk =   0.0138889
        k(   31) = (   0.0833333   0.0833333   0.2500000), wk =   0.0138889
        k(   32) = (   0.0833333   0.0833333   0.3333333), wk =   0.0138889
        k(   33) = (   0.0833333   0.0833333   0.4166667), wk =   0.0138889
        k(   34) = (   0.0833333   0.0833333  -0.5000000), wk =   0.0069444
        k(   35) = (   0.0833333   0.1666667   0.1666667), wk =   0.0138889
        k(   36) = (   0.0833333   0.1666667   0.2500000), wk =   0.0277778
        k(   37) = (   0.0833333   0.1666667   0.3333333), wk =   0.0277778
        k(   38) = (   0.0833333   0.1666667   0.4166667), wk =   0.0277778
        k(   39) = (   0.0833333   0.1666667  -0.5000000), wk =   0.0138889
        k(   40) = (   0.0833333   0.2500000   0.2500000), wk =   0.0138889
        k(   41) = (   0.0833333   0.2500000   0.3333333), wk =   0.0277778
        k(   42) = (   0.0833333   0.2500000   0.4166667), wk =   0.0277778
        k(   43) = (   0.0833333   0.2500000  -0.5000000), wk =   0.0138889
        k(   44) = (   0.0833333   0.3333333   0.3333333), wk =   0.0138889
        k(   45) = (   0.0833333   0.3333333   0.4166667), wk =   0.0277778
        k(   46) = (   0.0833333   0.3333333  -0.5000000), wk =   0.0138889
        k(   47) = (   0.0833333   0.4166667   0.4166667), wk =   0.0138889
        k(   48) = (   0.0833333   0.4166667  -0.5000000), wk =   0.0138889
        k(   49) = (   0.0833333  -0.5000000  -0.5000000), wk =   0.0034722
        k(   50) = (   0.1666667   0.1666667   0.1666667), wk =   0.0046296
        k(   51) = (   0.1666667   0.1666667   0.2500000), wk =   0.0138889
        k(   52) = (   0.1666667   0.1666667   0.3333333), wk =   0.0138889
        k(   53) = (   0.1666667   0.1666667   0.4166667), wk =   0.0138889
        k(   54) = (   0.1666667   0.1666667  -0.5000000), wk =   0.0069444
        k(   55) = (   0.1666667   0.2500000   0.2500000), wk =   0.0138889
        k(   56) = (   0.1666667   0.2500000   0.3333333), wk =   0.0277778
        k(   57) = (   0.1666667   0.2500000   0.4166667), wk =   0.0277778
        k(   58) = (   0.1666667   0.2500000  -0.5000000), wk =   0.0138889
        k(   59) = (   0.1666667   0.3333333   0.3333333), wk =   0.0138889
        k(   60) = (   0.1666667   0.3333333   0.4166667), wk =   0.0277778
        k(   61) = (   0.1666667   0.3333333  -0.5000000), wk =   0.0138889
        k(   62) = (   0.1666667   0.4166667   0.4166667), wk =   0.0138889
        k(   63) = (   0.1666667   0.4166667  -0.5000000), wk =   0.0138889
        k(   64) = (   0.1666667  -0.5000000  -0.5000000), wk =   0.0034722
        k(   65) = (   0.2500000   0.2500000   0.2500000), wk =   0.0046296
        k(   66) = (   0.2500000   0.2500000   0.3333333), wk =   0.0138889
        k(   67) = (   0.2500000   0.2500000   0.4166667), wk =   0.0138889
        k(   68) = (   0.2500000   0.2500000  -0.5000000), wk =   0.0069444
        k(   69) = (   0.2500000   0.3333333   0.3333333), wk =   0.0138889
        k(   70) = (   0.2500000   0.3333333   0.4166667), wk =   0.0277778
        k(   71) = (   0.2500000   0.3333333  -0.5000000), wk =   0.0138889
        k(   72) = (   0.2500000   0.4166667   0.4166667), wk =   0.0138889
        k(   73) = (   0.2500000   0.4166667  -0.5000000), wk =   0.0138889
        k(   74) = (   0.2500000  -0.5000000  -0.5000000), wk =   0.0034722
        k(   75) = (   0.3333333   0.3333333   0.3333333), wk =   0.0046296
        k(   76) = (   0.3333333   0.3333333   0.4166667), wk =   0.0138889
        k(   77) = (   0.3333333   0.3333333  -0.5000000), wk =   0.0069444
        k(   78) = (   0.3333333   0.4166667   0.4166667), wk =   0.0138889
        k(   79) = (   0.3333333   0.4166667  -0.5000000), wk =   0.0138889
        k(   80) = (   0.3333333  -0.5000000  -0.5000000), wk =   0.0034722
        k(   81) = (   0.4166667   0.4166667   0.4166667), wk =   0.0046296
        k(   82) = (   0.4166667   0.4166667  -0.5000000), wk =   0.0069444
        k(   83) = (   0.4166667  -0.5000000  -0.5000000), wk =   0.0034722
        k(   84) = (  -0.5000000  -0.5000000  -0.5000000), wk =   0.0005787

     Dense  grid:   108143 G-vectors     FFT dimensions: (  60,  60,  60)

     Smooth grid:    70319 G-vectors     FFT dimensions: (  54,  54,  54)

     Dynamical RAM for                 wfc:       0.41 MB

     Dynamical RAM for     wfc (w. buffer):      34.97 MB

     Dynamical RAM for           str. fact:       0.12 MB

     Dynamical RAM for           local pot:       0.00 MB

     Dynamical RAM for          nlocal pot:       0.69 MB

     Dynamical RAM for                qrad:       2.27 MB

     Dynamical RAM for          rho,v,vnew:       1.53 MB

     Dynamical RAM for               rhoin:       0.51 MB

     Dynamical RAM for            rho*nmix:       3.77 MB

     Dynamical RAM for           G-vectors:       0.48 MB

     Dynamical RAM for          h,s,v(r/c):       0.34 MB

     Dynamical RAM for          <psi|beta>:       0.05 MB

     Dynamical RAM for                 psi:       0.82 MB

     Dynamical RAM for                hpsi:       0.82 MB

     Dynamical RAM for                spsi:       0.82 MB

     Dynamical RAM for      wfcinit/wfcrot:       0.87 MB

     Dynamical RAM for           addusdens:      11.37 MB

     Estimated static dynamical RAM per process >      41.63 MB

     Estimated max dynamical RAM per process >      56.77 MB

     Estimated total dynamical RAM >       1.50 GB
     Generating pointlists ...
     new r_m :   0.2917 (alat units)  1.9155 (a.u.) for type    1

     The initial density is read from file :
     out/Ni.save/charge-density

     Starting wfcs from file
     Checking if some PAW data can be deallocated... 

     total cpu time spent up to now is        1.0 secs

     Self-consistent Calculation

     iteration #  1     ecut=   150.00 Ry     beta= 0.70
     Davidson diagonalization with overlap

---- Real-time Memory Report at c_bands before calling an iterative solver
            82 MiB given to the printing process from OS
             0 MiB allocation reported by mallinfo(arena+hblkhd)
        100641 MiB available memory on the node where the printing process lives
------------------
     ethr =  1.00E-05,  avg # of iterations =  1.9

     Threshold (ethr) on eigenvalues was too large:
     Diagonalizing with lowered threshold

     Davidson diagonalization with overlap

---- Real-time Memory Report at c_bands before calling an iterative solver
           109 MiB given to the printing process from OS
             0 MiB allocation reported by mallinfo(arena+hblkhd)
        100027 MiB available memory on the node where the printing process lives
------------------
     ethr =  3.31E-08,  avg # of iterations =  1.0

     total cpu time spent up to now is       10.5 secs

     total energy              =   -1716.65628623 Ry
     estimated scf accuracy    <       0.00002388 Ry

     total magnetization       =     2.57 Bohr mag/cell
     absolute magnetization    =     2.93 Bohr mag/cell

     iteration #  2     ecut=   150.00 Ry     beta= 0.70
     Davidson diagonalization with overlap

---- Real-time Memory Report at c_bands before calling an iterative solver
           112 MiB given to the printing process from OS
             0 MiB allocation reported by mallinfo(arena+hblkhd)
         99956 MiB available memory on the node where the printing process lives
------------------
     ethr =  3.32E-08,  avg # of iterations =  2.0

     total cpu time spent up to now is       15.5 secs

     total energy              =   -1716.65627183 Ry
     estimated scf accuracy    <       0.00019525 Ry

     total magnetization       =     2.56 Bohr mag/cell
     absolute magnetization    =     2.91 Bohr mag/cell

     iteration #  3     ecut=   150.00 Ry     beta= 0.70
     Davidson diagonalization with overlap

---- Real-time Memory Report at c_bands before calling an iterative solver
           114 MiB given to the printing process from OS
             0 MiB allocation reported by mallinfo(arena+hblkhd)
         99944 MiB available memory on the node where the printing process lives
------------------
     ethr =  3.32E-08,  avg # of iterations =  2.0

     total cpu time spent up to now is       20.6 secs

     total energy              =   -1716.65629031 Ry
     estimated scf accuracy    <       0.00005269 Ry

     total magnetization       =     2.56 Bohr mag/cell
     absolute magnetization    =     2.91 Bohr mag/cell

     iteration #  4     ecut=   150.00 Ry     beta= 0.70
     Davidson diagonalization with overlap

---- Real-time Memory Report at c_bands before calling an iterative solver
           115 MiB given to the printing process from OS
             0 MiB allocation reported by mallinfo(arena+hblkhd)
         99938 MiB available memory on the node where the printing process lives
------------------
     ethr =  3.32E-08,  avg # of iterations =  1.6

     total cpu time spent up to now is       26.1 secs

     total energy              =   -1716.65629385 Ry
     estimated scf accuracy    <       0.00001157 Ry

     total magnetization       =     2.55 Bohr mag/cell
     absolute magnetization    =     2.90 Bohr mag/cell

     iteration #  5     ecut=   150.00 Ry     beta= 0.70
     Davidson diagonalization with overlap

---- Real-time Memory Report at c_bands before calling an iterative solver
           116 MiB given to the printing process from OS
             0 MiB allocation reported by mallinfo(arena+hblkhd)
         99926 MiB available memory on the node where the printing process lives
------------------
     ethr =  1.61E-08,  avg # of iterations =  1.6

     total cpu time spent up to now is       31.3 secs

     total energy              =   -1716.65629584 Ry
     estimated scf accuracy    <       0.00000015 Ry

     total magnetization       =     2.55 Bohr mag/cell
     absolute magnetization    =     2.90 Bohr mag/cell

     iteration #  6     ecut=   150.00 Ry     beta= 0.70
     Davidson diagonalization with overlap

---- Real-time Memory Report at c_bands before calling an iterative solver
           117 MiB given to the printing process from OS
             0 MiB allocation reported by mallinfo(arena+hblkhd)
         99915 MiB available memory on the node where the printing process lives
------------------
     ethr =  2.11E-10,  avg # of iterations =  3.1

     total cpu time spent up to now is       38.1 secs

     total energy              =   -1716.65629595 Ry
     estimated scf accuracy    <       0.00000012 Ry

     total magnetization       =     2.55 Bohr mag/cell
     absolute magnetization    =     2.89 Bohr mag/cell

     iteration #  7     ecut=   150.00 Ry     beta= 0.70
     Davidson diagonalization with overlap

---- Real-time Memory Report at c_bands before calling an iterative solver
           118 MiB given to the printing process from OS
             0 MiB allocation reported by mallinfo(arena+hblkhd)
         99906 MiB available memory on the node where the printing process lives
------------------
     ethr =  1.61E-10,  avg # of iterations =  1.5
 
     Magnetic moment per site  (integrated on atomic sphere of radius R)
     atom   1 (R=0.292)  charge= 16.6726  magn=  0.6737
     atom   2 (R=0.292)  charge= 16.6727  magn=  0.6737
     atom   3 (R=0.292)  charge= 16.6727  magn=  0.6737
     atom   4 (R=0.292)  charge= 16.6727  magn=  0.6737

     total cpu time spent up to now is       43.0 secs

     End of self-consistent calculation

 ------ SPIN UP ------------


          k = 0.0000 0.0000 0.0000 (  8733 PWs)   bands (ev):

   -84.9450 -84.8924 -84.8924 -84.8924 -45.4189 -45.4189 -45.4189 -45.2763
   -45.2763 -45.2763 -45.2763 -45.2763 -45.2763 -45.1832 -45.1832 -45.1832
     9.4373  13.8969  13.8969  13.8969  14.3845  14.3845  14.3845  16.2656
    16.2656  16.2656  17.5191  17.5191  18.2760  18.2760  18.2760  18.3596
    18.3596  18.3596  18.3596  18.3596  18.3596  21.2006  21.2006  21.2006
    28.3060  28.3061  28.3061

     occupation numbers 
     1.0000   1.0000   1.0000   1.0000   1.0000   1.0000   1.0000   1.0000
     1.0000   1.0000   1.0000   1.0000   1.0000   1.0000   1.0000   1.0000
     1.0000   1.0000   1.0000   1.0000   1.0000   1.0000   1.0000   1.0000
     1.0000   1.0000   1.0000   1.0000   1.0000   1.0000   1.0000   1.0000
     1.0000   1.0000   1.0000   1.0000   1.0000   0.0000   0.0000   0.0000
     0.0000   0.0000   0.0000

          k = 0.0000 0.0000 0.0833 (  8797 PWs)   bands (ev):

   -84.9441 -84.8933 -84.8924 -84.8924 -45.4165 -45.4165 -45.4150 -45.2788
   -45.2788 -45.2765 -45.2764 -45.2747 -45.2747 -45.1874 -45.1848 -45.1848
     9.5308  13.9043  13.9465  13.9466  14.4140  14.4170  14.4170  16.2306
    16.2925  16.2925  17.4868  17.5316  18.1329  18.1329  18.2338  18.2339
    18.2627  18.3109  18.3109  18.3596  18.3597  20.7213  21.5044  21.5044
    28.3265  28.3265  28.9445

     occupation numbers 
     1.0000   1.0000   1.0000   1.0000   1.0000   1.0000   1.0000   1.0000
     1.0000   1.0000   1.0000   1.0000   1.0000   1.0000   1.0000   1.0000
     1.0000   1.0000   1.0000   1.0000   1.0000   1.0000   1.0000   1.0000
     1.0000   1.0000   1.0000   1.0000   1.0000   1.0000   1.0000   1.0000
     1.0000   1.0000   1.0000   1.0000   1.0000   0.0000   0.0000   0.0000
     0.0000   0.0000   0.0000

          k = 0.0000 0.0000 0.1667 (  8777 PWs)   bands (ev):

   -84.9414 -84.8959 -84.8924 -84.8924 -45.4094 -45.4094 -45.4036 -45.2859
   -45.2859 -45.2768 -45.2767 -45.2701 -45.2701 -45.1996 -45.1895 -45.1895
     9.8086  13.9096  14.0887  14.0887  14.5007  14.5145  14.5145  16.1286
    16.3725  16.3725  17.3935  17.5683  17.6307  17.6307  18.1117  18.1118
    18.1720  18.1720  18.2237  18.3599  18.3599  19.6503  22.2376  22.2376
    28.3903  28.3903  30.5029

     occupation numbers 
     1.0000   1.0000   1.0000   1.0000   1.0000   1.0000   1.0000   1.0000
     1.0000   1.0000   1.0000   1.0000   1.0000   1.0000   1.0000   1.0000
     1.0000   1.0000   1.0000   1.0000   1.0000   1.0000   1.0000   1.0000
     1.0000   1.0000   1.0000   1.0000   1.0000   1.0000   1.0000   1.0000
     1.0000   1.0000   1.0000   1.0000   1.0000   0.0000   0.0000   0.0000
     0.0000   0.0000   0.0000

          k = 0.0000 0.0000 0.2500 (  8778 PWs)   bands (ev):

   -84.9373 -84.9001 -84.8924 -84.8924 -45.3981 -45.3981 -45.3855 -45.2972
   -45.2972 -45.2772 -45.2772 -45.2627 -45.2627 -45.2189 -45.1969 -45.1969
    10.2617  13.8547  14.3015  14.3015  14.6401  14.6781  14.6781  15.9684
    16.5038  16.5038  17.0616  17.0616  17.2514  17.6269  17.9251  17.9251
    17.9622  17.9622  18.1619  18.3601  18.3602  18.4918  23.1896  23.1896
    28.5031  28.5032  30.7797

     occupation numbers 
     1.0000   1.0000   1.0000   1.0000   1.0000   1.0000   1.0000   1.0000
     1.0000   1.0000   1.0000   1.0000   1.0000   1.0000   1.0000   1.0000
     1.0000   1.0000   1.0000   1.0000   1.0000   1.0000   1.0000   1.0000
     1.0000   1.0000   1.0000   1.0000   1.0000   1.0000   1.0000   1.0000
     1.0000   1.0000   1.0000   1.0000   1.0000   0.9998   0.0000   0.0000
     0.0000   0.0000   0.0000

          k = 0.0000 0.0000 0.3333 (  8770 PWs)   bands (ev):

   -84.9318 -84.9055 -84.8924 -84.8923 -45.3833 -45.3833 -45.3616 -45.3120
   -45.3120 -45.2776 -45.2776 -45.2530 -45.2530 -45.2439 -45.2065 -45.2065
    10.8725  13.6287  14.5438  14.5438  14.8245  14.9091  14.9091  15.7632
    16.5118  16.5118  16.6828  16.6828  17.0838  17.5577  17.7037  17.7065
    17.7065  17.7076  17.7076  18.0820  18.3604  18.3605  24.2713  24.2713
    28.6690  28.6690  29.3829

     occupation numbers 
     1.0000   1.0000   1.0000   1.0000   1.0000   1.0000   1.0000   1.0000
     1.0000   1.0000   1.0000   1.0000   1.0000   1.0000   1.0000   1.0000
     1.0000   1.0000   1.0000   1.0000   1.0000   1.0000   1.0000   1.0000
     1.0000   1.0000   1.0000   1.0000   1.0000   1.0000   1.0000   1.0000
     1.0000   1.0000   1.0000   1.0000   1.0000   1.0000   0.0000   0.0000
     0.0000   0.0000   0.0000

          k = 0.0000 0.0000 0.4167 (  8782 PWs)   bands (ev):

   -84.9255 -84.9119 -84.8924 -84.8923 -45.3662 -45.3662 -45.3336 -45.3292
   -45.3292 -45.2780 -45.2779 -45.2727 -45.2418 -45.2418 -45.2178 -45.2178
    11.6070  13.1272  14.7484  14.7484  15.0434  15.2085  15.2085  15.5291
    16.0128  16.0128  16.9036  16.9036  16.9322  17.0259  17.4308  17.4308
    17.5201  17.5201  17.7937  17.9896  18.3606  18.3607  25.4472  25.4472
    28.0156  28.0156  28.8676

     occupation numbers 
     1.0000   1.0000   1.0000   1.0000   1.0000   1.0000   1.0000   1.0000
     1.0000   1.0000   1.0000   1.0000   1.0000   1.0000   1.0000   1.0000
     1.0000   1.0000   1.0000   1.0000   1.0000   1.0000   1.0000   1.0000
     1.0000   1.0000   1.0000   1.0000   1.0000   1.0000   1.0000   1.0000
     1.0000   1.0000   1.0000   1.0000   1.0000   1.0000   0.0000   0.0000
     0.0000   0.0000   0.0000

          k = 0.0000 0.0000-0.5000 (  8778 PWs)   bands (ev):

   -84.9187 -84.9186 -84.8924 -84.8923 -45.3477 -45.3477 -45.3477 -45.3477
   -45.3033 -45.3033 -45.2781 -45.2780 -45.2298 -45.2298 -45.2298 -45.2298
    12.3996  12.3996  14.8314  14.8314  15.2834  15.2835  15.5768  15.5768
    15.5768  15.5768  16.8700  16.8700  17.1573  17.1573  17.1573  17.1573
    17.4432  17.4432  17.8912  17.8912  18.3607  18.3608  26.6994  26.6994
    26.6994  26.6994  28.9815

     occupation numbers 
     1.0000   1.0000   1.0000   1.0000   1.0000   1.0000   1.0000   1.0000
     1.0000   1.0000   1.0000   1.0000   1.0000   1.0000   1.0000   1.0000
     1.0000   1.0000   1.0000   1.0000   1.0000   1.0000   1.0000   1.0000
     1.0000   1.0000   1.0000   1.0000   1.0000   1.0000   1.0000   1.0000
     1.0000   1.0000   1.0000   1.0000   1.0000   1.0000   0.0000   0.0000
     0.0000   0.0000   0.0000

          k = 0.0000 0.0833 0.0833 (  8804 PWs)   bands (ev):

   -84.9432 -84.8933 -84.8933 -84.8924 -45.4141 -45.4128 -45.4128 -45.2836
   -45.2772 -45.2771 -45.2748 -45.2748 -45.2740 -45.1937 -45.1864 -45.1841
     9.6238  13.9548  13.9548  13.9949  14.4458  14.4458  14.4486  16.2106
    16.3052  16.3169  17.4776  17.5235  17.9705  18.0553  18.0553  18.1936
    18.2380  18.2381  18.3109  18.3109  18.3288  21.0263  21.0263  21.7752
    28.3449  28.9756  28.9756

     occupation numbers 
     1.0000   1.0000   1.0000   1.0000   1.0000   1.0000   1.0000   1.0000
     1.0000   1.0000   1.0000   1.0000   1.0000   1.0000   1.0000   1.0000
     1.0000   1.0000   1.0000   1.0000   1.0000   1.0000   1.0000   1.0000
     1.0000   1.0000   1.0000   1.0000   1.0000   1.0000   1.0000   1.0000
     1.0000   1.0000   1.0000   1.0000   1.0000   0.0000   0.0000   0.0000
     0.0000   0.0000   0.0000

          k = 0.0000 0.0833 0.1667 (  8769 PWs)   bands (ev):

   -84.9406 -84.8959 -84.8932 -84.8925 -45.4070 -45.4064 -45.4021 -45.2922
   -45.2842 -45.2748 -45.2725 -45.2725 -45.2698 -45.2072 -45.1911 -45.1871
     9.8999  13.9629  14.0997  14.1333  14.5308  14.5416  14.5435  16.1187
    16.3775  16.3890  17.3966  17.5368  17.5461  17.5561  17.8598  18.0768
    18.1162  18.1717  18.2123  18.3107  18.3119  19.9859  21.7345  22.4573
    28.3966  29.0715  30.5465

     occupation numbers 
     1.0000   1.0000   1.0000   1.0000   1.0000   1.0000   1.0000   1.0000
     1.0000   1.0000   1.0000   1.0000   1.0000   1.0000   1.0000   1.0000
     1.0000   1.0000   1.0000   1.0000   1.0000   1.0000   1.0000   1.0000
     1.0000   1.0000   1.0000   1.0000   1.0000   1.0000   1.0000   1.0000
     1.0000   1.0000   1.0000   1.0000   1.0000   0.0000   0.0000   0.0000
     0.0000   0.0000   0.0000

          k = 0.0000 0.0833 0.2500 (  8773 PWs)   bands (ev):

   -84.9365 -84.9000 -84.8931 -84.8925 -45.3962 -45.3958 -45.3850 -45.3037
   -45.2955 -45.2748 -45.2721 -45.2650 -45.2620 -45.2265 -45.1986 -45.1938
    10.3503  13.9123  14.3174  14.3413  14.6673  14.7013  14.7021  15.9644
    16.5041  16.5064  16.9812  17.0098  17.2651  17.5480  17.6207  17.8976
    17.9317  17.9616  18.1409  18.3079  18.3104  18.9331  22.6238  23.3724
    28.4350  29.2379  29.6173

     occupation numbers 
     1.0000   1.0000   1.0000   1.0000   1.0000   1.0000   1.0000   1.0000
     1.0000   1.0000   1.0000   1.0000   1.0000   1.0000   1.0000   1.0000
     1.0000   1.0000   1.0000   1.0000   1.0000   1.0000   1.0000   1.0000
     1.0000   1.0000   1.0000   1.0000   1.0000   1.0000   1.0000   1.0000
     1.0000   1.0000   1.0000   1.0000   1.0000   0.1408   0.0000   0.0000
     0.0000   0.0000   0.0000

          k = 0.0000 0.0833 0.3333 (  8781 PWs)   bands (ev):

   -84.9311 -84.9053 -84.8930 -84.8926 -45.3828 -45.3811 -45.3626 -45.3177
   -45.3102 -45.2746 -45.2724 -45.2553 -45.2518 -45.2507 -45.2083 -45.2034
    10.9570  13.6914  14.5668  14.5819  14.8480  14.9189  14.9285  15.7649
    16.4419  16.4864  16.6433  16.6842  17.1285  17.1343  17.6886  17.7058
    17.7066  17.7153  17.9629  18.2543  18.3073  18.3100  23.6079  24.4298
    27.9583  29.0100  29.4678

     occupation numbers 
     1.0000   1.0000   1.0000   1.0000   1.0000   1.0000   1.0000   1.0000
     1.0000   1.0000   1.0000   1.0000   1.0000   1.0000   1.0000   1.0000
     1.0000   1.0000   1.0000   1.0000   1.0000   1.0000   1.0000   1.0000
     1.0000   1.0000   1.0000   1.0000   1.0000   1.0000   1.0000   1.0000
     1.0000   1.0000   1.0000   1.0000   1.0000   1.0000   0.0000   0.0000
     0.0000   0.0000   0.0000

          k = 0.0000 0.0833 0.4167 (  8804 PWs)   bands (ev):

   -84.9249 -84.9115 -84.8929 -84.8927 -45.3673 -45.3641 -45.3361 -45.3337
   -45.3273 -45.2783 -45.2743 -45.2731 -45.2440 -45.2400 -45.2197 -45.2149
    11.6863  13.1947  14.7807  14.7902  15.0622  15.1944  15.2216  15.5366
    15.9568  16.0049  16.7249  16.8096  16.9041  17.1049  17.4302  17.5100
    17.5257  17.6005  17.8080  18.0432  18.3077  18.3093  24.6525  25.5894
    26.8654  28.1396  29.1731

     occupation numbers 
     1.0000   1.0000   1.0000   1.0000   1.0000   1.0000   1.0000   1.0000
     1.0000   1.0000   1.0000   1.0000   1.0000   1.0000   1.0000   1.0000
     1.0000   1.0000   1.0000   1.0000   1.0000   1.0000   1.0000   1.0000
     1.0000   1.0000   1.0000   1.0000   1.0000   1.0000   1.0000   1.0000
     1.0000   1.0000   1.0000   1.0000   1.0000   1.0000   0.0000   0.0000
     0.0000   0.0000   0.0000

          k = 0.0000 0.0833-0.5000 (  8802 PWs)   bands (ev):

   -84.9182 -84.9182 -84.8928 -84.8928 -45.3506 -45.3505 -45.3457 -45.3457
   -45.3074 -45.3074 -45.2738 -45.2737 -45.2318 -45.2318 -45.2274 -45.2274
    12.4729  12.4729  14.8722  14.8722  15.2968  15.2968  15.5387  15.5387
    15.5811  15.5811  16.7123  16.7123  17.1571  17.1571  17.2944  17.2944
    17.4420  17.4420  17.9199  17.9200  18.3085  18.3085  25.7418  25.7418
    26.8305  26.8305  29.4835

     occupation numbers 
     1.0000   1.0000   1.0000   1.0000   1.0000   1.0000   1.0000   1.0000
     1.0000   1.0000   1.0000   1.0000   1.0000   1.0000   1.0000   1.0000
     1.0000   1.0000   1.0000   1.0000   1.0000   1.0000   1.0000   1.0000
     1.0000   1.0000   1.0000   1.0000   1.0000   1.0000   1.0000   1.0000
     1.0000   1.0000   1.0000   1.0000   1.0000   1.0000   0.0000   0.0000
     0.0000   0.0000   0.0000

          k = 0.0000 0.1667 0.1667 (  8758 PWs)   bands (ev):

   -84.9382 -84.8957 -84.8957 -84.8926 -45.4001 -45.3977 -45.3976 -45.3031
   -45.2795 -45.2794 -45.2691 -45.2690 -45.2674 -45.2227 -45.1959 -45.1868
    10.1711  14.1161  14.1162  14.2607  14.6213  14.6213  14.6304  16.0628
    16.4205  16.4370  17.2564  17.3213  17.3214  17.3672  17.5620  17.9746
    18.1025  18.1025  18.1707  18.1707  18.2372  20.6727  20.6727  23.0456
    28.3390  29.4972  30.6757

     occupation numbers 
     1.0000   1.0000   1.0000   1.0000   1.0000   1.0000   1.0000   1.0000
     1.0000   1.0000   1.0000   1.0000   1.0000   1.0000   1.0000   1.0000
     1.0000   1.0000   1.0000   1.0000   1.0000   1.0000   1.0000   1.0000
     1.0000   1.0000   1.0000   1.0000   1.0000   1.0000   1.0000   1.0000
     1.0000   1.0000   1.0000   1.0000   1.0000   0.0000   0.0000   0.0000
     0.0000   0.0000   0.0000

          k = 0.0000 0.1667 0.2500 (  8774 PWs)   bands (ev):

   -84.9342 -84.8996 -84.8954 -84.8929 -45.3905 -45.3890 -45.3836 -45.3157
   -45.2905 -45.2718 -45.2678 -45.2641 -45.2601 -45.2429 -45.2036 -45.1907
    10.6130  14.0788  14.3482  14.4534  14.7492  14.7722  14.7727  15.9392
    16.5084  16.5290  16.7707  16.8507  17.0040  17.2735  17.6334  17.8160
    17.9270  17.9599  18.0366  18.1692  18.1938  19.6034  21.4760  23.8811
    27.6163  28.9486  30.8667

     occupation numbers 
     1.0000   1.0000   1.0000   1.0000   1.0000   1.0000   1.0000   1.0000
     1.0000   1.0000   1.0000   1.0000   1.0000   1.0000   1.0000   1.0000
     1.0000   1.0000   1.0000   1.0000   1.0000   1.0000   1.0000   1.0000
     1.0000   1.0000   1.0000   1.0000   1.0000   1.0000   1.0000   1.0000
     1.0000   1.0000   1.0000   1.0000   1.0000   0.0000   0.0000   0.0000
     0.0000   0.0000   0.0000

          k = 0.0000 0.1667 0.3333 (  8791 PWs)   bands (ev):

   -84.9292 -84.9046 -84.8950 -84.8932 -45.3809 -45.3746 -45.3648 -45.3292
   -45.3050 -45.2664 -45.2663 -45.2625 -45.2618 -45.2486 -45.2136 -45.1986
    11.2073  13.8725  14.6191  14.6859  14.9180  14.9539  14.9855  15.7635
    16.2619  16.4072  16.5719  16.6812  16.6960  17.1848  17.6297  17.7041
    17.7167  17.7484  17.8924  18.1674  18.1746  18.7985  22.3402  24.8806
    26.4244  29.0814  29.8535

     occupation numbers 
     1.0000   1.0000   1.0000   1.0000   1.0000   1.0000   1.0000   1.0000
     1.0000   1.0000   1.0000   1.0000   1.0000   1.0000   1.0000   1.0000
     1.0000   1.0000   1.0000   1.0000   1.0000   1.0000   1.0000   1.0000
     1.0000   1.0000   1.0000   1.0000   1.0000   1.0000   1.0000   1.0000
     1.0000   1.0000   1.0000   1.0000   1.0000   0.6265   0.0000   0.0000
     0.0000   0.0000   0.0000

          k = 0.0000 0.1667 0.4167 (  8789 PWs)   bands (ev):

   -84.9232 -84.9105 -84.8946 -84.8937 -45.3695 -45.3579 -45.3431 -45.3424
   -45.3218 -45.2917 -45.2647 -45.2624 -45.2502 -45.2355 -45.2252 -45.2094
    11.9201  13.3904  14.8628  14.9091  15.1175  15.1570  15.2594  15.5560
    15.8126  15.9791  16.4976  16.5611  16.9097  17.2118  17.4296  17.4740
    17.5250  17.6536  17.8928  18.1658  18.1671  18.3279  23.2551  25.2809
    25.9991  28.5009  29.3948

     occupation numbers 
     1.0000   1.0000   1.0000   1.0000   1.0000   1.0000   1.0000   1.0000
     1.0000   1.0000   1.0000   1.0000   1.0000   1.0000   1.0000   1.0000
     1.0000   1.0000   1.0000   1.0000   1.0000   1.0000   1.0000   1.0000
     1.0000   1.0000   1.0000   1.0000   1.0000   1.0000   1.0000   1.0000
     1.0000   1.0000   1.0000   1.0000   1.0000   1.0000   0.0000   0.0000
     0.0000   0.0000   0.0000

          k = 0.0000 0.1667-0.5000 (  8786 PWs)   bands (ev):

   -84.9169 -84.9169 -84.8941 -84.8941 -45.3567 -45.3567 -45.3399 -45.3398
   -45.3176 -45.3176 -45.2632 -45.2632 -45.2377 -45.2377 -45.2221 -45.2221
    12.6871  12.6871  14.9867  14.9867  15.3352  15.3352  15.4354  15.4354
    15.5924  15.5924  16.4928  16.4928  17.1588  17.1588  17.3913  17.3913
    17.4275  17.4275  18.0710  18.0710  18.1652  18.1652  24.2292  24.2292
    27.2113  27.2113  29.8426

     occupation numbers 
     1.0000   1.0000   1.0000   1.0000   1.0000   1.0000   1.0000   1.0000
     1.0000   1.0000   1.0000   1.0000   1.0000   1.0000   1.0000   1.0000
     1.0000   1.0000   1.0000   1.0000   1.0000   1.0000   1.0000   1.0000
     1.0000   1.0000   1.0000   1.0000   1.0000   1.0000   1.0000   1.0000
     1.0000   1.0000   1.0000   1.0000   1.0000   1.0000   0.0000   0.0000
     0.0000   0.0000   0.0000

          k = 0.0000 0.2500 0.2500 (  8790 PWs)   bands (ev):

   -84.9307 -84.8990 -84.8989 -84.8935 -45.3809 -45.3809 -45.3783 -45.3286
   -45.2826 -45.2826 -45.2632 -45.2574 -45.2573 -45.2573 -45.2116 -45.1915
    11.0400  14.3332  14.3332  14.6187  14.8855  14.8855  14.8905  15.8674
    16.4995  16.4996  16.5183  16.5920  16.6020  17.2247  17.6860  17.7233
    17.8718  17.8718  17.9577  17.9577  18.0881  20.3244  20.3244  24.6360
    26.2424  29.0363  31.8036

     occupation numbers 
     1.0000   1.0000   1.0000   1.0000   1.0000   1.0000   1.0000   1.0000
     1.0000   1.0000   1.0000   1.0000   1.0000   1.0000   1.0000   1.0000
     1.0000   1.0000   1.0000   1.0000   1.0000   1.0000   1.0000   1.0000
     1.0000   1.0000   1.0000   1.0000   1.0000   1.0000   1.0000   1.0000
     1.0000   1.0000   1.0000   1.0000   1.0000   0.0000   0.0000   0.0000
     0.0000   0.0000   0.0000

          k = 0.0000 0.2500 0.3333 (  8796 PWs)   bands (ev):

   -84.9260 -84.9036 -84.8981 -84.8943 -45.3766 -45.3674 -45.3643 -45.3413
   -45.2966 -45.2855 -45.2722 -45.2543 -45.2528 -45.2444 -45.2220 -45.1965
    11.6121  14.1499  14.6363  14.8187  15.0336  15.0349  15.0757  15.7419
    16.0505  16.2698  16.2788  16.5105  16.7391  17.1625  17.5299  17.6720
    17.7031  17.7425  17.8855  17.9562  18.0193  19.4028  21.0877  24.9523
    25.5692  29.2926  30.4102

     occupation numbers 
     1.0000   1.0000   1.0000   1.0000   1.0000   1.0000   1.0000   1.0000
     1.0000   1.0000   1.0000   1.0000   1.0000   1.0000   1.0000   1.0000
     1.0000   1.0000   1.0000   1.0000   1.0000   1.0000   1.0000   1.0000
     1.0000   1.0000   1.0000   1.0000   1.0000   1.0000   1.0000   1.0000
     1.0000   1.0000   1.0000   1.0000   1.0000   0.0000   0.0000   0.0000
     0.0000   0.0000   0.0000

          k = 0.0000 0.2500 0.4167 (  8789 PWs)   bands (ev):

   -84.9206 -84.9090 -84.8972 -84.8952 -45.3706 -45.3527 -45.3504 -45.3480
   -45.3129 -45.3084 -45.2601 -45.2518 -45.2505 -45.2341 -45.2305 -45.2053
    12.2943  13.6924  14.9247  15.0521  15.1392  15.2069  15.3175  15.5774
    15.6608  15.9299  16.2216  16.4368  16.9329  17.1872  17.4012  17.4325
    17.4836  17.5441  17.9572  17.9818  18.0992  18.7751  21.9051  23.8079
    26.6364  29.0731  29.6765

     occupation numbers 
     1.0000   1.0000   1.0000   1.0000   1.0000   1.0000   1.0000   1.0000
     1.0000   1.0000   1.0000   1.0000   1.0000   1.0000   1.0000   1.0000
     1.0000   1.0000   1.0000   1.0000   1.0000   1.0000   1.0000   1.0000
     1.0000   1.0000   1.0000   1.0000   1.0000   1.0000   1.0000   1.0000
     1.0000   1.0000   1.0000   1.0000   1.0000   0.7143   0.0000   0.0000
     0.0000   0.0000   0.0000

          k = 0.0000 0.2500-0.5000 (  8810 PWs)   bands (ev):

   -84.9148 -84.9148 -84.8962 -84.8962 -45.3626 -45.3626 -45.3305 -45.3305
   -45.3304 -45.3304 -45.2503 -45.2503 -45.2471 -45.2471 -45.2170 -45.2170
    13.0243  13.0243  15.1129  15.1129  15.3297  15.3297  15.3932  15.3932
    15.6058  15.6058  16.3094  16.3095  17.1693  17.1694  17.3321  17.3322
    17.3761  17.3761  17.9639  17.9639  18.3757  18.3757  22.8013  22.8013
    27.8103  27.8103  30.1973

     occupation numbers 
     1.0000   1.0000   1.0000   1.0000   1.0000   1.0000   1.0000   1.0000
     1.0000   1.0000   1.0000   1.0000   1.0000   1.0000   1.0000   1.0000
     1.0000   1.0000   1.0000   1.0000   1.0000   1.0000   1.0000   1.0000
     1.0000   1.0000   1.0000   1.0000   1.0000   1.0000   1.0000   1.0000
     1.0000   1.0000   1.0000   1.0000   1.0000   1.0000   0.0000   0.0000
     0.0000   0.0000   0.0000

          k = 0.0000 0.3333 0.3333 (  8780 PWs)   bands (ev):

   -84.9219 -84.9022 -84.9022 -84.8956 -45.3691 -45.3690 -45.3519 -45.3508
   -45.3058 -45.2857 -45.2857 -45.2450 -45.2405 -45.2405 -45.2329 -45.1985
    12.1497  14.4809  14.4809  14.9302  15.1762  15.1922  15.1922  15.6838
    15.9373  15.9374  16.0784  16.4498  16.8349  17.0973  17.4017  17.5565
    17.5565  17.7057  17.7058  17.8877  18.1094  20.0517  20.0517  23.6462
    26.4416  29.6178  31.1419

     occupation numbers 
     1.0000   1.0000   1.0000   1.0000   1.0000   1.0000   1.0000   1.0000
     1.0000   1.0000   1.0000   1.0000   1.0000   1.0000   1.0000   1.0000
     1.0000   1.0000   1.0000   1.0000   1.0000   1.0000   1.0000   1.0000
     1.0000   1.0000   1.0000   1.0000   1.0000   1.0000   1.0000   1.0000
     1.0000   1.0000   1.0000   1.0000   1.0000   0.0000   0.0000   0.0000
     0.0000   0.0000   0.0000

          k = 0.0000 0.3333 0.4167 (  8796 PWs)   bands (ev):

   -84.9172 -84.9070 -84.9006 -84.8972 -45.3688 -45.3603 -45.3578 -45.3351
   -45.3254 -45.3014 -45.2730 -45.2457 -45.2399 -45.2380 -45.2266 -45.2046
    12.7830  14.0585  14.7934  15.0054  15.3250  15.3277  15.3887  15.5866
    15.6649  15.8511  16.0028  16.3418  16.9912  17.0919  17.2913  17.3783
    17.3801  17.4453  17.7170  17.7974  18.3982  19.2924  20.7641  22.5242
    27.4578  29.8236  30.0690

     occupation numbers 
     1.0000   1.0000   1.0000   1.0000   1.0000   1.0000   1.0000   1.0000
     1.0000   1.0000   1.0000   1.0000   1.0000   1.0000   1.0000   1.0000
     1.0000   1.0000   1.0000   1.0000   1.0000   1.0000   1.0000   1.0000
     1.0000   1.0000   1.0000   1.0000   1.0000   1.0000   1.0000   1.0000
     1.0000   1.0000   1.0000   1.0000   1.0000   0.0000   0.0000   0.0000
     0.0000   0.0000   0.0000

          k = 0.0000 0.3333-0.5000 (  8792 PWs)   bands (ev):

   -84.9121 -84.9120 -84.8989 -84.8989 -45.3660 -45.3660 -45.3431 -45.3430
   -45.3183 -45.3183 -45.2594 -45.2593 -45.2377 -45.2376 -45.2143 -45.2142
    13.4507  13.4507  14.9863  14.9863  15.4616  15.4616  15.4692  15.4692
    15.6136  15.6136  16.1718  16.1718  17.1996  17.1997  17.2001  17.2001
    17.2734  17.2734  17.7441  17.7441  18.7707  18.7707  21.5745  21.5746
    28.5911  28.5911  30.6617

     occupation numbers 
     1.0000   1.0000   1.0000   1.0000   1.0000   1.0000   1.0000   1.0000
     1.0000   1.0000   1.0000   1.0000   1.0000   1.0000   1.0000   1.0000
     1.0000   1.0000   1.0000   1.0000   1.0000   1.0000   1.0000   1.0000
     1.0000   1.0000   1.0000   1.0000   1.0000   1.0000   1.0000   1.0000
     1.0000   1.0000   1.0000   1.0000   0.7294   0.7294   0.0000   0.0000
     0.0000   0.0000   0.0000

          k = 0.0000 0.4167 0.4167 (  8794 PWs)   bands (ev):

   -84.9132 -84.9046 -84.9046 -84.8995 -45.3648 -45.3633 -45.3633 -45.3410
   -45.3201 -45.2880 -45.2880 -45.2591 -45.2319 -45.2253 -45.2252 -45.2078
    13.3433  14.4231  14.4232  14.8965  15.4628  15.4628  15.5371  15.5711
    15.7412  15.8406  15.8406  16.2317  17.0292  17.1004  17.1792  17.2223
    17.2223  17.4774  17.4774  17.6461  18.7700  19.8837  19.8837  21.4539
    28.4280  30.5922  30.7228

     occupation numbers 
     1.0000   1.0000   1.0000   1.0000   1.0000   1.0000   1.0000   1.0000
     1.0000   1.0000   1.0000   1.0000   1.0000   1.0000   1.0000   1.0000
     1.0000   1.0000   1.0000   1.0000   1.0000   1.0000   1.0000   1.0000
     1.0000   1.0000   1.0000   1.0000   1.0000   1.0000   1.0000   1.0000
     1.0000   1.0000   1.0000   1.0000   0.7318   0.0000   0.0000   0.0000
     0.0000   0.0000   0.0000

          k = 0.0000 0.4167-0.5000 (  8792 PWs)   bands (ev):

   -84.9089 -84.9088 -84.9021 -84.9020 -45.3658 -45.3658 -45.3539 -45.3539
   -45.3041 -45.3041 -45.2736 -45.2735 -45.2269 -45.2269 -45.2148 -45.2148
    13.9140  13.9140  14.7125  14.7125  15.5276  15.5276  15.6070  15.6070
    15.7038  15.7038  16.0574  16.0575  17.0787  17.0787  17.1410  17.1410
    17.2654  17.2654  17.5406  17.5406  19.2429  19.2429  20.5871  20.5871
    29.5220  29.5220  31.2604

     occupation numbers 
     1.0000   1.0000   1.0000   1.0000   1.0000   1.0000   1.0000   1.0000
     1.0000   1.0000   1.0000   1.0000   1.0000   1.0000   1.0000   1.0000
     1.0000   1.0000   1.0000   1.0000   1.0000   1.0000   1.0000   1.0000
     1.0000   1.0000   1.0000   1.0000   1.0000   1.0000   1.0000   1.0000
     1.0000   1.0000   1.0000   1.0000   0.0000   0.0000   0.0000   0.0000
     0.0000   0.0000   0.0000

          k = 0.0000-0.5000-0.5000 (  8836 PWs)   bands (ev):

   -84.9055 -84.9055 -84.9055 -84.9054 -45.3618 -45.3617 -45.3617 -45.3617
   -45.2889 -45.2889 -45.2889 -45.2888 -45.2191 -45.2191 -45.2191 -45.2191
    14.3507  14.3507  14.3507  14.3507  15.5786  15.5786  15.5786  15.5786
    15.9119  15.9119  15.9119  15.9119  17.0520  17.0520  17.0521  17.0521
    17.3776  17.3776  17.3776  17.3776  19.8277  19.8277  19.8278  19.8278
    30.5795  30.5795  30.5795

     occupation numbers 
     1.0000   1.0000   1.0000   1.0000   1.0000   1.0000   1.0000   1.0000
     1.0000   1.0000   1.0000   1.0000   1.0000   1.0000   1.0000   1.0000
     1.0000   1.0000   1.0000   1.0000   1.0000   1.0000   1.0000   1.0000
     1.0000   1.0000   1.0000   1.0000   1.0000   1.0000   1.0000   1.0000
     1.0000   1.0000   1.0000   1.0000   0.0000   0.0000   0.0000   0.0000
     0.0000   0.0000   0.0000

          k = 0.0833 0.0833 0.0833 (  8784 PWs)   bands (ev):

   -84.9423 -84.8933 -84.8933 -84.8932 -45.4107 -45.4107 -45.4107 -45.2817
   -45.2817 -45.2817 -45.2725 -45.2725 -45.2725 -45.2001 -45.1856 -45.1856
     9.7162  14.0039  14.0039  14.0039  14.4769  14.4769  14.4769  16.1921
    16.3280  16.3280  17.4932  17.4932  17.9024  17.9024  17.9024  18.1390
    18.1390  18.1390  18.3250  18.3250  18.3250  21.2907  21.2907  21.2907
    29.0043  29.0043  29.0043

     occupation numbers 
     1.0000   1.0000   1.0000   1.0000   1.0000   1.0000   1.0000   1.0000
     1.0000   1.0000   1.0000   1.0000   1.0000   1.0000   1.0000   1.0000
     1.0000   1.0000   1.0000   1.0000   1.0000   1.0000   1.0000   1.0000
     1.0000   1.0000   1.0000   1.0000   1.0000   1.0000   1.0000   1.0000
     1.0000   1.0000   1.0000   1.0000   1.0000   0.0000   0.0000   0.0000
     0.0000   0.0000   0.0000

          k = 0.0833 0.0833 0.1667 (  8759 PWs)   bands (ev):

   -84.9398 -84.8958 -84.8933 -84.8932 -45.4044 -45.4044 -45.4007 -45.2899
   -45.2899 -45.2762 -45.2709 -45.2709 -45.2680 -45.2142 -45.1901 -45.1878
     9.9906  14.0140  14.1444  14.1444  14.5604  14.5703  14.5703  16.1087
    16.3900  16.3963  17.4075  17.4592  17.4592  17.5388  17.6989  17.9994
    18.0359  18.0359  18.2968  18.3038  18.3038  20.2480  21.9398  21.9398
    29.0843  29.0843  30.5840

     occupation numbers 
     1.0000   1.0000   1.0000   1.0000   1.0000   1.0000   1.0000   1.0000
     1.0000   1.0000   1.0000   1.0000   1.0000   1.0000   1.0000   1.0000
     1.0000   1.0000   1.0000   1.0000   1.0000   1.0000   1.0000   1.0000
     1.0000   1.0000   1.0000   1.0000   1.0000   1.0000   1.0000   1.0000
     1.0000   1.0000   1.0000   1.0000   1.0000   0.0000   0.0000   0.0000
     0.0000   0.0000   0.0000

          k = 0.0833 0.0833 0.2500 (  8777 PWs)   bands (ev):

   -84.9357 -84.8998 -84.8933 -84.8932 -45.3944 -45.3944 -45.3848 -45.3010
   -45.3010 -45.2703 -45.2702 -45.2675 -45.2608 -45.2337 -45.1973 -45.1940
    10.4379  13.9669  14.3560  14.3560  14.6948  14.7254  14.7254  15.9614
    16.5019  16.5090  16.9350  16.9350  17.2848  17.3661  17.6111  17.8022
    17.8787  17.8787  18.2366  18.2837  18.2837  19.1863  22.7868  22.7868
    29.0879  29.0879  29.8386

     occupation numbers 
     1.0000   1.0000   1.0000   1.0000   1.0000   1.0000   1.0000   1.0000
     1.0000   1.0000   1.0000   1.0000   1.0000   1.0000   1.0000   1.0000
     1.0000   1.0000   1.0000   1.0000   1.0000   1.0000   1.0000   1.0000
     1.0000   1.0000   1.0000   1.0000   1.0000   1.0000   1.0000   1.0000
     1.0000   1.0000   1.0000   1.0000   1.0000   0.0001   0.0000   0.0000
     0.0000   0.0000   0.0000

          k = 0.0833 0.0833 0.3333 (  8778 PWs)   bands (ev):

   -84.9305 -84.9051 -84.8933 -84.8932 -45.3815 -45.3815 -45.3637 -45.3145
   -45.3145 -45.2701 -45.2701 -45.2575 -45.2561 -45.2515 -45.2066 -45.2037
    11.0403  13.7500  14.6025  14.6025  14.8723  14.9376  14.9376  15.7682
    16.4232  16.4232  16.6259  16.6638  16.9705  17.1771  17.5694  17.6812
    17.6813  17.7050  18.1498  18.2734  18.2735  18.3745  23.7389  23.7389
    28.2097  28.2097  29.7227

     occupation numbers 
     1.0000   1.0000   1.0000   1.0000   1.0000   1.0000   1.0000   1.0000
     1.0000   1.0000   1.0000   1.0000   1.0000   1.0000   1.0000   1.0000
     1.0000   1.0000   1.0000   1.0000   1.0000   1.0000   1.0000   1.0000
     1.0000   1.0000   1.0000   1.0000   1.0000   1.0000   1.0000   1.0000
     1.0000   1.0000   1.0000   1.0000   1.0000   1.0000   0.0000   0.0000
     0.0000   0.0000   0.0000

          k = 0.0833 0.0833 0.4167 (  8811 PWs)   bands (ev):

   -84.9244 -84.9112 -84.8933 -84.8932 -45.3671 -45.3671 -45.3389 -45.3292
   -45.3292 -45.2841 -45.2702 -45.2702 -45.2431 -45.2407 -45.2174 -45.2158
    11.7637  13.2583  14.8213  14.8213  15.0824  15.1988  15.1988  15.5461
    15.9623  15.9623  16.6671  16.6964  16.8564  17.2134  17.3222  17.5048
    17.5049  17.8138  17.8283  18.0447  18.2689  18.2690  24.7443  24.7443
    27.0676  27.0676  30.0564

     occupation numbers 
     1.0000   1.0000   1.0000   1.0000   1.0000   1.0000   1.0000   1.0000
     1.0000   1.0000   1.0000   1.0000   1.0000   1.0000   1.0000   1.0000
     1.0000   1.0000   1.0000   1.0000   1.0000   1.0000   1.0000   1.0000
     1.0000   1.0000   1.0000   1.0000   1.0000   1.0000   1.0000   1.0000
     1.0000   1.0000   1.0000   1.0000   1.0000   1.0000   0.0000   0.0000
     0.0000   0.0000   0.0000

          k = 0.0833 0.0833-0.5000 (  8792 PWs)   bands (ev):

   -84.9178 -84.9178 -84.8933 -84.8932 -45.3573 -45.3573 -45.3392 -45.3391
   -45.3118 -45.3118 -45.2702 -45.2702 -45.2293 -45.2293 -45.2291 -45.2290
    12.5432  12.5432  14.9138  14.9138  15.3120  15.3121  15.4433  15.4433
    15.6455  15.6455  16.6322  16.6322  17.0795  17.0795  17.4313  17.4313
    17.4509  17.4509  17.9298  17.9299  18.2677  18.2677  25.5358  25.5358
    26.2277  26.2277  30.3251

     occupation numbers 
     1.0000   1.0000   1.0000   1.0000   1.0000   1.0000   1.0000   1.0000
     1.0000   1.0000   1.0000   1.0000   1.0000   1.0000   1.0000   1.0000
     1.0000   1.0000   1.0000   1.0000   1.0000   1.0000   1.0000   1.0000
     1.0000   1.0000   1.0000   1.0000   1.0000   1.0000   1.0000   1.0000
     1.0000   1.0000   1.0000   1.0000   1.0000   1.0000   0.0000   0.0000
     0.0000   0.0000   0.0000

          k = 0.0833 0.1667 0.1667 (  8753 PWs)   bands (ev):

   -84.9374 -84.8957 -84.8957 -84.8934 -45.3985 -45.3966 -45.3966 -45.3000
   -45.2835 -45.2835 -45.2662 -45.2662 -45.2660 -45.2298 -45.1938 -45.1882
    10.2596  14.1608  14.1608  14.2718  14.6496  14.6496  14.6565  16.0563
    16.4294  16.4391  17.1875  17.2437  17.2437  17.3939  17.5370  17.8952
    17.9116  17.9116  18.2679  18.2762  18.2762  20.8540  20.8540  22.4818
    28.9439  29.7471  30.6371

     occupation numbers 
     1.0000   1.0000   1.0000   1.0000   1.0000   1.0000   1.0000   1.0000
     1.0000   1.0000   1.0000   1.0000   1.0000   1.0000   1.0000   1.0000
     1.0000   1.0000   1.0000   1.0000   1.0000   1.0000   1.0000   1.0000
     1.0000   1.0000   1.0000   1.0000   1.0000   1.0000   1.0000   1.0000
     1.0000   1.0000   1.0000   1.0000   1.0000   0.0000   0.0000   0.0000
     0.0000   0.0000   0.0000

          k = 0.0833 0.1667 0.2500 (  8768 PWs)   bands (ev):

   -84.9335 -84.8995 -84.8955 -84.8936 -45.3900 -45.3893 -45.3839 -45.3113
   -45.2936 -45.2736 -45.2647 -45.2627 -45.2586 -45.2500 -45.2010 -45.1919
    10.6977  14.1232  14.3823  14.4638  14.7774  14.7972  14.7976  15.9401
    16.5066  16.5230  16.7364  16.7901  16.9336  17.3095  17.6151  17.7199
    17.7488  17.7997  18.2163  18.2197  18.2236  19.7479  21.6085  23.2321
    27.8797  29.6131  29.8523

     occupation numbers 
     1.0000   1.0000   1.0000   1.0000   1.0000   1.0000   1.0000   1.0000
     1.0000   1.0000   1.0000   1.0000   1.0000   1.0000   1.0000   1.0000
     1.0000   1.0000   1.0000   1.0000   1.0000   1.0000   1.0000   1.0000
     1.0000   1.0000   1.0000   1.0000   1.0000   1.0000   1.0000   1.0000
     1.0000   1.0000   1.0000   1.0000   1.0000   0.0000   0.0000   0.0000
     0.0000   0.0000   0.0000

          k = 0.0833 0.1667 0.3333 (  8794 PWs)   bands (ev):

   -84.9285 -84.9045 -84.8952 -84.8938 -45.3816 -45.3780 -45.3668 -45.3225
   -45.3061 -45.2733 -45.2634 -45.2612 -45.2610 -45.2486 -45.2105 -45.1997
    11.2862  13.9178  14.6434  14.6959  14.9460  14.9738  14.9967  15.7722
    16.2609  16.3633  16.5657  16.6247  16.6599  17.2488  17.4911  17.5848
    17.6375  17.7348  18.1055  18.1829  18.1843  18.8687  22.4383  24.0849
    26.6734  28.6147  29.8931

     occupation numbers 
     1.0000   1.0000   1.0000   1.0000   1.0000   1.0000   1.0000   1.0000
     1.0000   1.0000   1.0000   1.0000   1.0000   1.0000   1.0000   1.0000
     1.0000   1.0000   1.0000   1.0000   1.0000   1.0000   1.0000   1.0000
     1.0000   1.0000   1.0000   1.0000   1.0000   1.0000   1.0000   1.0000
     1.0000   1.0000   1.0000   1.0000   1.0000   0.3419   0.0000   0.0000
     0.0000   0.0000   0.0000

          k = 0.0833 0.1667 0.4167 (  8798 PWs)   bands (ev):

   -84.9227 -84.9103 -84.8948 -84.8942 -45.3724 -45.3677 -45.3461 -45.3311
   -45.3194 -45.2980 -45.2621 -45.2605 -45.2478 -45.2365 -45.2219 -45.2106
    11.9910  13.4414  14.8918  14.9318  15.1437  15.1446  15.2155  15.5720
    15.8593  15.9710  16.4590  16.5444  16.8291  17.2536  17.3316  17.4398
    17.4735  17.8783  17.8954  18.1634  18.1642  18.3133  23.3183  24.7667
    25.8262  27.4404  30.3321

     occupation numbers 
     1.0000   1.0000   1.0000   1.0000   1.0000   1.0000   1.0000   1.0000
     1.0000   1.0000   1.0000   1.0000   1.0000   1.0000   1.0000   1.0000
     1.0000   1.0000   1.0000   1.0000   1.0000   1.0000   1.0000   1.0000
     1.0000   1.0000   1.0000   1.0000   1.0000   1.0000   1.0000   1.0000
     1.0000   1.0000   1.0000   1.0000   1.0000   1.0000   0.0000   0.0000
     0.0000   0.0000   0.0000

          k = 0.0833 0.1667-0.5000 (  8798 PWs)   bands (ev):

   -84.9165 -84.9165 -84.8945 -84.8945 -45.3655 -45.3655 -45.3302 -45.3302
   -45.3227 -45.3227 -45.2610 -45.2610 -45.2345 -45.2345 -45.2234 -45.2234
    12.7480  12.7480  15.0299  15.0299  15.3006  15.3006  15.3571  15.3572
    15.7038  15.7039  16.4668  16.4668  17.0286  17.0286  17.3901  17.3902
    17.5802  17.5802  18.0480  18.0480  18.1579  18.1579  24.2211  24.2211
    26.3796  26.3796  30.9092

     occupation numbers 
     1.0000   1.0000   1.0000   1.0000   1.0000   1.0000   1.0000   1.0000
     1.0000   1.0000   1.0000   1.0000   1.0000   1.0000   1.0000   1.0000
     1.0000   1.0000   1.0000   1.0000   1.0000   1.0000   1.0000   1.0000
     1.0000   1.0000   1.0000   1.0000   1.0000   1.0000   1.0000   1.0000
     1.0000   1.0000   1.0000   1.0000   1.0000   1.0000   0.0000   0.0000
     0.0000   0.0000   0.0000

          k = 0.0833 0.2500 0.2500 (  8773 PWs)   bands (ev):

   -84.9300 -84.8990 -84.8989 -84.8941 -45.3822 -45.3822 -45.3818 -45.3213
   -45.2828 -45.2828 -45.2704 -45.2562 -45.2559 -45.2558 -45.2084 -45.1926
    11.1193  14.3583  14.3583  14.6191  14.9157  14.9157  14.9182  15.8762
[...]
     0.0000   0.0000   0.0000

          k = 0.2500 0.2500-0.5000 (  8778 PWs)   bands (ev):

   -84.0647 -84.0647 -84.0512 -84.0511 -44.5778 -44.5778 -44.5456 -44.5456
   -44.4584 -44.4584 -44.4132 -44.4132 -44.3977 -44.3977 -44.3972 -44.3971
    13.4922  13.4922  15.1346  15.1347  15.9292  15.9292  16.2940  16.2941
    16.7644  16.7644  16.9112  16.9112  17.3478  17.3478  17.5674  17.5674
    18.8316  18.8316  18.8950  18.8950  18.9306  18.9306  22.4970  22.4970
    25.4478  25.4478  30.1420

     occupation numbers 
     1.0000   1.0000   1.0000   1.0000   1.0000   1.0000   1.0000   1.0000
     1.0000   1.0000   1.0000   1.0000   1.0000   1.0000   1.0000   1.0000
     1.0000   1.0000   1.0000   1.0000   1.0000   1.0000   1.0000   1.0000
     1.0000   1.0000   1.0000   1.0000   1.0000   1.0000   1.0000   1.0000
     0.4914   0.4914   0.2482   0.2482   0.1468   0.1467   0.0000   0.0000
     0.0000   0.0000   0.0000

          k = 0.2500 0.3333 0.3333 (  8782 PWs)   bands (ev):

   -84.0709 -84.0546 -84.0545 -84.0517 -44.5807 -44.5759 -44.5759 -44.5282
   -44.4526 -44.4362 -44.4362 -44.4114 -44.4101 -44.4100 -44.3850 -44.3774
    12.6974  14.7029  14.7029  14.9924  15.9383  16.0245  16.0245  16.5689
    16.8063  16.8063  16.8799  17.1203  17.1556  17.5271  17.5271  17.5456
    18.3699  18.6294  18.9906  19.0043  19.0043  20.7572  20.7572  22.0612
    25.6811  27.1984  27.1984

     occupation numbers 
     1.0000   1.0000   1.0000   1.0000   1.0000   1.0000   1.0000   1.0000
     1.0000   1.0000   1.0000   1.0000   1.0000   1.0000   1.0000   1.0000
     1.0000   1.0000   1.0000   1.0000   1.0000   1.0000   1.0000   1.0000
     1.0000   1.0000   1.0000   1.0000   1.0000   1.0000   1.0000   1.0000
     1.0000   0.9813   0.0471   0.0347   0.0346   0.0000   0.0000   0.0000
     0.0000   0.0000   0.0000

          k = 0.2500 0.3333 0.4167 (  8803 PWs)   bands (ev):

   -84.0669 -84.0585 -84.0539 -84.0524 -44.5850 -44.5826 -44.5721 -44.5472
   -44.4472 -44.4386 -44.4174 -44.4072 -44.4066 -44.4013 -44.3931 -44.3823
    13.2230  14.2748  14.7937  14.9345  16.0924  16.1507  16.2797  16.5734
    16.8313  16.8448  16.9207  17.0164  17.1678  17.3640  17.4351  17.4363
    18.5018  18.8707  18.9182  18.9322  18.9348  19.8316  21.1860  21.9647
    25.3527  26.2518  27.9740

     occupation numbers 
     1.0000   1.0000   1.0000   1.0000   1.0000   1.0000   1.0000   1.0000
     1.0000   1.0000   1.0000   1.0000   1.0000   1.0000   1.0000   1.0000
     1.0000   1.0000   1.0000   1.0000   1.0000   1.0000   1.0000   1.0000
     1.0000   1.0000   1.0000   1.0000   1.0000   1.0000   1.0000   1.0000
     0.9997   0.3342   0.1783   0.1428   0.1369   0.0000   0.0000   0.0000
     0.0000   0.0000   0.0000

          k = 0.2500 0.3333-0.5000 (  8784 PWs)   bands (ev):

   -84.0627 -84.0627 -84.0532 -84.0531 -44.5857 -44.5857 -44.5623 -44.5623
   -44.4425 -44.4425 -44.4055 -44.4055 -44.4033 -44.4033 -44.3912 -44.3911
    13.7667  13.7667  14.8679  14.8679  16.1751  16.1751  16.4846  16.4846
    16.8989  16.8989  16.9096  16.9097  17.2405  17.2405  17.3954  17.3955
    18.7357  18.7357  18.9016  18.9016  19.2136  19.2136  21.6239  21.6239
    25.5958  25.5958  28.8803

     occupation numbers 
     1.0000   1.0000   1.0000   1.0000   1.0000   1.0000   1.0000   1.0000
     1.0000   1.0000   1.0000   1.0000   1.0000   1.0000   1.0000   1.0000
     1.0000   1.0000   1.0000   1.0000   1.0000   1.0000   1.0000   1.0000
     1.0000   1.0000   1.0000   1.0000   1.0000   1.0000   1.0000   1.0000
     0.8353   0.8353   0.2268   0.2267   0.0000   0.0000   0.0000   0.0000
     0.0000   0.0000   0.0000

          k = 0.2500 0.4167 0.4167 (  8787 PWs)   bands (ev):

   -84.0638 -84.0570 -84.0570 -84.0539 -44.5890 -44.5822 -44.5822 -44.5637
   -44.4378 -44.4228 -44.4228 -44.4012 -44.4009 -44.3977 -44.3976 -44.3835
    13.6377  14.4413  14.4413  14.7631  16.2957  16.4259  16.4259  16.6971
    16.8926  16.8927  16.9572  17.0075  17.1245  17.2840  17.2840  17.3082
    18.5274  18.8347  18.8347  18.8633  19.1778  20.2488  20.2488  21.3652
    25.5461  26.9414  26.9414

     occupation numbers 
     1.0000   1.0000   1.0000   1.0000   1.0000   1.0000   1.0000   1.0000
     1.0000   1.0000   1.0000   1.0000   1.0000   1.0000   1.0000   1.0000
     1.0000   1.0000   1.0000   1.0000   1.0000   1.0000   1.0000   1.0000
     1.0000   1.0000   1.0000   1.0000   1.0000   1.0000   1.0000   1.0000
     0.9992   0.4786   0.4785   0.3627   0.0001   0.0000   0.0000   0.0000
     0.0000   0.0000   0.0000

          k = 0.2500 0.4167-0.5000 (  8784 PWs)   bands (ev):

   -84.0604 -84.0604 -84.0555 -84.0554 -44.5881 -44.5881 -44.5758 -44.5758
   -44.4297 -44.4297 -44.4106 -44.4106 -44.3976 -44.3976 -44.3892 -44.3892
    14.0525  14.0525  14.6008  14.6008  16.4266  16.4266  16.6552  16.6552
    16.9068  16.9068  16.9921  16.9921  17.1708  17.1708  17.2546  17.2546
    18.6671  18.6671  18.8103  18.8104  19.5953  19.5953  20.7593  20.7593
    26.1179  26.1179  27.7864

     occupation numbers 
     1.0000   1.0000   1.0000   1.0000   1.0000   1.0000   1.0000   1.0000
     1.0000   1.0000   1.0000   1.0000   1.0000   1.0000   1.0000   1.0000
     1.0000   1.0000   1.0000   1.0000   1.0000   1.0000   1.0000   1.0000
     1.0000   1.0000   1.0000   1.0000   1.0000   1.0000   1.0000   1.0000
     0.9543   0.9543   0.5790   0.5790   0.0000   0.0000   0.0000   0.0000
     0.0000   0.0000   0.0000

          k = 0.2500-0.5000-0.5000 (  8804 PWs)   bands (ev):

   -84.0579 -84.0579 -84.0579 -84.0578 -44.5847 -44.5847 -44.5846 -44.5846
   -44.4193 -44.4193 -44.4193 -44.4192 -44.3916 -44.3916 -44.3916 -44.3916
    14.3310  14.3310  14.3310  14.3310  16.6205  16.6205  16.6205  16.6205
    16.9830  16.9830  16.9830  16.9830  17.1678  17.1678  17.1678  17.1678
    18.7012  18.7012  18.7012  18.7012  20.0833  20.0833  20.0833  20.0833
    26.8625  26.8625  26.8625

     occupation numbers 
     1.0000   1.0000   1.0000   1.0000   1.0000   1.0000   1.0000   1.0000
     1.0000   1.0000   1.0000   1.0000   1.0000   1.0000   1.0000   1.0000
     1.0000   1.0000   1.0000   1.0000   1.0000   1.0000   1.0000   1.0000
     1.0000   1.0000   1.0000   1.0000   1.0000   1.0000   1.0000   1.0000
     0.9089   0.9088   0.9088   0.9088   0.0000   0.0000   0.0000   0.0000
     0.0000   0.0000   0.0000

          k = 0.3333 0.3333 0.3333 (  8802 PWs)   bands (ev):

   -84.0681 -84.0546 -84.0546 -84.0545 -44.5868 -44.5867 -44.5867 -44.5488
   -44.4293 -44.4293 -44.4293 -44.4064 -44.4064 -44.4064 -44.3823 -44.3823
    13.0739  14.6752  14.6753  14.6753  16.2015  16.2015  16.2015  16.7172
    16.9543  16.9543  16.9544  17.0864  17.0864  17.3653  17.3653  17.3653
    18.5920  18.5920  19.0292  19.0292  19.0292  20.8892  20.8892  20.8893
    26.1610  26.1611  26.1611

     occupation numbers 
     1.0000   1.0000   1.0000   1.0000   1.0000   1.0000   1.0000   1.0000
     1.0000   1.0000   1.0000   1.0000   1.0000   1.0000   1.0000   1.0000
     1.0000   1.0000   1.0000   1.0000   1.0000   1.0000   1.0000   1.0000
     1.0000   1.0000   1.0000   1.0000   1.0000   1.0000   1.0000   1.0000
     0.9932   0.9932   0.0190   0.0190   0.0190   0.0000   0.0000   0.0000
     0.0000   0.0000   0.0000

          k = 0.3333 0.3333 0.4167 (  8776 PWs)   bands (ev):

   -84.0648 -84.0578 -84.0545 -84.0545 -44.5939 -44.5939 -44.5862 -44.5664
   -44.4260 -44.4259 -44.4096 -44.4028 -44.4028 -44.4006 -44.3881 -44.3855
    13.4920  14.3132  14.6479  14.6479  16.3488  16.3488  16.4825  16.8331
    17.0032  17.0153  17.0741  17.0879  17.0880  17.2189  17.2654  17.2654
    18.7183  18.7807  18.9868  18.9868  19.0071  19.8819  21.0114  21.0114
    25.4849  25.4849  26.8398

     occupation numbers 
     1.0000   1.0000   1.0000   1.0000   1.0000   1.0000   1.0000   1.0000
     1.0000   1.0000   1.0000   1.0000   1.0000   1.0000   1.0000   1.0000
     1.0000   1.0000   1.0000   1.0000   1.0000   1.0000   1.0000   1.0000
     1.0000   1.0000   1.0000   1.0000   1.0000   1.0000   1.0000   1.0000
     0.8761   0.6940   0.0511   0.0510   0.0324   0.0000   0.0000   0.0000
     0.0000   0.0000   0.0000

          k = 0.3333 0.3333-0.5000 (  8796 PWs)   bands (ev):

   -84.0613 -84.0613 -84.0545 -84.0545 -44.5964 -44.5964 -44.5792 -44.5792
   -44.4250 -44.4250 -44.4013 -44.4013 -44.3947 -44.3947 -44.3944 -44.3943
    13.9142  13.9142  14.6370  14.6370  16.4035  16.4035  16.7308  16.7309
    17.0096  17.0096  17.1194  17.1194  17.1537  17.1538  17.2260  17.2260
    18.9225  18.9225  18.9562  18.9563  19.1383  19.1383  21.0626  21.0626
    25.2474  25.2474  27.6766

     occupation numbers 
     1.0000   1.0000   1.0000   1.0000   1.0000   1.0000   1.0000   1.0000
     1.0000   1.0000   1.0000   1.0000   1.0000   1.0000   1.0000   1.0000
     1.0000   1.0000   1.0000   1.0000   1.0000   1.0000   1.0000   1.0000
     1.0000   1.0000   1.0000   1.0000   1.0000   1.0000   1.0000   1.0000
     0.1668   0.1668   0.0939   0.0939   0.0007   0.0007   0.0000   0.0000
     0.0000   0.0000   0.0000

          k = 0.3333 0.4167 0.4167 (  8788 PWs)   bands (ev):

   -84.0623 -84.0570 -84.0570 -84.0553 -44.6003 -44.5963 -44.5963 -44.5819
   -44.4176 -44.4094 -44.4094 -44.3985 -44.3972 -44.3971 -44.3922 -44.3861
    13.7799  14.3590  14.3590  14.5216  16.5254  16.6102  16.6102  16.9589
    17.0142  17.1230  17.1230  17.1322  17.1471  17.2244  17.2245  17.2875
    18.7295  18.9654  18.9692  18.9692  18.9936  20.0681  20.0681  20.7062
    25.2150  25.9701  25.9701

     occupation numbers 
     1.0000   1.0000   1.0000   1.0000   1.0000   1.0000   1.0000   1.0000
     1.0000   1.0000   1.0000   1.0000   1.0000   1.0000   1.0000   1.0000
     1.0000   1.0000   1.0000   1.0000   1.0000   1.0000   1.0000   1.0000
     1.0000   1.0000   1.0000   1.0000   1.0000   1.0000   1.0000   1.0000
     0.8507   0.0789   0.0732   0.0732   0.0440   0.0000   0.0000   0.0000
     0.0000   0.0000   0.0000

          k = 0.3333 0.4167-0.5000 (  8776 PWs)   bands (ev):

   -84.0597 -84.0596 -84.0562 -84.0561 -44.6012 -44.6012 -44.5922 -44.5922
   -44.4125 -44.4124 -44.3988 -44.3988 -44.3961 -44.3961 -44.3906 -44.3906
    14.0701  14.0701  14.4255  14.4255  16.6223  16.6223  16.8267  16.8268
    17.0408  17.0408  17.0984  17.0984  17.2624  17.2624  17.3534  17.3534
    18.8611  18.8611  18.9335  18.9335  19.3655  19.3655  20.3593  20.3593
    25.4066  25.4066  26.6826

     occupation numbers 
     1.0000   1.0000   1.0000   1.0000   1.0000   1.0000   1.0000   1.0000
     1.0000   1.0000   1.0000   1.0000   1.0000   1.0000   1.0000   1.0000
     1.0000   1.0000   1.0000   1.0000   1.0000   1.0000   1.0000   1.0000
     1.0000   1.0000   1.0000   1.0000   1.0000   1.0000   1.0000   1.0000
     0.3715   0.3714   0.1400   0.1399   0.0000   0.0000   0.0000   0.0000
     0.0000   0.0000   0.0000

          k = 0.3333-0.5000-0.5000 (  8784 PWs)   bands (ev):

   -84.0579 -84.0579 -84.0579 -84.0578 -44.5998 -44.5997 -44.5997 -44.5997
   -44.4044 -44.4044 -44.4044 -44.4044 -44.3916 -44.3916 -44.3915 -44.3915
    14.2380  14.2380  14.2380  14.2380  16.7784  16.7784  16.7785  16.7785
    17.0290  17.0290  17.0290  17.0290  17.4254  17.4254  17.4254  17.4254
    18.8602  18.8602  18.8602  18.8602  19.7609  19.7609  19.7609  19.7609
    25.9146  25.9146  25.9146

     occupation numbers 
     1.0000   1.0000   1.0000   1.0000   1.0000   1.0000   1.0000   1.0000
     1.0000   1.0000   1.0000   1.0000   1.0000   1.0000   1.0000   1.0000
     1.0000   1.0000   1.0000   1.0000   1.0000   1.0000   1.0000   1.0000
     1.0000   1.0000   1.0000   1.0000   1.0000   1.0000   1.0000   1.0000
     0.3748   0.3747   0.3747   0.3747   0.0000   0.0000   0.0000   0.0000
     0.0000   0.0000   0.0000

          k = 0.4167 0.4167 0.4167 (  8786 PWs)   bands (ev):

   -84.0606 -84.0570 -84.0570 -84.0569 -44.6054 -44.6054 -44.6054 -44.5957
   -44.4021 -44.4021 -44.4021 -44.3956 -44.3955 -44.3955 -44.3891 -44.3891
    13.9349  14.3010  14.3010  14.3010  16.7362  16.7362  16.7362  16.9600
    16.9600  17.0293  17.0293  17.0293  17.5565  17.5565  17.5566  17.5632
    18.8844  18.8844  19.0065  19.0065  19.0065  19.8868  19.8868  19.8868
    25.3650  25.3650  25.3650

     occupation numbers 
     1.0000   1.0000   1.0000   1.0000   1.0000   1.0000   1.0000   1.0000
     1.0000   1.0000   1.0000   1.0000   1.0000   1.0000   1.0000   1.0000
     1.0000   1.0000   1.0000   1.0000   1.0000   1.0000   1.0000   1.0000
     1.0000   1.0000   1.0000   1.0000   1.0000   1.0000   1.0000   1.0000
     0.2841   0.2841   0.0329   0.0329   0.0329   0.0000   0.0000   0.0000
     0.0000   0.0000   0.0000

          k = 0.4167 0.4167-0.5000 (  8786 PWs)   bands (ev):

   -84.0588 -84.0588 -84.0570 -84.0569 -44.6086 -44.6086 -44.6038 -44.6038
   -44.4005 -44.4005 -44.3940 -44.3940 -44.3924 -44.3924 -44.3923 -44.3923
    14.1065  14.1065  14.2803  14.2803  16.7822  16.7822  16.8853  16.8854
    16.9652  16.9652  16.9920  16.9921  17.7223  17.7223  17.7305  17.7305
    18.9792  18.9792  18.9868  18.9868  19.1679  19.1679  19.8105  19.8105
    25.1604  25.1604  25.8537

     occupation numbers 
     1.0000   1.0000   1.0000   1.0000   1.0000   1.0000   1.0000   1.0000
     1.0000   1.0000   1.0000   1.0000   1.0000   1.0000   1.0000   1.0000
     1.0000   1.0000   1.0000   1.0000   1.0000   1.0000   1.0000   1.0000
     1.0000   1.0000   1.0000   1.0000   1.0000   1.0000   1.0000   1.0000
     0.0598   0.0598   0.0510   0.0510   0.0002   0.0002   0.0000   0.0000
     0.0000   0.0000   0.0000

          k = 0.4167-0.5000-0.5000 (  8776 PWs)   bands (ev):

   -84.0579 -84.0579 -84.0579 -84.0578 -44.6095 -44.6095 -44.6095 -44.6095
   -44.3949 -44.3948 -44.3948 -44.3948 -44.3916 -44.3916 -44.3915 -44.3915
    14.1740  14.1740  14.1740  14.1740  16.8772  16.8772  16.8772  16.8772
    16.9410  16.9410  16.9410  16.9410  17.9514  17.9514  17.9514  17.9514
    18.9630  18.9630  18.9630  18.9630  19.3262  19.3262  19.3262  19.3262
    25.3318  25.3318  25.3318

     occupation numbers 
     1.0000   1.0000   1.0000   1.0000   1.0000   1.0000   1.0000   1.0000
     1.0000   1.0000   1.0000   1.0000   1.0000   1.0000   1.0000   1.0000
     1.0000   1.0000   1.0000   1.0000   1.0000   1.0000   1.0000   1.0000
     1.0000   1.0000   1.0000   1.0000   1.0000   1.0000   1.0000   1.0000
     0.0826   0.0826   0.0826   0.0826   0.0000   0.0000   0.0000   0.0000
     0.0000   0.0000   0.0000

          k =-0.5000-0.5000-0.5000 (  8744 PWs)   bands (ev):

   -84.0579 -84.0579 -84.0579 -84.0578 -44.6128 -44.6128 -44.6128 -44.6128
   -44.3916 -44.3916 -44.3916 -44.3916 -44.3916 -44.3915 -44.3915 -44.3915
    14.1513  14.1513  14.1513  14.1513  16.9109  16.9109  16.9109  16.9109
    16.9109  16.9109  16.9109  16.9109  18.3112  18.3112  18.3112  18.3112
    18.9985  18.9985  18.9985  18.9985  18.9985  18.9985  18.9985  18.9985
    25.1367  25.1368  25.1368

     occupation numbers 
     1.0000   1.0000   1.0000   1.0000   1.0000   1.0000   1.0000   1.0000
     1.0000   1.0000   1.0000   1.0000   1.0000   1.0000   1.0000   1.0000
     1.0000   1.0000   1.0000   1.0000   1.0000   1.0000   1.0000   1.0000
     1.0000   1.0000   1.0000   1.0000   1.0000   1.0000   1.0000   1.0000
     0.0395   0.0395   0.0395   0.0395   0.0395   0.0395   0.0395   0.0395
     0.0000   0.0000   0.0000

     the Fermi energy is    18.8295 ev

!    total energy              =   -1716.65629595 Ry
     total all-electron energy =    -12166.384726 Ry
     estimated scf accuracy    <          8.9E-09 Ry
     smearing contrib. (-TS)   =      -0.00459402 Ry
     internal energy E=F+TS    =   -1716.65170193 Ry

     The total energy is F=E-TS. E is the sum of the following terms:
     one-electron contribution =    -721.93288092 Ry
     hartree contribution      =     411.92279076 Ry
     xc contribution           =    -137.44648740 Ry
     ewald contribution        =    -904.81412341 Ry
     one-center paw contrib.   =    -364.38100096 Ry
      -> PAW hartree energy AE =     268.05184823 Ry
      -> PAW hartree energy PS =    -266.35859329 Ry
      -> PAW xc energy AE      =    -125.61225350 Ry
      -> PAW xc energy PS      =      32.82375378 Ry
      -> total E_H with PAW    =     413.61604570 Ry
      -> total E_XC with PAW   =    -230.23498713 Ry

     total magnetization       =     2.55 Bohr mag/cell
     absolute magnetization    =     2.89 Bohr mag/cell

     convergence has been achieved in   7 iterations

     Writing all to output data dir out/Ni.save/
 
     init_run     :      0.67s CPU      0.86s WALL (       1 calls)
     electrons    :     40.61s CPU     42.08s WALL (       1 calls)

     Called by init_run:
     wfcinit      :      0.37s CPU      0.52s WALL (       1 calls)
     potinit      :      0.13s CPU      0.15s WALL (       1 calls)
     hinit0       :      0.06s CPU      0.07s WALL (       1 calls)

     Called by electrons:
     c_bands      :     33.74s CPU     34.96s WALL (       8 calls)
     sum_band     :      5.89s CPU      6.04s WALL (       8 calls)
     v_of_rho     :      0.15s CPU      0.15s WALL (       8 calls)
     v_h          :      0.00s CPU      0.00s WALL (       8 calls)
     v_xc         :      0.14s CPU      0.15s WALL (       8 calls)
     newd         :      0.09s CPU      0.09s WALL (       8 calls)
     PAW_pot      :      0.82s CPU      0.88s WALL (       8 calls)
     mix_rho      :      0.02s CPU      0.02s WALL (       8 calls)

     Called by c_bands:
     init_us_2    :      0.29s CPU      0.30s WALL (    1344 calls)
     init_us_2:cp :      0.28s CPU      0.30s WALL (    1344 calls)
     cegterg      :     29.63s CPU     30.25s WALL (     672 calls)

     Called by sum_band:
     sum_band:wei :      0.05s CPU      0.05s WALL (       8 calls)
     sum_band:loo :      5.59s CPU      5.73s WALL (       8 calls)
     sum_band:buf :      0.06s CPU      0.06s WALL (     672 calls)
     sum_band:ini :      0.13s CPU      0.14s WALL (     672 calls)
     sum_band:cal :      0.30s CPU      0.30s WALL (     672 calls)
     sum_band:bec :      0.02s CPU      0.02s WALL (     672 calls)
     addusdens    :      0.18s CPU      0.19s WALL (       8 calls)
                                        0.00s GPU  (       8 calls)
     addusd:skk   :      0.00s CPU      0.00s WALL (       8 calls)
                                        0.00s GPU  (       8 calls)

     Called by *egterg:
     cdiaghg      :      3.07s CPU      3.11s WALL (    1746 calls)
     cegterg:over :      1.06s CPU      1.11s WALL (    1242 calls)
     cegterg:upda :      0.43s CPU      0.43s WALL (    1242 calls)
     cegterg:last :      0.87s CPU      0.87s WALL (    1185 calls)
     h_psi        :     22.92s CPU     23.41s WALL (    1914 calls)
     s_psi        :      0.49s CPU      0.50s WALL (    1914 calls)
     g_psi        :      0.07s CPU      0.07s WALL (    1242 calls)

     Called by h_psi:
     h_psi:calbec :      0.80s CPU      0.82s WALL (    1914 calls)
     vloc_psi     :     21.42s CPU     21.88s WALL (    1914 calls)
     add_vuspsi   :      0.58s CPU      0.60s WALL (    1914 calls)

     General routines
     calbec       :      1.09s CPU      1.12s WALL (    2586 calls)
     fft          :      0.08s CPU      0.08s WALL (     196 calls)
     ffts         :      0.01s CPU      0.01s WALL (      32 calls)
     fftw         :     24.28s CPU     24.81s WALL (  158064 calls)
     interpolate  :      0.01s CPU      0.01s WALL (      16 calls)
 
     Parallel routines

     PAW routines
     PAW_pot      :      0.82s CPU      0.88s WALL (       8 calls)
     PAW_symme    :      0.02s CPU      0.02s WALL (      15 calls)
 
     PWSCF        :     41.92s CPU     45.18s WALL

 
   This run was terminated on:   0:56:15  22Mar2024            

=------------------------------------------------------------------------------=
   JOB DONE.
=------------------------------------------------------------------------------=
