### Running on host: hamsi18.yonetim

     Program PWSCF v.7.2 starts on 22Mar2024 at  0:53: 4 

     This program is part of the open-source Quantum ESPRESSO suite
     for quantum simulation of materials; please cite
         "P. Giannozzi et al., J. Phys.:Condens. Matter 21 395502 (2009);
         "P. Giannozzi et al., J. Phys.:Condens. Matter 29 465901 (2017);
         "P. Giannozzi et al., J. Chem. Phys. 152 154105 (2020);
          URL http://www.quantum-espresso.org", 
     in publications or presentations arising from this work. More details at
     http://www.quantum-espresso.org/quote

     Parallel version (MPI), running on    28 processors

     MPI processes distributed on     1 nodes
     102042 MiB available memory on the printing compute node when the environment starts
 
     Reading input from scf.m-v.degauss-0.01.in

     Current dimensions of program PWSCF are:
     Max number of different atomic species (ntypx) = 10
     Max number of k-points (npk) = 120000
     Max angular momentum in pseudopotentials (lmaxx) =  4
     file Ni.pbe-spn-kjpaw_psl.1.0.0.UPF: wavefunction(s)  3P 3D renormalized
     Found identity + (  0.0000 -0.5000 -0.5000) symmetry
     This is a supercell, fractional translations are disabled
     Message from routine setup:
     using ibrav=0 with symmetry is DISCOURAGED, use correct ibrav instead
 
     K-points division:     npool     =       2
     R & G space division:  proc/nbgrp/npool/nimage =      14
     Subspace diagonalization in iterative solution of the eigenvalue problem:
     a serial algorithm will be used

 
     Parallelization info
     --------------------
     sticks:   dense  smooth     PW     G-vecs:    dense   smooth      PW
     Min         196     147     42                 7724     5021     768
     Max         198     148     43                 7726     5024     771
     Sum        2749    2061    593               108143    70319   10779
 
     Using Slab Decomposition
 


     bravais-lattice index     =            0
     lattice parameter (alat)  =       6.5671  a.u.
     unit-cell volume          =     283.2147 (a.u.)^3
     number of atoms/cell      =            4
     number of atomic types    =            1
     number of electrons       =        72.00
     number of Kohn-Sham states=           43
     kinetic-energy cutoff     =     150.0000  Ry
     charge density cutoff     =     800.0000  Ry
     scf convergence threshold =      8.0E-08
     mixing beta               =       0.7000
     number of iterations used =            8  plain     mixing
     Exchange-correlation= SLA  PW   PBX  PBC
                           (   1   4   3   4   0   0   0)

     celldm(1)=   6.567074  celldm(2)=   0.000000  celldm(3)=   0.000000
     celldm(4)=   0.000000  celldm(5)=   0.000000  celldm(6)=   0.000000

     crystal axes: (cart. coord. in units of alat)
               a(1) = (   1.000000   0.000000   0.000000 )  
               a(2) = (   0.000000   1.000000   0.000000 )  
               a(3) = (   0.000000   0.000000   1.000000 )  

     reciprocal axes: (cart. coord. in units 2 pi/alat)
               b(1) = (  1.000000  0.000000  0.000000 )  
               b(2) = (  0.000000  1.000000  0.000000 )  
               b(3) = (  0.000000  0.000000  1.000000 )  


     PseudoPot. # 1 for Ni read from file:
     /truba/home/amuhaymin/ZnS/pseudo/QE/Ni.pbe-spn-kjpaw_psl.1.0.0.UPF
     MD5 check sum: 6e86b733589c3ad8389697b807d86aa7
     Pseudo is Projector augmented-wave + core cor, Zval = 18.0
     Generated using &quot;atomic&quot; code by A. Dal Corso  v.6.3
     Shape of augmentation charge: PSQ
     Using radial grid of 1195 points,  6 beta functions with: 
                l(1) =   0
                l(2) =   0
                l(3) =   1
                l(4) =   1
                l(5) =   2
                l(6) =   2
     Q(r) pseudized with 0 coefficients 


     atomic species   valence    mass     pseudopotential
        Ni            18.00    58.69340     Ni( 1.00)

     Starting magnetic structure 
     atomic species   magnetization
        Ni           0.278

     48 Sym. Ops., with inversion, found


                                    s                        frac. trans.

      isym =  1     identity                                     

 cryst.   s( 1) = (     1          0          0      )
                  (     0          1          0      )
                  (     0          0          1      )

 cart.    s( 1) = (  1.0000000  0.0000000  0.0000000 )
                  (  0.0000000  1.0000000  0.0000000 )
                  (  0.0000000  0.0000000  1.0000000 )


      isym =  2     180 deg rotation - cart. axis [0,0,1]        

 cryst.   s( 2) = (    -1          0          0      )
                  (     0         -1          0      )
                  (     0          0          1      )

 cart.    s( 2) = ( -1.0000000  0.0000000  0.0000000 )
                  (  0.0000000 -1.0000000  0.0000000 )
                  (  0.0000000  0.0000000  1.0000000 )


      isym =  3     180 deg rotation - cart. axis [0,1,0]        

 cryst.   s( 3) = (    -1          0          0      )
                  (     0          1          0      )
                  (     0          0         -1      )

 cart.    s( 3) = ( -1.0000000  0.0000000  0.0000000 )
                  (  0.0000000  1.0000000  0.0000000 )
                  (  0.0000000  0.0000000 -1.0000000 )


      isym =  4     180 deg rotation - cart. axis [1,0,0]        

 cryst.   s( 4) = (     1          0          0      )
                  (     0         -1          0      )
                  (     0          0         -1      )

 cart.    s( 4) = (  1.0000000  0.0000000  0.0000000 )
                  (  0.0000000 -1.0000000  0.0000000 )
                  (  0.0000000  0.0000000 -1.0000000 )


      isym =  5     180 deg rotation - cart. axis [1,1,0]        

 cryst.   s( 5) = (     0          1          0      )
                  (     1          0          0      )
                  (     0          0         -1      )

 cart.    s( 5) = (  0.0000000  1.0000000  0.0000000 )
                  (  1.0000000  0.0000000  0.0000000 )
                  (  0.0000000  0.0000000 -1.0000000 )


      isym =  6     180 deg rotation - cart. axis [1,-1,0]       

 cryst.   s( 6) = (     0         -1          0      )
                  (    -1          0          0      )
                  (     0          0         -1      )

 cart.    s( 6) = (  0.0000000 -1.0000000  0.0000000 )
                  ( -1.0000000  0.0000000  0.0000000 )
                  (  0.0000000  0.0000000 -1.0000000 )


      isym =  7      90 deg rotation - cart. axis [0,0,-1]       

 cryst.   s( 7) = (     0         -1          0      )
                  (     1          0          0      )
                  (     0          0          1      )

 cart.    s( 7) = (  0.0000000  1.0000000  0.0000000 )
                  ( -1.0000000  0.0000000  0.0000000 )
                  (  0.0000000  0.0000000  1.0000000 )


      isym =  8      90 deg rotation - cart. axis [0,0,1]        

 cryst.   s( 8) = (     0          1          0      )
                  (    -1          0          0      )
                  (     0          0          1      )

 cart.    s( 8) = (  0.0000000 -1.0000000  0.0000000 )
                  (  1.0000000  0.0000000  0.0000000 )
                  (  0.0000000  0.0000000  1.0000000 )


      isym =  9     180 deg rotation - cart. axis [1,0,1]        

 cryst.   s( 9) = (     0          0          1      )
                  (     0         -1          0      )
                  (     1          0          0      )

 cart.    s( 9) = (  0.0000000  0.0000000  1.0000000 )
                  (  0.0000000 -1.0000000  0.0000000 )
                  (  1.0000000  0.0000000  0.0000000 )


      isym = 10     180 deg rotation - cart. axis [-1,0,1]       

 cryst.   s(10) = (     0          0         -1      )
                  (     0         -1          0      )
                  (    -1          0          0      )

 cart.    s(10) = (  0.0000000  0.0000000 -1.0000000 )
                  (  0.0000000 -1.0000000  0.0000000 )
                  ( -1.0000000  0.0000000  0.0000000 )


      isym = 11      90 deg rotation - cart. axis [0,1,0]        

 cryst.   s(11) = (     0          0         -1      )
                  (     0          1          0      )
                  (     1          0          0      )

 cart.    s(11) = (  0.0000000  0.0000000  1.0000000 )
                  (  0.0000000  1.0000000  0.0000000 )
                  ( -1.0000000  0.0000000  0.0000000 )


      isym = 12      90 deg rotation - cart. axis [0,-1,0]       

 cryst.   s(12) = (     0          0          1      )
                  (     0          1          0      )
                  (    -1          0          0      )

 cart.    s(12) = (  0.0000000  0.0000000 -1.0000000 )
                  (  0.0000000  1.0000000  0.0000000 )
                  (  1.0000000  0.0000000  0.0000000 )


      isym = 13     180 deg rotation - cart. axis [0,1,1]        

 cryst.   s(13) = (    -1          0          0      )
                  (     0          0          1      )
                  (     0          1          0      )

 cart.    s(13) = ( -1.0000000  0.0000000  0.0000000 )
                  (  0.0000000  0.0000000  1.0000000 )
                  (  0.0000000  1.0000000  0.0000000 )


      isym = 14     180 deg rotation - cart. axis [0,1,-1]       

 cryst.   s(14) = (    -1          0          0      )
                  (     0          0         -1      )
                  (     0         -1          0      )

 cart.    s(14) = ( -1.0000000  0.0000000  0.0000000 )
                  (  0.0000000  0.0000000 -1.0000000 )
                  (  0.0000000 -1.0000000  0.0000000 )


      isym = 15      90 deg rotation - cart. axis [-1,0,0]       

 cryst.   s(15) = (     1          0          0      )
                  (     0          0         -1      )
                  (     0          1          0      )

 cart.    s(15) = (  1.0000000  0.0000000  0.0000000 )
                  (  0.0000000  0.0000000  1.0000000 )
                  (  0.0000000 -1.0000000  0.0000000 )


      isym = 16      90 deg rotation - cart. axis [1,0,0]        

 cryst.   s(16) = (     1          0          0      )
                  (     0          0          1      )
                  (     0         -1          0      )

 cart.    s(16) = (  1.0000000  0.0000000  0.0000000 )
                  (  0.0000000  0.0000000 -1.0000000 )
                  (  0.0000000  1.0000000  0.0000000 )


      isym = 17     120 deg rotation - cart. axis [-1,-1,-1]     

 cryst.   s(17) = (     0          0          1      )
                  (     1          0          0      )
                  (     0          1          0      )

 cart.    s(17) = (  0.0000000  1.0000000  0.0000000 )
                  (  0.0000000  0.0000000  1.0000000 )
                  (  1.0000000  0.0000000  0.0000000 )


      isym = 18     120 deg rotation - cart. axis [-1,1,1]       

 cryst.   s(18) = (     0          0         -1      )
                  (    -1          0          0      )
                  (     0          1          0      )

 cart.    s(18) = (  0.0000000 -1.0000000  0.0000000 )
                  (  0.0000000  0.0000000  1.0000000 )
                  ( -1.0000000  0.0000000  0.0000000 )


      isym = 19     120 deg rotation - cart. axis [1,1,-1]       

 cryst.   s(19) = (     0          0         -1      )
                  (     1          0          0      )
                  (     0         -1          0      )

 cart.    s(19) = (  0.0000000  1.0000000  0.0000000 )
                  (  0.0000000  0.0000000 -1.0000000 )
                  ( -1.0000000  0.0000000  0.0000000 )


      isym = 20     120 deg rotation - cart. axis [1,-1,1]       

 cryst.   s(20) = (     0          0          1      )
                  (    -1          0          0      )
                  (     0         -1          0      )

 cart.    s(20) = (  0.0000000 -1.0000000  0.0000000 )
                  (  0.0000000  0.0000000 -1.0000000 )
                  (  1.0000000  0.0000000  0.0000000 )


      isym = 21     120 deg rotation - cart. axis [1,1,1]        

 cryst.   s(21) = (     0          1          0      )
                  (     0          0          1      )
                  (     1          0          0      )

 cart.    s(21) = (  0.0000000  0.0000000  1.0000000 )
                  (  1.0000000  0.0000000  0.0000000 )
                  (  0.0000000  1.0000000  0.0000000 )


      isym = 22     120 deg rotation - cart. axis [-1,1,-1]      

 cryst.   s(22) = (     0         -1          0      )
                  (     0          0         -1      )
                  (     1          0          0      )

 cart.    s(22) = (  0.0000000  0.0000000  1.0000000 )
                  ( -1.0000000  0.0000000  0.0000000 )
                  (  0.0000000 -1.0000000  0.0000000 )


      isym = 23     120 deg rotation - cart. axis [1,-1,-1]      

 cryst.   s(23) = (     0         -1          0      )
                  (     0          0          1      )
                  (    -1          0          0      )

 cart.    s(23) = (  0.0000000  0.0000000 -1.0000000 )
                  ( -1.0000000  0.0000000  0.0000000 )
                  (  0.0000000  1.0000000  0.0000000 )


      isym = 24     120 deg rotation - cart. axis [-1,-1,1]      

 cryst.   s(24) = (     0          1          0      )
                  (     0          0         -1      )
                  (    -1          0          0      )

 cart.    s(24) = (  0.0000000  0.0000000 -1.0000000 )
                  (  1.0000000  0.0000000  0.0000000 )
                  (  0.0000000 -1.0000000  0.0000000 )


      isym = 25     inversion                                    

 cryst.   s(25) = (    -1          0          0      )
                  (     0         -1          0      )
                  (     0          0         -1      )

 cart.    s(25) = ( -1.0000000  0.0000000  0.0000000 )
                  (  0.0000000 -1.0000000  0.0000000 )
                  (  0.0000000  0.0000000 -1.0000000 )


      isym = 26     inv. 180 deg rotation - cart. axis [0,0,1]   

 cryst.   s(26) = (     1          0          0      )
                  (     0          1          0      )
                  (     0          0         -1      )

 cart.    s(26) = (  1.0000000  0.0000000  0.0000000 )
                  (  0.0000000  1.0000000  0.0000000 )
                  (  0.0000000  0.0000000 -1.0000000 )


      isym = 27     inv. 180 deg rotation - cart. axis [0,1,0]   

 cryst.   s(27) = (     1          0          0      )
                  (     0         -1          0      )
                  (     0          0          1      )

 cart.    s(27) = (  1.0000000  0.0000000  0.0000000 )
                  (  0.0000000 -1.0000000  0.0000000 )
                  (  0.0000000  0.0000000  1.0000000 )


      isym = 28     inv. 180 deg rotation - cart. axis [1,0,0]   

 cryst.   s(28) = (    -1          0          0      )
                  (     0          1          0      )
                  (     0          0          1      )

 cart.    s(28) = ( -1.0000000  0.0000000  0.0000000 )
                  (  0.0000000  1.0000000  0.0000000 )
                  (  0.0000000  0.0000000  1.0000000 )


      isym = 29     inv. 180 deg rotation - cart. axis [1,1,0]   

 cryst.   s(29) = (     0         -1          0      )
                  (    -1          0          0      )
                  (     0          0          1      )

 cart.    s(29) = (  0.0000000 -1.0000000  0.0000000 )
                  ( -1.0000000  0.0000000  0.0000000 )
                  (  0.0000000  0.0000000  1.0000000 )


      isym = 30     inv. 180 deg rotation - cart. axis [1,-1,0]  

 cryst.   s(30) = (     0          1          0      )
                  (     1          0          0      )
                  (     0          0          1      )

 cart.    s(30) = (  0.0000000  1.0000000  0.0000000 )
                  (  1.0000000  0.0000000  0.0000000 )
                  (  0.0000000  0.0000000  1.0000000 )


      isym = 31     inv.  90 deg rotation - cart. axis [0,0,-1]  

 cryst.   s(31) = (     0          1          0      )
                  (    -1          0          0      )
                  (     0          0         -1      )

 cart.    s(31) = (  0.0000000 -1.0000000  0.0000000 )
                  (  1.0000000  0.0000000  0.0000000 )
                  (  0.0000000  0.0000000 -1.0000000 )


      isym = 32     inv.  90 deg rotation - cart. axis [0,0,1]   

 cryst.   s(32) = (     0         -1          0      )
                  (     1          0          0      )
                  (     0          0         -1      )

 cart.    s(32) = (  0.0000000  1.0000000  0.0000000 )
                  ( -1.0000000  0.0000000  0.0000000 )
                  (  0.0000000  0.0000000 -1.0000000 )


      isym = 33     inv. 180 deg rotation - cart. axis [1,0,1]   

 cryst.   s(33) = (     0          0         -1      )
                  (     0          1          0      )
                  (    -1          0          0      )

 cart.    s(33) = (  0.0000000  0.0000000 -1.0000000 )
                  (  0.0000000  1.0000000  0.0000000 )
                  ( -1.0000000  0.0000000  0.0000000 )


      isym = 34     inv. 180 deg rotation - cart. axis [-1,0,1]  

 cryst.   s(34) = (     0          0          1      )
                  (     0          1          0      )
                  (     1          0          0      )

 cart.    s(34) = (  0.0000000  0.0000000  1.0000000 )
                  (  0.0000000  1.0000000  0.0000000 )
                  (  1.0000000  0.0000000  0.0000000 )


      isym = 35     inv.  90 deg rotation - cart. axis [0,1,0]   

 cryst.   s(35) = (     0          0          1      )
                  (     0         -1          0      )
                  (    -1          0          0      )

 cart.    s(35) = (  0.0000000  0.0000000 -1.0000000 )
                  (  0.0000000 -1.0000000  0.0000000 )
                  (  1.0000000  0.0000000  0.0000000 )


      isym = 36     inv.  90 deg rotation - cart. axis [0,-1,0]  

 cryst.   s(36) = (     0          0         -1      )
                  (     0         -1          0      )
                  (     1          0          0      )

 cart.    s(36) = (  0.0000000  0.0000000  1.0000000 )
                  (  0.0000000 -1.0000000  0.0000000 )
                  ( -1.0000000  0.0000000  0.0000000 )


      isym = 37     inv. 180 deg rotation - cart. axis [0,1,1]   

 cryst.   s(37) = (     1          0          0      )
                  (     0          0         -1      )
                  (     0         -1          0      )

 cart.    s(37) = (  1.0000000  0.0000000  0.0000000 )
                  (  0.0000000  0.0000000 -1.0000000 )
                  (  0.0000000 -1.0000000  0.0000000 )


      isym = 38     inv. 180 deg rotation - cart. axis [0,1,-1]  

 cryst.   s(38) = (     1          0          0      )
                  (     0          0          1      )
                  (     0          1          0      )

 cart.    s(38) = (  1.0000000  0.0000000  0.0000000 )
                  (  0.0000000  0.0000000  1.0000000 )
                  (  0.0000000  1.0000000  0.0000000 )


      isym = 39     inv.  90 deg rotation - cart. axis [-1,0,0]  

 cryst.   s(39) = (    -1          0          0      )
                  (     0          0          1      )
                  (     0         -1          0      )

 cart.    s(39) = ( -1.0000000  0.0000000  0.0000000 )
                  (  0.0000000  0.0000000 -1.0000000 )
                  (  0.0000000  1.0000000  0.0000000 )


      isym = 40     inv.  90 deg rotation - cart. axis [1,0,0]   

 cryst.   s(40) = (    -1          0          0      )
                  (     0          0         -1      )
                  (     0          1          0      )

 cart.    s(40) = ( -1.0000000  0.0000000  0.0000000 )
                  (  0.0000000  0.0000000  1.0000000 )
                  (  0.0000000 -1.0000000  0.0000000 )


      isym = 41     inv. 120 deg rotation - cart. axis [-1,-1,-1]

 cryst.   s(41) = (     0          0         -1      )
                  (    -1          0          0      )
                  (     0         -1          0      )

 cart.    s(41) = (  0.0000000 -1.0000000  0.0000000 )
                  (  0.0000000  0.0000000 -1.0000000 )
                  ( -1.0000000  0.0000000  0.0000000 )


      isym = 42     inv. 120 deg rotation - cart. axis [-1,1,1]  

 cryst.   s(42) = (     0          0          1      )
                  (     1          0          0      )
                  (     0         -1          0      )

 cart.    s(42) = (  0.0000000  1.0000000  0.0000000 )
                  (  0.0000000  0.0000000 -1.0000000 )
                  (  1.0000000  0.0000000  0.0000000 )


      isym = 43     inv. 120 deg rotation - cart. axis [1,1,-1]  

 cryst.   s(43) = (     0          0          1      )
                  (    -1          0          0      )
                  (     0          1          0      )

 cart.    s(43) = (  0.0000000 -1.0000000  0.0000000 )
                  (  0.0000000  0.0000000  1.0000000 )
                  (  1.0000000  0.0000000  0.0000000 )


      isym = 44     inv. 120 deg rotation - cart. axis [1,-1,1]  

 cryst.   s(44) = (     0          0         -1      )
                  (     1          0          0      )
                  (     0          1          0      )

 cart.    s(44) = (  0.0000000  1.0000000  0.0000000 )
                  (  0.0000000  0.0000000  1.0000000 )
                  ( -1.0000000  0.0000000  0.0000000 )


      isym = 45     inv. 120 deg rotation - cart. axis [1,1,1]   

 cryst.   s(45) = (     0         -1          0      )
                  (     0          0         -1      )
                  (    -1          0          0      )

 cart.    s(45) = (  0.0000000  0.0000000 -1.0000000 )
                  ( -1.0000000  0.0000000  0.0000000 )
                  (  0.0000000 -1.0000000  0.0000000 )


      isym = 46     inv. 120 deg rotation - cart. axis [-1,1,-1] 

 cryst.   s(46) = (     0          1          0      )
                  (     0          0          1      )
                  (    -1          0          0      )

 cart.    s(46) = (  0.0000000  0.0000000 -1.0000000 )
                  (  1.0000000  0.0000000  0.0000000 )
                  (  0.0000000  1.0000000  0.0000000 )


      isym = 47     inv. 120 deg rotation - cart. axis [1,-1,-1] 

 cryst.   s(47) = (     0          1          0      )
                  (     0          0         -1      )
                  (     1          0          0      )

 cart.    s(47) = (  0.0000000  0.0000000  1.0000000 )
                  (  1.0000000  0.0000000  0.0000000 )
                  (  0.0000000 -1.0000000  0.0000000 )


      isym = 48     inv. 120 deg rotation - cart. axis [-1,-1,1] 

 cryst.   s(48) = (     0         -1          0      )
                  (     0          0          1      )
                  (     1          0          0      )

 cart.    s(48) = (  0.0000000  0.0000000  1.0000000 )
                  ( -1.0000000  0.0000000  0.0000000 )
                  (  0.0000000  1.0000000  0.0000000 )


   Cartesian axes

     site n.     atom                  positions (alat units)
         1           Ni  tau(   1) = (   0.0000000   0.0000000   0.0000000  )
         2           Ni  tau(   2) = (   0.0000000   0.5000000   0.5000000  )
         3           Ni  tau(   3) = (   0.5000000   0.0000000   0.5000000  )
         4           Ni  tau(   4) = (   0.5000000   0.5000000   0.0000000  )

   Crystallographic axes

     site n.     atom                  positions (cryst. coord.)
         1           Ni  tau(   1) = (  0.0000000  0.0000000  0.0000000  )
         2           Ni  tau(   2) = (  0.0000000  0.5000000  0.5000000  )
         3           Ni  tau(   3) = (  0.5000000  0.0000000  0.5000000  )
         4           Ni  tau(   4) = (  0.5000000  0.5000000  0.0000000  )

     number of k points=    84  Marzari-Vanderbilt smearing, width (Ry)=  0.0100
                       cart. coord. in units 2pi/alat
        k(    1) = (   0.0000000   0.0000000   0.0000000), wk =   0.0005787
        k(    2) = (   0.0000000   0.0000000   0.0833333), wk =   0.0034722
        k(    3) = (   0.0000000   0.0000000   0.1666667), wk =   0.0034722
        k(    4) = (   0.0000000   0.0000000   0.2500000), wk =   0.0034722
        k(    5) = (   0.0000000   0.0000000   0.3333333), wk =   0.0034722
        k(    6) = (   0.0000000   0.0000000   0.4166667), wk =   0.0034722
        k(    7) = (   0.0000000   0.0000000  -0.5000000), wk =   0.0017361
        k(    8) = (   0.0000000   0.0833333   0.0833333), wk =   0.0069444
        k(    9) = (   0.0000000   0.0833333   0.1666667), wk =   0.0138889
        k(   10) = (   0.0000000   0.0833333   0.2500000), wk =   0.0138889
        k(   11) = (   0.0000000   0.0833333   0.3333333), wk =   0.0138889
        k(   12) = (   0.0000000   0.0833333   0.4166667), wk =   0.0138889
        k(   13) = (   0.0000000   0.0833333  -0.5000000), wk =   0.0069444
        k(   14) = (   0.0000000   0.1666667   0.1666667), wk =   0.0069444
        k(   15) = (   0.0000000   0.1666667   0.2500000), wk =   0.0138889
        k(   16) = (   0.0000000   0.1666667   0.3333333), wk =   0.0138889
        k(   17) = (   0.0000000   0.1666667   0.4166667), wk =   0.0138889
        k(   18) = (   0.0000000   0.1666667  -0.5000000), wk =   0.0069444
        k(   19) = (   0.0000000   0.2500000   0.2500000), wk =   0.0069444
        k(   20) = (   0.0000000   0.2500000   0.3333333), wk =   0.0138889
        k(   21) = (   0.0000000   0.2500000   0.4166667), wk =   0.0138889
        k(   22) = (   0.0000000   0.2500000  -0.5000000), wk =   0.0069444
        k(   23) = (   0.0000000   0.3333333   0.3333333), wk =   0.0069444
        k(   24) = (   0.0000000   0.3333333   0.4166667), wk =   0.0138889
        k(   25) = (   0.0000000   0.3333333  -0.5000000), wk =   0.0069444
        k(   26) = (   0.0000000   0.4166667   0.4166667), wk =   0.0069444
        k(   27) = (   0.0000000   0.4166667  -0.5000000), wk =   0.0069444
        k(   28) = (   0.0000000  -0.5000000  -0.5000000), wk =   0.0017361
        k(   29) = (   0.0833333   0.0833333   0.0833333), wk =   0.0046296
        k(   30) = (   0.0833333   0.0833333   0.1666667), wk =   0.0138889
        k(   31) = (   0.0833333   0.0833333   0.2500000), wk =   0.0138889
        k(   32) = (   0.0833333   0.0833333   0.3333333), wk =   0.0138889
        k(   33) = (   0.0833333   0.0833333   0.4166667), wk =   0.0138889
        k(   34) = (   0.0833333   0.0833333  -0.5000000), wk =   0.0069444
        k(   35) = (   0.0833333   0.1666667   0.1666667), wk =   0.0138889
        k(   36) = (   0.0833333   0.1666667   0.2500000), wk =   0.0277778
        k(   37) = (   0.0833333   0.1666667   0.3333333), wk =   0.0277778
        k(   38) = (   0.0833333   0.1666667   0.4166667), wk =   0.0277778
        k(   39) = (   0.0833333   0.1666667  -0.5000000), wk =   0.0138889
        k(   40) = (   0.0833333   0.2500000   0.2500000), wk =   0.0138889
        k(   41) = (   0.0833333   0.2500000   0.3333333), wk =   0.0277778
        k(   42) = (   0.0833333   0.2500000   0.4166667), wk =   0.0277778
        k(   43) = (   0.0833333   0.2500000  -0.5000000), wk =   0.0138889
        k(   44) = (   0.0833333   0.3333333   0.3333333), wk =   0.0138889
        k(   45) = (   0.0833333   0.3333333   0.4166667), wk =   0.0277778
        k(   46) = (   0.0833333   0.3333333  -0.5000000), wk =   0.0138889
        k(   47) = (   0.0833333   0.4166667   0.4166667), wk =   0.0138889
        k(   48) = (   0.0833333   0.4166667  -0.5000000), wk =   0.0138889
        k(   49) = (   0.0833333  -0.5000000  -0.5000000), wk =   0.0034722
        k(   50) = (   0.1666667   0.1666667   0.1666667), wk =   0.0046296
        k(   51) = (   0.1666667   0.1666667   0.2500000), wk =   0.0138889
        k(   52) = (   0.1666667   0.1666667   0.3333333), wk =   0.0138889
        k(   53) = (   0.1666667   0.1666667   0.4166667), wk =   0.0138889
        k(   54) = (   0.1666667   0.1666667  -0.5000000), wk =   0.0069444
        k(   55) = (   0.1666667   0.2500000   0.2500000), wk =   0.0138889
        k(   56) = (   0.1666667   0.2500000   0.3333333), wk =   0.0277778
        k(   57) = (   0.1666667   0.2500000   0.4166667), wk =   0.0277778
        k(   58) = (   0.1666667   0.2500000  -0.5000000), wk =   0.0138889
        k(   59) = (   0.1666667   0.3333333   0.3333333), wk =   0.0138889
        k(   60) = (   0.1666667   0.3333333   0.4166667), wk =   0.0277778
        k(   61) = (   0.1666667   0.3333333  -0.5000000), wk =   0.0138889
        k(   62) = (   0.1666667   0.4166667   0.4166667), wk =   0.0138889
        k(   63) = (   0.1666667   0.4166667  -0.5000000), wk =   0.0138889
        k(   64) = (   0.1666667  -0.5000000  -0.5000000), wk =   0.0034722
        k(   65) = (   0.2500000   0.2500000   0.2500000), wk =   0.0046296
        k(   66) = (   0.2500000   0.2500000   0.3333333), wk =   0.0138889
        k(   67) = (   0.2500000   0.2500000   0.4166667), wk =   0.0138889
        k(   68) = (   0.2500000   0.2500000  -0.5000000), wk =   0.0069444
        k(   69) = (   0.2500000   0.3333333   0.3333333), wk =   0.0138889
        k(   70) = (   0.2500000   0.3333333   0.4166667), wk =   0.0277778
        k(   71) = (   0.2500000   0.3333333  -0.5000000), wk =   0.0138889
        k(   72) = (   0.2500000   0.4166667   0.4166667), wk =   0.0138889
        k(   73) = (   0.2500000   0.4166667  -0.5000000), wk =   0.0138889
        k(   74) = (   0.2500000  -0.5000000  -0.5000000), wk =   0.0034722
        k(   75) = (   0.3333333   0.3333333   0.3333333), wk =   0.0046296
        k(   76) = (   0.3333333   0.3333333   0.4166667), wk =   0.0138889
        k(   77) = (   0.3333333   0.3333333  -0.5000000), wk =   0.0069444
        k(   78) = (   0.3333333   0.4166667   0.4166667), wk =   0.0138889
        k(   79) = (   0.3333333   0.4166667  -0.5000000), wk =   0.0138889
        k(   80) = (   0.3333333  -0.5000000  -0.5000000), wk =   0.0034722
        k(   81) = (   0.4166667   0.4166667   0.4166667), wk =   0.0046296
        k(   82) = (   0.4166667   0.4166667  -0.5000000), wk =   0.0069444
        k(   83) = (   0.4166667  -0.5000000  -0.5000000), wk =   0.0034722
        k(   84) = (  -0.5000000  -0.5000000  -0.5000000), wk =   0.0005787

                       cryst. coord.
        k(    1) = (   0.0000000   0.0000000   0.0000000), wk =   0.0005787
        k(    2) = (   0.0000000   0.0000000   0.0833333), wk =   0.0034722
        k(    3) = (   0.0000000   0.0000000   0.1666667), wk =   0.0034722
        k(    4) = (   0.0000000   0.0000000   0.2500000), wk =   0.0034722
        k(    5) = (   0.0000000   0.0000000   0.3333333), wk =   0.0034722
        k(    6) = (   0.0000000   0.0000000   0.4166667), wk =   0.0034722
        k(    7) = (   0.0000000   0.0000000  -0.5000000), wk =   0.0017361
        k(    8) = (   0.0000000   0.0833333   0.0833333), wk =   0.0069444
        k(    9) = (   0.0000000   0.0833333   0.1666667), wk =   0.0138889
        k(   10) = (   0.0000000   0.0833333   0.2500000), wk =   0.0138889
        k(   11) = (   0.0000000   0.0833333   0.3333333), wk =   0.0138889
        k(   12) = (   0.0000000   0.0833333   0.4166667), wk =   0.0138889
        k(   13) = (   0.0000000   0.0833333  -0.5000000), wk =   0.0069444
        k(   14) = (   0.0000000   0.1666667   0.1666667), wk =   0.0069444
        k(   15) = (   0.0000000   0.1666667   0.2500000), wk =   0.0138889
        k(   16) = (   0.0000000   0.1666667   0.3333333), wk =   0.0138889
        k(   17) = (   0.0000000   0.1666667   0.4166667), wk =   0.0138889
        k(   18) = (   0.0000000   0.1666667  -0.5000000), wk =   0.0069444
        k(   19) = (   0.0000000   0.2500000   0.2500000), wk =   0.0069444
        k(   20) = (   0.0000000   0.2500000   0.3333333), wk =   0.0138889
        k(   21) = (   0.0000000   0.2500000   0.4166667), wk =   0.0138889
        k(   22) = (   0.0000000   0.2500000  -0.5000000), wk =   0.0069444
        k(   23) = (   0.0000000   0.3333333   0.3333333), wk =   0.0069444
        k(   24) = (   0.0000000   0.3333333   0.4166667), wk =   0.0138889
        k(   25) = (   0.0000000   0.3333333  -0.5000000), wk =   0.0069444
        k(   26) = (   0.0000000   0.4166667   0.4166667), wk =   0.0069444
        k(   27) = (   0.0000000   0.4166667  -0.5000000), wk =   0.0069444
        k(   28) = (   0.0000000  -0.5000000  -0.5000000), wk =   0.0017361
        k(   29) = (   0.0833333   0.0833333   0.0833333), wk =   0.0046296
        k(   30) = (   0.0833333   0.0833333   0.1666667), wk =   0.0138889
        k(   31) = (   0.0833333   0.0833333   0.2500000), wk =   0.0138889
        k(   32) = (   0.0833333   0.0833333   0.3333333), wk =   0.0138889
        k(   33) = (   0.0833333   0.0833333   0.4166667), wk =   0.0138889
        k(   34) = (   0.0833333   0.0833333  -0.5000000), wk =   0.0069444
        k(   35) = (   0.0833333   0.1666667   0.1666667), wk =   0.0138889
        k(   36) = (   0.0833333   0.1666667   0.2500000), wk =   0.0277778
        k(   37) = (   0.0833333   0.1666667   0.3333333), wk =   0.0277778
        k(   38) = (   0.0833333   0.1666667   0.4166667), wk =   0.0277778
        k(   39) = (   0.0833333   0.1666667  -0.5000000), wk =   0.0138889
        k(   40) = (   0.0833333   0.2500000   0.2500000), wk =   0.0138889
        k(   41) = (   0.0833333   0.2500000   0.3333333), wk =   0.0277778
        k(   42) = (   0.0833333   0.2500000   0.4166667), wk =   0.0277778
        k(   43) = (   0.0833333   0.2500000  -0.5000000), wk =   0.0138889
        k(   44) = (   0.0833333   0.3333333   0.3333333), wk =   0.0138889
        k(   45) = (   0.0833333   0.3333333   0.4166667), wk =   0.0277778
        k(   46) = (   0.0833333   0.3333333  -0.5000000), wk =   0.0138889
        k(   47) = (   0.0833333   0.4166667   0.4166667), wk =   0.0138889
        k(   48) = (   0.0833333   0.4166667  -0.5000000), wk =   0.0138889
        k(   49) = (   0.0833333  -0.5000000  -0.5000000), wk =   0.0034722
        k(   50) = (   0.1666667   0.1666667   0.1666667), wk =   0.0046296
        k(   51) = (   0.1666667   0.1666667   0.2500000), wk =   0.0138889
        k(   52) = (   0.1666667   0.1666667   0.3333333), wk =   0.0138889
        k(   53) = (   0.1666667   0.1666667   0.4166667), wk =   0.0138889
        k(   54) = (   0.1666667   0.1666667  -0.5000000), wk =   0.0069444
        k(   55) = (   0.1666667   0.2500000   0.2500000), wk =   0.0138889
        k(   56) = (   0.1666667   0.2500000   0.3333333), wk =   0.0277778
        k(   57) = (   0.1666667   0.2500000   0.4166667), wk =   0.0277778
        k(   58) = (   0.1666667   0.2500000  -0.5000000), wk =   0.0138889
        k(   59) = (   0.1666667   0.3333333   0.3333333), wk =   0.0138889
        k(   60) = (   0.1666667   0.3333333   0.4166667), wk =   0.0277778
        k(   61) = (   0.1666667   0.3333333  -0.5000000), wk =   0.0138889
        k(   62) = (   0.1666667   0.4166667   0.4166667), wk =   0.0138889
        k(   63) = (   0.1666667   0.4166667  -0.5000000), wk =   0.0138889
        k(   64) = (   0.1666667  -0.5000000  -0.5000000), wk =   0.0034722
        k(   65) = (   0.2500000   0.2500000   0.2500000), wk =   0.0046296
        k(   66) = (   0.2500000   0.2500000   0.3333333), wk =   0.0138889
        k(   67) = (   0.2500000   0.2500000   0.4166667), wk =   0.0138889
        k(   68) = (   0.2500000   0.2500000  -0.5000000), wk =   0.0069444
        k(   69) = (   0.2500000   0.3333333   0.3333333), wk =   0.0138889
        k(   70) = (   0.2500000   0.3333333   0.4166667), wk =   0.0277778
        k(   71) = (   0.2500000   0.3333333  -0.5000000), wk =   0.0138889
        k(   72) = (   0.2500000   0.4166667   0.4166667), wk =   0.0138889
        k(   73) = (   0.2500000   0.4166667  -0.5000000), wk =   0.0138889
        k(   74) = (   0.2500000  -0.5000000  -0.5000000), wk =   0.0034722
        k(   75) = (   0.3333333   0.3333333   0.3333333), wk =   0.0046296
        k(   76) = (   0.3333333   0.3333333   0.4166667), wk =   0.0138889
        k(   77) = (   0.3333333   0.3333333  -0.5000000), wk =   0.0069444
        k(   78) = (   0.3333333   0.4166667   0.4166667), wk =   0.0138889
        k(   79) = (   0.3333333   0.4166667  -0.5000000), wk =   0.0138889
        k(   80) = (   0.3333333  -0.5000000  -0.5000000), wk =   0.0034722
        k(   81) = (   0.4166667   0.4166667   0.4166667), wk =   0.0046296
        k(   82) = (   0.4166667   0.4166667  -0.5000000), wk =   0.0069444
        k(   83) = (   0.4166667  -0.5000000  -0.5000000), wk =   0.0034722
        k(   84) = (  -0.5000000  -0.5000000  -0.5000000), wk =   0.0005787

     Dense  grid:   108143 G-vectors     FFT dimensions: (  60,  60,  60)

     Smooth grid:    70319 G-vectors     FFT dimensions: (  54,  54,  54)

     Dynamical RAM for                 wfc:       0.41 MB

     Dynamical RAM for     wfc (w. buffer):      34.97 MB

     Dynamical RAM for           str. fact:       0.12 MB

     Dynamical RAM for           local pot:       0.00 MB

     Dynamical RAM for          nlocal pot:       0.69 MB

     Dynamical RAM for                qrad:       2.27 MB

     Dynamical RAM for          rho,v,vnew:       1.53 MB

     Dynamical RAM for               rhoin:       0.51 MB

     Dynamical RAM for            rho*nmix:       3.77 MB

     Dynamical RAM for           G-vectors:       0.48 MB

     Dynamical RAM for          h,s,v(r/c):       0.34 MB

     Dynamical RAM for          <psi|beta>:       0.05 MB

     Dynamical RAM for                 psi:       0.82 MB

     Dynamical RAM for                hpsi:       0.82 MB

     Dynamical RAM for                spsi:       0.82 MB

     Dynamical RAM for      wfcinit/wfcrot:       0.87 MB

     Dynamical RAM for           addusdens:      11.37 MB

     Estimated static dynamical RAM per process >      41.63 MB

     Estimated max dynamical RAM per process >      56.77 MB

     Estimated total dynamical RAM >       1.50 GB
     Generating pointlists ...
     new r_m :   0.2917 (alat units)  1.9155 (a.u.) for type    1

     The initial density is read from file :
     out/Ni.save/charge-density

     Starting wfcs from file
     Checking if some PAW data can be deallocated... 

     total cpu time spent up to now is        1.0 secs

     Self-consistent Calculation

     iteration #  1     ecut=   150.00 Ry     beta= 0.70
     Davidson diagonalization with overlap

---- Real-time Memory Report at c_bands before calling an iterative solver
            82 MiB given to the printing process from OS
             0 MiB allocation reported by mallinfo(arena+hblkhd)
        100347 MiB available memory on the node where the printing process lives
------------------
     ethr =  1.00E-05,  avg # of iterations =  2.0

     Threshold (ethr) on eigenvalues was too large:
     Diagonalizing with lowered threshold

     Davidson diagonalization with overlap

---- Real-time Memory Report at c_bands before calling an iterative solver
           110 MiB given to the printing process from OS
             0 MiB allocation reported by mallinfo(arena+hblkhd)
         99721 MiB available memory on the node where the printing process lives
------------------
     ethr =  1.76E-08,  avg # of iterations =  1.0

     total cpu time spent up to now is       10.7 secs

     total energy              =   -1716.65418869 Ry
     estimated scf accuracy    <       0.00001307 Ry

     total magnetization       =     2.59 Bohr mag/cell
     absolute magnetization    =     2.94 Bohr mag/cell

     iteration #  2     ecut=   150.00 Ry     beta= 0.70
     Davidson diagonalization with overlap

---- Real-time Memory Report at c_bands before calling an iterative solver
           113 MiB given to the printing process from OS
             0 MiB allocation reported by mallinfo(arena+hblkhd)
         99819 MiB available memory on the node where the printing process lives
------------------
     ethr =  1.82E-08,  avg # of iterations =  3.3

     total cpu time spent up to now is       17.1 secs

     total energy              =   -1716.65413876 Ry
     estimated scf accuracy    <       0.00111140 Ry

     total magnetization       =     2.58 Bohr mag/cell
     absolute magnetization    =     2.93 Bohr mag/cell

     iteration #  3     ecut=   150.00 Ry     beta= 0.70
     Davidson diagonalization with overlap

---- Real-time Memory Report at c_bands before calling an iterative solver
           115 MiB given to the printing process from OS
             0 MiB allocation reported by mallinfo(arena+hblkhd)
         99811 MiB available memory on the node where the printing process lives
------------------
     ethr =  1.82E-08,  avg # of iterations =  3.2

     total cpu time spent up to now is       23.5 secs

     total energy              =   -1716.65419618 Ry
     estimated scf accuracy    <       0.00000507 Ry

     total magnetization       =     2.58 Bohr mag/cell
     absolute magnetization    =     2.93 Bohr mag/cell

     iteration #  4     ecut=   150.00 Ry     beta= 0.70
     Davidson diagonalization with overlap

---- Real-time Memory Report at c_bands before calling an iterative solver
           116 MiB given to the printing process from OS
             0 MiB allocation reported by mallinfo(arena+hblkhd)
         99799 MiB available memory on the node where the printing process lives
------------------
     ethr =  7.05E-09,  avg # of iterations =  2.0

     total cpu time spent up to now is       28.7 secs

     total energy              =   -1716.65419691 Ry
     estimated scf accuracy    <       0.00000149 Ry

     total magnetization       =     2.58 Bohr mag/cell
     absolute magnetization    =     2.93 Bohr mag/cell

     iteration #  5     ecut=   150.00 Ry     beta= 0.70
     Davidson diagonalization with overlap

---- Real-time Memory Report at c_bands before calling an iterative solver
           118 MiB given to the printing process from OS
             0 MiB allocation reported by mallinfo(arena+hblkhd)
         99787 MiB available memory on the node where the printing process lives
------------------
     ethr =  2.07E-09,  avg # of iterations =  2.1
 
     Magnetic moment per site  (integrated on atomic sphere of radius R)
     atom   1 (R=0.292)  charge= 16.6724  magn=  0.6804
     atom   2 (R=0.292)  charge= 16.6725  magn=  0.6804
     atom   3 (R=0.292)  charge= 16.6725  magn=  0.6804
     atom   4 (R=0.292)  charge= 16.6725  magn=  0.6804

     total cpu time spent up to now is       33.9 secs

     End of self-consistent calculation

 ------ SPIN UP ------------


          k = 0.0000 0.0000 0.0000 (  8733 PWs)   bands (ev):

   -84.9512 -84.8987 -84.8987 -84.8986 -45.4249 -45.4249 -45.4249 -45.2823
   -45.2823 -45.2823 -45.2823 -45.2823 -45.2823 -45.1892 -45.1892 -45.1892
     9.4380  13.8968  13.8968  13.8968  14.3784  14.3784  14.3784  16.2582
    16.2582  16.2582  17.5181  17.5181  18.2749  18.2749  18.2749  18.3509
    18.3509  18.3509  18.3509  18.3509  18.3509  21.2012  21.2012  21.2012
    28.3058  28.3058  28.3058

     occupation numbers 
     1.0000   1.0000   1.0000   1.0000   1.0000   1.0000   1.0000   1.0000
     1.0000   1.0000   1.0000   1.0000   1.0000   1.0000   1.0000   1.0000
     1.0000   1.0000   1.0000   1.0000   1.0000   1.0000   1.0000   1.0000
     1.0000   1.0000   1.0000   1.0000   1.0000   1.0000   1.0000   1.0001
     1.0001   1.0001   1.0001   1.0001   1.0001   0.0000   0.0000   0.0000
     0.0000   0.0000   0.0000

          k = 0.0000 0.0000 0.0833 (  8797 PWs)   bands (ev):

   -84.9503 -84.8996 -84.8987 -84.8986 -45.4225 -45.4225 -45.4210 -45.2848
   -45.2848 -45.2825 -45.2825 -45.2808 -45.2808 -45.1934 -45.1909 -45.1909
     9.5315  13.9042  13.9464  13.9464  14.4078  14.4108  14.4108  16.2232
    16.2850  16.2850  17.4857  17.5306  18.1249  18.1249  18.2327  18.2328
    18.2615  18.3023  18.3023  18.3510  18.3510  20.7218  21.5044  21.5044
    28.3263  28.3263  28.9444

     occupation numbers 
     1.0000   1.0000   1.0000   1.0000   1.0000   1.0000   1.0000   1.0000
     1.0000   1.0000   1.0000   1.0000   1.0000   1.0000   1.0000   1.0000
     1.0000   1.0000   1.0000   1.0000   1.0000   1.0000   1.0000   1.0000
     1.0000   1.0000   1.0000   1.0000   1.0000   1.0000   1.0000   1.0000
     1.0000   1.0000   1.0000   1.0001   1.0001   0.0000   0.0000   0.0000
     0.0000   0.0000   0.0000

          k = 0.0000 0.0000 0.1667 (  8777 PWs)   bands (ev):

   -84.9477 -84.9022 -84.8987 -84.8986 -45.4154 -45.4154 -45.4096 -45.2919
   -45.2919 -45.2828 -45.2828 -45.2761 -45.2761 -45.2056 -45.1955 -45.1955
     9.8093  13.9095  14.0885  14.0885  14.4944  14.5084  14.5084  16.1213
    16.3650  16.3650  17.3925  17.5672  17.6235  17.6235  18.1107  18.1107
    18.1635  18.1635  18.2226  18.3512  18.3512  19.6506  22.2367  22.2367
    28.3901  28.3901  30.5030

     occupation numbers 
     1.0000   1.0000   1.0000   1.0000   1.0000   1.0000   1.0000   1.0000
     1.0000   1.0000   1.0000   1.0000   1.0000   1.0000   1.0000   1.0000
     1.0000   1.0000   1.0000   1.0000   1.0000   1.0000   1.0000   1.0000
     1.0000   1.0000   1.0000   1.0000   1.0000   1.0000   1.0000   1.0000
     1.0000   1.0000   1.0000   1.0001   1.0001   0.0000   0.0000   0.0000
     0.0000   0.0000   0.0000

          k = 0.0000 0.0000 0.2500 (  8778 PWs)   bands (ev):

   -84.9435 -84.9063 -84.8986 -84.8986 -45.4041 -45.4041 -45.3915 -45.3033
   -45.3033 -45.2832 -45.2832 -45.2687 -45.2687 -45.2249 -45.2029 -45.2029
    10.2624  13.8547  14.3013  14.3013  14.6338  14.6720  14.6720  15.9611
    16.4963  16.4963  17.0550  17.0550  17.2504  17.6258  17.9240  17.9241
    17.9538  17.9538  18.1608  18.3515  18.3515  18.4919  23.1882  23.1882
    28.5031  28.5031  30.7788

     occupation numbers 
     1.0000   1.0000   1.0000   1.0000   1.0000   1.0000   1.0000   1.0000
     1.0000   1.0000   1.0000   1.0000   1.0000   1.0000   1.0000   1.0000
     1.0000   1.0000   1.0000   1.0000   1.0000   1.0000   1.0000   1.0000
     1.0000   1.0000   1.0000   1.0000   1.0000   1.0000   1.0000   1.0000
     1.0000   1.0000   1.0000   1.0001   1.0001   1.0090   0.0000   0.0000
     0.0000   0.0000   0.0000

          k = 0.0000 0.0000 0.3333 (  8770 PWs)   bands (ev):

   -84.9380 -84.9118 -84.8986 -84.8986 -45.3893 -45.3893 -45.3677 -45.3181
   -45.3181 -45.2836 -45.2836 -45.2591 -45.2591 -45.2499 -45.2126 -45.2126
    10.8732  13.6290  14.5436  14.5436  14.8181  14.9030  14.9030  15.7561
    16.5055  16.5055  16.6752  16.6752  17.0829  17.5575  17.6984  17.6984
    17.7026  17.7066  17.7066  18.0809  18.3518  18.3518  24.2697  24.2697
    28.6690  28.6690  29.3817

     occupation numbers 
     1.0000   1.0000   1.0000   1.0000   1.0000   1.0000   1.0000   1.0000
     1.0000   1.0000   1.0000   1.0000   1.0000   1.0000   1.0000   1.0000
     1.0000   1.0000   1.0000   1.0000   1.0000   1.0000   1.0000   1.0000
     1.0000   1.0000   1.0000   1.0000   1.0000   1.0000   1.0000   1.0000
     1.0000   1.0000   1.0000   1.0000   1.0001   1.0001   0.0000   0.0000
     0.0000   0.0000   0.0000

          k = 0.0000 0.0000 0.4167 (  8782 PWs)   bands (ev):

   -84.9317 -84.9181 -84.8986 -84.8986 -45.3722 -45.3722 -45.3397 -45.3353
   -45.3353 -45.2840 -45.2840 -45.2787 -45.2479 -45.2479 -45.2238 -45.2238
    11.6077  13.1276  14.7481  14.7481  15.0368  15.2024  15.2024  15.5221
    16.0066  16.0066  16.8959  16.8959  16.9313  17.0253  17.4228  17.4228
    17.5192  17.5192  17.7927  17.9885  18.3520  18.3520  25.4455  25.4455
    28.0142  28.0142  28.8678

     occupation numbers 
     1.0000   1.0000   1.0000   1.0000   1.0000   1.0000   1.0000   1.0000
     1.0000   1.0000   1.0000   1.0000   1.0000   1.0000   1.0000   1.0000
     1.0000   1.0000   1.0000   1.0000   1.0000   1.0000   1.0000   1.0000
     1.0000   1.0000   1.0000   1.0000   1.0000   1.0000   1.0000   1.0000
     1.0000   1.0000   1.0000   1.0000   1.0001   1.0001   0.0000   0.0000
     0.0000   0.0000   0.0000

          k = 0.0000 0.0000-0.5000 (  8778 PWs)   bands (ev):

   -84.9249 -84.9249 -84.8986 -84.8986 -45.3537 -45.3537 -45.3537 -45.3537
   -45.3094 -45.3093 -45.2841 -45.2841 -45.2358 -45.2358 -45.2358 -45.2358
    12.4002  12.4002  14.8311  14.8311  15.2767  15.2767  15.5706  15.5706
    15.5706  15.5706  16.8693  16.8693  17.1494  17.1494  17.1494  17.1494
    17.4423  17.4423  17.8901  17.8902  18.3521  18.3521  26.6978  26.6978
    26.6978  26.6978  28.9818

     occupation numbers 
     1.0000   1.0000   1.0000   1.0000   1.0000   1.0000   1.0000   1.0000
     1.0000   1.0000   1.0000   1.0000   1.0000   1.0000   1.0000   1.0000
     1.0000   1.0000   1.0000   1.0000   1.0000   1.0000   1.0000   1.0000
     1.0000   1.0000   1.0000   1.0000   1.0000   1.0000   1.0000   1.0000
     1.0000   1.0000   1.0000   1.0000   1.0001   1.0001   0.0000   0.0000
     0.0000   0.0000   0.0000

          k = 0.0000 0.0833 0.0833 (  8804 PWs)   bands (ev):

   -84.9494 -84.8995 -84.8995 -84.8987 -45.4201 -45.4188 -45.4188 -45.2896
   -45.2832 -45.2832 -45.2808 -45.2808 -45.2800 -45.1998 -45.1925 -45.1901
     9.6245  13.9547  13.9547  13.9947  14.4396  14.4396  14.4424  16.2032
    16.2977  16.3094  17.4766  17.5224  17.9628  18.0481  18.0481  18.1925
    18.2363  18.2363  18.3022  18.3022  18.3201  21.0261  21.0261  21.7748
    28.3447  28.9754  28.9755

     occupation numbers 
     1.0000   1.0000   1.0000   1.0000   1.0000   1.0000   1.0000   1.0000
     1.0000   1.0000   1.0000   1.0000   1.0000   1.0000   1.0000   1.0000
     1.0000   1.0000   1.0000   1.0000   1.0000   1.0000   1.0000   1.0000
     1.0000   1.0000   1.0000   1.0000   1.0000   1.0000   1.0000   1.0000
     1.0000   1.0000   1.0000   1.0000   1.0000   0.0000   0.0000   0.0000
     0.0000   0.0000   0.0000

          k = 0.0000 0.0833 0.1667 (  8769 PWs)   bands (ev):

   -84.9468 -84.9021 -84.8995 -84.8987 -45.4130 -45.4124 -45.4081 -45.2982
   -45.2903 -45.2808 -45.2785 -45.2785 -45.2759 -45.2132 -45.1972 -45.1931
     9.9006  13.9628  14.0996  14.1330  14.5246  14.5354  14.5374  16.1114
    16.3699  16.3815  17.3955  17.5298  17.5393  17.5550  17.8530  18.0758
    18.1150  18.1632  18.2107  18.3021  18.3033  19.9850  21.7334  22.4562
    28.3964  29.0714  30.5466

     occupation numbers 
     1.0000   1.0000   1.0000   1.0000   1.0000   1.0000   1.0000   1.0000
     1.0000   1.0000   1.0000   1.0000   1.0000   1.0000   1.0000   1.0000
     1.0000   1.0000   1.0000   1.0000   1.0000   1.0000   1.0000   1.0000
     1.0000   1.0000   1.0000   1.0000   1.0000   1.0000   1.0000   1.0000
     1.0000   1.0000   1.0000   1.0000   1.0000   0.0000   0.0000   0.0000
     0.0000   0.0000   0.0000

          k = 0.0000 0.0833 0.2500 (  8773 PWs)   bands (ev):

   -84.9427 -84.9062 -84.8994 -84.8988 -45.4022 -45.4018 -45.3910 -45.3097
   -45.3016 -45.2808 -45.2782 -45.2710 -45.2680 -45.2325 -45.2046 -45.1999
    10.3510  13.9124  14.3172  14.3410  14.6610  14.6953  14.6960  15.9572
    16.4967  16.4988  16.9748  17.0032  17.2641  17.5422  17.6195  17.8966
    17.9305  17.9532  18.1397  18.2993  18.3018  18.9307  22.6222  23.3709
    28.4350  29.2379  29.6165

     occupation numbers 
     1.0000   1.0000   1.0000   1.0000   1.0000   1.0000   1.0000   1.0000
     1.0000   1.0000   1.0000   1.0000   1.0000   1.0000   1.0000   1.0000
     1.0000   1.0000   1.0000   1.0000   1.0000   1.0000   1.0000   1.0000
     1.0000   1.0000   1.0000   1.0000   1.0000   1.0000   1.0000   1.0000
     1.0000   1.0000   1.0000   1.0000   1.0000   0.0828   0.0000   0.0000
     0.0000   0.0000   0.0000

          k = 0.0000 0.0833 0.3333 (  8781 PWs)   bands (ev):

   -84.9374 -84.9116 -84.8993 -84.8988 -45.3888 -45.3871 -45.3686 -45.3238
   -45.3163 -45.2806 -45.2785 -45.2613 -45.2579 -45.2568 -45.2144 -45.2094
    10.9577  13.6916  14.5665  14.5815  14.8415  14.9130  14.9224  15.7578
    16.4358  16.4801  16.6364  16.6765  17.1271  17.1305  17.6876  17.6976
    17.7053  17.7143  17.9611  18.2504  18.2987  18.3013  23.6062  24.4282
    27.9577  29.0095  29.4679

     occupation numbers 
     1.0000   1.0000   1.0000   1.0000   1.0000   1.0000   1.0000   1.0000
     1.0000   1.0000   1.0000   1.0000   1.0000   1.0000   1.0000   1.0000
     1.0000   1.0000   1.0000   1.0000   1.0000   1.0000   1.0000   1.0000
     1.0000   1.0000   1.0000   1.0000   1.0000   1.0000   1.0000   1.0000
     1.0000   1.0000   1.0000   1.0000   1.0000   1.0000   0.0000   0.0000
     0.0000   0.0000   0.0000

          k = 0.0000 0.0833 0.4167 (  8804 PWs)   bands (ev):

   -84.9311 -84.9178 -84.8992 -84.8989 -45.3733 -45.3701 -45.3421 -45.3397
   -45.3334 -45.2843 -45.2803 -45.2791 -45.2500 -45.2461 -45.2257 -45.2209
    11.6870  13.1951  14.7804  14.7899  15.0556  15.1885  15.2154  15.5297
    15.9508  15.9987  16.7203  16.8069  16.8964  17.1013  17.4222  17.5090
    17.5247  17.5957  17.8066  18.0410  18.2991  18.3007  24.6509  25.5877
    26.8643  28.1381  29.1729

     occupation numbers 
     1.0000   1.0000   1.0000   1.0000   1.0000   1.0000   1.0000   1.0000
     1.0000   1.0000   1.0000   1.0000   1.0000   1.0000   1.0000   1.0000
     1.0000   1.0000   1.0000   1.0000   1.0000   1.0000   1.0000   1.0000
     1.0000   1.0000   1.0000   1.0000   1.0000   1.0000   1.0000   1.0000
     1.0000   1.0000   1.0000   1.0000   1.0000   1.0000   0.0000   0.0000
     0.0000   0.0000   0.0000

          k = 0.0000 0.0833-0.5000 (  8802 PWs)   bands (ev):

   -84.9245 -84.9244 -84.8991 -84.8990 -45.3566 -45.3565 -45.3517 -45.3517
   -45.3134 -45.3134 -45.2798 -45.2798 -45.2379 -45.2379 -45.2334 -45.2334
    12.4734  12.4734  14.8719  14.8719  15.2901  15.2901  15.5327  15.5327
    15.5750  15.5750  16.7096  16.7096  17.1492  17.1492  17.2891  17.2891
    17.4411  17.4411  17.9183  17.9183  18.2999  18.2999  25.7404  25.7404
    26.8289  26.8290  29.4836

     occupation numbers 
     1.0000   1.0000   1.0000   1.0000   1.0000   1.0000   1.0000   1.0000
     1.0000   1.0000   1.0000   1.0000   1.0000   1.0000   1.0000   1.0000
     1.0000   1.0000   1.0000   1.0000   1.0000   1.0000   1.0000   1.0000
     1.0000   1.0000   1.0000   1.0000   1.0000   1.0000   1.0000   1.0000
     1.0000   1.0000   1.0000   1.0000   1.0000   1.0000   0.0000   0.0000
     0.0000   0.0000   0.0000

          k = 0.0000 0.1667 0.1667 (  8758 PWs)   bands (ev):

   -84.9444 -84.9019 -84.9019 -84.8989 -45.4061 -45.4037 -45.4037 -45.3091
   -45.2855 -45.2855 -45.2751 -45.2751 -45.2735 -45.2287 -45.2020 -45.1928
    10.1718  14.1160  14.1160  14.2603  14.6151  14.6151  14.6246  16.0555
    16.4129  16.4297  17.2497  17.3152  17.3152  17.3662  17.5607  17.9735
    18.1012  18.1012  18.1622  18.1622  18.2286  20.6710  20.6710  23.0442
    28.3389  29.4964  30.6758

     occupation numbers 
     1.0000   1.0000   1.0000   1.0000   1.0000   1.0000   1.0000   1.0000
     1.0000   1.0000   1.0000   1.0000   1.0000   1.0000   1.0000   1.0000
     1.0000   1.0000   1.0000   1.0000   1.0000   1.0000   1.0000   1.0000
     1.0000   1.0000   1.0000   1.0000   1.0000   1.0000   1.0000   1.0000
     1.0000   1.0000   1.0000   1.0000   1.0000   0.0000   0.0000   0.0000
     0.0000   0.0000   0.0000

          k = 0.0000 0.1667 0.2500 (  8774 PWs)   bands (ev):

   -84.9405 -84.9058 -84.9016 -84.8991 -45.3965 -45.3950 -45.3896 -45.3217
   -45.2966 -45.2778 -45.2739 -45.2701 -45.2661 -45.2489 -45.2097 -45.1968
    10.6137  14.0788  14.3481  14.4526  14.7429  14.7665  14.7668  15.9321
    16.5015  16.5214  16.7649  16.8443  16.9988  17.2725  17.6319  17.8150
    17.9258  17.9515  18.0355  18.1607  18.1853  19.6004  21.4739  23.8794
    27.6158  28.9481  30.8668

     occupation numbers 
     1.0000   1.0000   1.0000   1.0000   1.0000   1.0000   1.0000   1.0000
     1.0000   1.0000   1.0000   1.0000   1.0000   1.0000   1.0000   1.0000
     1.0000   1.0000   1.0000   1.0000   1.0000   1.0000   1.0000   1.0000
     1.0000   1.0000   1.0000   1.0000   1.0000   1.0000   1.0000   1.0000
     1.0000   1.0000   1.0000   1.0000   1.0000   0.0000   0.0000   0.0000
     0.0000   0.0000   0.0000

          k = 0.0000 0.1667 0.3333 (  8791 PWs)   bands (ev):

   -84.9354 -84.9109 -84.9012 -84.8995 -45.3869 -45.3806 -45.3708 -45.3352
   -45.3110 -45.2724 -45.2724 -45.2685 -45.2679 -45.2546 -45.2196 -45.2046
    11.2079  13.8726  14.6189  14.6847  14.9116  14.9489  14.9793  15.7565
    16.2563  16.4009  16.5659  16.6771  16.6884  17.1833  17.6287  17.6959
    17.7156  17.7464  17.8913  18.1589  18.1660  18.7943  22.3381  24.8789
    26.4235  29.0811  29.8522

     occupation numbers 
     1.0000   1.0000   1.0000   1.0000   1.0000   1.0000   1.0000   1.0000
     1.0000   1.0000   1.0000   1.0000   1.0000   1.0000   1.0000   1.0000
     1.0000   1.0000   1.0000   1.0000   1.0000   1.0000   1.0000   1.0000
     1.0000   1.0000   1.0000   1.0000   1.0000   1.0000   1.0000   1.0000
     1.0000   1.0000   1.0000   1.0000   1.0000   0.6364   0.0000   0.0000
     0.0000   0.0000   0.0000

          k = 0.0000 0.1667 0.4167 (  8789 PWs)   bands (ev):

   -84.9295 -84.9168 -84.9008 -84.8999 -45.3755 -45.3639 -45.3491 -45.3484
   -45.3278 -45.2978 -45.2707 -45.2684 -45.2562 -45.2416 -45.2313 -45.2154
    11.9206  13.3907  14.8625  14.9085  15.1110  15.1515  15.2532  15.5492
    15.8070  15.9729  16.4942  16.5567  16.9020  17.2092  17.4215  17.4730
    17.5240  17.6517  17.8904  18.1573  18.1586  18.3238  23.2531  25.2795
    25.9974  28.4994  29.3946

     occupation numbers 
     1.0000   1.0000   1.0000   1.0000   1.0000   1.0000   1.0000   1.0000
     1.0000   1.0000   1.0000   1.0000   1.0000   1.0000   1.0000   1.0000
     1.0000   1.0000   1.0000   1.0000   1.0000   1.0000   1.0000   1.0000
     1.0000   1.0000   1.0000   1.0000   1.0000   1.0000   1.0000   1.0000
     1.0000   1.0000   1.0000   1.0000   1.0000   1.0000   0.0000   0.0000
     0.0000   0.0000   0.0000

          k = 0.0000 0.1667-0.5000 (  8786 PWs)   bands (ev):

   -84.9231 -84.9231 -84.9004 -84.9003 -45.3627 -45.3627 -45.3459 -45.3458
   -45.3236 -45.3236 -45.2693 -45.2693 -45.2438 -45.2437 -45.2281 -45.2281
    12.6875  12.6875  14.9865  14.9865  15.3285  15.3285  15.4297  15.4297
    15.5862  15.5862  16.4894  16.4894  17.1509  17.1509  17.3884  17.3884
    17.4265  17.4265  18.0678  18.0678  18.1567  18.1567  24.2275  24.2275
    27.2096  27.2097  29.8425

     occupation numbers 
     1.0000   1.0000   1.0000   1.0000   1.0000   1.0000   1.0000   1.0000
     1.0000   1.0000   1.0000   1.0000   1.0000   1.0000   1.0000   1.0000
     1.0000   1.0000   1.0000   1.0000   1.0000   1.0000   1.0000   1.0000
     1.0000   1.0000   1.0000   1.0000   1.0000   1.0000   1.0000   1.0000
     1.0000   1.0000   1.0000   1.0000   1.0000   1.0000   0.0000   0.0000
     0.0000   0.0000   0.0000

          k = 0.0000 0.2500 0.2500 (  8790 PWs)   bands (ev):

   -84.9369 -84.9052 -84.9052 -84.8997 -45.3869 -45.3869 -45.3843 -45.3347
   -45.2886 -45.2886 -45.2692 -45.2634 -45.2633 -45.2633 -45.2176 -45.1976
    11.0407  14.3331  14.3331  14.6168  14.8793  14.8793  14.8862  15.8604
    16.4945  16.4945  16.5120  16.5857  16.5944  17.2238  17.6850  17.7210
    17.8708  17.8708  17.9493  17.9494  18.0796  20.3215  20.3215  24.6342
    26.2414  29.0359  31.8024

     occupation numbers 
     1.0000   1.0000   1.0000   1.0000   1.0000   1.0000   1.0000   1.0000
     1.0000   1.0000   1.0000   1.0000   1.0000   1.0000   1.0000   1.0000
     1.0000   1.0000   1.0000   1.0000   1.0000   1.0000   1.0000   1.0000
     1.0000   1.0000   1.0000   1.0000   1.0000   1.0000   1.0000   1.0000
     1.0000   1.0000   1.0000   1.0000   1.0000   0.0000   0.0000   0.0000
     0.0000   0.0000   0.0000

          k = 0.0000 0.2500 0.3333 (  8796 PWs)   bands (ev):

   -84.9323 -84.9098 -84.9044 -84.9005 -45.3826 -45.3734 -45.3703 -45.3473
   -45.3026 -45.2916 -45.2782 -45.2604 -45.2588 -45.2504 -45.2280 -45.2026
    11.6126  14.1498  14.6360  14.8156  15.0272  15.0320  15.0695  15.7350
    16.0456  16.2637  16.2747  16.5052  16.7314  17.1614  17.5289  17.6709
    17.6949  17.7416  17.8825  17.9478  18.0108  19.3989  21.0849  24.9509
    25.5673  29.2923  30.4088

     occupation numbers 
     1.0000   1.0000   1.0000   1.0000   1.0000   1.0000   1.0000   1.0000
     1.0000   1.0000   1.0000   1.0000   1.0000   1.0000   1.0000   1.0000
     1.0000   1.0000   1.0000   1.0000   1.0000   1.0000   1.0000   1.0000
     1.0000   1.0000   1.0000   1.0000   1.0000   1.0000   1.0000   1.0000
     1.0000   1.0000   1.0000   1.0000   1.0000   0.0000   0.0000   0.0000
     0.0000   0.0000   0.0000

          k = 0.0000 0.2500 0.4167 (  8789 PWs)   bands (ev):

   -84.9268 -84.9152 -84.9034 -84.9014 -45.3766 -45.3587 -45.3564 -45.3540
   -45.3190 -45.3144 -45.2661 -45.2578 -45.2566 -45.2401 -45.2365 -45.2113
    12.2948  13.6924  14.9241  15.0480  15.1376  15.2005  15.3113  15.5707
    15.6560  15.9237  16.2181  16.4327  16.9251  17.1856  17.4003  17.4244
    17.4826  17.5429  17.9488  17.9733  18.0956  18.7706  21.9026  23.8062
    26.6345  29.0715  29.6763

     occupation numbers 
     1.0000   1.0000   1.0000   1.0000   1.0000   1.0000   1.0000   1.0000
     1.0000   1.0000   1.0000   1.0000   1.0000   1.0000   1.0000   1.0000
     1.0000   1.0000   1.0000   1.0000   1.0000   1.0000   1.0000   1.0000
     1.0000   1.0000   1.0000   1.0000   1.0000   1.0000   1.0000   1.0000
     1.0000   1.0000   1.0000   1.0000   1.0000   0.7637   0.0000   0.0000
     0.0000   0.0000   0.0000

          k = 0.0000 0.2500-0.5000 (  8810 PWs)   bands (ev):

   -84.9210 -84.9210 -84.9024 -84.9024 -45.3686 -45.3686 -45.3365 -45.3365
   -45.3364 -45.3364 -45.2564 -45.2564 -45.2532 -45.2531 -45.2231 -45.2231
    13.0245  13.0245  15.1117  15.1117  15.3253  15.3253  15.3866  15.3866
    15.5996  15.5996  16.3060  16.3060  17.1614  17.1614  17.3306  17.3306
    17.3751  17.3751  17.9555  17.9555  18.3715  18.3715  22.7992  22.7992
    27.8085  27.8086  30.1971

     occupation numbers 
     1.0000   1.0000   1.0000   1.0000   1.0000   1.0000   1.0000   1.0000
     1.0000   1.0000   1.0000   1.0000   1.0000   1.0000   1.0000   1.0000
     1.0000   1.0000   1.0000   1.0000   1.0000   1.0000   1.0000   1.0000
     1.0000   1.0000   1.0000   1.0000   1.0000   1.0000   1.0000   1.0000
     1.0000   1.0000   1.0000   1.0000   1.0002   1.0002   0.0000   0.0000
     0.0000   0.0000   0.0000

          k = 0.0000 0.3333 0.3333 (  8780 PWs)   bands (ev):

   -84.9282 -84.9085 -84.9084 -84.9019 -45.3751 -45.3750 -45.3579 -45.3568
   -45.3118 -45.2917 -45.2917 -45.2511 -45.2465 -45.2465 -45.2390 -45.2046
    12.1501  14.4803  14.4803  14.9251  15.1755  15.1859  15.1859  15.6771
    15.9334  15.9334  16.0723  16.4451  16.8271  17.0963  17.4007  17.5556
    17.5556  17.6975  17.6975  17.8793  18.1057  20.0481  20.0481  23.6444
    26.4397  29.6176  31.1404

     occupation numbers 
     1.0000   1.0000   1.0000   1.0000   1.0000   1.0000   1.0000   1.0000
     1.0000   1.0000   1.0000   1.0000   1.0000   1.0000   1.0000   1.0000
     1.0000   1.0000   1.0000   1.0000   1.0000   1.0000   1.0000   1.0000
     1.0000   1.0000   1.0000   1.0000   1.0000   1.0000   1.0000   1.0000
     1.0000   1.0000   1.0000   1.0000   1.0000   0.0000   0.0000   0.0000
     0.0000   0.0000   0.0000

          k = 0.0000 0.3333 0.4167 (  8796 PWs)   bands (ev):

   -84.9234 -84.9132 -84.9068 -84.9034 -45.3748 -45.3664 -45.3638 -45.3412
   -45.3314 -45.3074 -45.2790 -45.2517 -45.2460 -45.2440 -45.2327 -45.2106
    12.7831  14.0580  14.7919  15.0003  15.3186  15.3273  15.3825  15.5799
    15.6616  15.8450  15.9995  16.3380  16.9834  17.0909  17.2904  17.3774
    17.3792  17.4372  17.7087  17.7890  18.3940  19.2881  20.7609  22.5220
    27.4559  29.8219  30.0688

     occupation numbers 
     1.0000   1.0000   1.0000   1.0000   1.0000   1.0000   1.0000   1.0000
     1.0000   1.0000   1.0000   1.0000   1.0000   1.0000   1.0000   1.0000
     1.0000   1.0000   1.0000   1.0000   1.0000   1.0000   1.0000   1.0000
     1.0000   1.0000   1.0000   1.0000   1.0000   1.0000   1.0000   1.0000
     1.0000   1.0000   1.0000   1.0000   1.0004   0.0000   0.0000   0.0000
     0.0000   0.0000   0.0000

          k = 0.0000 0.3333-0.5000 (  8792 PWs)   bands (ev):

   -84.9183 -84.9183 -84.9051 -84.9051 -45.3720 -45.3720 -45.3491 -45.3491
   -45.3243 -45.3243 -45.2654 -45.2654 -45.2437 -45.2437 -45.2203 -45.2203
    13.4505  13.4505  14.9830  14.9830  15.4551  15.4551  15.4674  15.4674
    15.6074  15.6074  16.1685  16.1685  17.1922  17.1922  17.1986  17.1986
    17.2724  17.2724  17.7358  17.7358  18.7663  18.7663  21.5718  21.5718
    28.5893  28.5893  30.6616

     occupation numbers 
     1.0000   1.0000   1.0000   1.0000   1.0000   1.0000   1.0000   1.0000
     1.0000   1.0000   1.0000   1.0000   1.0000   1.0000   1.0000   1.0000
     1.0000   1.0000   1.0000   1.0000   1.0000   1.0000   1.0000   1.0000
     1.0000   1.0000   1.0000   1.0000   1.0000   1.0000   1.0000   1.0000
     1.0000   1.0000   1.0000   1.0000   0.7857   0.7857   0.0000   0.0000
     0.0000   0.0000   0.0000

          k = 0.0000 0.4167 0.4167 (  8794 PWs)   bands (ev):

   -84.9194 -84.9108 -84.9108 -84.9058 -45.3709 -45.3693 -45.3693 -45.3470
   -45.3262 -45.2940 -45.2940 -45.2652 -45.2379 -45.2313 -45.2313 -45.2138
    13.3430  14.4217  14.4217  14.8924  15.4565  15.4565  15.5362  15.5646
    15.7350  15.8379  15.8379  16.2284  17.0282  17.0924  17.1783  17.2214
    17.2214  17.4693  17.4693  17.6378  18.7657  19.8798  19.8798  21.4510
    28.4262  30.5920  30.7211

     occupation numbers 
     1.0000   1.0000   1.0000   1.0000   1.0000   1.0000   1.0000   1.0000
     1.0000   1.0000   1.0000   1.0000   1.0000   1.0000   1.0000   1.0000
     1.0000   1.0000   1.0000   1.0000   1.0000   1.0000   1.0000   1.0000
     1.0000   1.0000   1.0000   1.0000   1.0000   1.0000   1.0000   1.0000
     1.0000   1.0000   1.0000   1.0000   0.7890   0.0000   0.0000   0.0000
     0.0000   0.0000   0.0000

          k = 0.0000 0.4167-0.5000 (  8792 PWs)   bands (ev):

   -84.9151 -84.9151 -84.9083 -84.9083 -45.3718 -45.3718 -45.3599 -45.3599
   -45.3101 -45.3101 -45.2796 -45.2796 -45.2330 -45.2330 -45.2209 -45.2209
    13.9132  13.9132  14.7097  14.7097  15.5212  15.5212  15.6007  15.6007
    15.7021  15.7021  16.0546  16.0546  17.0778  17.0778  17.1401  17.1401
    17.2573  17.2573  17.5324  17.5324  19.2385  19.2385  20.5837  20.5837
    29.5201  29.5202  31.2602

     occupation numbers 
     1.0000   1.0000   1.0000   1.0000   1.0000   1.0000   1.0000   1.0000
     1.0000   1.0000   1.0000   1.0000   1.0000   1.0000   1.0000   1.0000
     1.0000   1.0000   1.0000   1.0000   1.0000   1.0000   1.0000   1.0000
     1.0000   1.0000   1.0000   1.0000   1.0000   1.0000   1.0000   1.0000
     1.0000   1.0000   1.0000   1.0000   0.0000   0.0000   0.0000   0.0000
     0.0000   0.0000   0.0000

          k = 0.0000-0.5000-0.5000 (  8836 PWs)   bands (ev):

   -84.9117 -84.9117 -84.9117 -84.9117 -45.3677 -45.3677 -45.3677 -45.3677
   -45.2949 -45.2949 -45.2949 -45.2948 -45.2252 -45.2252 -45.2252 -45.2252
    14.3488  14.3488  14.3488  14.3488  15.5722  15.5722  15.5722  15.5722
    15.9097  15.9097  15.9097  15.9097  17.0512  17.0512  17.0512  17.0512
    17.3695  17.3695  17.3695  17.3695  19.8237  19.8237  19.8238  19.8238
    30.5777  30.5777  30.5777

     occupation numbers 
     1.0000   1.0000   1.0000   1.0000   1.0000   1.0000   1.0000   1.0000
     1.0000   1.0000   1.0000   1.0000   1.0000   1.0000   1.0000   1.0000
     1.0000   1.0000   1.0000   1.0000   1.0000   1.0000   1.0000   1.0000
     1.0000   1.0000   1.0000   1.0000   1.0000   1.0000   1.0000   1.0000
     1.0000   1.0000   1.0000   1.0000   0.0000   0.0000   0.0000   0.0000
     0.0000   0.0000   0.0000

          k = 0.0833 0.0833 0.0833 (  8784 PWs)   bands (ev):

   -84.9486 -84.8995 -84.8995 -84.8995 -45.4167 -45.4167 -45.4167 -45.2877
   -45.2877 -45.2877 -45.2785 -45.2785 -45.2785 -45.2061 -45.1917 -45.1917
     9.7169  14.0037  14.0037  14.0037  14.4707  14.4707  14.4707  16.1847
    16.3205  16.3205  17.4922  17.4922  17.8950  17.8950  17.8950  18.1361
    18.1362  18.1362  18.3182  18.3182  18.3182  21.2900  21.2900  21.2900
    29.0042  29.0042  29.0042

     occupation numbers 
     1.0000   1.0000   1.0000   1.0000   1.0000   1.0000   1.0000   1.0000
     1.0000   1.0000   1.0000   1.0000   1.0000   1.0000   1.0000   1.0000
     1.0000   1.0000   1.0000   1.0000   1.0000   1.0000   1.0000   1.0000
     1.0000   1.0000   1.0000   1.0000   1.0000   1.0000   1.0000   1.0000
     1.0000   1.0000   1.0000   1.0000   1.0000   0.0000   0.0000   0.0000
     0.0000   0.0000   0.0000

          k = 0.0833 0.0833 0.1667 (  8759 PWs)   bands (ev):

   -84.9460 -84.9021 -84.8995 -84.8995 -45.4104 -45.4104 -45.4067 -45.2960
   -45.2959 -45.2822 -45.2769 -45.2769 -45.2740 -45.2202 -45.1962 -45.1938
     9.9913  14.0139  14.1441  14.1442  14.5542  14.5642  14.5642  16.1014
    16.3825  16.3889  17.4064  17.4525  17.4525  17.5377  17.6920  17.9946
    18.0337  18.0337  18.2919  18.2962  18.2962  20.2466  21.9386  21.9386
    29.0843  29.0843  30.5841

     occupation numbers 
     1.0000   1.0000   1.0000   1.0000   1.0000   1.0000   1.0000   1.0000
     1.0000   1.0000   1.0000   1.0000   1.0000   1.0000   1.0000   1.0000
     1.0000   1.0000   1.0000   1.0000   1.0000   1.0000   1.0000   1.0000
     1.0000   1.0000   1.0000   1.0000   1.0000   1.0000   1.0000   1.0000
     1.0000   1.0000   1.0000   1.0000   1.0000   0.0000   0.0000   0.0000
     0.0000   0.0000   0.0000

          k = 0.0833 0.0833 0.2500 (  8777 PWs)   bands (ev):

   -84.9420 -84.9061 -84.8995 -84.8995 -45.4004 -45.4004 -45.3908 -45.3071
   -45.3071 -45.2763 -45.2763 -45.2735 -45.2669 -45.2398 -45.2033 -45.2001
    10.4386  13.9669  14.3557  14.3557  14.6885  14.7195  14.7195  15.9542
    16.4945  16.5016  16.9286  16.9286  17.2836  17.3605  17.6099  17.7964
    17.8772  17.8772  18.2330  18.2755  18.2755  19.1836  22.7852  22.7852
    29.0878  29.0878  29.8379

     occupation numbers 
     1.0000   1.0000   1.0000   1.0000   1.0000   1.0000   1.0000   1.0000
     1.0000   1.0000   1.0000   1.0000   1.0000   1.0000   1.0000   1.0000
     1.0000   1.0000   1.0000   1.0000   1.0000   1.0000   1.0000   1.0000
     1.0000   1.0000   1.0000   1.0000   1.0000   1.0000   1.0000   1.0000
     1.0000   1.0000   1.0000   1.0000   1.0000   0.0000   0.0000   0.0000
     0.0000   0.0000   0.0000

          k = 0.0833 0.0833 0.3333 (  8778 PWs)   bands (ev):

   -84.9367 -84.9113 -84.8995 -84.8995 -45.3875 -45.3875 -45.3698 -45.3205
   -45.3205 -45.2761 -45.2761 -45.2635 -45.2622 -45.2576 -45.2126 -45.2097
    11.0409  13.7502  14.6020  14.6020  14.8659  14.9317  14.9317  15.7612
    16.4171  16.4171  16.6193  16.6565  16.9665  17.1752  17.5630  17.6801
    17.6801  17.7036  18.1471  18.2650  18.2650  18.3701  23.7372  23.7372
    28.2088  28.2088  29.7225

     occupation numbers 
     1.0000   1.0000   1.0000   1.0000   1.0000   1.0000   1.0000   1.0000
     1.0000   1.0000   1.0000   1.0000   1.0000   1.0000   1.0000   1.0000
     1.0000   1.0000   1.0000   1.0000   1.0000   1.0000   1.0000   1.0000
     1.0000   1.0000   1.0000   1.0000   1.0000   1.0000   1.0000   1.0000
     1.0000   1.0000   1.0000   1.0000   1.0000   1.0002   0.0000   0.0000
     0.0000   0.0000   0.0000

          k = 0.0833 0.0833 0.4167 (  8811 PWs)   bands (ev):

   -84.9306 -84.9175 -84.8995 -84.8995 -45.3731 -45.3731 -45.3449 -45.3352
   -45.3352 -45.2901 -45.2762 -45.2762 -45.2492 -45.2467 -45.2235 -45.2219
    11.7643  13.2587  14.8209  14.8209  15.0759  15.1929  15.1929  15.5392
    15.9563  15.9563  16.6627  16.6934  16.8491  17.2092  17.3153  17.5038
    17.5038  17.8122  17.8228  18.0425  18.2605  18.2605  24.7427  24.7427
    27.0662  27.0663  30.0563

     occupation numbers 
     1.0000   1.0000   1.0000   1.0000   1.0000   1.0000   1.0000   1.0000
     1.0000   1.0000   1.0000   1.0000   1.0000   1.0000   1.0000   1.0000
     1.0000   1.0000   1.0000   1.0000   1.0000   1.0000   1.0000   1.0000
     1.0000   1.0000   1.0000   1.0000   1.0000   1.0000   1.0000   1.0000
     1.0000   1.0000   1.0000   1.0000   1.0000   1.0000   0.0000   0.0000
     0.0000   0.0000   0.0000

          k = 0.0833 0.0833-0.5000 (  8792 PWs)   bands (ev):

   -84.9240 -84.9240 -84.8995 -84.8995 -45.3633 -45.3633 -45.3452 -45.3452
   -45.3178 -45.3178 -45.2762 -45.2762 -45.2354 -45.2354 -45.2351 -45.2351
    12.5437  12.5437  14.9135  14.9135  15.3054  15.3054  15.4374  15.4374
    15.6394  15.6394  16.6292  16.6292  17.0724  17.0724  17.4303  17.4303
    17.4454  17.4454  17.9280  17.9280  18.2592  18.2592  25.5346  25.5346
    26.2259  26.2259  30.3251

     occupation numbers 
     1.0000   1.0000   1.0000   1.0000   1.0000   1.0000   1.0000   1.0000
     1.0000   1.0000   1.0000   1.0000   1.0000   1.0000   1.0000   1.0000
     1.0000   1.0000   1.0000   1.0000   1.0000   1.0000   1.0000   1.0000
     1.0000   1.0000   1.0000   1.0000   1.0000   1.0000   1.0000   1.0000
     1.0000   1.0000   1.0000   1.0000   1.0000   1.0000   0.0000   0.0000
     0.0000   0.0000   0.0000

          k = 0.0833 0.1667 0.1667 (  8753 PWs)   bands (ev):

   -84.9436 -84.9019 -84.9019 -84.8996 -45.4045 -45.4026 -45.4026 -45.3060
   -45.2895 -45.2895 -45.2722 -45.2722 -45.2721 -45.2358 -45.1999 -45.1942
    10.2603  14.1605  14.1605  14.2713  14.6435  14.6435  14.6508  16.0491
    16.4219  16.4318  17.1810  17.2376  17.2376  17.3928  17.5357  17.8927
    17.9077  17.9077  18.2608  18.2705  18.2705  20.8521  20.8521  22.4803
    28.9437  29.7464  30.6372

     occupation numbers 
     1.0000   1.0000   1.0000   1.0000   1.0000   1.0000   1.0000   1.0000
     1.0000   1.0000   1.0000   1.0000   1.0000   1.0000   1.0000   1.0000
     1.0000   1.0000   1.0000   1.0000   1.0000   1.0000   1.0000   1.0000
     1.0000   1.0000   1.0000   1.0000   1.0000   1.0000   1.0000   1.0000
     1.0000   1.0000   1.0000   1.0000   1.0000   0.0000   0.0000   0.0000
     0.0000   0.0000   0.0000

          k = 0.0833 0.1667 0.2500 (  8768 PWs)   bands (ev):

   -84.9398 -84.9057 -84.9017 -84.8998 -45.3960 -45.3953 -45.3899 -45.3173
   -45.2997 -45.2796 -45.2708 -45.2687 -45.2647 -45.2561 -45.2071 -45.1980
    10.6983  14.1230  14.3818  14.4628  14.7713  14.7917  14.7920  15.9330
    16.4997  16.5157  16.7306  16.7838  16.9284  17.3082  17.6135  17.7149
    17.7468  17.7970  18.2119  18.2122  18.2166  19.7450  21.6064  23.2304
    27.8789  29.6127  29.8516

     occupation numbers 
     1.0000   1.0000   1.0000   1.0000   1.0000   1.0000   1.0000   1.0000
     1.0000   1.0000   1.0000   1.0000   1.0000   1.0000   1.0000   1.0000
     1.0000   1.0000   1.0000   1.0000   1.0000   1.0000   1.0000   1.0000
     1.0000   1.0000   1.0000   1.0000   1.0000   1.0000   1.0000   1.0000
     1.0000   1.0000   1.0000   1.0000   1.0000   0.0000   0.0000   0.0000
     0.0000   0.0000   0.0000

          k = 0.0833 0.1667 0.3333 (  8794 PWs)   bands (ev):

   -84.9348 -84.9107 -84.9014 -84.9001 -45.3876 -45.3840 -45.3728 -45.3286
   -45.3121 -45.2793 -45.2694 -45.2673 -45.2670 -45.2546 -45.2166 -45.2058
    11.2868  13.9178  14.6427  14.6944  14.9398  14.9690  14.9911  15.7652
    16.2552  16.3572  16.5597  16.6206  16.6527  17.2467  17.4854  17.5833
    17.6357  17.7328  18.1020  18.1749  18.1765  18.8646  22.4362  24.0832
    26.6721  28.6136  29.8929

     occupation numbers 
     1.0000   1.0000   1.0000   1.0000   1.0000   1.0000   1.0000   1.0000
     1.0000   1.0000   1.0000   1.0000   1.0000   1.0000   1.0000   1.0000
     1.0000   1.0000   1.0000   1.0000   1.0000   1.0000   1.0000   1.0000
     1.0000   1.0000   1.0000   1.0000   1.0000   1.0000   1.0000   1.0000
     1.0000   1.0000   1.0000   1.0000   1.0000   0.2776   0.0000   0.0000
     0.0000   0.0000   0.0000

          k = 0.0833 0.1667 0.4167 (  8798 PWs)   bands (ev):

   -84.9290 -84.9165 -84.9011 -84.9004 -45.3784 -45.3737 -45.3521 -45.3371
   -45.3254 -45.3040 -45.2681 -45.2666 -45.2539 -45.2426 -45.2279 -45.2167
    11.9915  13.4416  14.8911  14.9308  15.1373  15.1395  15.2100  15.5652
    15.8535  15.9649  16.4556  16.5401  16.8223  17.2475  17.3278  17.4385
    17.4720  17.8758  17.8918  18.1552  18.1561  18.3091  23.3164  24.7654
    25.8243  27.4390  30.3320

     occupation numbers 
     1.0000   1.0000   1.0000   1.0000   1.0000   1.0000   1.0000   1.0000
     1.0000   1.0000   1.0000   1.0000   1.0000   1.0000   1.0000   1.0000
     1.0000   1.0000   1.0000   1.0000   1.0000   1.0000   1.0000   1.0000
     1.0000   1.0000   1.0000   1.0000   1.0000   1.0000   1.0000   1.0000
     1.0000   1.0000   1.0000   1.0000   1.0000   1.0000   0.0000   0.0000
     0.0000   0.0000   0.0000

          k = 0.0833 0.1667-0.5000 (  8798 PWs)   bands (ev):

   -84.9228 -84.9227 -84.9007 -84.9007 -45.3715 -45.3715 -45.3362 -45.3362
   -45.3287 -45.3287 -45.2671 -45.2671 -45.2405 -45.2405 -45.2295 -45.2295
    12.7484  12.7484  15.0296  15.0296  15.2949  15.2949  15.3506  15.3506
    15.6977  15.6977  16.4634  16.4634  17.0222  17.0222  17.3889  17.3889
    17.5759  17.5759  18.0448  18.0448  18.1497  18.1497  24.2196  24.2196
    26.3777  26.3778  30.9091

     occupation numbers 
     1.0000   1.0000   1.0000   1.0000   1.0000   1.0000   1.0000   1.0000
     1.0000   1.0000   1.0000   1.0000   1.0000   1.0000   1.0000   1.0000
     1.0000   1.0000   1.0000   1.0000   1.0000   1.0000   1.0000   1.0000
     1.0000   1.0000   1.0000   1.0000   1.0000   1.0000   1.0000   1.0000
     1.0000   1.0000   1.0000   1.0000   1.0000   1.0000   0.0000   0.0000
     0.0000   0.0000   0.0000

          k = 0.0833 0.2500 0.2500 (  8773 PWs)   bands (ev):

   -84.9363 -84.9052 -84.9052 -84.9004 -45.3882 -45.3882 -45.3878 -45.3273
   -45.2888 -45.2888 -45.2765 -45.2623 -45.2619 -45.2619 -45.2145 -45.1987
    11.1199  14.3577  14.3577  14.6168  14.9099  14.9099  14.9143  15.8693
    16.4743  16.4743  16.5099  16.5441  16.5715  17.2775  17.5944  17.6378
    17.6379  17.6994  18.1314  18.1314  18.1347  20.4174  20.4175  23.8511
    26.5048  29.8194  30.4360

     occupation numbers 
     1.0000   1.0000   1.0000   1.0000   1.0000   1.0000   1.0000   1.0000
     1.0000   1.0000   1.0000   1.0000   1.0000   1.0000   1.0000   1.0000
     1.0000   1.0000   1.0000   1.0000   1.0000   1.0000   1.0000   1.0000
     1.0000   1.0000   1.0000   1.0000   1.0000   1.0000   1.0000   1.0000
     1.0000   1.0000   1.0000   1.0000   1.0000   0.0000   0.0000   0.0000
     0.0000   0.0000   0.0000

          k = 0.0833 0.2500 0.3333 (  8799 PWs)   bands (ev):

   -84.9317 -84.9097 -84.9045 -84.9011 -45.3855 -45.3802 -45.3765 -45.3342
   -45.3005 -45.2987 -45.2760 -45.2590 -45.2578 -45.2503 -45.2243 -45.2036
    11.6836  14.1683  14.6317  14.7974  15.0633  15.0647  15.0974  15.7541
    16.0670  16.2499  16.2674  16.5032  16.6748  17.2466  17.4252  17.4465
    17.5213  17.8606  17.9992  18.0545  18.0639  19.4439  21.1508  24.3309
    25.5542  29.1578  30.1726

     occupation numbers 
     1.0000   1.0000   1.0000   1.0000   1.0000   1.0000   1.0000   1.0000
     1.0000   1.0000   1.0000   1.0000   1.0000   1.0000   1.0000   1.0000
     1.0000   1.0000   1.0000   1.0000   1.0000   1.0000   1.0000   1.0000
     1.0000   1.0000   1.0000   1.0000   1.0000   1.0000   1.0000   1.0000
     1.0000   1.0000   1.0000   1.0000   1.0000   0.0000   0.0000   0.0000
[...]
     0.0000   0.0000   0.0000

          k = 0.2500 0.2500-0.5000 (  8778 PWs)   bands (ev):

   -84.0617 -84.0617 -84.0482 -84.0482 -44.5749 -44.5749 -44.5427 -44.5427
   -44.4555 -44.4555 -44.4103 -44.4102 -44.3948 -44.3948 -44.3943 -44.3942
    13.4921  13.4921  15.1371  15.1371  15.9284  15.9284  16.2967  16.2967
    16.7677  16.7677  16.9126  16.9126  17.3496  17.3496  17.5678  17.5678
    18.8337  18.8337  18.8975  18.8975  18.9343  18.9343  22.4975  22.4975
    25.4493  25.4494  30.1427

     occupation numbers 
     1.0000   1.0000   1.0000   1.0000   1.0000   1.0000   1.0000   1.0000
     1.0000   1.0000   1.0000   1.0000   1.0000   1.0000   1.0000   1.0000
     1.0000   1.0000   1.0000   1.0000   1.0000   1.0000   1.0000   1.0000
     1.0000   1.0000   1.0000   1.0000   1.0000   1.0000   1.0000   1.0000
     0.4226   0.4225   0.1606   0.1606   0.0766   0.0766   0.0000   0.0000
     0.0000   0.0000   0.0000

          k = 0.2500 0.3333 0.3333 (  8782 PWs)   bands (ev):

   -84.0679 -84.0516 -84.0515 -84.0488 -44.5778 -44.5730 -44.5730 -44.5253
   -44.4497 -44.4333 -44.4333 -44.4085 -44.4071 -44.4071 -44.3821 -44.3745
    12.6970  14.7043  14.7043  14.9946  15.9378  16.0250  16.0250  16.5720
    16.8091  16.8091  16.8831  17.1222  17.1573  17.5281  17.5281  17.5463
    18.3720  18.6313  18.9940  19.0073  19.0073  20.7587  20.7587  22.0620
    25.6826  27.1994  27.1994

     occupation numbers 
     1.0000   1.0000   1.0000   1.0000   1.0000   1.0000   1.0000   1.0000
     1.0000   1.0000   1.0000   1.0000   1.0000   1.0000   1.0000   1.0000
     1.0000   1.0000   1.0000   1.0000   1.0000   1.0000   1.0000   1.0000
     1.0000   1.0000   1.0000   1.0000   1.0000   1.0000   1.0000   1.0000
     1.0002   1.0809   0.0172   0.0117   0.0117   0.0000   0.0000   0.0000
     0.0000   0.0000   0.0000

          k = 0.2500 0.3333 0.4167 (  8803 PWs)   bands (ev):

   -84.0640 -84.0555 -84.0509 -84.0494 -44.5821 -44.5797 -44.5692 -44.5443
   -44.4443 -44.4357 -44.4144 -44.4043 -44.4037 -44.3984 -44.3902 -44.3794
    13.2230  14.2757  14.7957  14.9369  16.0916  16.1503  16.2806  16.5760
    16.8337  16.8479  16.9238  17.0180  17.1694  17.3652  17.4358  17.4371
    18.5042  18.8729  18.9209  18.9357  18.9381  19.8336  21.1872  21.9653
    25.3544  26.2531  27.9750

     occupation numbers 
     1.0000   1.0000   1.0000   1.0000   1.0000   1.0000   1.0000   1.0000
     1.0000   1.0000   1.0000   1.0000   1.0000   1.0000   1.0000   1.0000
     1.0000   1.0000   1.0000   1.0000   1.0000   1.0000   1.0000   1.0000
     1.0000   1.0000   1.0000   1.0000   1.0000   1.0000   1.0000   1.0000
     1.0121   0.2442   0.1018   0.0743   0.0704   0.0000   0.0000   0.0000
     0.0000   0.0000   0.0000

          k = 0.2500 0.3333-0.5000 (  8784 PWs)   bands (ev):

   -84.0597 -84.0597 -84.0502 -84.0501 -44.5828 -44.5828 -44.5594 -44.5594
   -44.4396 -44.4396 -44.4026 -44.4026 -44.4004 -44.4004 -44.3882 -44.3882
    13.7671  13.7671  14.8702  14.8702  16.1744  16.1744  16.4863  16.4863
    16.9007  16.9007  16.9128  16.9128  17.2419  17.2419  17.3961  17.3961
    18.7383  18.7383  18.9051  18.9051  19.2159  19.2159  21.6248  21.6248
    25.5974  25.5975  28.8812

     occupation numbers 
     1.0000   1.0000   1.0000   1.0000   1.0000   1.0000   1.0000   1.0000
     1.0000   1.0000   1.0000   1.0000   1.0000   1.0000   1.0000   1.0000
     1.0000   1.0000   1.0000   1.0000   1.0000   1.0000   1.0000   1.0000
     1.0000   1.0000   1.0000   1.0000   1.0000   1.0000   1.0000   1.0000
     0.9134   0.9134   0.1394   0.1394   0.0000   0.0000   0.0000   0.0000
     0.0000   0.0000   0.0000

          k = 0.2500 0.4167 0.4167 (  8787 PWs)   bands (ev):

   -84.0608 -84.0540 -84.0540 -84.0509 -44.5861 -44.5793 -44.5793 -44.5608
   -44.4349 -44.4199 -44.4199 -44.3982 -44.3980 -44.3947 -44.3947 -44.3806
    13.6381  14.4428  14.4428  14.7653  16.2951  16.4257  16.4257  16.6989
    16.8956  16.8956  16.9589  17.0106  17.1257  17.2849  17.2849  17.3089
    18.5302  18.8377  18.8378  18.8667  19.1801  20.2505  20.2505  21.3660
    25.5478  26.9427  26.9427

     occupation numbers 
     1.0000   1.0000   1.0000   1.0000   1.0000   1.0000   1.0000   1.0000
     1.0000   1.0000   1.0000   1.0000   1.0000   1.0000   1.0000   1.0000
     1.0000   1.0000   1.0000   1.0000   1.0000   1.0000   1.0000   1.0000
     1.0000   1.0000   1.0000   1.0000   1.0000   1.0000   1.0000   1.0000
     1.0216   0.4021   0.4020   0.2690   0.0000   0.0000   0.0000   0.0000
     0.0000   0.0000   0.0000

          k = 0.2500 0.4167-0.5000 (  8784 PWs)   bands (ev):

   -84.0574 -84.0574 -84.0525 -84.0524 -44.5852 -44.5852 -44.5729 -44.5729
   -44.4268 -44.4267 -44.4077 -44.4077 -44.3947 -44.3947 -44.3862 -44.3862
    14.0535  14.0535  14.6027  14.6027  16.4262  16.4262  16.6556  16.6556
    16.9094  16.9094  16.9950  16.9950  17.1718  17.1718  17.2553  17.2553
    18.6700  18.6700  18.8136  18.8136  19.5975  19.5975  20.7606  20.7606
    26.1194  26.1194  27.7876

     occupation numbers 
     1.0000   1.0000   1.0000   1.0000   1.0000   1.0000   1.0000   1.0000
     1.0000   1.0000   1.0000   1.0000   1.0000   1.0000   1.0000   1.0000
     1.0000   1.0000   1.0000   1.0000   1.0000   1.0000   1.0000   1.0000
     1.0000   1.0000   1.0000   1.0000   1.0000   1.0000   1.0000   1.0000
     1.0742   1.0742   0.5297   0.5296   0.0000   0.0000   0.0000   0.0000
     0.0000   0.0000   0.0000

          k = 0.2500-0.5000-0.5000 (  8804 PWs)   bands (ev):

   -84.0549 -84.0549 -84.0549 -84.0549 -44.5818 -44.5818 -44.5818 -44.5818
   -44.4164 -44.4164 -44.4164 -44.4163 -44.3887 -44.3887 -44.3887 -44.3887
    14.3325  14.3325  14.3325  14.3325  16.6203  16.6203  16.6204  16.6204
    16.9858  16.9858  16.9858  16.9858  17.1686  17.1686  17.1686  17.1686
    18.7044  18.7044  18.7044  18.7044  20.0851  20.0851  20.0851  20.0851
    26.8638  26.8639  26.8639

     occupation numbers 
     1.0000   1.0000   1.0000   1.0000   1.0000   1.0000   1.0000   1.0000
     1.0000   1.0000   1.0000   1.0000   1.0000   1.0000   1.0000   1.0000
     1.0000   1.0000   1.0000   1.0000   1.0000   1.0000   1.0000   1.0000
     1.0000   1.0000   1.0000   1.0000   1.0000   1.0000   1.0000   1.0000
     1.0213   1.0212   1.0212   1.0212   0.0000   0.0000   0.0000   0.0000
     0.0000   0.0000   0.0000

          k = 0.3333 0.3333 0.3333 (  8802 PWs)   bands (ev):

   -84.0651 -84.0516 -84.0516 -84.0515 -44.5839 -44.5838 -44.5838 -44.5459
   -44.4264 -44.4264 -44.4263 -44.4035 -44.4035 -44.4035 -44.3794 -44.3794
    13.0739  14.6771  14.6771  14.6771  16.2012  16.2012  16.2012  16.7198
    16.9574  16.9574  16.9574  17.0880  17.0880  17.3663  17.3663  17.3663
    18.5943  18.5943  19.0322  19.0323  19.0323  20.8904  20.8904  20.8905
    26.1625  26.1625  26.1625

     occupation numbers 
     1.0000   1.0000   1.0000   1.0000   1.0000   1.0000   1.0000   1.0000
     1.0000   1.0000   1.0000   1.0000   1.0000   1.0000   1.0000   1.0000
     1.0000   1.0000   1.0000   1.0000   1.0000   1.0000   1.0000   1.0000
     1.0000   1.0000   1.0000   1.0000   1.0000   1.0000   1.0000   1.0000
     1.0605   1.0605   0.0055   0.0055   0.0055   0.0000   0.0000   0.0000
     0.0000   0.0000   0.0000

          k = 0.3333 0.3333 0.4167 (  8776 PWs)   bands (ev):

   -84.0618 -84.0548 -84.0515 -84.0515 -44.5910 -44.5910 -44.5833 -44.5635
   -44.4230 -44.4230 -44.4066 -44.3999 -44.3999 -44.3977 -44.3852 -44.3826
    13.4924  14.3147  14.6501  14.6501  16.3482  16.3482  16.4824  16.8348
    17.0061  17.0169  17.0756  17.0909  17.0909  17.2201  17.2663  17.2663
    18.7208  18.7831  18.9899  18.9900  19.0099  19.8837  21.0123  21.0123
    25.4867  25.4867  26.8411

     occupation numbers 
     1.0000   1.0000   1.0000   1.0000   1.0000   1.0000   1.0000   1.0000
     1.0000   1.0000   1.0000   1.0000   1.0000   1.0000   1.0000   1.0000
     1.0000   1.0000   1.0000   1.0000   1.0000   1.0000   1.0000   1.0000
     1.0000   1.0000   1.0000   1.0000   1.0000   1.0000   1.0000   1.0000
     0.9759   0.6976   0.0193   0.0193   0.0109   0.0000   0.0000   0.0000
     0.0000   0.0000   0.0000

          k = 0.3333 0.3333-0.5000 (  8796 PWs)   bands (ev):

   -84.0583 -84.0583 -84.0515 -84.0515 -44.5935 -44.5935 -44.5763 -44.5763
   -44.4221 -44.4221 -44.3984 -44.3984 -44.3918 -44.3918 -44.3915 -44.3914
    13.9151  13.9151  14.6392  14.6392  16.4030  16.4030  16.7312  16.7312
    17.0121  17.0121  17.1207  17.1207  17.1566  17.1566  17.2269  17.2269
    18.9251  18.9251  18.9595  18.9595  19.1407  19.1407  21.0634  21.0634
    25.2493  25.2494  27.6778

     occupation numbers 
     1.0000   1.0000   1.0000   1.0000   1.0000   1.0000   1.0000   1.0000
     1.0000   1.0000   1.0000   1.0000   1.0000   1.0000   1.0000   1.0000
     1.0000   1.0000   1.0000   1.0000   1.0000   1.0000   1.0000   1.0000
     1.0000   1.0000   1.0000   1.0000   1.0000   1.0000   1.0000   1.0000
     0.0933   0.0933   0.0427   0.0427   0.0001   0.0001   0.0000   0.0000
     0.0000   0.0000   0.0000

          k = 0.3333 0.4167 0.4167 (  8788 PWs)   bands (ev):

   -84.0593 -84.0540 -84.0540 -84.0523 -44.5974 -44.5934 -44.5934 -44.5790
   -44.4147 -44.4065 -44.4065 -44.3956 -44.3942 -44.3942 -44.3892 -44.3832
    13.7808  14.3609  14.3609  14.5238  16.5251  16.6100  16.6100  16.9598
    17.0154  17.1242  17.1242  17.1339  17.1480  17.2269  17.2269  17.2901
    18.7323  18.9685  18.9722  18.9722  18.9961  20.0696  20.0696  20.7070
    25.2171  25.9717  25.9717

     occupation numbers 
     1.0000   1.0000   1.0000   1.0000   1.0000   1.0000   1.0000   1.0000
     1.0000   1.0000   1.0000   1.0000   1.0000   1.0000   1.0000   1.0000
     1.0000   1.0000   1.0000   1.0000   1.0000   1.0000   1.0000   1.0000
     1.0000   1.0000   1.0000   1.0000   1.0000   1.0000   1.0000   1.0000
     0.9366   0.0341   0.0310   0.0310   0.0163   0.0000   0.0000   0.0000
     0.0000   0.0000   0.0000

          k = 0.3333 0.4167-0.5000 (  8776 PWs)   bands (ev):

   -84.0567 -84.0566 -84.0532 -84.0531 -44.5983 -44.5983 -44.5893 -44.5893
   -44.4096 -44.4095 -44.3959 -44.3959 -44.3932 -44.3931 -44.3876 -44.3876
    14.0716  14.0716  14.4276  14.4276  16.6223  16.6223  16.8272  16.8272
    17.0419  17.0419  17.0993  17.0993  17.2642  17.2642  17.3557  17.3557
    18.8639  18.8639  18.9366  18.9366  19.3677  19.3677  20.3605  20.3605
    25.4085  25.4085  26.6841

     occupation numbers 
     1.0000   1.0000   1.0000   1.0000   1.0000   1.0000   1.0000   1.0000
     1.0000   1.0000   1.0000   1.0000   1.0000   1.0000   1.0000   1.0000
     1.0000   1.0000   1.0000   1.0000   1.0000   1.0000   1.0000   1.0000
     1.0000   1.0000   1.0000   1.0000   1.0000   1.0000   1.0000   1.0000
     0.2806   0.2806   0.0729   0.0729   0.0000   0.0000   0.0000   0.0000
     0.0000   0.0000   0.0000

          k = 0.3333-0.5000-0.5000 (  8784 PWs)   bands (ev):

   -84.0549 -84.0549 -84.0549 -84.0548 -44.5969 -44.5968 -44.5968 -44.5968
   -44.4015 -44.4015 -44.4015 -44.4014 -44.3887 -44.3887 -44.3886 -44.3886
    14.2398  14.2398  14.2398  14.2398  16.7789  16.7789  16.7789  16.7789
    17.0299  17.0299  17.0299  17.0299  17.4270  17.4270  17.4270  17.4270
    18.8632  18.8633  18.8633  18.8633  19.7626  19.7626  19.7626  19.7626
    25.9163  25.9163  25.9163

     occupation numbers 
     1.0000   1.0000   1.0000   1.0000   1.0000   1.0000   1.0000   1.0000
     1.0000   1.0000   1.0000   1.0000   1.0000   1.0000   1.0000   1.0000
     1.0000   1.0000   1.0000   1.0000   1.0000   1.0000   1.0000   1.0000
     1.0000   1.0000   1.0000   1.0000   1.0000   1.0000   1.0000   1.0000
     0.2834   0.2833   0.2833   0.2833   0.0000   0.0000   0.0000   0.0000
     0.0000   0.0000   0.0000

          k = 0.4167 0.4167 0.4167 (  8786 PWs)   bands (ev):

   -84.0576 -84.0540 -84.0540 -84.0540 -44.6025 -44.6025 -44.6025 -44.5928
   -44.3992 -44.3992 -44.3991 -44.3926 -44.3926 -44.3926 -44.3862 -44.3862
    13.9363  14.3030  14.3030  14.3030  16.7365  16.7365  16.7365  16.9612
    16.9612  17.0303  17.0304  17.0304  17.5583  17.5583  17.5583  17.5637
    18.8872  18.8872  19.0094  19.0095  19.0095  19.8881  19.8881  19.8881
    25.3670  25.3670  25.3670

     occupation numbers 
     1.0000   1.0000   1.0000   1.0000   1.0000   1.0000   1.0000   1.0000
     1.0000   1.0000   1.0000   1.0000   1.0000   1.0000   1.0000   1.0000
     1.0000   1.0000   1.0000   1.0000   1.0000   1.0000   1.0000   1.0000
     1.0000   1.0000   1.0000   1.0000   1.0000   1.0000   1.0000   1.0000
     0.1928   0.1928   0.0110   0.0110   0.0110   0.0000   0.0000   0.0000
     0.0000   0.0000   0.0000

          k = 0.4167 0.4167-0.5000 (  8786 PWs)   bands (ev):

   -84.0558 -84.0558 -84.0540 -84.0540 -44.6057 -44.6057 -44.6009 -44.6009
   -44.3976 -44.3976 -44.3911 -44.3911 -44.3895 -44.3895 -44.3894 -44.3894
    14.1082  14.1082  14.2823  14.2823  16.7827  16.7827  16.8862  16.8862
    16.9664  16.9664  16.9931  16.9931  17.7236  17.7236  17.7312  17.7312
    18.9821  18.9821  18.9898  18.9898  19.1701  19.1701  19.8118  19.8118
    25.1626  25.1626  25.8556

     occupation numbers 
     1.0000   1.0000   1.0000   1.0000   1.0000   1.0000   1.0000   1.0000
     1.0000   1.0000   1.0000   1.0000   1.0000   1.0000   1.0000   1.0000
     1.0000   1.0000   1.0000   1.0000   1.0000   1.0000   1.0000   1.0000
     1.0000   1.0000   1.0000   1.0000   1.0000   1.0000   1.0000   1.0000
     0.0239   0.0239   0.0194   0.0194   0.0000   0.0000   0.0000   0.0000
     0.0000   0.0000   0.0000

          k = 0.4167-0.5000-0.5000 (  8776 PWs)   bands (ev):

   -84.0549 -84.0549 -84.0549 -84.0548 -44.6066 -44.6066 -44.6066 -44.6066
   -44.3919 -44.3919 -44.3919 -44.3919 -44.3886 -44.3886 -44.3886 -44.3886
    14.1759  14.1760  14.1760  14.1760  16.8781  16.8781  16.8781  16.8782
    16.9420  16.9420  16.9420  16.9420  17.9519  17.9519  17.9519  17.9519
    18.9660  18.9660  18.9660  18.9660  19.3282  19.3282  19.3282  19.3282
    25.3339  25.3339  25.3339

     occupation numbers 
     1.0000   1.0000   1.0000   1.0000   1.0000   1.0000   1.0000   1.0000
     1.0000   1.0000   1.0000   1.0000   1.0000   1.0000   1.0000   1.0000
     1.0000   1.0000   1.0000   1.0000   1.0000   1.0000   1.0000   1.0000
     1.0000   1.0000   1.0000   1.0000   1.0000   1.0000   1.0000   1.0000
     0.0364   0.0363   0.0363   0.0363   0.0000   0.0000   0.0000   0.0000
     0.0000   0.0000   0.0000

          k =-0.5000-0.5000-0.5000 (  8744 PWs)   bands (ev):

   -84.0549 -84.0549 -84.0549 -84.0548 -44.6099 -44.6099 -44.6099 -44.6099
   -44.3886 -44.3886 -44.3886 -44.3886 -44.3886 -44.3886 -44.3886 -44.3886
    14.1534  14.1534  14.1534  14.1534  16.9120  16.9120  16.9120  16.9120
    16.9120  16.9120  16.9120  16.9120  18.3105  18.3105  18.3105  18.3105
    19.0014  19.0014  19.0014  19.0015  19.0015  19.0015  19.0015  19.0015
    25.1389  25.1390  25.1390

     occupation numbers 
     1.0000   1.0000   1.0000   1.0000   1.0000   1.0000   1.0000   1.0000
     1.0000   1.0000   1.0000   1.0000   1.0000   1.0000   1.0000   1.0000
     1.0000   1.0000   1.0000   1.0000   1.0000   1.0000   1.0000   1.0000
     1.0000   1.0000   1.0000   1.0000   1.0000   1.0000   1.0000   1.0000
     0.0139   0.0139   0.0139   0.0139   0.0139   0.0139   0.0139   0.0139
     0.0000   0.0000   0.0000

     the Fermi energy is    18.8380 ev

!    total energy              =   -1716.65419792 Ry
     total all-electron energy =    -12166.382628 Ry
     estimated scf accuracy    <       0.00000004 Ry
     smearing contrib. (-TS)   =      -0.00062168 Ry
     internal energy E=F+TS    =   -1716.65357624 Ry

     The total energy is F=E-TS. E is the sum of the following terms:
     one-electron contribution =    -721.91753715 Ry
     hartree contribution      =     411.90491507 Ry
     xc contribution           =    -137.44574818 Ry
     ewald contribution        =    -904.81412341 Ry
     one-center paw contrib.   =    -364.38108257 Ry
      -> PAW hartree energy AE =     268.04211916 Ry
      -> PAW hartree energy PS =    -266.34888786 Ry
      -> PAW xc energy AE      =    -125.61185423 Ry
      -> PAW xc energy PS      =      32.82335455 Ry
      -> total E_H with PAW    =     413.59814637 Ry
      -> total E_XC with PAW   =    -230.23424787 Ry

     total magnetization       =     2.57 Bohr mag/cell
     absolute magnetization    =     2.92 Bohr mag/cell

     convergence has been achieved in   5 iterations

     Writing all to output data dir out/Ni.save/
 
     init_run     :      0.70s CPU      0.87s WALL (       1 calls)
     electrons    :     32.21s CPU     32.97s WALL (       1 calls)

     Called by init_run:
     wfcinit      :      0.39s CPU      0.53s WALL (       1 calls)
     potinit      :      0.13s CPU      0.15s WALL (       1 calls)
     hinit0       :      0.06s CPU      0.07s WALL (       1 calls)

     Called by electrons:
     c_bands      :     27.03s CPU     27.61s WALL (       6 calls)
     sum_band     :      4.47s CPU      4.57s WALL (       6 calls)
     v_of_rho     :      0.11s CPU      0.12s WALL (       6 calls)
     v_h          :      0.00s CPU      0.00s WALL (       6 calls)
     v_xc         :      0.11s CPU      0.11s WALL (       6 calls)
     newd         :      0.07s CPU      0.07s WALL (       6 calls)
     PAW_pot      :      0.63s CPU      0.66s WALL (       6 calls)
     mix_rho      :      0.01s CPU      0.01s WALL (       6 calls)

     Called by c_bands:
     init_us_2    :      0.21s CPU      0.22s WALL (    1008 calls)
     init_us_2:cp :      0.21s CPU      0.22s WALL (    1008 calls)
     cegterg      :     25.05s CPU     25.58s WALL (     504 calls)

     Called by sum_band:
     sum_band:wei :      0.05s CPU      0.05s WALL (       6 calls)
     sum_band:loo :      4.24s CPU      4.33s WALL (       6 calls)
     sum_band:buf :      0.05s CPU      0.05s WALL (     504 calls)
     sum_band:ini :      0.10s CPU      0.10s WALL (     504 calls)
     sum_band:cal :      0.22s CPU      0.23s WALL (     504 calls)
     sum_band:bec :      0.01s CPU      0.01s WALL (     504 calls)
     addusdens    :      0.14s CPU      0.15s WALL (       6 calls)
                                        0.00s GPU  (       6 calls)
     addusd:skk   :      0.00s CPU      0.00s WALL (       6 calls)
                                        0.00s GPU  (       6 calls)

     Called by *egterg:
     cdiaghg      :      2.94s CPU      2.96s WALL (    1480 calls)
     cegterg:over :      0.90s CPU      0.93s WALL (    1144 calls)
     cegterg:upda :      0.41s CPU      0.42s WALL (    1144 calls)
     cegterg:last :      0.71s CPU      0.71s WALL (     924 calls)
     h_psi        :     19.05s CPU     19.48s WALL (    1648 calls)
     s_psi        :      0.40s CPU      0.41s WALL (    1648 calls)
     g_psi        :      0.06s CPU      0.06s WALL (    1144 calls)

     Called by h_psi:
     h_psi:calbec :      0.67s CPU      0.69s WALL (    1648 calls)
     vloc_psi     :     17.80s CPU     18.21s WALL (    1648 calls)
     add_vuspsi   :      0.48s CPU      0.49s WALL (    1648 calls)

     General routines
     calbec       :      0.88s CPU      0.91s WALL (    2152 calls)
     fft          :      0.06s CPU      0.06s WALL (     146 calls)
     ffts         :      0.01s CPU      0.01s WALL (      24 calls)
     fftw         :     19.86s CPU     20.30s WALL (  128940 calls)
     interpolate  :      0.01s CPU      0.01s WALL (      12 calls)
 
     Parallel routines

     PAW routines
     PAW_pot      :      0.63s CPU      0.66s WALL (       6 calls)
     PAW_symme    :      0.01s CPU      0.01s WALL (      11 calls)
 
     PWSCF        :     33.41s CPU     36.16s WALL

 
   This run was terminated on:   0:53:41  22Mar2024            

=------------------------------------------------------------------------------=
   JOB DONE.
=------------------------------------------------------------------------------=
