### Running on host: unam-asus

     Program PWSCF v.7.2 starts on 16Feb2024 at 11: 3:32 

     This program is part of the open-source Quantum ESPRESSO suite
     for quantum simulation of materials; please cite
         "P. Giannozzi et al., J. Phys.:Condens. Matter 21 395502 (2009);
         "P. Giannozzi et al., J. Phys.:Condens. Matter 29 465901 (2017);
         "P. Giannozzi et al., J. Chem. Phys. 152 154105 (2020);
          URL http://www.quantum-espresso.org", 
     in publications or presentations arising from this work. More details at
     http://www.quantum-espresso.org/quote

     Parallel version (MPI), running on    10 processors

     MPI processes distributed on     1 nodes
     1794 MiB available memory on the printing compute node when the environment starts

     Reading input from scf.250.in

     Current dimensions of program PWSCF are:
     Max number of different atomic species (ntypx) = 10
     Max number of k-points (npk) =  40000
     Max angular momentum in pseudopotentials (lmaxx) =  4
     file S.pbe-n-kjpaw_psl.1.0.0.UPF: wavefunction(s)  3S 3P renormalized

     gamma-point specific algorithms are used

     R & G space division:  proc/nbgrp/npool/nimage =      10
     Subspace diagonalization in iterative solution of the eigenvalue problem:
     a serial algorithm will be used


     Parallelization info
     --------------------
     sticks:   dense  smooth     PW     G-vecs:    dense   smooth      PW
     Min         712     624    155                45096    37216    4655
     Max         714     626    158                45102    37222    4666
     Sum        7129    6253   1565               450991   372189   46585

     Using Slab Decomposition



     bravais-lattice index     =            1
     lattice parameter (alat)  =      18.8973  a.u.
     unit-cell volume          =    6748.3345 (a.u.)^3
     number of atoms/cell      =            2
     number of atomic types    =            1
     number of electrons       =        12.00
     number of Kohn-Sham states=            6
     kinetic-energy cutoff     =      55.0000  Ry
     charge density cutoff     =     250.0000  Ry
     scf convergence threshold =      4.0E-07
     mixing beta               =       0.7000
     number of iterations used =            8  plain     mixing
     Exchange-correlation= SLA  PW   PBX  PBC
                           (   1   4   3   4   0   0   0)

     celldm(1)=  18.897261  celldm(2)=   0.000000  celldm(3)=   0.000000
     celldm(4)=   0.000000  celldm(5)=   0.000000  celldm(6)=   0.000000

     crystal axes: (cart. coord. in units of alat)
               a(1) = (   1.000000   0.000000   0.000000 )  
               a(2) = (   0.000000   1.000000   0.000000 )  
               a(3) = (   0.000000   0.000000   1.000000 )  

     reciprocal axes: (cart. coord. in units 2 pi/alat)
               b(1) = (  1.000000  0.000000  0.000000 )  
               b(2) = (  0.000000  1.000000  0.000000 )  
               b(3) = (  0.000000  0.000000  1.000000 )  


     PseudoPot. # 1 for S  read from file:
     /home/abdul/git_repo/ZnS_Cu-Vacancy/pseudo/QE/S.pbe-n-kjpaw_psl.1.0.0.UPF
     MD5 check sum: fb45dfebcf3e72a4e1bd4a866ec2e262
     Pseudo is Projector augmented-wave + core cor, Zval =  6.0
     Generated using &quot;atomic&quot; code by A. Dal Corso  v.6.3
     Shape of augmentation charge: PSQ
     Using radial grid of 1151 points,  6 beta functions with: 
                l(1) =   0
                l(2) =   0
                l(3) =   1
                l(4) =   1
                l(5) =   2
                l(6) =   2
     Q(r) pseudized with 0 coefficients 


     atomic species   valence    mass     pseudopotential
        S              6.00    65.38000     S ( 1.00)

      8 Sym. Ops. (no inversion) found


                                    s                        frac. trans.

      isym =  1     identity                                     

 cryst.   s( 1) = (     1          0          0      )
                  (     0          1          0      )
                  (     0          0          1      )

 cart.    s( 1) = (  1.0000000  0.0000000  0.0000000 )
                  (  0.0000000  1.0000000  0.0000000 )
                  (  0.0000000  0.0000000  1.0000000 )


      isym =  2     180 deg rotation - cart. axis [1,0,0]        

 cryst.   s( 2) = (     1          0          0      )
                  (     0         -1          0      )
                  (     0          0         -1      )

 cart.    s( 2) = (  1.0000000  0.0000000  0.0000000 )
                  (  0.0000000 -1.0000000  0.0000000 )
                  (  0.0000000  0.0000000 -1.0000000 )


      isym =  3      90 deg rotation - cart. axis [-1,0,0]       

 cryst.   s( 3) = (     1          0          0      )
                  (     0          0         -1      )
                  (     0          1          0      )

 cart.    s( 3) = (  1.0000000  0.0000000  0.0000000 )
                  (  0.0000000  0.0000000  1.0000000 )
                  (  0.0000000 -1.0000000  0.0000000 )


      isym =  4      90 deg rotation - cart. axis [1,0,0]        

 cryst.   s( 4) = (     1          0          0      )
                  (     0          0          1      )
                  (     0         -1          0      )

 cart.    s( 4) = (  1.0000000  0.0000000  0.0000000 )
                  (  0.0000000  0.0000000 -1.0000000 )
                  (  0.0000000  1.0000000  0.0000000 )


      isym =  5     inv. 180 deg rotation - cart. axis [0,0,1]   

 cryst.   s( 5) = (     1          0          0      )
                  (     0          1          0      )
                  (     0          0         -1      )

 cart.    s( 5) = (  1.0000000  0.0000000  0.0000000 )
                  (  0.0000000  1.0000000  0.0000000 )
                  (  0.0000000  0.0000000 -1.0000000 )


      isym =  6     inv. 180 deg rotation - cart. axis [0,1,0]   

 cryst.   s( 6) = (     1          0          0      )
                  (     0         -1          0      )
                  (     0          0          1      )

 cart.    s( 6) = (  1.0000000  0.0000000  0.0000000 )
                  (  0.0000000 -1.0000000  0.0000000 )
                  (  0.0000000  0.0000000  1.0000000 )


      isym =  7     inv. 180 deg rotation - cart. axis [0,1,1]   

 cryst.   s( 7) = (     1          0          0      )
                  (     0          0         -1      )
                  (     0         -1          0      )

 cart.    s( 7) = (  1.0000000  0.0000000  0.0000000 )
                  (  0.0000000  0.0000000 -1.0000000 )
                  (  0.0000000 -1.0000000  0.0000000 )


      isym =  8     inv. 180 deg rotation - cart. axis [0,1,-1]  

 cryst.   s( 8) = (     1          0          0      )
                  (     0          0          1      )
                  (     0          1          0      )

 cart.    s( 8) = (  1.0000000  0.0000000  0.0000000 )
                  (  0.0000000  0.0000000  1.0000000 )
                  (  0.0000000  1.0000000  0.0000000 )


     point group C_4v (4mm) 
     there are  5 classes
     the character table:

       E     2C4   C2    2s_v  2s_d 
A_1    1.00  1.00  1.00  1.00  1.00
A_2    1.00  1.00  1.00 -1.00 -1.00
B_1    1.00 -1.00  1.00  1.00 -1.00
B_2    1.00 -1.00  1.00 -1.00  1.00
E      2.00  0.00 -2.00  0.00  0.00

     the symmetry operations in each class and the name of the first element:

     E        1
          identity                                               
     2C4      3    4
           90 deg rotation - cart. axis [-1,0,0]                 
     C2       2
          180 deg rotation - cart. axis [1,0,0]                  
     2s_v     5    6
          inv. 180 deg rotation - cart. axis [0,0,1]             
     2s_d     7    8
          inv. 180 deg rotation - cart. axis [0,1,1]             

   Cartesian axes

     site n.     atom                  positions (alat units)
         1           S   tau(   1) = (   0.0000000   0.0000000   0.0000000  )
         2           S   tau(   2) = (   0.1890000   0.0000000   0.0000000  )

   Crystallographic axes

     site n.     atom                  positions (cryst. coord.)
         1           S   tau(   1) = (  0.0000000  0.0000000  0.0000000  )
         2           S   tau(   2) = (  0.1890000  0.0000000  0.0000000  )

     number of k points=     1
                       cart. coord. in units 2pi/alat
        k(    1) = (   0.0000000   0.0000000   0.0000000), wk =   2.0000000

                       cryst. coord.
        k(    1) = (   0.0000000   0.0000000   0.0000000), wk =   2.0000000

     Dense  grid:   225496 G-vectors     FFT dimensions: (  96,  96,  96)

     Smooth grid:   186095 G-vectors     FFT dimensions: (  90,  90,  90)

     Dynamical RAM for                 wfc:       0.21 MB

     Dynamical RAM for     wfc (w. buffer):       0.21 MB

     Dynamical RAM for           str. fact:       0.34 MB

     Dynamical RAM for           local pot:       0.00 MB

     Dynamical RAM for          nlocal pot:       1.28 MB

     Dynamical RAM for                qrad:       1.27 MB

     Dynamical RAM for          rho,v,vnew:       3.14 MB

     Dynamical RAM for               rhoin:       1.05 MB

     Dynamical RAM for            rho*nmix:       5.51 MB

     Dynamical RAM for           G-vectors:       1.43 MB

     Dynamical RAM for          h,s,v(r/c):       0.00 MB

     Dynamical RAM for          <psi|beta>:       0.00 MB

     Dynamical RAM for                 psi:       0.43 MB

     Dynamical RAM for                hpsi:       0.43 MB

     Dynamical RAM for                spsi:       0.43 MB

     Dynamical RAM for      wfcinit/wfcrot:       0.43 MB

     Dynamical RAM for           addusdens:      64.69 MB

     Estimated static dynamical RAM per process >      12.93 MB

     Estimated max dynamical RAM per process >      83.12 MB

     Estimated total dynamical RAM >     831.25 MB

     The initial density is read from file :
     ./out/S.save/charge-density


     negative rho (up, down):  5.426E-04 0.000E+00
     Starting wfcs from file
     Checking if some PAW data can be deallocated... 

     total cpu time spent up to now is        1.8 secs

     Self-consistent Calculation

     iteration #  1     ecut=    55.00 Ry     beta= 0.70
     Davidson diagonalization with overlap

---- Real-time Memory Report at c_bands before calling an iterative solver
           110 MiB given to the printing process from OS
             0 MiB allocation reported by mallinfo(arena+hblkhd)
          1410 MiB available memory on the node where the printing process lives
------------------
     ethr =  1.00E-05,  avg # of iterations =  1.0

     Threshold (ethr) on eigenvalues was too large:
     Diagonalizing with lowered threshold

     Davidson diagonalization with overlap

---- Real-time Memory Report at c_bands before calling an iterative solver
           114 MiB given to the printing process from OS
             0 MiB allocation reported by mallinfo(arena+hblkhd)
          1384 MiB available memory on the node where the printing process lives
------------------
     c_bands:  1 eigenvalues not converged
     ethr =  4.72E-10,  avg # of iterations = 20.0

     negative rho (up, down):  2.041E-04 0.000E+00

     total cpu time spent up to now is        3.7 secs

     total energy              =    -132.41742670 Ry
     estimated scf accuracy    <       0.23723714 Ry

     iteration #  2     ecut=    55.00 Ry     beta= 0.70
     Davidson diagonalization with overlap

---- Real-time Memory Report at c_bands before calling an iterative solver
           117 MiB given to the printing process from OS
             0 MiB allocation reported by mallinfo(arena+hblkhd)
          1359 MiB available memory on the node where the printing process lives
------------------
     ethr =  1.98E-03,  avg # of iterations =  1.0

     negative rho (up, down):  2.148E-04 0.000E+00

     total cpu time spent up to now is        4.6 secs

     total energy              =    -132.42783301 Ry
     estimated scf accuracy    <       0.00667117 Ry

     iteration #  3     ecut=    55.00 Ry     beta= 0.70
     Davidson diagonalization with overlap

---- Real-time Memory Report at c_bands before calling an iterative solver
           118 MiB given to the printing process from OS
             0 MiB allocation reported by mallinfo(arena+hblkhd)
          1354 MiB available memory on the node where the printing process lives
------------------
     ethr =  5.56E-05,  avg # of iterations =  2.0

     negative rho (up, down):  2.287E-04 0.000E+00

     total cpu time spent up to now is        5.5 secs

     total energy              =    -132.42893588 Ry
     estimated scf accuracy    <       0.00007224 Ry

     iteration #  4     ecut=    55.00 Ry     beta= 0.70
     Davidson diagonalization with overlap

---- Real-time Memory Report at c_bands before calling an iterative solver
           118 MiB given to the printing process from OS
             0 MiB allocation reported by mallinfo(arena+hblkhd)
          1335 MiB available memory on the node where the printing process lives
------------------
     ethr =  6.02E-07,  avg # of iterations =  4.0

     negative rho (up, down):  2.300E-04 0.000E+00

     total cpu time spent up to now is        6.5 secs

     total energy              =    -132.42896896 Ry
     estimated scf accuracy    <       0.00000757 Ry

     iteration #  5     ecut=    55.00 Ry     beta= 0.70
     Davidson diagonalization with overlap

---- Real-time Memory Report at c_bands before calling an iterative solver
           119 MiB given to the printing process from OS
             0 MiB allocation reported by mallinfo(arena+hblkhd)
          1333 MiB available memory on the node where the printing process lives
------------------
     ethr =  6.31E-08,  avg # of iterations =  3.0

     negative rho (up, down):  2.316E-04 0.000E+00

     total cpu time spent up to now is        7.6 secs

     End of self-consistent calculation

          k = 0.0000 0.0000 0.0000 ( 23293 PWs)   bands (ev):

   -20.4515 -14.8129  -9.3320  -8.7904  -8.0896  -4.4912

     occupation numbers 
     1.0000   1.0000   1.0000   1.0000   1.0000   1.0000

     highest occupied level (ev):    -4.4912

!    total energy              =    -132.42897060 Ry
     total all-electron energy =     -1596.631212 Ry
     estimated scf accuracy    <       0.00000017 Ry

     The total energy is the sum of the following terms:
     one-electron contribution =     -61.58638182 Ry
     hartree contribution      =      32.52054031 Ry
     xc contribution           =      -9.94507433 Ry
     ewald contribution        =      -1.16122813 Ry
     one-center paw contrib.   =     -92.25682664 Ry
      -> PAW hartree energy AE =      11.00418385 Ry
      -> PAW hartree energy PS =     -10.94953399 Ry
      -> PAW xc energy AE      =     -50.32590830 Ry
      -> PAW xc energy PS      =       4.14284528 Ry
      -> total E_H with PAW    =      32.57519017 Ry
      -> total E_XC with PAW   =     -56.12813735 Ry

     convergence has been achieved in   5 iterations

     Writing all to output data dir ./out/S.save/

     init_run     :      1.37s CPU      1.62s WALL (       1 calls)
     electrons    :      4.71s CPU      5.81s WALL (       1 calls)

     Called by init_run:
     wfcinit      :      0.00s CPU      0.01s WALL (       1 calls)
     potinit      :      0.54s CPU      0.65s WALL (       1 calls)
     hinit0       :      0.53s CPU      0.54s WALL (       1 calls)

     Called by electrons:
     c_bands      :      0.77s CPU      0.84s WALL (       6 calls)
     sum_band     :      1.42s CPU      1.85s WALL (       6 calls)
     v_of_rho     :      0.96s CPU      1.11s WALL (       6 calls)
     v_h          :      0.11s CPU      0.12s WALL (       6 calls)
     v_xc         :      0.85s CPU      0.99s WALL (       6 calls)
     newd         :      1.04s CPU      1.55s WALL (       6 calls)
     PAW_pot      :      0.60s CPU      0.69s WALL (       6 calls)
     mix_rho      :      0.17s CPU      0.19s WALL (       6 calls)

     Called by c_bands:
     init_us_2    :      0.02s CPU      0.03s WALL (      12 calls)
     init_us_2:cp :      0.02s CPU      0.03s WALL (      12 calls)
     regterg      :      0.74s CPU      0.80s WALL (       6 calls)

     Called by sum_band:
     sum_band:wei :      0.00s CPU      0.00s WALL (       6 calls)
     sum_band:loo :      0.14s CPU      0.15s WALL (       6 calls)
     sum_band:buf :      0.00s CPU      0.00s WALL (       6 calls)
     sum_band:ini :      0.02s CPU      0.02s WALL (       6 calls)
     sum_band:cal :      0.03s CPU      0.03s WALL (       6 calls)
     sum_band:bec :      0.00s CPU      0.00s WALL (       6 calls)
     addusdens    :      1.17s CPU      1.57s WALL (       6 calls)
                                        0.00s GPU  (       6 calls)
     addusd:skk   :      0.01s CPU      0.01s WALL (       6 calls)
                                        0.00s GPU  (       6 calls)

     Called by *egterg:
     rdiaghg      :      0.00s CPU      0.00s WALL (      35 calls)
     regterg:over :      0.03s CPU      0.03s WALL (      31 calls)
     regterg:upda :      0.02s CPU      0.02s WALL (      31 calls)
     regterg:last :      0.02s CPU      0.03s WALL (      14 calls)
     h_psi        :      0.61s CPU      0.67s WALL (      37 calls)
     s_psi        :      0.03s CPU      0.03s WALL (      37 calls)
     g_psi        :      0.00s CPU      0.00s WALL (      31 calls)

     Called by h_psi:
     h_psi:calbec :      0.10s CPU      0.10s WALL (      37 calls)
     vloc_psi     :      0.47s CPU      0.52s WALL (      37 calls)
     add_vuspsi   :      0.04s CPU      0.04s WALL (      37 calls)

     General routines
     calbec       :      0.12s CPU      0.13s WALL (      43 calls)
     fft          :      1.02s CPU      1.18s WALL (      65 calls)
     ffts         :      0.28s CPU      0.31s WALL (      12 calls)
     fftw         :      0.37s CPU      0.41s WALL (     154 calls)
     interpolate  :      0.36s CPU      0.38s WALL (       6 calls)

     Parallel routines

     PAW routines
     PAW_pot      :      0.60s CPU      0.69s WALL (       6 calls)
     PAW_symme    :      0.01s CPU      0.01s WALL (      11 calls)

     PWSCF        :      6.24s CPU      7.62s WALL


   This run was terminated on:  11: 3:40  16Feb2024            

=------------------------------------------------------------------------------=
   JOB DONE.
=------------------------------------------------------------------------------=
