
     Program PWSCF v.7.2 starts on  5Jul2024 at  9:47:20 

     This program is part of the open-source Quantum ESPRESSO suite
     for quantum simulation of materials; please cite
         "P. Giannozzi et al., J. Phys.:Condens. Matter 21 395502 (2009);
         "P. Giannozzi et al., J. Phys.:Condens. Matter 29 465901 (2017);
         "P. Giannozzi et al., J. Chem. Phys. 152 154105 (2020);
          URL http://www.quantum-espresso.org", 
     in publications or presentations arising from this work. More details at
     http://www.quantum-espresso.org/quote

     Parallel version (MPI), running on  1120 processors

     MPI processes distributed on    10 nodes
     234114 MiB available memory on the printing compute node when the environment starts
 
     Reading input from 2.Ni_in_ZnS.nscf.q0.unrlxd.in

     Current dimensions of program PWSCF are:
     Max number of different atomic species (ntypx) = 10
     Max number of k-points (npk) =  40000
     Max angular momentum in pseudopotentials (lmaxx) =  4

     Atomic positions and unit cell read from directory:
     ./out/Ni_q0_unrlxd.save/
 
     file S.pbe-n-kjpaw_psl.1.0.0.UPF: wavefunction(s)  3S 3P renormalized
     file Zn.pbe-dnl-kjpaw_psl.1.0.0.UPF: wavefunction(s)  4S 3D renormalized
     file Ni.pbe-spn-kjpaw_psl.1.0.0.UPF: wavefunction(s)  3P 3D renormalized
     [opt_tetra]  Optimized tetrahedron method is used.
 
     K-points division:     npool     =      10
     R & G space division:  proc/nbgrp/npool/nimage =     112
     Subspace diagonalization in iterative solution of the eigenvalue problem:
     one sub-group per band group will be used
     scalapack distributed-memory algorithm (size of sub-group:  3*  3 procs)

 
     Parallelization info
     --------------------
     sticks:   dense  smooth     PW     G-vecs:    dense   smooth      PW
     Min         180     180     46                19282    19282    2562
     Max         181     181     47                19291    19291    2573
     Sum       20217   20217   5249              2160009  2160009  287777
 
     Using Slab Decomposition
 


     bravais-lattice index     =            1
     lattice parameter (alat)  =      20.5686  a.u.
     unit-cell volume          =    8701.8437 (a.u.)^3
     number of atoms/cell      =           64
     number of atomic types    =            3
     number of electrons       =       582.00
     number of Kohn-Sham states=          349
     kinetic-energy cutoff     =     150.0000  Ry
     charge density cutoff     =     600.0000  Ry
     Exchange-correlation= SLA  PW   PBX  PBC
                           (   1   4   3   4   0   0   0)

     celldm(1)=  20.568554  celldm(2)=   0.000000  celldm(3)=   0.000000
     celldm(4)=   0.000000  celldm(5)=   0.000000  celldm(6)=   0.000000

     crystal axes: (cart. coord. in units of alat)
               a(1) = (   1.000000   0.000000   0.000000 )  
               a(2) = (   0.000000   1.000000   0.000000 )  
               a(3) = (   0.000000   0.000000   1.000000 )  

     reciprocal axes: (cart. coord. in units 2 pi/alat)
               b(1) = (  1.000000  0.000000  0.000000 )  
               b(2) = (  0.000000  1.000000  0.000000 )  
               b(3) = (  0.000000  0.000000  1.000000 )  


     PseudoPot. # 1 for S  read from file:
     /arf/home/amuhaymin/pseudo/S.pbe-n-kjpaw_psl.1.0.0.UPF
     MD5 check sum: fb45dfebcf3e72a4e1bd4a866ec2e262
     Pseudo is Projector augmented-wave + core cor, Zval =  6.0
     Generated using &quot;atomic&quot; code by A. Dal Corso  v.6.3
     Shape of augmentation charge: PSQ
     Using radial grid of 1151 points,  6 beta functions with: 
                l(1) =   0
                l(2) =   0
                l(3) =   1
                l(4) =   1
                l(5) =   2
                l(6) =   2
     Q(r) pseudized with 0 coefficients 


     PseudoPot. # 2 for Zn read from file:
     /arf/home/amuhaymin/pseudo/Zn.pbe-dnl-kjpaw_psl.1.0.0.UPF
     MD5 check sum: c608214d9520ac179f507641260889e3
     Pseudo is Projector augmented-wave + core cor, Zval = 12.0
     Generated using &quot;atomic&quot; code by A. Dal Corso  v.6.2.2
     Shape of augmentation charge: PSQ
     Using radial grid of 1201 points,  6 beta functions with: 
                l(1) =   0
                l(2) =   0
                l(3) =   1
                l(4) =   1
                l(5) =   2
                l(6) =   2
     Q(r) pseudized with 0 coefficients 


     PseudoPot. # 3 for Ni read from file:
     /arf/home/amuhaymin/pseudo/Ni.pbe-spn-kjpaw_psl.1.0.0.UPF
     MD5 check sum: 6e86b733589c3ad8389697b807d86aa7
     Pseudo is Projector augmented-wave + core cor, Zval = 18.0
     Generated using &quot;atomic&quot; code by A. Dal Corso  v.6.3
     Shape of augmentation charge: PSQ
     Using radial grid of 1195 points,  6 beta functions with: 
                l(1) =   0
                l(2) =   0
                l(3) =   1
                l(4) =   1
                l(5) =   2
                l(6) =   2
     Q(r) pseudized with 0 coefficients 


     atomic species   valence    mass     pseudopotential
        S              6.00    32.06500     S ( 1.00)
        Zn            12.00    65.38000     Zn( 1.00)
        Ni            18.00    63.54600     Ni( 1.00)

     Starting magnetic structure 
     atomic species   magnetization
        S            0.000
        Zn           0.000
        Ni           0.111

     24 Sym. Ops. (no inversion) found


                                    s                        frac. trans.

      isym =  1     identity                                     

 cryst.   s( 1) = (     1          0          0      )
                  (     0          1          0      )
                  (     0          0          1      )

 cart.    s( 1) = (  1.0000000  0.0000000  0.0000000 )
                  (  0.0000000  1.0000000  0.0000000 )
                  (  0.0000000  0.0000000  1.0000000 )


      isym =  2     180 deg rotation - cart. axis [0,0,1]        

 cryst.   s( 2) = (    -1          0          0      )
                  (     0         -1          0      )
                  (     0          0          1      )

 cart.    s( 2) = ( -1.0000000  0.0000000  0.0000000 )
                  (  0.0000000 -1.0000000  0.0000000 )
                  (  0.0000000  0.0000000  1.0000000 )


      isym =  3     180 deg rotation - cart. axis [0,1,0]        

 cryst.   s( 3) = (    -1          0          0      )
                  (     0          1          0      )
                  (     0          0         -1      )

 cart.    s( 3) = ( -1.0000000  0.0000000  0.0000000 )
                  (  0.0000000  1.0000000  0.0000000 )
                  (  0.0000000  0.0000000 -1.0000000 )


      isym =  4     180 deg rotation - cart. axis [1,0,0]        

 cryst.   s( 4) = (     1          0          0      )
                  (     0         -1          0      )
                  (     0          0         -1      )

 cart.    s( 4) = (  1.0000000  0.0000000  0.0000000 )
                  (  0.0000000 -1.0000000  0.0000000 )
                  (  0.0000000  0.0000000 -1.0000000 )


      isym =  5     120 deg rotation - cart. axis [-1,-1,-1]     

 cryst.   s( 5) = (     0          0          1      )
                  (     1          0          0      )
                  (     0          1          0      )

 cart.    s( 5) = (  0.0000000  1.0000000  0.0000000 )
                  (  0.0000000  0.0000000  1.0000000 )
                  (  1.0000000  0.0000000  0.0000000 )


      isym =  6     120 deg rotation - cart. axis [-1,1,1]       

 cryst.   s( 6) = (     0          0         -1      )
                  (    -1          0          0      )
                  (     0          1          0      )

 cart.    s( 6) = (  0.0000000 -1.0000000  0.0000000 )
                  (  0.0000000  0.0000000  1.0000000 )
                  ( -1.0000000  0.0000000  0.0000000 )


      isym =  7     120 deg rotation - cart. axis [1,1,-1]       

 cryst.   s( 7) = (     0          0         -1      )
                  (     1          0          0      )
                  (     0         -1          0      )

 cart.    s( 7) = (  0.0000000  1.0000000  0.0000000 )
                  (  0.0000000  0.0000000 -1.0000000 )
                  ( -1.0000000  0.0000000  0.0000000 )


      isym =  8     120 deg rotation - cart. axis [1,-1,1]       

 cryst.   s( 8) = (     0          0          1      )
                  (    -1          0          0      )
                  (     0         -1          0      )

 cart.    s( 8) = (  0.0000000 -1.0000000  0.0000000 )
                  (  0.0000000  0.0000000 -1.0000000 )
                  (  1.0000000  0.0000000  0.0000000 )


      isym =  9     120 deg rotation - cart. axis [1,1,1]        

 cryst.   s( 9) = (     0          1          0      )
                  (     0          0          1      )
                  (     1          0          0      )

 cart.    s( 9) = (  0.0000000  0.0000000  1.0000000 )
                  (  1.0000000  0.0000000  0.0000000 )
                  (  0.0000000  1.0000000  0.0000000 )


      isym = 10     120 deg rotation - cart. axis [-1,1,-1]      

 cryst.   s(10) = (     0         -1          0      )
                  (     0          0         -1      )
                  (     1          0          0      )

 cart.    s(10) = (  0.0000000  0.0000000  1.0000000 )
                  ( -1.0000000  0.0000000  0.0000000 )
                  (  0.0000000 -1.0000000  0.0000000 )


      isym = 11     120 deg rotation - cart. axis [1,-1,-1]      

 cryst.   s(11) = (     0         -1          0      )
                  (     0          0          1      )
                  (    -1          0          0      )

 cart.    s(11) = (  0.0000000  0.0000000 -1.0000000 )
                  ( -1.0000000  0.0000000  0.0000000 )
                  (  0.0000000  1.0000000  0.0000000 )


      isym = 12     120 deg rotation - cart. axis [-1,-1,1]      

 cryst.   s(12) = (     0          1          0      )
                  (     0          0         -1      )
                  (    -1          0          0      )

 cart.    s(12) = (  0.0000000  0.0000000 -1.0000000 )
                  (  1.0000000  0.0000000  0.0000000 )
                  (  0.0000000 -1.0000000  0.0000000 )


      isym = 13     inv. 180 deg rotation - cart. axis [1,1,0]   

 cryst.   s(13) = (     0         -1          0      )
                  (    -1          0          0      )
                  (     0          0          1      )

 cart.    s(13) = (  0.0000000 -1.0000000  0.0000000 )
                  ( -1.0000000  0.0000000  0.0000000 )
                  (  0.0000000  0.0000000  1.0000000 )


      isym = 14     inv. 180 deg rotation - cart. axis [1,-1,0]  

 cryst.   s(14) = (     0          1          0      )
                  (     1          0          0      )
                  (     0          0          1      )

 cart.    s(14) = (  0.0000000  1.0000000  0.0000000 )
                  (  1.0000000  0.0000000  0.0000000 )
                  (  0.0000000  0.0000000  1.0000000 )


      isym = 15     inv.  90 deg rotation - cart. axis [0,0,-1]  

 cryst.   s(15) = (     0          1          0      )
                  (    -1          0          0      )
                  (     0          0         -1      )

 cart.    s(15) = (  0.0000000 -1.0000000  0.0000000 )
                  (  1.0000000  0.0000000  0.0000000 )
                  (  0.0000000  0.0000000 -1.0000000 )


      isym = 16     inv.  90 deg rotation - cart. axis [0,0,1]   

 cryst.   s(16) = (     0         -1          0      )
                  (     1          0          0      )
                  (     0          0         -1      )

 cart.    s(16) = (  0.0000000  1.0000000  0.0000000 )
                  ( -1.0000000  0.0000000  0.0000000 )
                  (  0.0000000  0.0000000 -1.0000000 )


      isym = 17     inv. 180 deg rotation - cart. axis [1,0,1]   

 cryst.   s(17) = (     0          0         -1      )
                  (     0          1          0      )
                  (    -1          0          0      )

 cart.    s(17) = (  0.0000000  0.0000000 -1.0000000 )
                  (  0.0000000  1.0000000  0.0000000 )
                  ( -1.0000000  0.0000000  0.0000000 )


      isym = 18     inv. 180 deg rotation - cart. axis [-1,0,1]  

 cryst.   s(18) = (     0          0          1      )
                  (     0          1          0      )
                  (     1          0          0      )

 cart.    s(18) = (  0.0000000  0.0000000  1.0000000 )
                  (  0.0000000  1.0000000  0.0000000 )
                  (  1.0000000  0.0000000  0.0000000 )


      isym = 19     inv.  90 deg rotation - cart. axis [0,1,0]   

 cryst.   s(19) = (     0          0          1      )
                  (     0         -1          0      )
                  (    -1          0          0      )

 cart.    s(19) = (  0.0000000  0.0000000 -1.0000000 )
                  (  0.0000000 -1.0000000  0.0000000 )
                  (  1.0000000  0.0000000  0.0000000 )


      isym = 20     inv.  90 deg rotation - cart. axis [0,-1,0]  

 cryst.   s(20) = (     0          0         -1      )
                  (     0         -1          0      )
                  (     1          0          0      )

 cart.    s(20) = (  0.0000000  0.0000000  1.0000000 )
                  (  0.0000000 -1.0000000  0.0000000 )
                  ( -1.0000000  0.0000000  0.0000000 )


      isym = 21     inv. 180 deg rotation - cart. axis [0,1,1]   

 cryst.   s(21) = (     1          0          0      )
                  (     0          0         -1      )
                  (     0         -1          0      )

 cart.    s(21) = (  1.0000000  0.0000000  0.0000000 )
                  (  0.0000000  0.0000000 -1.0000000 )
                  (  0.0000000 -1.0000000  0.0000000 )


      isym = 22     inv. 180 deg rotation - cart. axis [0,1,-1]  

 cryst.   s(22) = (     1          0          0      )
                  (     0          0          1      )
                  (     0          1          0      )

 cart.    s(22) = (  1.0000000  0.0000000  0.0000000 )
                  (  0.0000000  0.0000000  1.0000000 )
                  (  0.0000000  1.0000000  0.0000000 )


      isym = 23     inv.  90 deg rotation - cart. axis [-1,0,0]  

 cryst.   s(23) = (    -1          0          0      )
                  (     0          0          1      )
                  (     0         -1          0      )

 cart.    s(23) = ( -1.0000000  0.0000000  0.0000000 )
                  (  0.0000000  0.0000000 -1.0000000 )
                  (  0.0000000  1.0000000  0.0000000 )


      isym = 24     inv.  90 deg rotation - cart. axis [1,0,0]   

 cryst.   s(24) = (    -1          0          0      )
                  (     0          0         -1      )
                  (     0          1          0      )

 cart.    s(24) = ( -1.0000000  0.0000000  0.0000000 )
                  (  0.0000000  0.0000000  1.0000000 )
                  (  0.0000000 -1.0000000  0.0000000 )


     point group T_d (-43m) 
     there are  5 classes
     the character table:

       E     8C3   3C2   6S4   6s_d 
A_1    1.00  1.00  1.00  1.00  1.00
A_2    1.00  1.00  1.00 -1.00 -1.00
E      2.00 -1.00  2.00  0.00  0.00
T_1    3.00  0.00 -1.00  1.00 -1.00
T_2    3.00  0.00 -1.00 -1.00  1.00

     the symmetry operations in each class and the name of the first element:

     E        1
          identity                                               
     8C3      5    7    8    6   12    9   10   11
          120 deg rotation - cart. axis [-1,-1,-1]               
     3C2      2    3    4
          180 deg rotation - cart. axis [0,0,1]                  
     6S4     15   16   20   19   23   24
          inv.  90 deg rotation - cart. axis [0,0,-1]            
     6s_d    13   14   17   18   21   22
          inv. 180 deg rotation - cart. axis [1,1,0]             

   Cartesian axes

     site n.     atom                  positions (alat units)
         1           Zn  tau(   1) = (   0.0000000   0.0000000   0.0000000  )
         2           Zn  tau(   2) = (   0.0000000   0.2500000   0.2500000  )
         3           Zn  tau(   3) = (   0.2500000   0.0000000   0.2500000  )
         4           Zn  tau(   4) = (   0.2500000   0.2500000   0.0000000  )
         5           S   tau(   5) = (   0.1250000   0.3750000   0.3750000  )
         6           S   tau(   6) = (   0.1250000   0.1250000   0.1250000  )
         7           S   tau(   7) = (   0.3750000   0.3750000   0.1250000  )
         8           S   tau(   8) = (   0.3750000   0.1250000   0.3750000  )
         9           Zn  tau(   9) = (   0.0000000   0.0000000   0.5000000  )
        10           Zn  tau(  10) = (   0.0000000   0.2500000   0.7500000  )
        11           Zn  tau(  11) = (   0.2500000   0.0000000   0.7500000  )
        12           Zn  tau(  12) = (   0.2500000   0.2500000   0.5000000  )
        13           S   tau(  13) = (   0.1250000   0.3750000   0.8750000  )
        14           S   tau(  14) = (   0.1250000   0.1250000   0.6250000  )
        15           S   tau(  15) = (   0.3750000   0.3750000   0.6250000  )
        16           S   tau(  16) = (   0.3750000   0.1250000   0.8750000  )
        17           Zn  tau(  17) = (   0.0000000   0.5000000   0.0000000  )
        18           Zn  tau(  18) = (   0.0000000   0.7500000   0.2500000  )
        19           Zn  tau(  19) = (   0.2500000   0.5000000   0.2500000  )
        20           Zn  tau(  20) = (   0.2500000   0.7500000   0.0000000  )
        21           S   tau(  21) = (   0.1250000   0.8750000   0.3750000  )
        22           S   tau(  22) = (   0.1250000   0.6250000   0.1250000  )
        23           S   tau(  23) = (   0.3750000   0.8750000   0.1250000  )
        24           S   tau(  24) = (   0.3750000   0.6250000   0.3750000  )
        25           Zn  tau(  25) = (   0.0000000   0.5000000   0.5000000  )
        26           Zn  tau(  26) = (   0.0000000   0.7500000   0.7500000  )
        27           Zn  tau(  27) = (   0.2500000   0.5000000   0.7500000  )
        28           Zn  tau(  28) = (   0.2500000   0.7500000   0.5000000  )
        29           S   tau(  29) = (   0.1250000   0.8750000   0.8750000  )
        30           S   tau(  30) = (   0.1250000   0.6250000   0.6250000  )
        31           S   tau(  31) = (   0.3750000   0.8750000   0.6250000  )
        32           S   tau(  32) = (   0.3750000   0.6250000   0.8750000  )
        33           Zn  tau(  33) = (   0.5000000   0.0000000   0.0000000  )
        34           Zn  tau(  34) = (   0.5000000   0.2500000   0.2500000  )
        35           Zn  tau(  35) = (   0.7500000   0.0000000   0.2500000  )
        36           Zn  tau(  36) = (   0.7500000   0.2500000   0.0000000  )
        37           S   tau(  37) = (   0.6250000   0.3750000   0.3750000  )
        38           S   tau(  38) = (   0.6250000   0.1250000   0.1250000  )
        39           S   tau(  39) = (   0.8750000   0.3750000   0.1250000  )
        40           S   tau(  40) = (   0.8750000   0.1250000   0.3750000  )
        41           Zn  tau(  41) = (   0.5000000   0.0000000   0.5000000  )
        42           Zn  tau(  42) = (   0.5000000   0.2500000   0.7500000  )
        43           Zn  tau(  43) = (   0.7500000   0.0000000   0.7500000  )
        44           Zn  tau(  44) = (   0.7500000   0.2500000   0.5000000  )
        45           S   tau(  45) = (   0.6250000   0.3750000   0.8750000  )
        46           S   tau(  46) = (   0.6250000   0.1250000   0.6250000  )
        47           S   tau(  47) = (   0.8750000   0.3750000   0.6250000  )
        48           S   tau(  48) = (   0.8750000   0.1250000   0.8750000  )
        49           Zn  tau(  49) = (   0.5000000   0.5000000   0.0000000  )
        50           Zn  tau(  50) = (   0.5000000   0.7500000   0.2500000  )
        51           Zn  tau(  51) = (   0.7500000   0.5000000   0.2500000  )
        52           Zn  tau(  52) = (   0.7500000   0.7500000   0.0000000  )
        53           S   tau(  53) = (   0.6250000   0.8750000   0.3750000  )
        54           S   tau(  54) = (   0.6250000   0.6250000   0.1250000  )
        55           S   tau(  55) = (   0.8750000   0.8750000   0.1250000  )
        56           S   tau(  56) = (   0.8750000   0.6250000   0.3750000  )
        57           Ni  tau(  57) = (   0.5000000   0.5000000   0.5000000  )
        58           Zn  tau(  58) = (   0.5000000   0.7500000   0.7500000  )
        59           Zn  tau(  59) = (   0.7500000   0.5000000   0.7500000  )
        60           Zn  tau(  60) = (   0.7500000   0.7500000   0.5000000  )
        61           S   tau(  61) = (   0.6250000   0.8750000   0.8750000  )
        62           S   tau(  62) = (   0.6250000   0.6250000   0.6250000  )
        63           S   tau(  63) = (   0.8750000   0.8750000   0.6250000  )
        64           S   tau(  64) = (   0.8750000   0.6250000   0.8750000  )

   Crystallographic axes

     site n.     atom                  positions (cryst. coord.)
         1           Zn  tau(   1) = (  0.0000000  0.0000000  0.0000000  )
         2           Zn  tau(   2) = (  0.0000000  0.2500000  0.2500000  )
         3           Zn  tau(   3) = (  0.2500000  0.0000000  0.2500000  )
         4           Zn  tau(   4) = (  0.2500000  0.2500000  0.0000000  )
         5           S   tau(   5) = (  0.1250000  0.3750000  0.3750000  )
         6           S   tau(   6) = (  0.1250000  0.1250000  0.1250000  )
         7           S   tau(   7) = (  0.3750000  0.3750000  0.1250000  )
         8           S   tau(   8) = (  0.3750000  0.1250000  0.3750000  )
         9           Zn  tau(   9) = (  0.0000000  0.0000000  0.5000000  )
        10           Zn  tau(  10) = (  0.0000000  0.2500000  0.7500000  )
        11           Zn  tau(  11) = (  0.2500000  0.0000000  0.7500000  )
        12           Zn  tau(  12) = (  0.2500000  0.2500000  0.5000000  )
        13           S   tau(  13) = (  0.1250000  0.3750000  0.8750000  )
        14           S   tau(  14) = (  0.1250000  0.1250000  0.6250000  )
        15           S   tau(  15) = (  0.3750000  0.3750000  0.6250000  )
        16           S   tau(  16) = (  0.3750000  0.1250000  0.8750000  )
        17           Zn  tau(  17) = (  0.0000000  0.5000000  0.0000000  )
        18           Zn  tau(  18) = (  0.0000000  0.7500000  0.2500000  )
        19           Zn  tau(  19) = (  0.2500000  0.5000000  0.2500000  )
        20           Zn  tau(  20) = (  0.2500000  0.7500000  0.0000000  )
        21           S   tau(  21) = (  0.1250000  0.8750000  0.3750000  )
        22           S   tau(  22) = (  0.1250000  0.6250000  0.1250000  )
        23           S   tau(  23) = (  0.3750000  0.8750000  0.1250000  )
        24           S   tau(  24) = (  0.3750000  0.6250000  0.3750000  )
        25           Zn  tau(  25) = (  0.0000000  0.5000000  0.5000000  )
        26           Zn  tau(  26) = (  0.0000000  0.7500000  0.7500000  )
        27           Zn  tau(  27) = (  0.2500000  0.5000000  0.7500000  )
        28           Zn  tau(  28) = (  0.2500000  0.7500000  0.5000000  )
        29           S   tau(  29) = (  0.1250000  0.8750000  0.8750000  )
        30           S   tau(  30) = (  0.1250000  0.6250000  0.6250000  )
        31           S   tau(  31) = (  0.3750000  0.8750000  0.6250000  )
        32           S   tau(  32) = (  0.3750000  0.6250000  0.8750000  )
        33           Zn  tau(  33) = (  0.5000000  0.0000000  0.0000000  )
        34           Zn  tau(  34) = (  0.5000000  0.2500000  0.2500000  )
        35           Zn  tau(  35) = (  0.7500000  0.0000000  0.2500000  )
        36           Zn  tau(  36) = (  0.7500000  0.2500000  0.0000000  )
        37           S   tau(  37) = (  0.6250000  0.3750000  0.3750000  )
        38           S   tau(  38) = (  0.6250000  0.1250000  0.1250000  )
        39           S   tau(  39) = (  0.8750000  0.3750000  0.1250000  )
        40           S   tau(  40) = (  0.8750000  0.1250000  0.3750000  )
        41           Zn  tau(  41) = (  0.5000000  0.0000000  0.5000000  )
        42           Zn  tau(  42) = (  0.5000000  0.2500000  0.7500000  )
        43           Zn  tau(  43) = (  0.7500000  0.0000000  0.7500000  )
        44           Zn  tau(  44) = (  0.7500000  0.2500000  0.5000000  )
        45           S   tau(  45) = (  0.6250000  0.3750000  0.8750000  )
        46           S   tau(  46) = (  0.6250000  0.1250000  0.6250000  )
        47           S   tau(  47) = (  0.8750000  0.3750000  0.6250000  )
        48           S   tau(  48) = (  0.8750000  0.1250000  0.8750000  )
        49           Zn  tau(  49) = (  0.5000000  0.5000000  0.0000000  )
        50           Zn  tau(  50) = (  0.5000000  0.7500000  0.2500000  )
        51           Zn  tau(  51) = (  0.7500000  0.5000000  0.2500000  )
        52           Zn  tau(  52) = (  0.7500000  0.7500000  0.0000000  )
        53           S   tau(  53) = (  0.6250000  0.8750000  0.3750000  )
        54           S   tau(  54) = (  0.6250000  0.6250000  0.1250000  )
        55           S   tau(  55) = (  0.8750000  0.8750000  0.1250000  )
        56           S   tau(  56) = (  0.8750000  0.6250000  0.3750000  )
        57           Ni  tau(  57) = (  0.5000000  0.5000000  0.5000000  )
        58           Zn  tau(  58) = (  0.5000000  0.7500000  0.7500000  )
        59           Zn  tau(  59) = (  0.7500000  0.5000000  0.7500000  )
        60           Zn  tau(  60) = (  0.7500000  0.7500000  0.5000000  )
        61           S   tau(  61) = (  0.6250000  0.8750000  0.8750000  )
        62           S   tau(  62) = (  0.6250000  0.6250000  0.6250000  )
        63           S   tau(  63) = (  0.8750000  0.8750000  0.6250000  )
        64           S   tau(  64) = (  0.8750000  0.6250000  0.8750000  )

     number of k points=    10 (tetrahedron method)
                       cart. coord. in units 2pi/alat
        k(    1) = (   0.0000000   0.0000000   0.0000000), wk =   0.0156250
        k(    2) = (   0.0000000   0.0000000   0.2500000), wk =   0.0937500
        k(    3) = (   0.0000000   0.0000000  -0.5000000), wk =   0.0468750
        k(    4) = (   0.0000000   0.2500000   0.2500000), wk =   0.1875000
        k(    5) = (   0.0000000   0.2500000  -0.5000000), wk =   0.1875000
        k(    6) = (   0.0000000  -0.5000000  -0.5000000), wk =   0.0468750
        k(    7) = (   0.2500000   0.2500000   0.2500000), wk =   0.1250000
        k(    8) = (   0.2500000   0.2500000  -0.5000000), wk =   0.1875000
        k(    9) = (   0.2500000  -0.5000000  -0.5000000), wk =   0.0937500
        k(   10) = (  -0.5000000  -0.5000000  -0.5000000), wk =   0.0156250

                       cryst. coord.
        k(    1) = (   0.0000000   0.0000000   0.0000000), wk =   0.0156250
        k(    2) = (   0.0000000   0.0000000   0.2500000), wk =   0.0937500
        k(    3) = (   0.0000000   0.0000000  -0.5000000), wk =   0.0468750
        k(    4) = (   0.0000000   0.2500000   0.2500000), wk =   0.1875000
        k(    5) = (   0.0000000   0.2500000  -0.5000000), wk =   0.1875000
        k(    6) = (   0.0000000  -0.5000000  -0.5000000), wk =   0.0468750
        k(    7) = (   0.2500000   0.2500000   0.2500000), wk =   0.1250000
        k(    8) = (   0.2500000   0.2500000  -0.5000000), wk =   0.1875000
        k(    9) = (   0.2500000  -0.5000000  -0.5000000), wk =   0.0937500
        k(   10) = (  -0.5000000  -0.5000000  -0.5000000), wk =   0.0156250

     Dense  grid:  2160009 G-vectors     FFT dimensions: ( 162, 162, 162)

     Dynamical RAM for                 wfc:      12.83 MB

     Dynamical RAM for     wfc (w. buffer):      38.50 MB

     Dynamical RAM for           str. fact:       0.88 MB

     Dynamical RAM for           local pot:       0.00 MB

     Dynamical RAM for          nlocal pot:      42.36 MB

     Dynamical RAM for                qrad:       5.90 MB

     Dynamical RAM for          rho,v,vnew:       4.17 MB

     Dynamical RAM for           G-vectors:       1.25 MB

     Dynamical RAM for          h,s,v(r/c):       2.46 MB

     Dynamical RAM for          <psi|beta>:       6.13 MB

     Dynamical RAM for                 psi:      25.67 MB

     Dynamical RAM for                hpsi:      25.67 MB

     Dynamical RAM for                spsi:      25.67 MB

     Dynamical RAM for      wfcinit/wfcrot:      34.65 MB

     Dynamical RAM for           addusdens:       6.97 MB

     Estimated static dynamical RAM per process >      96.64 MB

     Estimated max dynamical RAM per process >     182.24 MB

     Estimated total dynamical RAM >     199.33 GB
     Generating pointlists ...
     new r_m :   0.0893 (alat units)  1.8370 (a.u.) for type    1
     new r_m :   0.0893 (alat units)  1.8370 (a.u.) for type    2
     new r_m :   0.0893 (alat units)  1.8370 (a.u.) for type    3

     The potential is recalculated from file :
     ./out/Ni_q0_unrlxd.save/charge-density

     Starting wfcs are  417 randomized atomic wfcs
     Checking if some PAW data can be deallocated... 
       PAW data deallocated on  560 nodes for type:  1
       PAW data deallocated on  577 nodes for type:  2
       PAW data deallocated on 1103 nodes for type:  3

     Band Structure Calculation
     Davidson diagonalization with overlap

     Computing kpt #:     1  of     2 on this pool
     c_bands:  6 eigenvalues not converged
     total cpu time spent up to now is       86.2 secs

     Computing kpt #:     2  of     2 on this pool
     c_bands:  4 eigenvalues not converged
     total cpu time spent up to now is      152.9 secs

     ethr =  1.72E-12,  avg # of iterations =107.3

     total cpu time spent up to now is      154.2 secs

     End of band structure calculation

 ------ SPIN UP ------------


          k = 0.0000 0.0000 0.0000 (269825 PWs)   bands (ev):

   -97.8524 -58.2347 -58.2347 -58.2347  -7.4471  -6.9132  -6.9132  -6.9102
    -6.9102  -6.9102  -6.8852  -6.5898  -6.5898  -6.5898  -6.5892  -6.5892
    -6.5892  -6.5891  -6.5891  -6.5866  -6.5866  -6.5866  -6.5809  -6.5529
    -6.5529  -6.5529  -6.5275  -6.2699  -6.2699  -6.2699  -6.2598  -6.2598
    -6.2598  -6.2429  -6.2429  -6.2429  -0.7053  -0.7053  -0.7027  -0.7005
    -0.7005  -0.7005  -0.6685  -0.6684  -0.6684  -0.6561  -0.6561  -0.6561
    -0.5553  -0.5553  -0.5553  -0.5552  -0.5552  -0.5533  -0.5533  -0.5533
    -0.5455  -0.5455  -0.5455  -0.5442  -0.5442  -0.5442  -0.5424  -0.5405
    -0.5405  -0.5392  -0.5392  -0.5392  -0.5345  -0.5301  -0.5301  -0.5301
    -0.5265  -0.5265  -0.5265  -0.5226  -0.5226  -0.5226  -0.5212  -0.5212
    -0.5212  -0.5170  -0.5170  -0.5157  -0.5157  -0.5156  -0.5107  -0.5107
    -0.5107  -0.5100  -0.5099  -0.5099  -0.5099  -0.4852  -0.4852  -0.4343
    -0.4343  -0.4343  -0.3922  -0.3922  -0.3922  -0.3871  -0.3871  -0.3871
    -0.3859  -0.3859  -0.3859  -0.3839  -0.3839  -0.3839  -0.3760  -0.3760
    -0.3552  -0.3486  -0.3486  -0.3486  -0.3325  -0.3325  -0.3325  -0.2470
    -0.2470  -0.2470  -0.2377  -0.2377  -0.2377  -0.2350  -0.2350  -0.2320
    -0.2208  -0.2208  -0.2203  -0.2196  -0.2196  -0.2196  -0.2193  -0.2143
    -0.2143  -0.2007  -0.2007  -0.2007  -0.1974  -0.1963  -0.1963  -0.1963
    -0.1953  -0.1953  -0.1953  -0.1868  -0.1868  -0.1707  -0.1707  -0.1592
    -0.1592  -0.1592  -0.1516  -0.1516  -0.1516  -0.1496  -0.1496  -0.1470
    -0.1463  -0.1463  -0.1463  -0.1411  -0.1411  -0.1411  -0.1370  -0.1370
    -0.1227  -0.1227  -0.1227  -0.1217  -0.1217  -0.1217  -0.1159  -0.1120
    -0.1120  -0.1088  -0.0216  -0.0216  -0.0216   0.0139   0.0228   0.0228
     0.0228   0.1581   0.1581   0.1581   0.1976   0.1976   0.1976   0.3989
     0.3989   0.3989   0.4390   1.0353   1.0353   1.0631   1.0631   1.0631
     1.0702   1.0702   1.0710   1.2450   1.5373   1.5373   1.5373   1.6729
     1.6729   1.6751   1.6751   1.6751   1.6849   1.6849   1.6849   1.9039
     2.5936   2.5936   2.5936   2.7682   2.7682   2.9000   2.9000   2.9000
     2.9123   2.9123   2.9123   2.9230   2.9516   2.9516   2.9516   2.9927
     2.9927   3.0789   3.0827   3.0827   3.0838   3.0838   3.0838   3.1248
     3.1248   3.1248   3.1471   3.1471   3.1471   3.2129   3.3469   3.3469
     3.3469   3.4064   3.4064   3.4064   3.6504   3.6504   3.6505   4.1457
     4.1457   4.3594   4.3594   4.3594   4.3611   4.3611   4.3611   4.3759
     4.3759   4.3759   4.4774   4.4774   4.4774   4.6784   4.6784   4.6784
     4.6795   4.6795   4.6795   4.6804   4.6949   4.6949   4.6949   4.6978
     4.6978   4.7173   4.7173   4.7173   4.9637   4.9637   5.1292   5.1292
     5.1292   5.6711   5.6711   5.6711   7.5910   8.8213   8.8213   8.8213
     8.8934   9.0325   9.0325   9.0325   9.6410   9.6410   9.6579   9.9893
     9.9893   9.9893   9.9969   9.9969  10.0303  10.1238  10.1238  10.1448
    10.1448  10.1448  10.1607  10.3184  10.3184  10.3184  10.3188  10.3188
    10.3188  10.3255  10.3255  10.3534  10.3534  10.3534  10.7324  11.2502
    11.2502  11.2502  11.2940  11.2940  11.2940  11.4765  11.4765  11.4765
    11.4836  11.4836  11.7925  11.9587  11.9587  11.9587  12.1913  12.1913
    12.1913  12.1923  12.1923  12.1923  12.2126

     occupation numbers 
     1.0000   1.0000   1.0000   1.0000   1.0000   1.0000   1.0000   1.0000
     1.0000   1.0000   1.0000   1.0000   1.0000   1.0000   1.0000   1.0000
     1.0000   1.0000   1.0000   1.0000   1.0000   1.0000   1.0000   1.0000
     1.0000   1.0000   1.0000   1.0000   1.0000   1.0000   1.0000   1.0000
     1.0000   1.0000   1.0000   1.0000   1.0000   1.0000   1.0000   1.0000
     1.0000   1.0000   1.0000   1.0000   1.0000   1.0000   1.0000   1.0000
     1.0000   1.0000   1.0000   1.0000   1.0000   1.0000   1.0000   1.0000
     1.0000   1.0000   1.0000   1.0000   1.0000   1.0000   1.0000   1.0000
     1.0000   1.0000   1.0000   1.0000   1.0000   1.0000   1.0000   1.0000
     1.0000   1.0000   1.0000   1.0000   1.0000   1.0000   1.0000   1.0000
     1.0000   1.0000   1.0000   1.0000   1.0000   1.0000   1.0000   1.0000
     1.0000   1.0000   1.0000   1.0000   1.0000   1.0000   1.0000   1.0000
     1.0000   1.0000   1.0000   1.0000   1.0000   1.0000   1.0000   1.0000
     1.0000   1.0000   1.0000   1.0000   1.0000   1.0000   1.0000   1.0000
     1.0000   1.0000   1.0000   1.0000   1.0000   1.0000   1.0000   1.0000
     1.0000   1.0000   1.0000   1.0000   1.0000   1.0000   1.0000   1.0000
     1.0000   1.0000   1.0000   1.0000   1.0000   1.0000   1.0000   1.0000
     1.0000   1.0000   1.0000   1.0000   1.0000   1.0000   1.0000   1.0000
     1.0000   1.0000   1.0000   1.0000   1.0000   1.0000   1.0000   1.0000
     1.0000   1.0000   1.0000   1.0000   1.0000   1.0000   1.0000   1.0000
     1.0000   1.0000   1.0000   1.0000   1.0000   1.0000   1.0000   1.0000
     1.0000   1.0000   1.0000   1.0000   1.0000   1.0000   1.0000   1.0000
     1.0000   1.0000   1.0000   1.0000   1.0000   1.0000   1.0000   1.0000
     1.0000   1.0000   1.0000   1.0000   1.0000   1.0000   1.0000   1.0000
     1.0000   1.0000   1.0000   1.0000   1.0000   1.0000   1.0000   1.0000
     1.0000   1.0000   1.0000   1.0000   1.0000   1.0000   1.0000   1.0000
     1.0000   1.0000   1.0000   1.0000   1.0000   1.0000   1.0000   1.0000
     1.0000   1.0000   1.0000   1.0000   1.0000   1.0000   1.0000   1.0000
     1.0000   1.0000   1.0000   1.0000   1.0000   1.0000   1.0000   1.0000
     1.0000   1.0000   1.0000   1.0000   1.0000   1.0000   1.0000   1.0000
     1.0000   1.0000   1.0000   1.0000   1.0000   1.0000   1.0000   1.0000
     1.0000   1.0000   1.0000   1.0000   1.0000   1.0000   1.0000   1.0000
     1.0000   1.0000   1.0000   1.0000   1.0000   1.0000   1.0000   1.0000
     1.0000   1.0000   1.0000   1.0000   1.0000   1.0000   1.0000   1.0000
     1.0000   1.0000   1.0000   1.0000   1.0000   1.0000   1.0000   1.0000
     1.0000   1.0000   1.0000   1.0000   1.0000   1.0000   1.0000   1.0000
     1.0000   1.0000   1.0000   1.0000   0.0000   0.0000   0.0000   0.0000
     0.0000   0.0000   0.0000   0.0000   0.0000   0.0000   0.0000   0.0000
     0.0000   0.0000   0.0000   0.0000   0.0000   0.0000   0.0000   0.0000
     0.0000   0.0000   0.0000   0.0000   0.0000   0.0000   0.0000   0.0000
     0.0000   0.0000   0.0000   0.0000   0.0000   0.0000   0.0000   0.0000
     0.0000   0.0000   0.0000   0.0000   0.0000   0.0000   0.0000   0.0000
     0.0000   0.0000   0.0000   0.0000   0.0000   0.0000   0.0000   0.0000
     0.0000   0.0000   0.0000   0.0000   0.0000

          k = 0.0000 0.0000 0.2500 (269876 PWs)   bands (ev):

   -97.8524 -58.2347 -58.2347 -58.2347  -7.4090  -7.1238  -6.8890  -6.8860
    -6.8860  -6.8711  -6.7140  -6.7114  -6.7114  -6.7000  -6.6747  -6.5859
    -6.5853  -6.5853  -6.5833  -6.5628  -6.5613  -6.5613  -6.5476  -6.4640
    -6.4596  -6.4596  -6.4463  -6.3191  -6.2848  -6.2840  -6.2840  -6.2718
    -6.2666  -6.2666  -6.2470  -6.2470  -0.7016  -0.6946  -0.6877  -0.6858
    -0.6843  -0.6843  -0.6710  -0.6600  -0.6495  -0.6493  -0.6473  -0.6473
    -0.5807  -0.5807  -0.5629  -0.5617  -0.5595  -0.5595  -0.5558  -0.5551
    -0.5519  -0.5519  -0.5511  -0.5501  -0.5497  -0.5497  -0.5483  -0.5464
    -0.5463  -0.5463  -0.5438  -0.5421  -0.5413  -0.5406  -0.5406  -0.5377
    -0.5345  -0.5345  -0.5336  -0.5336  -0.5281  -0.5281  -0.5268  -0.5244
    -0.5244  -0.5235  -0.5226  -0.5216  -0.5191  -0.5191  -0.5164  -0.5025
    -0.4940  -0.4933  -0.4888  -0.4888  -0.4837  -0.4802  -0.4802  -0.4680
    -0.4666  -0.4640  -0.4640  -0.4284  -0.4271  -0.4271  -0.4122  -0.3994
    -0.3994  -0.3727  -0.3727  -0.3610  -0.3536  -0.3536  -0.3507  -0.3458
    -0.3458  -0.3431  -0.3285  -0.2917  -0.2917  -0.2903  -0.2834  -0.2761
    -0.2730  -0.2487  -0.2487  -0.2285  -0.2234  -0.2202  -0.2202  -0.2184
    -0.2150  -0.2145  -0.2145  -0.2144  -0.2132  -0.2122  -0.2101  -0.2016
    -0.2016  -0.1983  -0.1980  -0.1918  -0.1918  -0.1907  -0.1897  -0.1868
    -0.1834  -0.1834  -0.1823  -0.1823  -0.1803  -0.1794  -0.1794  -0.1772
    -0.1745  -0.1696  -0.1611  -0.1611  -0.1595  -0.1570  -0.1560  -0.1494
    -0.1494  -0.1494  -0.1449  -0.1447  -0.1410  -0.1410  -0.1410  -0.1323
    -0.1282  -0.1213  -0.1213  -0.1179  -0.1179  -0.1131  -0.0987  -0.0987
    -0.0979  -0.0824  -0.0766  -0.0750  -0.0750  -0.0596  -0.0471   0.0347
     0.0347   0.1259   0.1276   0.1276   0.1595   0.1671   0.1671   0.5880
     0.5880   0.5976   0.6227   1.0435   1.0472   1.0697   1.0698   1.0755
     1.0781   1.0781   1.1645   1.2532   1.3380   1.3380   1.3696   1.3926
     1.4010   1.4010   1.4314   1.5598   1.9850   1.9850   2.0300   2.0484
     2.3145   2.5312   2.5312   2.6152   2.6428   2.7033   2.7033   2.7371
     2.7631   2.8278   2.8348   2.8348   2.8373   2.9496   2.9567   2.9736
     2.9736   3.1003   3.1508   3.1508   3.2496   3.3121   3.3329   3.3329
     3.3402   3.3633   3.3835   3.3835   3.3996   3.4396   3.4396   3.4743
     3.4868   3.4868   3.5149   3.6046   3.7088   3.7088   3.8391   4.0217
     4.0217   4.1042   4.1226   4.2506   4.2627   4.2912   4.2912   4.3599
     4.3904   4.3904   4.4216   4.4919   4.4919   4.4959   4.5028   4.5335
     4.5335   4.5932   4.6837   4.6920   4.6920   4.6941   4.7116   4.7541
     4.7541   4.7639   4.7815   4.7815   4.8685   4.9835   5.0400   5.1196
     5.1196   5.3915   5.5798   5.5798   7.9873   9.0387   9.0392   9.0392
     9.1005   9.1130   9.2601   9.2601   9.5246   9.6658   9.7207   9.8415
     9.8498  10.0584  10.0602  10.0602  10.0717  10.0788  10.0895  10.0895
    10.1119  10.1789  10.2903  10.2960  10.2960  10.3310  10.3401  10.3704
    10.3704  10.3870  10.4508  10.4643  10.4643  10.6439  10.7246  10.7246
    10.7317  11.0617  11.0749  11.0790  11.0790  11.0820  11.2874  11.5944
    11.5989  11.5989  11.7231  11.7834  11.8368  11.8702  11.8712  11.8712
    12.0341  12.0347  12.0347  12.0450  12.0518

     occupation numbers 
     1.0000   1.0000   1.0000   1.0000   1.0000   1.0000   1.0000   1.0000
     1.0000   1.0000   1.0000   1.0000   1.0000   1.0000   1.0000   1.0000
     1.0000   1.0000   1.0000   1.0000   1.0000   1.0000   1.0000   1.0000
     1.0000   1.0000   1.0000   1.0000   1.0000   1.0000   1.0000   1.0000
     1.0000   1.0000   1.0000   1.0000   1.0000   1.0000   1.0000   1.0000
     1.0000   1.0000   1.0000   1.0000   1.0000   1.0000   1.0000   1.0000
     1.0000   1.0000   1.0000   1.0000   1.0000   1.0000   1.0000   1.0000
     1.0000   1.0000   1.0000   1.0000   1.0000   1.0000   1.0000   1.0000
     1.0000   1.0000   1.0000   1.0000   1.0000   1.0000   1.0000   1.0000
     1.0000   1.0000   1.0000   1.0000   1.0000   1.0000   1.0000   1.0000
     1.0000   1.0000   1.0000   1.0000   1.0000   1.0000   1.0000   1.0000
     1.0000   1.0000   1.0000   1.0000   1.0000   1.0000   1.0000   1.0000
     1.0000   1.0000   1.0000   1.0000   1.0000   1.0000   1.0000   1.0000
     1.0000   1.0000   1.0000   1.0000   1.0000   1.0000   1.0000   1.0000
     1.0000   1.0000   1.0000   1.0000   1.0000   1.0000   1.0000   1.0000
     1.0000   1.0000   1.0000   1.0000   1.0000   1.0000   1.0000   1.0000
     1.0000   1.0000   1.0000   1.0000   1.0000   1.0000   1.0000   1.0000
     1.0000   1.0000   1.0000   1.0000   1.0000   1.0000   1.0000   1.0000
     1.0000   1.0000   1.0000   1.0000   1.0000   1.0000   1.0000   1.0000
     1.0000   1.0000   1.0000   1.0000   1.0000   1.0000   1.0000   1.0000
     1.0000   1.0000   1.0000   1.0000   1.0000   1.0000   1.0000   1.0000
     1.0000   1.0000   1.0000   1.0000   1.0000   1.0000   1.0000   1.0000
     1.0000   1.0000   1.0000   1.0000   1.0000   1.0000   1.0000   1.0000
     1.0000   1.0000   1.0000   1.0000   1.0000   1.0000   1.0000   1.0000
     1.0000   1.0000   1.0000   1.0000   1.0000   1.0000   1.0000   1.0000
     1.0000   1.0000   1.0000   1.0000   1.0000   1.0000   1.0000   1.0000
     1.0000   1.0000   1.0000   1.0000   1.0000   1.0000   1.0000   1.0000
     1.0000   1.0000   1.0000   1.0000   1.0000   1.0000   1.0000   1.0000
     1.0000   1.0000   1.0000   1.0000   1.0000   1.0000   1.0000   1.0000
     1.0000   1.0000   1.0000   1.0000   1.0000   1.0000   1.0000   1.0000
     1.0000   1.0000   1.0000   1.0000   1.0000   1.0000   1.0000   1.0000
     1.0000   1.0000   1.0000   1.0000   1.0000   1.0000   1.0000   1.0000
     1.0000   1.0000   1.0000   1.0000   1.0000   1.0000   1.0000   1.0000
     1.0000   1.0000   1.0000   1.0000   1.0000   1.0000   1.0000   1.0000
     1.0000   1.0000   1.0000   1.0000   1.0000   1.0000   1.0000   1.0000
     1.0000   1.0000   1.0000   1.0000   1.0000   1.0000   1.0000   1.0000
     1.0000   1.0000   1.0000   1.0000   0.0000   0.0000   0.0000   0.0000
     0.0000   0.0000   0.0000   0.0000   0.0000   0.0000   0.0000   0.0000
     0.0000   0.0000   0.0000   0.0000   0.0000   0.0000   0.0000   0.0000
     0.0000   0.0000   0.0000   0.0000   0.0000   0.0000   0.0000   0.0000
     0.0000   0.0000   0.0000   0.0000   0.0000   0.0000   0.0000   0.0000
     0.0000   0.0000   0.0000   0.0000   0.0000   0.0000   0.0000   0.0000
     0.0000   0.0000   0.0000   0.0000   0.0000   0.0000   0.0000   0.0000
     0.0000   0.0000   0.0000   0.0000   0.0000

          k = 0.0000 0.0000-0.5000 (270152 PWs)   bands (ev):

   -97.8524 -58.2347 -58.2347 -58.2347  -7.3069  -7.2879  -6.8273  -6.8227
    -6.8227  -6.8153  -6.8111  -6.8098  -6.8098  -6.7888  -6.5821  -6.5817
    -6.5817  -6.5816  -6.5665  -6.5648  -6.5648  -6.5496  -6.4685  -6.4618
    -6.3647  -6.3589  -6.3589  -6.3487  -6.3476  -6.3476  -6.3454  -6.3413
    -6.2672  -6.2672  -6.2484  -6.2484  -0.6964  -0.6887  -0.6746  -0.6657
    -0.6421  -0.6421  -0.6413  -0.6410  -0.6333  -0.6333  -0.6309  -0.6286
    -0.6286  -0.6267  -0.6132  -0.6062  -0.6016  -0.6016  -0.5914  -0.5827
    -0.5551  -0.5542  -0.5520  -0.5520  -0.5480  -0.5480  -0.5435  -0.5421
    -0.5418  -0.5418  -0.5414  -0.5403  -0.5375  -0.5374  -0.5374  -0.5351
    -0.5351  -0.5351  -0.5341  -0.5341  -0.5341  -0.5337  -0.5336  -0.5307
    -0.5281  -0.5275  -0.5275  -0.5254  -0.5169  -0.5117  -0.5117  -0.5072
    -0.5072  -0.5065  -0.5048  -0.4920  -0.4849  -0.4732  -0.4666  -0.4666
    -0.4532  -0.4532  -0.4515  -0.4480  -0.4426  -0.4231  -0.4231  -0.3977
    -0.3977  -0.3755  -0.3755  -0.3694  -0.3694  -0.3563  -0.3153  -0.3133
    -0.3131  -0.3040  -0.3040  -0.2805  -0.2776  -0.2776  -0.2763  -0.2741
    -0.2577  -0.2577  -0.2510  -0.2475  -0.2446  -0.2446  -0.2436  -0.2380
    -0.2246  -0.2087  -0.2075  -0.2075  -0.2070  -0.2067  -0.2050  -0.2050
    -0.2016  -0.1998  -0.1997  -0.1914  -0.1914  -0.1888  -0.1870  -0.1850
    -0.1844  -0.1844  -0.1792  -0.1790  -0.1782  -0.1782  -0.1758  -0.1740
    -0.1723  -0.1723  -0.1699  -0.1675  -0.1666  -0.1524  -0.1524  -0.1512
    -0.1492  -0.1491  -0.1463  -0.1422  -0.1422  -0.1402  -0.1401  -0.1373
    -0.1364  -0.1285  -0.1230  -0.1204  -0.1192  -0.1182  -0.1156  -0.1156
    -0.1138  -0.1138  -0.1102  -0.0006  -0.0006   0.0102   0.0432   0.0454
     0.0454   0.0484   0.0577   0.0916   0.0916   0.1100   0.1100   0.9337
     0.9337   0.9529   0.9773   0.9957   0.9957   1.0012   1.0172   1.0465
     1.0691   1.0750   1.0830   1.1221   1.1593   1.1593   1.1628   1.1642
     1.1733   1.1733   1.4192   1.6849   1.7716   2.2095   2.2095   2.3128
     2.4302   2.4638   2.4702   2.4702   2.5791   2.5828   2.6362   2.6362
     2.6408   2.6590   2.6687   2.6687   2.6747   2.9338   3.0340   3.0340
     3.0849   3.1447   3.1447   3.1522   3.1562   3.2524   3.2524   3.3304
     3.5435   3.6760   3.6760   3.7119   3.7119   3.8195   3.8606   3.8641
     3.8650   3.8650   3.8820   3.8820   3.8901   3.9116   3.9116   3.9121
     3.9126   3.9400   3.9455   3.9739   3.9739   3.9909   4.0031   4.0031
     4.0158   4.1707   4.2132   4.2337   4.2337   4.4400   4.5504   4.5635
     4.6823   4.6850   4.6850   4.6856   4.6889   4.6889   4.6931   4.6931
     4.6931   4.6939   4.7023   4.8524   4.9425   4.9425   4.9863   5.1620
     5.1620   5.2132   5.4332   5.4332   8.7465   8.7796   9.2989   9.3417
     9.5448   9.5482   9.5482   9.5534   9.5631   9.5631   9.5905   9.6704
     9.8539   9.8539   9.8608   9.9066   9.9066   9.9381  10.1979  10.2024
    10.2038  10.2038  10.2093  10.2093  10.2132  10.2967  10.3652  10.3664
    10.4010  10.5198  10.7190  10.7233  10.7233  10.7312  10.7488  10.7488
    10.7498  10.9095  10.9537  10.9580  10.9638  10.9654  10.9654  11.0407
    11.0407  11.1521  11.2814  11.3106  11.7962  11.7985  11.7985  11.8008
    11.8170  11.8170  11.8483  11.9675  12.0883

     occupation numbers 
     1.0000   1.0000   1.0000   1.0000   1.0000   1.0000   1.0000   1.0000
     1.0000   1.0000   1.0000   1.0000   1.0000   1.0000   1.0000   1.0000
     1.0000   1.0000   1.0000   1.0000   1.0000   1.0000   1.0000   1.0000
     1.0000   1.0000   1.0000   1.0000   1.0000   1.0000   1.0000   1.0000
     1.0000   1.0000   1.0000   1.0000   1.0000   1.0000   1.0000   1.0000
     1.0000   1.0000   1.0000   1.0000   1.0000   1.0000   1.0000   1.0000
     1.0000   1.0000   1.0000   1.0000   1.0000   1.0000   1.0000   1.0000
     1.0000   1.0000   1.0000   1.0000   1.0000   1.0000   1.0000   1.0000
     1.0000   1.0000   1.0000   1.0000   1.0000   1.0000   1.0000   1.0000
     1.0000   1.0000   1.0000   1.0000   1.0000   1.0000   1.0000   1.0000
     1.0000   1.0000   1.0000   1.0000   1.0000   1.0000   1.0000   1.0000
     1.0000   1.0000   1.0000   1.0000   1.0000   1.0000   1.0000   1.0000
     1.0000   1.0000   1.0000   1.0000   1.0000   1.0000   1.0000   1.0000
     1.0000   1.0000   1.0000   1.0000   1.0000   1.0000   1.0000   1.0000
     1.0000   1.0000   1.0000   1.0000   1.0000   1.0000   1.0000   1.0000
     1.0000   1.0000   1.0000   1.0000   1.0000   1.0000   1.0000   1.0000
     1.0000   1.0000   1.0000   1.0000   1.0000   1.0000   1.0000   1.0000
     1.0000   1.0000   1.0000   1.0000   1.0000   1.0000   1.0000   1.0000
     1.0000   1.0000   1.0000   1.0000   1.0000   1.0000   1.0000   1.0000
     1.0000   1.0000   1.0000   1.0000   1.0000   1.0000   1.0000   1.0000
     1.0000   1.0000   1.0000   1.0000   1.0000   1.0000   1.0000   1.0000
     1.0000   1.0000   1.0000   1.0000   1.0000   1.0000   1.0000   1.0000
     1.0000   1.0000   1.0000   1.0000   1.0000   1.0000   1.0000   1.0000
     1.0000   1.0000   1.0000   1.0000   1.0000   1.0000   1.0000   1.0000
     1.0000   1.0000   1.0000   1.0000   1.0000   1.0000   1.0000   1.0000
     1.0000   1.0000   1.0000   1.0000   1.0000   1.0000   1.0000   1.0000
     1.0000   1.0000   1.0000   1.0000   1.0000   1.0000   1.0000   1.0000
     1.0000   1.0000   1.0000   1.0000   1.0000   1.0000   1.0000   1.0000
     1.0000   1.0000   1.0000   1.0000   1.0000   1.0000   1.0000   1.0000
     1.0000   1.0000   1.0000   1.0000   1.0000   1.0000   1.0000   1.0000
     1.0000   1.0000   1.0000   1.0000   1.0000   1.0000   1.0000   1.0000
     1.0000   1.0000   1.0000   1.0000   1.0000   1.0000   1.0000   1.0000
     1.0000   1.0000   1.0000   1.0000   1.0000   1.0000   1.0000   1.0000
     1.0000   1.0000   1.0000   1.0000   1.0000   1.0000   1.0000   1.0000
     1.0000   1.0000   1.0000   1.0000   1.0000   1.0000   1.0000   1.0000
     1.0000   1.0000   1.0000   1.0000   1.0000   1.0000   1.0000   1.0000
     1.0000   1.0000   1.0000   1.0000   0.0000   0.0000   0.0000   0.0000
     0.0000   0.0000   0.0000   0.0000   0.0000   0.0000   0.0000   0.0000
     0.0000   0.0000   0.0000   0.0000   0.0000   0.0000   0.0000   0.0000
     0.0000   0.0000   0.0000   0.0000   0.0000   0.0000   0.0000   0.0000
     0.0000   0.0000   0.0000   0.0000   0.0000   0.0000   0.0000   0.0000
     0.0000   0.0000   0.0000   0.0000   0.0000   0.0000   0.0000   0.0000
     0.0000   0.0000   0.0000   0.0000   0.0000   0.0000   0.0000   0.0000
     0.0000   0.0000   0.0000   0.0000   0.0000

          k = 0.0000 0.2500 0.2500 (269929 PWs)   bands (ev):

   -97.8524 -58.2347 -58.2347 -58.2347  -7.3717  -7.0986  -7.0884  -6.8724
    -6.8626  -6.8573  -6.7018  -6.6993  -6.6979  -6.6892  -6.6624  -6.6548
    -6.6160  -6.6102  -6.5442  -6.5428  -6.5173  -6.5131  -6.4701  -6.4654
    -6.4632  -6.4554  -6.3787  -6.3187  -6.3186  -6.3020  -6.3016  -6.2911
    -6.2886  -6.2716  -6.2710  -6.2536  -0.6830  -0.6829  -0.6813  -0.6786
    -0.6701  -0.6690  -0.6572  -0.6524  -0.6513  -0.6439  -0.6392  -0.6334
    -0.5851  -0.5817  -0.5807  -0.5762  -0.5736  -0.5688  -0.5645  -0.5636
    -0.5633  -0.5620  -0.5594  -0.5576  -0.5556  -0.5532  -0.5531  -0.5529
    -0.5516  -0.5503  -0.5490  -0.5467  -0.5454  -0.5454  -0.5436  -0.5405
    -0.5395  -0.5393  -0.5392  -0.5380  -0.5368  -0.5341  -0.5316  -0.5308
    -0.5283  -0.5260  -0.5197  -0.5174  -0.5150  -0.5134  -0.5020  -0.5007
    -0.4943  -0.4914  -0.4816  -0.4766  -0.4744  -0.4680  -0.4661  -0.4585
    -0.4569  -0.4526  -0.4492  -0.4488  -0.4342  -0.4338  -0.4234  -0.4146
    -0.4127  -0.3978  -0.3878  -0.3825  -0.3788  -0.3660  -0.3578  -0.3574
    -0.3457  -0.3352  -0.3014  -0.2961  -0.2915  -0.2798  -0.2748  -0.2709
    -0.2657  -0.2652  -0.2603  -0.2586  -0.2440  -0.2301  -0.2244  -0.2126
    -0.2122  -0.2107  -0.2101  -0.2088  -0.2066  -0.2041  -0.2036  -0.1990
    -0.1960  -0.1943  -0.1936  -0.1929  -0.1892  -0.1885  -0.1848  -0.1813
    -0.1809  -0.1791  -0.1781  -0.1768  -0.1754  -0.1752  -0.1747  -0.1711
    -0.1669  -0.1665  -0.1632  -0.1608  -0.1601  -0.1563  -0.1540  -0.1531
    -0.1528  -0.1512  -0.1510  -0.1495  -0.1464  -0.1430  -0.1410  -0.1395
    -0.1349  -0.1336  -0.1279  -0.1239  -0.1197  -0.1173  -0.1168  -0.0865
    -0.0809  -0.0671  -0.0627  -0.0333  -0.0296  -0.0033   0.0175   0.0196
     0.0623   0.0926   0.0954   0.1231   0.1264   0.1527   0.1616   0.5121
     0.5303   0.9015   0.9038   1.0185   1.0334   1.0464   1.0613   1.0741
     1.1148   1.1284   1.1357   1.1425   1.1511   1.1519   1.2172   1.2360
     1.3964   1.5842   1.6716   1.7250   1.7606   1.8117   1.8809   2.1591
     2.1896   2.3976   2.4819   2.5624   2.6147   2.6198   2.6457   2.6805
     2.7330   2.7674   2.8246   2.8762   2.9627   2.9745   3.0512   3.0878
     3.1018   3.1704   3.1718   3.1984   3.2627   3.2929   3.3138   3.3843
     3.4092   3.4188   3.4371   3.4485   3.4996   3.5042   3.5137   3.5467
     3.5879   3.6547   3.7485   3.7597   3.8289   3.8659   3.8793   3.9306
     4.0002   4.0563   4.0642   4.1004   4.1619   4.2242   4.2299   4.2721
     4.3423   4.3519   4.3650   4.3746   4.3762   4.4135   4.4429   4.4893
     4.5312   4.5604   4.6095   4.6221   4.6521   4.6565   4.7035   4.7084
     4.7463   4.7616   4.8089   4.8714   4.9004   4.9392   5.0058   5.0802
     5.2218   5.2979   5.4896   5.6325   8.2437   9.0629   9.0919   9.3302
     9.3320   9.3371   9.3837   9.4049   9.5519   9.5815   9.8909   9.8918
     9.9129   9.9150   9.9323   9.9363   9.9613   9.9801   9.9816   9.9932
    10.0556  10.1375  10.1683  10.1884  10.2230  10.3122  10.3161  10.3303
    10.3599  10.3923  10.4877  10.6931  10.6995  10.7120  10.7940  10.8033
    10.8165  10.8797  10.9044  11.0003  11.0225  11.0756  11.2507  11.4375
    11.4444  11.4776  11.5137  11.5210  11.6366  11.7934  11.8160  11.8244
    11.8451  11.8533  11.9413  11.9427  11.9459

     occupation numbers 
     1.0000   1.0000   1.0000   1.0000   1.0000   1.0000   1.0000   1.0000
     1.0000   1.0000   1.0000   1.0000   1.0000   1.0000   1.0000   1.0000
     1.0000   1.0000   1.0000   1.0000   1.0000   1.0000   1.0000   1.0000
     1.0000   1.0000   1.0000   1.0000   1.0000   1.0000   1.0000   1.0000
     1.0000   1.0000   1.0000   1.0000   1.0000   1.0000   1.0000   1.0000
     1.0000   1.0000   1.0000   1.0000   1.0000   1.0000   1.0000   1.0000
     1.0000   1.0000   1.0000   1.0000   1.0000   1.0000   1.0000   1.0000
     1.0000   1.0000   1.0000   1.0000   1.0000   1.0000   1.0000   1.0000
     1.0000   1.0000   1.0000   1.0000   1.0000   1.0000   1.0000   1.0000
     1.0000   1.0000   1.0000   1.0000   1.0000   1.0000   1.0000   1.0000
     1.0000   1.0000   1.0000   1.0000   1.0000   1.0000   1.0000   1.0000
     1.0000   1.0000   1.0000   1.0000   1.0000   1.0000   1.0000   1.0000
     1.0000   1.0000   1.0000   1.0000   1.0000   1.0000   1.0000   1.0000
     1.0000   1.0000   1.0000   1.0000   1.0000   1.0000   1.0000   1.0000
     1.0000   1.0000   1.0000   1.0000   1.0000   1.0000   1.0000   1.0000
     1.0000   1.0000   1.0000   1.0000   1.0000   1.0000   1.0000   1.0000
     1.0000   1.0000   1.0000   1.0000   1.0000   1.0000   1.0000   1.0000
     1.0000   1.0000   1.0000   1.0000   1.0000   1.0000   1.0000   1.0000
     1.0000   1.0000   1.0000   1.0000   1.0000   1.0000   1.0000   1.0000
     1.0000   1.0000   1.0000   1.0000   1.0000   1.0000   1.0000   1.0000
     1.0000   1.0000   1.0000   1.0000   1.0000   1.0000   1.0000   1.0000
     1.0000   1.0000   1.0000   1.0000   1.0000   1.0000   1.0000   1.0000
     1.0000   1.0000   1.0000   1.0000   1.0000   1.0000   1.0000   1.0000
     1.0000   1.0000   1.0000   1.0000   1.0000   1.0000   1.0000   1.0000
     1.0000   1.0000   1.0000   1.0000   1.0000   1.0000   1.0000   1.0000
     1.0000   1.0000   1.0000   1.0000   1.0000   1.0000   1.0000   1.0000
     1.0000   1.0000   1.0000   1.0000   1.0000   1.0000   1.0000   1.0000
     1.0000   1.0000   1.0000   1.0000   1.0000   1.0000   1.0000   1.0000
     1.0000   1.0000   1.0000   1.0000   1.0000   1.0000   1.0000   1.0000
     1.0000   1.0000   1.0000   1.0000   1.0000   1.0000   1.0000   1.0000
     1.0000   1.0000   1.0000   1.0000   1.0000   1.0000   1.0000   1.0000
     1.0000   1.0000   1.0000   1.0000   1.0000   1.0000   1.0000   1.0000
     1.0000   1.0000   1.0000   1.0000   1.0000   1.0000   1.0000   1.0000
     1.0000   1.0000   1.0000   1.0000   1.0000   1.0000   1.0000   1.0000
     1.0000   1.0000   1.0000   1.0000   1.0000   1.0000   1.0000   1.0000
     1.0000   1.0000   1.0000   1.0000   1.0000   1.0000   1.0000   1.0000
     1.0000   1.0000   1.0000   1.0000   0.0000   0.0000   0.0000   0.0000
     0.0000   0.0000   0.0000   0.0000   0.0000   0.0000   0.0000   0.0000
     0.0000   0.0000   0.0000   0.0000   0.0000   0.0000   0.0000   0.0000
     0.0000   0.0000   0.0000   0.0000   0.0000   0.0000   0.0000   0.0000
     0.0000   0.0000   0.0000   0.0000   0.0000   0.0000   0.0000   0.0000
     0.0000   0.0000   0.0000   0.0000   0.0000   0.0000   0.0000   0.0000
     0.0000   0.0000   0.0000   0.0000   0.0000   0.0000   0.0000   0.0000
     0.0000   0.0000   0.0000   0.0000   0.0000

          k = 0.0000 0.2500-0.5000 (269962 PWs)   bands (ev):

   -97.8524 -58.2347 -58.2347 -58.2347  -7.2721  -7.2536  -7.0147  -6.9966
    -6.8030  -6.8025  -6.7919  -6.7821  -6.6704  -6.6699  -6.6589  -6.6491
    -6.6183  -6.6032  -6.4918  -6.4913  -6.4813  -6.4744  -6.4592  -6.4531
    -6.3985  -6.3869  -6.3742  -6.3695  -6.3638  -6.3601  -6.3184  -6.3107
    -6.3084  -6.2969  -6.2688  -6.2563  -0.6768  -0.6760  -0.6588  -0.6565
    -0.6481  -0.6381  -0.6311  -0.6301  -0.6281  -0.6255  -0.6238  -0.6236
    -0.6210  -0.6168  -0.6117  -0.6015  -0.6014  -0.5964  -0.5886  -0.5836
    -0.5792  -0.5740  -0.5729  -0.5696  -0.5638  -0.5628  -0.5620  -0.5562
    -0.5519  -0.5499  -0.5492  -0.5472  -0.5470  -0.5450  -0.5417  -0.5417
    -0.5397  -0.5378  -0.5369  -0.5364  -0.5358  -0.5350  -0.5326  -0.5285
    -0.5261  -0.5179  -0.5158  -0.5123  -0.5101  -0.5061  -0.5060  -0.5012
    -0.4978  -0.4889  -0.4848  -0.4829  -0.4682  -0.4678  -0.4608  -0.4592
    -0.4526  -0.4414  -0.4372  -0.4352  -0.4311  -0.4221  -0.4141  -0.4075
    -0.4000  -0.3985  -0.3925  -0.3899  -0.3894  -0.3883  -0.3787  -0.3769
    -0.3738  -0.3453  -0.3247  -0.3210  -0.3197  -0.3136  -0.3065  -0.2778
    -0.2521  -0.2423  -0.2421  -0.2403  -0.2341  -0.2338  -0.2305  -0.2304
    -0.2161  -0.2078  -0.2043  -0.2022  -0.2001  -0.1998  -0.1989  -0.1962
    -0.1937  -0.1926  -0.1845  -0.1824  -0.1812  -0.1808  -0.1801  -0.1795
    -0.1751  -0.1750  -0.1740  -0.1734  -0.1725  -0.1700  -0.1682  -0.1669
    -0.1669  -0.1631  -0.1611  -0.1607  -0.1582  -0.1572  -0.1564  -0.1529
    -0.1508  -0.1472  -0.1466  -0.1454  -0.1428  -0.1408  -0.1390  -0.1388
    -0.1345  -0.1336  -0.1332  -0.1327  -0.1299  -0.1249  -0.1213  -0.0677
    -0.0410  -0.0299  -0.0261  -0.0171  -0.0104   0.0175   0.0248   0.0420
     0.0509   0.0552   0.0671   0.0957   0.1171   0.1179   0.1227   0.7670
     0.7670   0.7714   0.7826   0.9940   1.0119   1.0141   1.0157   1.0443
     1.0494   1.0584   1.1067   1.2126   1.2394   1.3023   1.3068   1.3382
     1.3474   1.3495   1.4434   1.6410   1.7175   1.9572   1.9576   2.0797
     2.1805   2.2342   2.2541   2.4661   2.5048   2.6790   2.6975   2.7618
     2.8075   2.8090   2.8328   2.8752   2.9029   2.9172   2.9448   3.0209
     3.1139   3.1531   3.2314   3.2555   3.3196   3.4009   3.4676   3.5131
     3.5475   3.5601   3.5630   3.5747   3.6449   3.6708   3.6732   3.7128
     3.7139   3.7518   3.7824   3.8053   3.8734   3.9015   3.9115   3.9433
     3.9816   4.0085   4.0267   4.1252   4.1488   4.1536   4.1584   4.1727
     4.1765   4.2365   4.2678   4.2794   4.2859   4.3269   4.3531   4.3830
     4.4342   4.4586   4.4808   4.5398   4.5567   4.6449   4.6513   4.6778
     4.7212   4.7662   4.8673   4.8699   4.9009   4.9384   5.0498   5.2145
     5.2171   5.3416   5.4503   5.5103   8.8458   8.8774   9.4398   9.4437
     9.4464   9.4844   9.5360   9.5819   9.6802   9.6845   9.7111   9.7143
     9.8876   9.8890   9.9029   9.9085   9.9154   9.9180   9.9237   9.9376
     9.9850  10.0034  10.0322  10.0934  10.1197  10.2028  10.4023  10.4313
    10.4784  10.5355  10.5529  10.5726  10.6600  10.6669  10.6950  10.7729
    10.8024  10.8691  10.9362  11.0339  11.1108  11.1552  11.3221  11.3313
    11.3590  11.3866  11.3968  11.4094  11.4315  11.5084  11.5793  11.6029
    11.6161  11.6422  11.7770  11.7926  11.8183

     occupation numbers 
     1.0000   1.0000   1.0000   1.0000   1.0000   1.0000   1.0000   1.0000
     1.0000   1.0000   1.0000   1.0000   1.0000   1.0000   1.0000   1.0000
     1.0000   1.0000   1.0000   1.0000   1.0000   1.0000   1.0000   1.0000
     1.0000   1.0000   1.0000   1.0000   1.0000   1.0000   1.0000   1.0000
     1.0000   1.0000   1.0000   1.0000   1.0000   1.0000   1.0000   1.0000
     1.0000   1.0000   1.0000   1.0000   1.0000   1.0000   1.0000   1.0000
     1.0000   1.0000   1.0000   1.0000   1.0000   1.0000   1.0000   1.0000
     1.0000   1.0000   1.0000   1.0000   1.0000   1.0000   1.0000   1.0000
     1.0000   1.0000   1.0000   1.0000   1.0000   1.0000   1.0000   1.0000
     1.0000   1.0000   1.0000   1.0000   1.0000   1.0000   1.0000   1.0000
     1.0000   1.0000   1.0000   1.0000   1.0000   1.0000   1.0000   1.0000
     1.0000   1.0000   1.0000   1.0000   1.0000   1.0000   1.0000   1.0000
     1.0000   1.0000   1.0000   1.0000   1.0000   1.0000   1.0000   1.0000
     1.0000   1.0000   1.0000   1.0000   1.0000   1.0000   1.0000   1.0000
     1.0000   1.0000   1.0000   1.0000   1.0000   1.0000   1.0000   1.0000
     1.0000   1.0000   1.0000   1.0000   1.0000   1.0000   1.0000   1.0000
     1.0000   1.0000   1.0000   1.0000   1.0000   1.0000   1.0000   1.0000
     1.0000   1.0000   1.0000   1.0000   1.0000   1.0000   1.0000   1.0000
     1.0000   1.0000   1.0000   1.0000   1.0000   1.0000   1.0000   1.0000
     1.0000   1.0000   1.0000   1.0000   1.0000   1.0000   1.0000   1.0000
     1.0000   1.0000   1.0000   1.0000   1.0000   1.0000   1.0000   1.0000
     1.0000   1.0000   1.0000   1.0000   1.0000   1.0000   1.0000   1.0000
     1.0000   1.0000   1.0000   1.0000   1.0000   1.0000   1.0000   1.0000
     1.0000   1.0000   1.0000   1.0000   1.0000   1.0000   1.0000   1.0000
     1.0000   1.0000   1.0000   1.0000   1.0000   1.0000   1.0000   1.0000
     1.0000   1.0000   1.0000   1.0000   1.0000   1.0000   1.0000   1.0000
     1.0000   1.0000   1.0000   1.0000   1.0000   1.0000   1.0000   1.0000
     1.0000   1.0000   1.0000   1.0000   1.0000   1.0000   1.0000   1.0000
     1.0000   1.0000   1.0000   1.0000   1.0000   1.0000   1.0000   1.0000
     1.0000   1.0000   1.0000   1.0000   1.0000   1.0000   1.0000   1.0000
     1.0000   1.0000   1.0000   1.0000   1.0000   1.0000   1.0000   1.0000
     1.0000   1.0000   1.0000   1.0000   1.0000   1.0000   1.0000   1.0000
     1.0000   1.0000   1.0000   1.0000   1.0000   1.0000   1.0000   1.0000
     1.0000   1.0000   1.0000   1.0000   1.0000   1.0000   1.0000   1.0000
     1.0000   1.0000   1.0000   1.0000   1.0000   1.0000   1.0000   1.0000
     1.0000   1.0000   1.0000   1.0000   1.0000   1.0000   1.0000   1.0000
     1.0000   1.0000   1.0000   1.0000   0.0000   0.0000   0.0000   0.0000
     0.0000   0.0000   0.0000   0.0000   0.0000   0.0000   0.0000   0.0000
     0.0000   0.0000   0.0000   0.0000   0.0000   0.0000   0.0000   0.0000
     0.0000   0.0000   0.0000   0.0000   0.0000   0.0000   0.0000   0.0000
     0.0000   0.0000   0.0000   0.0000   0.0000   0.0000   0.0000   0.0000
     0.0000   0.0000   0.0000   0.0000   0.0000   0.0000   0.0000   0.0000
     0.0000   0.0000   0.0000   0.0000   0.0000   0.0000   0.0000   0.0000
     0.0000   0.0000   0.0000   0.0000   0.0000

          k = 0.0000-0.5000-0.5000 (269920 PWs)   bands (ev):

   -97.8524 -58.2347 -58.2347 -58.2347  -7.1749  -7.1671  -7.1671  -7.1377
    -6.7532  -6.7532  -6.7465  -6.7465  -6.7438  -6.7438  -6.7303  -6.7101
    -6.4408  -6.4408  -6.4406  -6.4401  -6.4350  -6.4321  -6.4259  -6.4259
    -6.4216  -6.4216  -6.4124  -6.4122  -6.4099  -6.3961  -6.3942  -6.3942
    -6.2927  -6.2852  -6.2852  -6.2692  -0.6550  -0.6527  -0.6502  -0.6502
    -0.6219  -0.6203  -0.6192  -0.6181  -0.6181  -0.6160  -0.6141  -0.6141
    -0.6078  -0.6055  -0.6055  -0.5987  -0.5982  -0.5978  -0.5978  -0.5947
    -0.5927  -0.5927  -0.5896  -0.5896  -0.5886  -0.5872  -0.5839  -0.5798
    -0.5745  -0.5745  -0.5483  -0.5458  -0.5438  -0.5438  -0.5418  -0.5408
    -0.5392  -0.5392  -0.5385  -0.5380  -0.5371  -0.5371  -0.5368  -0.5340
    -0.5227  -0.5097  -0.5097  -0.4943  -0.4886  -0.4886  -0.4863  -0.4824
    -0.4809  -0.4809  -0.4787  -0.4776  -0.4742  -0.4742  -0.4728  -0.4611
    -0.4602  -0.4590  -0.4433  -0.4433  -0.4407  -0.4368  -0.4368  -0.4330
    -0.4246  -0.4131  -0.4131  -0.3920  -0.3882  -0.3782  -0.3782  -0.3688
    -0.3688  -0.3686  -0.3638  -0.3597  -0.3592  -0.3050  -0.2937  -0.2937
    -0.2732  -0.2517  -0.2386  -0.2386  -0.2372  -0.2346  -0.2321  -0.2321
    -0.2131  -0.2028  -0.1999  -0.1999  -0.1910  -0.1910  -0.1882  -0.1859
    -0.1859  -0.1837  -0.1837  -0.1816  -0.1807  -0.1807  -0.1784  -0.1776
    -0.1752  -0.1720  -0.1717  -0.1717  -0.1691  -0.1691  -0.1637  -0.1633
    -0.1576  -0.1576  -0.1566  -0.1564  -0.1537  -0.1531  -0.1531  -0.1455
    -0.1451  -0.1449  -0.1449  -0.1435  -0.1416  -0.1405  -0.1382  -0.1382
    -0.1359  -0.1359  -0.1332  -0.1105  -0.1018  -0.1018  -0.0866  -0.0863
    -0.0863  -0.0843  -0.0793   0.0240   0.0240   0.0307   0.0719   0.0719
     0.0740   0.0748   0.0836   0.1224   0.1395   0.1395   0.1455   0.7713
     0.7784   0.7784   0.7896   0.7920   0.8015   0.8015   0.8543   1.0306
     1.0306   1.0307   1.1116   1.4468   1.4468   1.5041   1.5221   1.5448
     1.5485   1.5485   1.6449   1.6469   1.7391   1.7391   1.7815   1.7909
     1.7978   1.7978   1.9849   2.4720   2.5317   2.5317   2.5405   2.7919
     2.7919   2.8264   3.1049   3.1679   3.2682   3.2682   3.2682   3.2704
     3.2784   3.2784   3.2787   3.2916   3.2916   3.2916   3.3231   3.3787
     3.3787   3.5033   3.6033   3.6078   3.6276   3.6541   3.6547   3.6547
     3.7079   3.7079   3.7093   3.7602   3.7756   3.7772   3.7772   3.8059
     3.9749   3.9945   3.9945   4.0299   4.1419   4.1441   4.1441   4.2076
     4.2076   4.2544   4.2609   4.3887   4.4565   4.4565   4.4591   4.4716
     4.4733   4.4733   4.5313   4.5315   4.5319   4.5410   4.5410   4.6000
     4.7044   4.7303   4.7303   4.7437   4.8367   4.8959   4.8959   5.2380
     5.3574   5.3964   5.5551   5.5551   9.1671   9.1671   9.1722   9.2251
     9.5716   9.5734   9.5743   9.5743   9.5807   9.5807   9.5869   9.6527
     9.6940   9.6940   9.7635   9.8291  10.1642  10.1642  10.1701  10.1709
    10.1817  10.1846  10.2434  10.2434  10.3332  10.3401  10.3402  10.3402
    10.3435  10.3776  10.3776  10.4067  10.4795  10.4806  10.4877  10.4877
    10.4894  10.4894  10.5518  10.9515  11.4587  11.4587  11.4773  11.5197
    11.5223  11.5223  11.5230  11.5313  11.5485  11.5600  11.5759  11.5759
    11.6494  11.6699  11.6699  11.6980  11.8080

     occupation numbers 
     1.0000   1.0000   1.0000   1.0000   1.0000   1.0000   1.0000   1.0000
     1.0000   1.0000   1.0000   1.0000   1.0000   1.0000   1.0000   1.0000
     1.0000   1.0000   1.0000   1.0000   1.0000   1.0000   1.0000   1.0000
     1.0000   1.0000   1.0000   1.0000   1.0000   1.0000   1.0000   1.0000
     1.0000   1.0000   1.0000   1.0000   1.0000   1.0000   1.0000   1.0000
     1.0000   1.0000   1.0000   1.0000   1.0000   1.0000   1.0000   1.0000
     1.0000   1.0000   1.0000   1.0000   1.0000   1.0000   1.0000   1.0000
     1.0000   1.0000   1.0000   1.0000   1.0000   1.0000   1.0000   1.0000
     1.0000   1.0000   1.0000   1.0000   1.0000   1.0000   1.0000   1.0000
     1.0000   1.0000   1.0000   1.0000   1.0000   1.0000   1.0000   1.0000
     1.0000   1.0000   1.0000   1.0000   1.0000   1.0000   1.0000   1.0000
     1.0000   1.0000   1.0000   1.0000   1.0000   1.0000   1.0000   1.0000
     1.0000   1.0000   1.0000   1.0000   1.0000   1.0000   1.0000   1.0000
     1.0000   1.0000   1.0000   1.0000   1.0000   1.0000   1.0000   1.0000
     1.0000   1.0000   1.0000   1.0000   1.0000   1.0000   1.0000   1.0000
     1.0000   1.0000   1.0000   1.0000   1.0000   1.0000   1.0000   1.0000
     1.0000   1.0000   1.0000   1.0000   1.0000   1.0000   1.0000   1.0000
     1.0000   1.0000   1.0000   1.0000   1.0000   1.0000   1.0000   1.0000
     1.0000   1.0000   1.0000   1.0000   1.0000   1.0000   1.0000   1.0000
     1.0000   1.0000   1.0000   1.0000   1.0000   1.0000   1.0000   1.0000
     1.0000   1.0000   1.0000   1.0000   1.0000   1.0000   1.0000   1.0000
     1.0000   1.0000   1.0000   1.0000   1.0000   1.0000   1.0000   1.0000
     1.0000   1.0000   1.0000   1.0000   1.0000   1.0000   1.0000   1.0000
     1.0000   1.0000   1.0000   1.0000   1.0000   1.0000   1.0000   1.0000
     1.0000   1.0000   1.0000   1.0000   1.0000   1.0000   1.0000   1.0000
     1.0000   1.0000   1.0000   1.0000   1.0000   1.0000   1.0000   1.0000
     1.0000   1.0000   1.0000   1.0000   1.0000   1.0000   1.0000   1.0000
     1.0000   1.0000   1.0000   1.0000   1.0000   1.0000   1.0000   1.0000
     1.0000   1.0000   1.0000   1.0000   1.0000   1.0000   1.0000   1.0000
     1.0000   1.0000   1.0000   1.0000   1.0000   1.0000   1.0000   1.0000
     1.0000   1.0000   1.0000   1.0000   1.0000   1.0000   1.0000   1.0000
     1.0000   1.0000   1.0000   1.0000   1.0000   1.0000   1.0000   1.0000
     1.0000   1.0000   1.0000   1.0000   1.0000   1.0000   1.0000   1.0000
     1.0000   1.0000   1.0000   1.0000   1.0000   1.0000   1.0000   1.0000
     1.0000   1.0000   1.0000   1.0000   1.0000   1.0000   1.0000   1.0000
     1.0000   1.0000   1.0000   1.0000   1.0000   1.0000   1.0000   1.0000
     1.0000   1.0000   1.0000   1.0000   0.0000   0.0000   0.0000   0.0000
     0.0000   0.0000   0.0000   0.0000   0.0000   0.0000   0.0000   0.0000
     0.0000   0.0000   0.0000   0.0000   0.0000   0.0000   0.0000   0.0000
     0.0000   0.0000   0.0000   0.0000   0.0000   0.0000   0.0000   0.0000
     0.0000   0.0000   0.0000   0.0000   0.0000   0.0000   0.0000   0.0000
     0.0000   0.0000   0.0000   0.0000   0.0000   0.0000   0.0000   0.0000
     0.0000   0.0000   0.0000   0.0000   0.0000   0.0000   0.0000   0.0000
     0.0000   0.0000   0.0000   0.0000   0.0000

          k = 0.2500 0.2500 0.2500 (269935 PWs)   bands (ev):

   -97.8524 -58.2347 -58.2347 -58.2347  -7.3354  -7.0694  -7.0694  -7.0542
    -6.8560  -6.8560  -6.8425  -6.7101  -6.6476  -6.6476  -6.6364  -6.5426
    -6.5421  -6.5421  -6.5412  -6.5412  -6.5396  -6.5154  -6.5154  -6.5021
    -6.3996  -6.3996  -6.3887  -6.3193  -6.3192  -6.3192  -6.3086  -6.3084
    -6.3084  -6.2918  -6.2918  -6.2890  -0.6711  -0.6691  -0.6691  -0.6642
    -0.6622  -0.6622  -0.6518  -0.6376  -0.6376  -0.6346  -0.6344  -0.6344
    -0.5824  -0.5824  -0.5823  -0.5789  -0.5771  -0.5771  -0.5741  -0.5741
    -0.5701  -0.5698  -0.5698  -0.5626  -0.5626  -0.5624  -0.5591  -0.5571
    -0.5571  -0.5561  -0.5561  -0.5561  -0.5529  -0.5529  -0.5514  -0.5501
    -0.5492  -0.5492  -0.5464  -0.5456  -0.5456  -0.5366  -0.5322  -0.5322
    -0.5272  -0.5219  -0.5183  -0.5183  -0.5117  -0.5117  -0.5051  -0.4942
    -0.4942  -0.4777  -0.4777  -0.4731  -0.4701  -0.4625  -0.4625  -0.4597
    -0.4545  -0.4545  -0.4330  -0.4290  -0.4290  -0.4172  -0.4151  -0.4151
    -0.3992  -0.3927  -0.3927  -0.3684  -0.3651  -0.3643  -0.3643  -0.3640
    -0.3585  -0.3585  -0.3473  -0.3469  -0.3469  -0.2953  -0.2953  -0.2822
    -0.2748  -0.2724  -0.2724  -0.2407  -0.2343  -0.2343  -0.2309  -0.2308
    -0.2308  -0.2075  -0.2075  -0.2075  -0.1991  -0.1991  -0.1975  -0.1919
    -0.1891  -0.1891  -0.1812  -0.1812  -0.1774  -0.1758  -0.1758  -0.1752
    -0.1720  -0.1720  -0.1701  -0.1701  -0.1668  -0.1656  -0.1652  -0.1652
    -0.1632  -0.1627  -0.1627  -0.1620  -0.1617  -0.1617  -0.1585  -0.1585
    -0.1535  -0.1520  -0.1520  -0.1482  -0.1371  -0.1371  -0.1348  -0.1331
    -0.1331  -0.1217  -0.1217  -0.1206  -0.1175  -0.1116  -0.1116  -0.1108
    -0.0512  -0.0465  -0.0465  -0.0084  -0.0060  -0.0060   0.0248   0.0279
     0.0279   0.0836   0.0836   0.1057   0.1159   0.1159   0.1160   0.6761
     0.6761   0.7070   0.9635   0.9635   0.9707   1.0585   1.0585   1.0775
     1.0775   1.0795   1.1470   1.2148   1.2148   1.2738   1.2933   1.3830
     1.3830   1.4499   1.4523   1.4523   1.6079   2.0062   2.0536   2.0536
     2.1882   2.1882   2.3005   2.6363   2.6363   2.7176   2.7176   2.7388
     2.7631   2.8190   2.8190   2.8931   2.9348   2.9348   2.9410   3.1308
     3.1308   3.2301   3.2766   3.2977   3.2977   3.3961   3.3972   3.3972
     3.4484   3.4610   3.4610   3.5208   3.5208   3.5538   3.5619   3.5619
     3.5781   3.6516   3.6630   3.6630   3.8870   3.8970   3.8970   4.0177
     4.0177   4.0514   4.1274   4.1274   4.1499   4.1626   4.1626   4.2178
     4.2178   4.2508   4.2583   4.3050   4.3050   4.3269   4.3571   4.3571
     4.4297   4.4951   4.5326   4.5326   4.6626   4.6643   4.6643   4.7940
     4.8347   4.8347   4.8920   4.8920   4.9744   4.9744   5.0475   5.2248
     5.2248   5.2571   5.5597   5.5597   8.4096   8.9121   9.4017   9.4017
     9.4057   9.4899   9.4899   9.4999   9.5127   9.5127   9.5518   9.6361
     9.6361   9.7073   9.8917   9.8917   9.9209  10.1177  10.1177  10.1535
    10.1958  10.1958  10.2246  10.3572  10.3590  10.3590  10.3647  10.3647
    10.3949  10.4113  10.4132  10.4132  10.4477  10.4477  10.4708  10.5192
    10.5192  10.8263  11.1294  11.1294  11.1846  11.4573  11.4573  11.4585
    11.4737  11.4737  11.5395  11.5480  11.5513  11.5513  11.6012  11.6012
    11.7018  11.8557  11.9347  11.9347  11.9738

     occupation numbers 
     1.0000   1.0000   1.0000   1.0000   1.0000   1.0000   1.0000   1.0000
     1.0000   1.0000   1.0000   1.0000   1.0000   1.0000   1.0000   1.0000
     1.0000   1.0000   1.0000   1.0000   1.0000   1.0000   1.0000   1.0000
     1.0000   1.0000   1.0000   1.0000   1.0000   1.0000   1.0000   1.0000
     1.0000   1.0000   1.0000   1.0000   1.0000   1.0000   1.0000   1.0000
     1.0000   1.0000   1.0000   1.0000   1.0000   1.0000   1.0000   1.0000
     1.0000   1.0000   1.0000   1.0000   1.0000   1.0000   1.0000   1.0000
     1.0000   1.0000   1.0000   1.0000   1.0000   1.0000   1.0000   1.0000
     1.0000   1.0000   1.0000   1.0000   1.0000   1.0000   1.0000   1.0000
     1.0000   1.0000   1.0000   1.0000   1.0000   1.0000   1.0000   1.0000
     1.0000   1.0000   1.0000   1.0000   1.0000   1.0000   1.0000   1.0000
     1.0000   1.0000   1.0000   1.0000   1.0000   1.0000   1.0000   1.0000
     1.0000   1.0000   1.0000   1.0000   1.0000   1.0000   1.0000   1.0000
     1.0000   1.0000   1.0000   1.0000   1.0000   1.0000   1.0000   1.0000
     1.0000   1.0000   1.0000   1.0000   1.0000   1.0000   1.0000   1.0000
     1.0000   1.0000   1.0000   1.0000   1.0000   1.0000   1.0000   1.0000
     1.0000   1.0000   1.0000   1.0000   1.0000   1.0000   1.0000   1.0000
     1.0000   1.0000   1.0000   1.0000   1.0000   1.0000   1.0000   1.0000
     1.0000   1.0000   1.0000   1.0000   1.0000   1.0000   1.0000   1.0000
     1.0000   1.0000   1.0000   1.0000   1.0000   1.0000   1.0000   1.0000
     1.0000   1.0000   1.0000   1.0000   1.0000   1.0000   1.0000   1.0000
     1.0000   1.0000   1.0000   1.0000   1.0000   1.0000   1.0000   1.0000
     1.0000   1.0000   1.0000   1.0000   1.0000   1.0000   1.0000   1.0000
     1.0000   1.0000   1.0000   1.0000   1.0000   1.0000   1.0000   1.0000
     1.0000   1.0000   1.0000   1.0000   1.0000   1.0000   1.0000   1.0000
     1.0000   1.0000   1.0000   1.0000   1.0000   1.0000   1.0000   1.0000
     1.0000   1.0000   1.0000   1.0000   1.0000   1.0000   1.0000   1.0000
     1.0000   1.0000   1.0000   1.0000   1.0000   1.0000   1.0000   1.0000
     1.0000   1.0000   1.0000   1.0000   1.0000   1.0000   1.0000   1.0000
     1.0000   1.0000   1.0000   1.0000   1.0000   1.0000   1.0000   1.0000
     1.0000   1.0000   1.0000   1.0000   1.0000   1.0000   1.0000   1.0000
     1.0000   1.0000   1.0000   1.0000   1.0000   1.0000   1.0000   1.0000
     1.0000   1.0000   1.0000   1.0000   1.0000   1.0000   1.0000   1.0000
     1.0000   1.0000   1.0000   1.0000   1.0000   1.0000   1.0000   1.0000
     1.0000   1.0000   1.0000   1.0000   1.0000   1.0000   1.0000   1.0000
     1.0000   1.0000   1.0000   1.0000   1.0000   1.0000   1.0000   1.0000
     1.0000   1.0000   1.0000   1.0000   0.0000   0.0000   0.0000   0.0000
     0.0000   0.0000   0.0000   0.0000   0.0000   0.0000   0.0000   0.0000
     0.0000   0.0000   0.0000   0.0000   0.0000   0.0000   0.0000   0.0000
     0.0000   0.0000   0.0000   0.0000   0.0000   0.0000   0.0000   0.0000
     0.0000   0.0000   0.0000   0.0000   0.0000   0.0000   0.0000   0.0000
     0.0000   0.0000   0.0000   0.0000   0.0000   0.0000   0.0000   0.0000
     0.0000   0.0000   0.0000   0.0000   0.0000   0.0000   0.0000   0.0000
     0.0000   0.0000   0.0000   0.0000   0.0000

          k = 0.2500 0.2500-0.5000 (269988 PWs)   bands (ev):

   -97.8524 -58.2347 -58.2347 -58.2347  -7.2382  -7.2202  -6.9919  -6.9859
    -6.9777  -6.9642  -6.8030  -6.7850  -6.6111  -6.6051  -6.5974  -6.5906
    -6.5388  -6.5387  -6.5216  -6.5154  -6.4559  -6.4495  -6.4465  -6.4396
    -6.4082  -6.3966  -6.3947  -6.3886  -6.3502  -6.3413  -6.3374  -6.3328
    -6.3161  -6.3161  -6.2965  -6.2949  -0.6667  -0.6606  -0.6486  -0.6398
    -0.6367  -0.6363  -0.6281  -0.6274  -0.6231  -0.6230  -0.6160  -0.6156
    -0.6134  -0.6128  -0.6049  -0.6008  -0.5967  -0.5949  -0.5845  -0.5830
    -0.5790  -0.5784  -0.5769  -0.5735  -0.5729  -0.5725  -0.5707  -0.5705
    -0.5682  -0.5622  -0.5612  -0.5595  -0.5591  -0.5585  -0.5559  -0.5546
    -0.5540  -0.5533  -0.5510  -0.5483  -0.5459  -0.5298  -0.5284  -0.5281
    -0.5220  -0.5182  -0.5064  -0.5029  -0.5026  -0.4937  -0.4924  -0.4873
    -0.4861  -0.4798  -0.4798  -0.4795  -0.4618  -0.4609  -0.4569  -0.4539
    -0.4471  -0.4403  -0.4349  -0.4330  -0.4321  -0.4255  -0.4249  -0.4237
    -0.4111  -0.4103  -0.3958  -0.3940  -0.3928  -0.3911  -0.3873  -0.3477
    -0.3421  -0.3276  -0.3207  -0.3158  -0.3148  -0.3074  -0.3064  -0.3063
    -0.3013  -0.2971  -0.2948  -0.2634  -0.2606  -0.2519  -0.2471  -0.2339
    -0.2304  -0.2035  -0.2024  -0.2003  -0.1980  -0.1980  -0.1893  -0.1889
    -0.1831  -0.1821  -0.1787  -0.1747  -0.1733  -0.1731  -0.1690  -0.1687
    -0.1675  -0.1656  -0.1654  -0.1648  -0.1631  -0.1631  -0.1623  -0.1607
    -0.1599  -0.1586  -0.1567  -0.1559  -0.1553  -0.1543  -0.1539  -0.1527
    -0.1492  -0.1461  -0.1431  -0.1401  -0.1380  -0.1366  -0.1355  -0.1344
    -0.1334  -0.1289  -0.1286  -0.1247  -0.1129  -0.0986  -0.0964  -0.0903
    -0.0902  -0.0422  -0.0338  -0.0090  -0.0090   0.0098   0.0356   0.0522
     0.0551   0.0563   0.0665   0.0781   0.1022   0.1113   0.1126   0.7011
     0.7249   0.9486   0.9566   0.9590   0.9971   0.9981   1.0300   1.0547
     1.0761   1.1404   1.1530   1.1630   1.1702   1.1707   1.1996   1.2055
     1.3540   1.5649   1.6355   1.6450   1.7381   1.7550   1.7919   1.7938
     1.9178   2.4161   2.5238   2.6870   2.6953   2.7213   2.7443   2.7523
     2.7532   2.8558   2.8605   2.8725   2.9075   2.9597   2.9759   3.0010
     3.0369   3.1356   3.1815   3.2295   3.3762   3.4332   3.4817   3.5127
     3.5359   3.6069   3.6221   3.6508   3.6527   3.6778   3.7080   3.7234
     3.7357   3.7596   3.7759   3.8163   3.8313   3.8508   3.8546   3.8625
     3.8765   3.8981   3.9173   3.9319   3.9487   4.0426   4.0626   4.0991
     4.1057   4.1970   4.2258   4.2578   4.2978   4.3582   4.3798   4.4058
     4.4659   4.4754   4.5075   4.5177   4.5782   4.5930   4.6473   4.7309
     4.7831   4.8906   4.9748   5.0104   5.0643   5.1271   5.1597   5.1669
     5.1887   5.4298   5.4649   5.4676   8.8697   8.8982   9.1434   9.1729
     9.4614   9.4631   9.4689   9.5221   9.5908   9.6460   9.7560   9.7609
     9.7764   9.7779   9.8622   9.8627   9.8782   9.9149   9.9246   9.9825
    10.0828  10.0839  10.0924  10.1001  10.1394  10.1459  10.1584  10.2596
    10.3189  10.3783  10.4946  10.4979  10.5054  10.6725  10.8392  10.8436
    10.8462  10.9336  11.0707  11.0848  11.1042  11.1794  11.4188  11.4191
    11.4299  11.5107  11.5973  11.6136  11.6938  11.7000  11.7101  11.7321
    11.7327  11.7579  11.7626  11.7705  11.7974

     occupation numbers 
     1.0000   1.0000   1.0000   1.0000   1.0000   1.0000   1.0000   1.0000
     1.0000   1.0000   1.0000   1.0000   1.0000   1.0000   1.0000   1.0000
     1.0000   1.0000   1.0000   1.0000   1.0000   1.0000   1.0000   1.0000
[...]
     9.4661   9.4701   9.4754   9.5407   9.5938   9.6640   9.7610   9.7681
     9.7892   9.7912   9.8682   9.8706   9.8919   9.9294   9.9317   9.9955
    10.0882  10.0927  10.0982  10.1042  10.1524  10.1627  10.1851  10.2884
    10.3240  10.3943  10.5002  10.5028  10.5109  10.7116  10.8490  10.8550
    10.8566  10.9589  11.0758  11.0951  11.1232  11.2204  11.4244  11.4249
    11.4438  11.5359  11.6088  11.6243  11.7020  11.7092  11.7171  11.7371
    11.7388  11.7684  11.7711  11.7800  11.8101

     occupation numbers 
     1.0000   1.0000   1.0000   1.0000   1.0000   1.0000   1.0000   1.0000
     1.0000   1.0000   1.0000   1.0000   1.0000   1.0000   1.0000   1.0000
     1.0000   1.0000   1.0000   1.0000   1.0000   1.0000   1.0000   1.0000
     1.0000   1.0000   1.0000   1.0000   1.0000   1.0000   1.0000   1.0000
     1.0000   1.0000   1.0000   1.0000   1.0000   1.0000   1.0000   1.0000
     1.0000   1.0000   1.0000   1.0000   1.0000   1.0000   1.0000   1.0000
     1.0000   1.0000   1.0000   1.0000   1.0000   1.0000   1.0000   1.0000
     1.0000   1.0000   1.0000   1.0000   1.0000   1.0000   1.0000   1.0000
     1.0000   1.0000   1.0000   1.0000   1.0000   1.0000   1.0000   1.0000
     1.0000   1.0000   1.0000   1.0000   1.0000   1.0000   1.0000   1.0000
     1.0000   1.0000   1.0000   1.0000   1.0000   1.0000   1.0000   1.0000
     1.0000   1.0000   1.0000   1.0000   1.0000   1.0000   1.0000   1.0000
     1.0000   1.0000   1.0000   1.0000   1.0000   1.0000   1.0000   1.0000
     1.0000   1.0000   1.0000   1.0000   1.0000   1.0000   1.0000   1.0000
     1.0000   1.0000   1.0000   1.0000   1.0000   1.0000   1.0000   1.0000
     1.0000   1.0000   1.0000   1.0000   1.0000   1.0000   1.0000   1.0000
     1.0000   1.0000   1.0000   1.0000   1.0000   1.0000   1.0000   1.0000
     1.0000   1.0000   1.0000   1.0000   1.0000   1.0000   1.0000   1.0000
     1.0000   1.0000   1.0000   1.0000   1.0000   1.0000   1.0000   1.0000
     1.0000   1.0000   1.0000   1.0000   1.0000   1.0000   1.0000   1.0000
     1.0000   1.0000   1.0000   1.0000   1.0000   1.0000   1.0000   1.0000
     1.0000   1.0000   1.0000   1.0000   1.0000   1.0000   1.0000   1.0000
     1.0000   1.0000   1.0000   1.0000   1.0000   1.0000   1.0000   1.0000
     1.0000   1.0000   1.0000   1.0000   1.0000   1.0000   1.0000   1.0000
     1.0000   1.0000   1.0000   1.0000   1.0000   1.0000   1.0000   1.0000
     1.0000   1.0000   1.0000   1.0000   1.0000   1.0000   1.0000   1.0000
     1.0000   1.0000   1.0000   1.0000   1.0000   1.0000   1.0000   1.0000
     1.0000   1.0000   1.0000   1.0000   1.0000   1.0000   1.0000   1.0000
     1.0000   1.0000   1.0000   1.0000   1.0000   1.0000   1.0000   1.0000
     1.0000   1.0000   1.0000   1.0000   1.0000   1.0000   1.0000   1.0000
     1.0000   1.0000   1.0000   1.0000   1.0000   1.0000   1.0000   1.0000
     1.0000   1.0000   1.0000   1.0000   1.0000   1.0000   1.0000   1.0000
     1.0000   1.0000   1.0000   1.0000   1.0000   1.0000   1.0000   1.0000
     1.0000   1.0000   1.0000   1.0000   1.0000   1.0000   1.0000   1.0000
     1.0000   1.0000   1.0000   1.0000   1.0000   1.0000   1.0000   1.0000
     1.0000   1.0000   1.0000   1.0000   1.0000   1.0000   1.0000   1.0000
     1.0000   0.9240   0.0594   0.0000   0.0000   0.0000   0.0000   0.0000
     0.0000   0.0000   0.0000   0.0000   0.0000   0.0000   0.0000   0.0000
     0.0000   0.0000   0.0000   0.0000   0.0000   0.0000   0.0000   0.0000
     0.0000   0.0000   0.0000   0.0000   0.0000   0.0000   0.0000   0.0000
     0.0000   0.0000   0.0000   0.0000   0.0000   0.0000   0.0000   0.0000
     0.0000   0.0000   0.0000   0.0000   0.0000   0.0000   0.0000   0.0000
     0.0000   0.0000   0.0000   0.0000   0.0000   0.0000   0.0000   0.0000
     0.0000   0.0000   0.0000   0.0000   0.0000

          k = 0.2500-0.5000-0.5000 (269956 PWs)   bands (ev):

   -96.3233 -56.7403 -56.7403 -56.7403  -7.1381  -7.1268  -7.1268  -7.0813
    -6.9126  -6.9010  -6.9010  -6.8438  -6.5758  -6.5661  -6.5661  -6.5261
    -6.4335  -6.4335  -6.4308  -6.4305  -6.4271  -6.4257  -6.4203  -6.4203
    -6.4179  -6.4179  -6.4115  -6.4113  -6.3921  -6.3571  -6.3411  -6.3411
    -6.3144  -6.2783  -6.2783  -6.2414  -0.6423  -0.6394  -0.6392  -0.6392
    -0.6149  -0.6137  -0.6088  -0.6088  -0.6079  -0.6068  -0.6050  -0.6044
    -0.6044  -0.6036  -0.6022  -0.6022  -0.5947  -0.5947  -0.5944  -0.5905
    -0.5905  -0.5886  -0.5836  -0.5823  -0.5823  -0.5817  -0.5801  -0.5745
    -0.5745  -0.5742  -0.5730  -0.5712  -0.5687  -0.5687  -0.5571  -0.5540
    -0.5539  -0.5526  -0.5526  -0.5515  -0.5493  -0.5493  -0.5287  -0.5245
    -0.5159  -0.5141  -0.5141  -0.5135  -0.4910  -0.4810  -0.4796  -0.4796
    -0.4708  -0.4708  -0.4685  -0.4616  -0.4571  -0.4479  -0.4433  -0.4433
    -0.4362  -0.4330  -0.4330  -0.4274  -0.4240  -0.4194  -0.4194  -0.4053
    -0.3992  -0.3950  -0.3950  -0.3913  -0.3762  -0.3721  -0.3721  -0.3652
    -0.3652  -0.3640  -0.3609  -0.3569  -0.3529  -0.3067  -0.3042  -0.3042
    -0.2825  -0.2750  -0.2748  -0.2748  -0.2726  -0.2709  -0.2709  -0.2686
    -0.2478  -0.1980  -0.1944  -0.1944  -0.1931  -0.1889  -0.1889  -0.1852
    -0.1791  -0.1784  -0.1766  -0.1766  -0.1704  -0.1704  -0.1703  -0.1656
    -0.1617  -0.1617  -0.1592  -0.1576  -0.1562  -0.1562  -0.1516  -0.1505
    -0.1500  -0.1500  -0.1473  -0.1466  -0.1436  -0.1424  -0.1404  -0.1404
    -0.1395  -0.1377  -0.1367  -0.1364  -0.1364  -0.1335  -0.1335  -0.1321
    -0.1321  -0.1301  -0.1293  -0.0892  -0.0865  -0.0865  -0.0709  -0.0693
    -0.0693  -0.0663  -0.0594   0.0066   0.0066   0.0109   0.0351   0.0366
     0.0366   0.0402   0.0517   0.0835   0.0925   0.0925   0.0973   0.8958
     0.8984   0.8984   0.9172   0.9174   0.9194   0.9194   0.9649   1.0537
     1.0605   1.0605   1.1147   1.3848   1.3848   1.3933   1.4157   1.4239
     1.4330   1.4330   1.4353   1.4400   1.4400   1.4502   1.7374   2.2218
     2.2218   2.2467   2.2944   2.6897   2.7508   2.7508   2.7572   3.0846
     3.0846   3.1199   3.1213   3.1980   3.2400   3.2421   3.2421   3.2518
     3.2577   3.2577   3.2680   3.2749   3.2749   3.2766   3.2888   3.3113
     3.3113   3.3254   3.4073   3.6915   3.7139   3.7139   3.7580   3.7938
     3.8344   3.8344   3.8424   3.8454   3.8473   3.8473   3.8497   3.8570
     3.8703   3.8746   3.8746   4.0173   4.0796   4.0800   4.0800   4.0920
     4.1185   4.1304   4.1304   4.2126   4.2126   4.2284   4.2528   4.6121
     4.6621   4.6621   4.7706   4.7998   4.8397   4.8994   4.8994   4.9282
     4.9401   4.9401   4.9429   5.1080   5.1736   5.1736   5.2968   5.3281
     5.4509   6.2811   6.3164   6.3165   9.0596   9.0602   9.0602   9.0979
     9.1720   9.1745   9.1745   9.2839   9.7535   9.7535   9.7909   9.8057
     9.8794   9.8794   9.9216   9.9235   9.9235   9.9237   9.9377   9.9590
     9.9653   9.9898   9.9898  10.0224  10.1094  10.1146  10.1146  10.1186
    10.1506  10.1861  10.1861  10.4178  10.9267  10.9295  10.9295  10.9339
    10.9735  10.9865  10.9865  11.1438  11.4748  11.4748  11.4878  11.5162
    11.5564  11.5564  11.5811  11.6403  11.6571  11.6609  11.6609  11.6782
    11.6812  11.7352  11.7352  11.8360  11.9223

     occupation numbers 
     1.0000   1.0000   1.0000   1.0000   1.0000   1.0000   1.0000   1.0000
     1.0000   1.0000   1.0000   1.0000   1.0000   1.0000   1.0000   1.0000
     1.0000   1.0000   1.0000   1.0000   1.0000   1.0000   1.0000   1.0000
     1.0000   1.0000   1.0000   1.0000   1.0000   1.0000   1.0000   1.0000
     1.0000   1.0000   1.0000   1.0000   1.0000   1.0000   1.0000   1.0000
     1.0000   1.0000   1.0000   1.0000   1.0000   1.0000   1.0000   1.0000
     1.0000   1.0000   1.0000   1.0000   1.0000   1.0000   1.0000   1.0000
     1.0000   1.0000   1.0000   1.0000   1.0000   1.0000   1.0000   1.0000
     1.0000   1.0000   1.0000   1.0000   1.0000   1.0000   1.0000   1.0000
     1.0000   1.0000   1.0000   1.0000   1.0000   1.0000   1.0000   1.0000
     1.0000   1.0000   1.0000   1.0000   1.0000   1.0000   1.0000   1.0000
     1.0000   1.0000   1.0000   1.0000   1.0000   1.0000   1.0000   1.0000
     1.0000   1.0000   1.0000   1.0000   1.0000   1.0000   1.0000   1.0000
     1.0000   1.0000   1.0000   1.0000   1.0000   1.0000   1.0000   1.0000
     1.0000   1.0000   1.0000   1.0000   1.0000   1.0000   1.0000   1.0000
     1.0000   1.0000   1.0000   1.0000   1.0000   1.0000   1.0000   1.0000
     1.0000   1.0000   1.0000   1.0000   1.0000   1.0000   1.0000   1.0000
     1.0000   1.0000   1.0000   1.0000   1.0000   1.0000   1.0000   1.0000
     1.0000   1.0000   1.0000   1.0000   1.0000   1.0000   1.0000   1.0000
     1.0000   1.0000   1.0000   1.0000   1.0000   1.0000   1.0000   1.0000
     1.0000   1.0000   1.0000   1.0000   1.0000   1.0000   1.0000   1.0000
     1.0000   1.0000   1.0000   1.0000   1.0000   1.0000   1.0000   1.0000
     1.0000   1.0000   1.0000   1.0000   1.0000   1.0000   1.0000   1.0000
     1.0000   1.0000   1.0000   1.0000   1.0000   1.0000   1.0000   1.0000
     1.0000   1.0000   1.0000   1.0000   1.0000   1.0000   1.0000   1.0000
     1.0000   1.0000   1.0000   1.0000   1.0000   1.0000   1.0000   1.0000
     1.0000   1.0000   1.0000   1.0000   1.0000   1.0000   1.0000   1.0000
     1.0000   1.0000   1.0000   1.0000   1.0000   1.0000   1.0000   1.0000
     1.0000   1.0000   1.0000   1.0000   1.0000   1.0000   1.0000   1.0000
     1.0000   1.0000   1.0000   1.0000   1.0000   1.0000   1.0000   1.0000
     1.0000   1.0000   1.0000   1.0000   1.0000   1.0000   1.0000   1.0000
     1.0000   1.0000   1.0000   1.0000   1.0000   1.0000   1.0000   1.0000
     1.0000   1.0000   1.0000   1.0000   1.0000   1.0000   1.0000   1.0000
     1.0000   1.0000   1.0000   1.0000   1.0000   1.0000   1.0000   1.0000
     1.0000   1.0000   1.0000   1.0000   1.0000   1.0000   1.0000   1.0000
     1.0000   1.0000   1.0000   1.0000   1.0000   1.0000   1.0000   1.0000
     1.0000   0.6412  -0.0255   0.0000   0.0000   0.0000   0.0000   0.0000
     0.0000   0.0000   0.0000   0.0000   0.0000   0.0000   0.0000   0.0000
     0.0000   0.0000   0.0000   0.0000   0.0000   0.0000   0.0000   0.0000
     0.0000   0.0000   0.0000   0.0000   0.0000   0.0000   0.0000   0.0000
     0.0000   0.0000   0.0000   0.0000   0.0000   0.0000   0.0000   0.0000
     0.0000   0.0000   0.0000   0.0000   0.0000   0.0000   0.0000   0.0000
     0.0000   0.0000   0.0000   0.0000   0.0000   0.0000   0.0000   0.0000
     0.0000   0.0000   0.0000   0.0000   0.0000

          k =-0.5000-0.5000-0.5000 (269968 PWs)   bands (ev):

   -96.3233 -56.7403 -56.7403 -56.7403  -7.0517  -7.0468  -7.0468  -7.0468
    -7.0282  -7.0282  -7.0282  -6.9418  -6.4304  -6.4304  -6.4304  -6.4288
    -6.4288  -6.4287  -6.4287  -6.4287  -6.4276  -6.4251  -6.4251  -6.4251
    -6.4162  -6.4162  -6.4162  -6.4135  -6.4135  -6.4135  -6.4131  -6.4131
    -6.3296  -6.2961  -6.2961  -6.2961  -0.6168  -0.6139  -0.6139  -0.6139
    -0.6115  -0.6115  -0.6115  -0.6031  -0.6031  -0.6031  -0.6024  -0.6024
    -0.6006  -0.5980  -0.5980  -0.5980  -0.5944  -0.5944  -0.5944  -0.5938
    -0.5938  -0.5858  -0.5834  -0.5834  -0.5834  -0.5826  -0.5826  -0.5820
    -0.5820  -0.5820  -0.5796  -0.5796  -0.5796  -0.5794  -0.5794  -0.5794
    -0.5749  -0.5749  -0.5749  -0.5708  -0.5708  -0.5708  -0.5365  -0.5192
    -0.5192  -0.5148  -0.5148  -0.5148  -0.4502  -0.4496  -0.4496  -0.4496
    -0.4447  -0.4447  -0.4447  -0.4446  -0.4446  -0.4446  -0.4440  -0.4440
    -0.4395  -0.4395  -0.4395  -0.4376  -0.4376  -0.4376  -0.4354  -0.4248
    -0.4248  -0.3687  -0.3687  -0.3687  -0.3348  -0.3348  -0.3348  -0.3341
    -0.3341  -0.3341  -0.3339  -0.3339  -0.3311  -0.3311  -0.3311  -0.3289
    -0.3281  -0.3281  -0.3281  -0.3278  -0.3278  -0.3278  -0.3017  -0.2970
    -0.2970  -0.1877  -0.1877  -0.1877  -0.1874  -0.1874  -0.1846  -0.1846
    -0.1846  -0.1794  -0.1794  -0.1794  -0.1758  -0.1758  -0.1758  -0.1609
    -0.1609  -0.1609  -0.1544  -0.1544  -0.1482  -0.1482  -0.1482  -0.1469
    -0.1469  -0.1453  -0.1400  -0.1400  -0.1400  -0.1379  -0.1379  -0.1379
    -0.1363  -0.1363  -0.1363  -0.1319  -0.1313  -0.1313  -0.1313  -0.0909
    -0.0909  -0.0909  -0.0349  -0.0349  -0.0277  -0.0277  -0.0277  -0.0242
    -0.0242  -0.0242  -0.0238  -0.0222  -0.0222  -0.0219  -0.0219  -0.0219
    -0.0187  -0.0187  -0.0187  -0.0158  -0.0158  -0.0158   0.0178   1.1001
     1.1001   1.1001   1.1472   1.1472   1.1669   1.1669   1.1669   1.1689
     1.1700   1.1700   1.1700   1.1729   1.1729   1.1771   1.1771   1.1771
     1.1880   1.1880   1.1880   1.2142   1.2142   1.2142   1.6563   2.6406
     2.6406   2.6406   2.7749   2.7881   2.7881   2.7881   2.8904   3.0730
     3.0730   3.1379   3.1379   3.1379   3.2298   3.2298   3.2298   3.2300
     3.2310   3.2310   3.2349   3.2349   3.2349   3.2353   3.2353   3.2353
     3.2379   3.2379   3.2379   3.2910   3.2910   3.2910   3.3865   3.8111
     3.8111   3.8111   3.9383   3.9383   4.0065   4.0093   4.0093   4.0093
     4.0130   4.0130   4.0145   4.0145   4.0145   4.0204   4.0204   4.0204
     4.0221   4.0396   4.0396   4.0396   4.0439   4.0439   4.0439   4.7223
     4.7223   4.7223   4.8967   4.8967   5.1030   5.1030   5.1031   5.1031
     5.1031   5.1128   5.1128   5.1128   5.1152   5.1152   5.1152   5.3853
     5.3854   6.3323   6.3323   6.3323   8.9584   8.9622   8.9622   8.9622
     8.9715   8.9715   8.9715   9.1270   9.8646   9.8646   9.8646   9.8713
     9.8713   9.8713   9.8720   9.8720   9.8735   9.8735   9.8735   9.8769
     9.8800   9.8800   9.8800   9.8817   9.8817   9.8817   9.9649   9.9649
    10.0063  10.0063  10.0063  10.3107  11.4727  11.4727  11.4727  11.4753
    11.4753  11.4753  11.4773  11.4773  11.4791  11.4791  11.4791  11.4830
    11.4866  11.4866  11.4866  11.4874  11.4874  11.5013  11.5013  11.5013
    11.6058  11.6058  11.6058  12.0555  12.4429

     occupation numbers 
     1.0000   1.0000   1.0000   1.0000   1.0000   1.0000   1.0000   1.0000
     1.0000   1.0000   1.0000   1.0000   1.0000   1.0000   1.0000   1.0000
     1.0000   1.0000   1.0000   1.0000   1.0000   1.0000   1.0000   1.0000
     1.0000   1.0000   1.0000   1.0000   1.0000   1.0000   1.0000   1.0000
     1.0000   1.0000   1.0000   1.0000   1.0000   1.0000   1.0000   1.0000
     1.0000   1.0000   1.0000   1.0000   1.0000   1.0000   1.0000   1.0000
     1.0000   1.0000   1.0000   1.0000   1.0000   1.0000   1.0000   1.0000
     1.0000   1.0000   1.0000   1.0000   1.0000   1.0000   1.0000   1.0000
     1.0000   1.0000   1.0000   1.0000   1.0000   1.0000   1.0000   1.0000
     1.0000   1.0000   1.0000   1.0000   1.0000   1.0000   1.0000   1.0000
     1.0000   1.0000   1.0000   1.0000   1.0000   1.0000   1.0000   1.0000
     1.0000   1.0000   1.0000   1.0000   1.0000   1.0000   1.0000   1.0000
     1.0000   1.0000   1.0000   1.0000   1.0000   1.0000   1.0000   1.0000
     1.0000   1.0000   1.0000   1.0000   1.0000   1.0000   1.0000   1.0000
     1.0000   1.0000   1.0000   1.0000   1.0000   1.0000   1.0000   1.0000
     1.0000   1.0000   1.0000   1.0000   1.0000   1.0000   1.0000   1.0000
     1.0000   1.0000   1.0000   1.0000   1.0000   1.0000   1.0000   1.0000
     1.0000   1.0000   1.0000   1.0000   1.0000   1.0000   1.0000   1.0000
     1.0000   1.0000   1.0000   1.0000   1.0000   1.0000   1.0000   1.0000
     1.0000   1.0000   1.0000   1.0000   1.0000   1.0000   1.0000   1.0000
     1.0000   1.0000   1.0000   1.0000   1.0000   1.0000   1.0000   1.0000
     1.0000   1.0000   1.0000   1.0000   1.0000   1.0000   1.0000   1.0000
     1.0000   1.0000   1.0000   1.0000   1.0000   1.0000   1.0000   1.0000
     1.0000   1.0000   1.0000   1.0000   1.0000   1.0000   1.0000   1.0000
     1.0000   1.0000   1.0000   1.0000   1.0000   1.0000   1.0000   1.0000
     1.0000   1.0000   1.0000   1.0000   1.0000   1.0000   1.0000   1.0000
     1.0000   1.0000   1.0000   1.0000   1.0000   1.0000   1.0000   1.0000
     1.0000   1.0000   1.0000   1.0000   1.0000   1.0000   1.0000   1.0000
     1.0000   1.0000   1.0000   1.0000   1.0000   1.0000   1.0000   1.0000
     1.0000   1.0000   1.0000   1.0000   1.0000   1.0000   1.0000   1.0000
     1.0000   1.0000   1.0000   1.0000   1.0000   1.0000   1.0000   1.0000
     1.0000   1.0000   1.0000   1.0000   1.0000   1.0000   1.0000   1.0000
     1.0000   1.0000   1.0000   1.0000   1.0000   1.0000   1.0000   1.0000
     1.0000   1.0000   1.0000   1.0000   1.0000   1.0000   1.0000   1.0000
     1.0000   1.0000   1.0000   1.0000   1.0000   1.0000   1.0000   1.0000
     1.0000   1.0000   1.0000   1.0000   1.0000   1.0000   1.0000   1.0000
     1.0000  -0.0136  -0.0001  -0.0001   0.0000   0.0000   0.0000   0.0000
     0.0000   0.0000   0.0000   0.0000   0.0000   0.0000   0.0000   0.0000
     0.0000   0.0000   0.0000   0.0000   0.0000   0.0000   0.0000   0.0000
     0.0000   0.0000   0.0000   0.0000   0.0000   0.0000   0.0000   0.0000
     0.0000   0.0000   0.0000   0.0000   0.0000   0.0000   0.0000   0.0000
     0.0000   0.0000   0.0000   0.0000   0.0000   0.0000   0.0000   0.0000
     0.0000   0.0000   0.0000   0.0000   0.0000   0.0000   0.0000   0.0000
     0.0000   0.0000   0.0000   0.0000   0.0000

     the Fermi energy is     6.2773 ev
     (compare with:     6.2739 eV, computed in scf)

     Writing all to output data dir ./out/Ni_q0_unrlxd.save/
 
     init_run     :      3.60s CPU      5.96s WALL (       1 calls)
     electrons    :    134.38s CPU    136.07s WALL (       1 calls)

     Called by init_run:
     wfcinit      :      0.00s CPU      1.75s WALL (       1 calls)
     wfcinit:atom :      0.03s CPU      0.03s WALL (       2 calls)
     wfcinit:wfcr :      2.54s CPU      2.64s WALL (       2 calls)
     potinit      :      0.85s CPU      1.12s WALL (       1 calls)
     hinit0       :      0.37s CPU      0.46s WALL (       1 calls)

     Called by electrons:
     c_bands      :    133.07s CPU    134.74s WALL (       1 calls)
     v_of_rho     :      0.27s CPU      0.33s WALL (       1 calls)
     v_h          :      0.01s CPU      0.01s WALL (       1 calls)
     v_xc         :      0.26s CPU      0.32s WALL (       1 calls)
     newd         :      0.03s CPU      0.05s WALL (       1 calls)
     PAW_pot      :      0.14s CPU      0.15s WALL (       1 calls)

     Called by c_bands:
     init_us_2    :      0.06s CPU      0.07s WALL (       2 calls)
     init_us_2:cp :      0.06s CPU      0.07s WALL (       2 calls)
     cegterg      :    127.09s CPU    128.59s WALL (      12 calls)

     Called by sum_band:

     Called by *egterg:
     cdiaghg      :     15.02s CPU     15.13s WALL (     242 calls)
     cegterg:over :     12.04s CPU     12.16s WALL (     240 calls)
     cegterg:upda :     10.86s CPU     10.95s WALL (     240 calls)
     cegterg:last :     19.81s CPU     20.02s WALL (      67 calls)
     cdiaghg:chol :      0.97s CPU      0.97s WALL (     242 calls)
     cdiaghg:inve :      1.42s CPU      1.43s WALL (     242 calls)
     cdiaghg:para :      2.31s CPU      2.32s WALL (     484 calls)
     h_psi        :     56.31s CPU     57.07s WALL (     254 calls)
     s_psi        :     12.70s CPU     12.78s WALL (     254 calls)
     g_psi        :      0.40s CPU      0.40s WALL (     240 calls)

     Called by h_psi:
     h_psi:calbec :     12.69s CPU     12.83s WALL (     254 calls)
     vloc_psi     :     30.29s CPU     30.66s WALL (     254 calls)
     add_vuspsi   :     12.73s CPU     12.85s WALL (     254 calls)

     General routines
     calbec       :     12.69s CPU     12.83s WALL (     254 calls)
     fft          :      0.44s CPU      0.59s WALL (      21 calls)
     fftw         :     28.14s CPU     28.50s WALL (   51922 calls)
 
     Parallel routines

     PAW routines
     PAW_pot      :      0.14s CPU      0.15s WALL (       1 calls)
 
     PWSCF        :   2m30.41s CPU   3m 7.90s WALL

 
   This run was terminated on:   9:50:28   5Jul2024            

=------------------------------------------------------------------------------=
   JOB DONE.
=------------------------------------------------------------------------------=
