
     Program PWSCF v.7.2 starts on 13Mar2024 at  4: 1:31 

     This program is part of the open-source Quantum ESPRESSO suite
     for quantum simulation of materials; please cite
         "P. Giannozzi et al., J. Phys.:Condens. Matter 21 395502 (2009);
         "P. Giannozzi et al., J. Phys.:Condens. Matter 29 465901 (2017);
         "P. Giannozzi et al., J. Chem. Phys. 152 154105 (2020);
          URL http://www.quantum-espresso.org", 
     in publications or presentations arising from this work. More details at
     http://www.quantum-espresso.org/quote

     Parallel version (MPI), running on    28 processors

     MPI processes distributed on     1 nodes
     167769 MiB available memory on the printing compute node when the environment starts
 
     Waiting for input...
     Reading input from standard input

     Current dimensions of program PWSCF are:
     Max number of different atomic species (ntypx) = 10
     Max number of k-points (npk) = 120000
     Max angular momentum in pseudopotentials (lmaxx) =  4
     file Zn.pbe-dnl-kjpaw_psl.1.0.0.UPF: wavefunction(s)  4S 3D renormalized
 
     K-points division:     npool     =       2
     R & G space division:  proc/nbgrp/npool/nimage =      14
     Subspace diagonalization in iterative solution of the eigenvalue problem:
     a serial algorithm will be used

 
     Parallelization info
     --------------------
     sticks:   dense  smooth     PW     G-vecs:    dense   smooth      PW
     Min          33      33     10                 1119     1119     188
     Max          34      34     11                 1128     1128     193
     Sum         475     475    151                15763    15763    2661
 
     Using Slab Decomposition
 


     bravais-lattice index     =            4
     lattice parameter (alat)  =       5.0000  a.u.
     unit-cell volume          =     200.2684 (a.u.)^3
     number of atoms/cell      =            2
     number of atomic types    =            1
     number of electrons       =        24.00
     number of Kohn-Sham states=           16
     kinetic-energy cutoff     =      70.0000  Ry
     charge density cutoff     =     280.0000  Ry
     scf convergence threshold =      4.0E-06
     mixing beta               =       0.7000
     number of iterations used =            8  plain     mixing
     Exchange-correlation= SLA  PW   PBX  PBC
                           (   1   4   3   4   0   0   0)

     celldm(1)=   5.000000  celldm(2)=   0.000000  celldm(3)=   1.850000
     celldm(4)=   0.000000  celldm(5)=   0.000000  celldm(6)=   0.000000

     crystal axes: (cart. coord. in units of alat)
               a(1) = (   1.000000   0.000000   0.000000 )  
               a(2) = (  -0.500000   0.866025   0.000000 )  
               a(3) = (   0.000000   0.000000   1.850000 )  

     reciprocal axes: (cart. coord. in units 2 pi/alat)
               b(1) = (  1.000000  0.577350  0.000000 )  
               b(2) = (  0.000000  1.154701  0.000000 )  
               b(3) = (  0.000000  0.000000  0.540541 )  


     PseudoPot. # 1 for Zn read from file:
     /truba/home/amuhaymin/ZnS/pseudo/QE/Zn.pbe-dnl-kjpaw_psl.1.0.0.UPF
     MD5 check sum: c608214d9520ac179f507641260889e3
     Pseudo is Projector augmented-wave + core cor, Zval = 12.0
     Generated using &quot;atomic&quot; code by A. Dal Corso  v.6.2.2
     Shape of augmentation charge: PSQ
     Using radial grid of 1201 points,  6 beta functions with: 
                l(1) =   0
                l(2) =   0
                l(3) =   1
                l(4) =   1
                l(5) =   2
                l(6) =   2
     Q(r) pseudized with 0 coefficients 


     atomic species   valence    mass     pseudopotential
        Zn            12.00    65.38000     Zn( 1.00)

     Starting magnetic structure 
     atomic species   magnetization
        Zn           0.000

     24 Sym. Ops., with inversion, found (12 have fractional translation)


                                    s                        frac. trans.

      isym =  1     identity                                     

 cryst.   s( 1) = (     1          0          0      )
                  (     0          1          0      )
                  (     0          0          1      )

 cart.    s( 1) = (  1.0000000  0.0000000  0.0000000 )
                  (  0.0000000  1.0000000  0.0000000 )
                  (  0.0000000  0.0000000  1.0000000 )


      isym =  2     180 deg rotation - cart. axis [0,0,1]        

 cryst.   s( 2) = (    -1          0          0      )    f =(  0.0000000 )
                  (     0         -1          0      )       (  0.0000000 )
                  (     0          0          1      )       ( -0.5000000 )

 cart.    s( 2) = ( -1.0000000  0.0000000  0.0000000 )    f =(  0.0000000 )
                  (  0.0000000 -1.0000000  0.0000000 )       (  0.0000000 )
                  (  0.0000000  0.0000000  1.0000000 )       ( -0.9250000 )


      isym =  3     180 deg rotation - cart. axis [0,1,0]        

 cryst.   s( 3) = (    -1          0          0      )    f =(  0.0000000 )
                  (     1          1          0      )       (  0.0000000 )
                  (     0          0         -1      )       ( -0.5000000 )

 cart.    s( 3) = ( -1.0000000  0.0000000  0.0000000 )    f =(  0.0000000 )
                  (  0.0000000  1.0000000  0.0000000 )       (  0.0000000 )
                  (  0.0000000  0.0000000 -1.0000000 )       ( -0.9250000 )


      isym =  4     180 deg rotation - cart. axis [1,0,0]        

 cryst.   s( 4) = (     1          0          0      )
                  (    -1         -1          0      )
                  (     0          0         -1      )

 cart.    s( 4) = (  1.0000000  0.0000000  0.0000000 )
                  (  0.0000000 -1.0000000  0.0000000 )
                  (  0.0000000  0.0000000 -1.0000000 )


      isym =  5      60 deg rotation - cryst. axis [0,0,1]       

 cryst.   s( 5) = (     1          1          0      )    f =(  0.0000000 )
                  (    -1          0          0      )       ( -0.0000000 )
                  (     0          0          1      )       ( -0.5000000 )

 cart.    s( 5) = (  0.5000000 -0.8660254  0.0000000 )    f =(  0.0000000 )
                  (  0.8660254  0.5000000  0.0000000 )       ( -0.0000000 )
                  (  0.0000000  0.0000000  1.0000000 )       ( -0.9250000 )


      isym =  6      60 deg rotation - cryst. axis [0,0,-1]      

 cryst.   s( 6) = (     0         -1          0      )    f =(  0.0000000 )
                  (     1          1          0      )       ( -0.0000000 )
                  (     0          0          1      )       ( -0.5000000 )

 cart.    s( 6) = (  0.5000000  0.8660254  0.0000000 )    f =(  0.0000000 )
                  ( -0.8660254  0.5000000  0.0000000 )       ( -0.0000000 )
                  (  0.0000000  0.0000000  1.0000000 )       ( -0.9250000 )


      isym =  7     120 deg rotation - cryst. axis [0,0,1]       

 cryst.   s( 7) = (     0          1          0      )
                  (    -1         -1          0      )
                  (     0          0          1      )

 cart.    s( 7) = ( -0.5000000 -0.8660254  0.0000000 )
                  (  0.8660254 -0.5000000  0.0000000 )
                  (  0.0000000  0.0000000  1.0000000 )


      isym =  8     120 deg rotation - cryst. axis [0,0,-1]      

 cryst.   s( 8) = (    -1         -1          0      )
                  (     1          0          0      )
                  (     0          0          1      )

 cart.    s( 8) = ( -0.5000000  0.8660254  0.0000000 )
                  ( -0.8660254 -0.5000000  0.0000000 )
                  (  0.0000000  0.0000000  1.0000000 )


      isym =  9     180 deg rotation - cryst. axis [1,-1,0]      

 cryst.   s( 9) = (     0         -1          0      )    f =(  0.0000000 )
                  (    -1          0          0      )       (  0.0000000 )
                  (     0          0         -1      )       ( -0.5000000 )

 cart.    s( 9) = (  0.5000000 -0.8660254  0.0000000 )    f =(  0.0000000 )
                  ( -0.8660254 -0.5000000  0.0000000 )       (  0.0000000 )
                  (  0.0000000  0.0000000 -1.0000000 )       ( -0.9250000 )


      isym = 10     180 deg rotation - cryst. axis [2,1,0]       

 cryst.   s(10) = (     1          1          0      )    f =(  0.0000000 )
                  (     0         -1          0      )       ( -0.0000000 )
                  (     0          0         -1      )       ( -0.5000000 )

 cart.    s(10) = (  0.5000000  0.8660254  0.0000000 )    f =(  0.0000000 )
                  (  0.8660254 -0.5000000  0.0000000 )       ( -0.0000000 )
                  (  0.0000000  0.0000000 -1.0000000 )       ( -0.9250000 )


      isym = 11     180 deg rotation - cryst. axis [0,1,0]       

 cryst.   s(11) = (    -1         -1          0      )
                  (     0          1          0      )
                  (     0          0         -1      )

 cart.    s(11) = ( -0.5000000 -0.8660254  0.0000000 )
                  ( -0.8660254  0.5000000  0.0000000 )
                  (  0.0000000  0.0000000 -1.0000000 )


      isym = 12     180 deg rotation - cryst. axis [1,1,0]       

 cryst.   s(12) = (     0          1          0      )
                  (     1          0          0      )
                  (     0          0         -1      )

 cart.    s(12) = ( -0.5000000  0.8660254  0.0000000 )
                  (  0.8660254  0.5000000  0.0000000 )
                  (  0.0000000  0.0000000 -1.0000000 )


      isym = 13     inversion                                    

 cryst.   s(13) = (    -1          0          0      )
                  (     0         -1          0      )
                  (     0          0         -1      )

 cart.    s(13) = ( -1.0000000  0.0000000  0.0000000 )
                  (  0.0000000 -1.0000000  0.0000000 )
                  (  0.0000000  0.0000000 -1.0000000 )


      isym = 14     inv. 180 deg rotation - cart. axis [0,0,1]   

 cryst.   s(14) = (     1          0          0      )    f =(  0.0000000 )
                  (     0          1          0      )       (  0.0000000 )
                  (     0          0         -1      )       ( -0.5000000 )

 cart.    s(14) = (  1.0000000  0.0000000  0.0000000 )    f =(  0.0000000 )
                  (  0.0000000  1.0000000  0.0000000 )       (  0.0000000 )
                  (  0.0000000  0.0000000 -1.0000000 )       ( -0.9250000 )


      isym = 15     inv. 180 deg rotation - cart. axis [0,1,0]   

 cryst.   s(15) = (     1          0          0      )    f =(  0.0000000 )
                  (    -1         -1          0      )       (  0.0000000 )
                  (     0          0          1      )       ( -0.5000000 )

 cart.    s(15) = (  1.0000000  0.0000000  0.0000000 )    f =(  0.0000000 )
                  (  0.0000000 -1.0000000  0.0000000 )       (  0.0000000 )
                  (  0.0000000  0.0000000  1.0000000 )       ( -0.9250000 )


      isym = 16     inv. 180 deg rotation - cart. axis [1,0,0]   

 cryst.   s(16) = (    -1          0          0      )
                  (     1          1          0      )
                  (     0          0          1      )

 cart.    s(16) = ( -1.0000000  0.0000000  0.0000000 )
                  (  0.0000000  1.0000000  0.0000000 )
                  (  0.0000000  0.0000000  1.0000000 )


      isym = 17     inv.  60 deg rotation - cryst. axis [0,0,1]  

 cryst.   s(17) = (    -1         -1          0      )    f =(  0.0000000 )
                  (     1          0          0      )       (  0.0000000 )
                  (     0          0         -1      )       ( -0.5000000 )

 cart.    s(17) = ( -0.5000000  0.8660254  0.0000000 )    f =(  0.0000000 )
                  ( -0.8660254 -0.5000000  0.0000000 )       (  0.0000000 )
                  (  0.0000000  0.0000000 -1.0000000 )       ( -0.9250000 )


      isym = 18     inv.  60 deg rotation - cryst. axis [0,0,-1] 

 cryst.   s(18) = (     0          1          0      )    f =(  0.0000000 )
                  (    -1         -1          0      )       ( -0.0000000 )
                  (     0          0         -1      )       ( -0.5000000 )

 cart.    s(18) = ( -0.5000000 -0.8660254  0.0000000 )    f =(  0.0000000 )
                  (  0.8660254 -0.5000000  0.0000000 )       ( -0.0000000 )
                  (  0.0000000  0.0000000 -1.0000000 )       ( -0.9250000 )


      isym = 19     inv. 120 deg rotation - cryst. axis [0,0,1]  

 cryst.   s(19) = (     0         -1          0      )
                  (     1          1          0      )
                  (     0          0         -1      )

 cart.    s(19) = (  0.5000000  0.8660254  0.0000000 )
                  ( -0.8660254  0.5000000  0.0000000 )
                  (  0.0000000  0.0000000 -1.0000000 )


      isym = 20     inv. 120 deg rotation - cryst. axis [0,0,-1] 

 cryst.   s(20) = (     1          1          0      )
                  (    -1          0          0      )
                  (     0          0         -1      )

 cart.    s(20) = (  0.5000000 -0.8660254  0.0000000 )
                  (  0.8660254  0.5000000  0.0000000 )
                  (  0.0000000  0.0000000 -1.0000000 )


      isym = 21     inv. 180 deg rotation - cryst. axis [1,-1,0] 

 cryst.   s(21) = (     0          1          0      )    f =(  0.0000000 )
                  (     1          0          0      )       ( -0.0000000 )
                  (     0          0          1      )       ( -0.5000000 )

 cart.    s(21) = ( -0.5000000  0.8660254  0.0000000 )    f =(  0.0000000 )
                  (  0.8660254  0.5000000  0.0000000 )       ( -0.0000000 )
                  (  0.0000000  0.0000000  1.0000000 )       ( -0.9250000 )


      isym = 22     inv. 180 deg rotation - cryst. axis [2,1,0]  

 cryst.   s(22) = (    -1         -1          0      )    f =(  0.0000000 )
                  (     0          1          0      )       ( -0.0000000 )
                  (     0          0          1      )       ( -0.5000000 )

 cart.    s(22) = ( -0.5000000 -0.8660254  0.0000000 )    f =(  0.0000000 )
                  ( -0.8660254  0.5000000  0.0000000 )       ( -0.0000000 )
                  (  0.0000000  0.0000000  1.0000000 )       ( -0.9250000 )


      isym = 23     inv. 180 deg rotation - cryst. axis [0,1,0]  

 cryst.   s(23) = (     1          1          0      )
                  (     0         -1          0      )
                  (     0          0          1      )

 cart.    s(23) = (  0.5000000  0.8660254  0.0000000 )
                  (  0.8660254 -0.5000000  0.0000000 )
                  (  0.0000000  0.0000000  1.0000000 )


      isym = 24     inv. 180 deg rotation - cryst. axis [1,1,0]  

 cryst.   s(24) = (     0         -1          0      )
                  (    -1          0          0      )
                  (     0          0          1      )

 cart.    s(24) = (  0.5000000 -0.8660254  0.0000000 )
                  ( -0.8660254 -0.5000000  0.0000000 )
                  (  0.0000000  0.0000000  1.0000000 )


     point group D_6h(6/mmm)
     there are 12 classes
     the character table:

       E     2C6   2C3   C2    3C2'  3C2'' i     2S3   2S6   s_h   3s_d  3s_v 
A_1g   1.00  1.00  1.00  1.00  1.00  1.00  1.00  1.00  1.00  1.00  1.00  1.00
A_2g   1.00  1.00  1.00  1.00 -1.00 -1.00  1.00  1.00  1.00  1.00 -1.00 -1.00
B_1g   1.00 -1.00  1.00 -1.00  1.00 -1.00  1.00 -1.00  1.00 -1.00  1.00 -1.00
B_2g   1.00 -1.00  1.00 -1.00 -1.00  1.00  1.00 -1.00  1.00 -1.00 -1.00  1.00
E_1g   2.00  1.00 -1.00 -2.00  0.00  0.00  2.00  1.00 -1.00 -2.00  0.00  0.00
E_2g   2.00 -1.00 -1.00  2.00  0.00  0.00  2.00 -1.00 -1.00  2.00  0.00  0.00
A_1u   1.00  1.00  1.00  1.00  1.00  1.00 -1.00 -1.00 -1.00 -1.00 -1.00 -1.00
A_2u   1.00  1.00  1.00  1.00 -1.00 -1.00 -1.00 -1.00 -1.00 -1.00  1.00  1.00
B_1u   1.00 -1.00  1.00 -1.00  1.00 -1.00 -1.00  1.00 -1.00  1.00 -1.00  1.00
B_2u   1.00 -1.00  1.00 -1.00 -1.00  1.00 -1.00  1.00 -1.00  1.00  1.00 -1.00
E_1u   2.00  1.00 -1.00 -2.00  0.00  0.00 -2.00 -1.00  1.00  2.00  0.00  0.00
E_2u   2.00 -1.00 -1.00  2.00  0.00  0.00 -2.00  1.00  1.00 -2.00  0.00  0.00

     the symmetry operations in each class and the name of the first element:

     E        1
          identity                                               
     2C6      5    6
           60 deg rotation - cryst. axis [0,0,1]                 
     2C3      7    8
          120 deg rotation - cryst. axis [0,0,1]                 
     C2       2
          180 deg rotation - cart. axis [0,0,1]                  
     3C2'     4   12   11
          180 deg rotation - cart. axis [1,0,0]                  
     3C2''    3    9   10
          180 deg rotation - cart. axis [0,1,0]                  
     i       13
          inversion                                              
     2S3     17   18
          inv.  60 deg rotation - cryst. axis [0,0,1]            
     2S6     19   20
          inv. 120 deg rotation - cryst. axis [0,0,1]            
     s_h     14
          inv. 180 deg rotation - cart. axis [0,0,1]             
     3s_d    16   24   23
          inv. 180 deg rotation - cart. axis [1,0,0]             
     3s_v    15   21   22
          inv. 180 deg rotation - cart. axis [0,1,0]             

   Cartesian axes

     site n.     atom                  positions (alat units)
         1           Zn  tau(   1) = (  -0.0000000   0.5773503   0.4625000  )
         2           Zn  tau(   2) = (   0.5000000   0.2886751   1.3875000  )

   Crystallographic axes

     site n.     atom                  positions (cryst. coord.)
         1           Zn  tau(   1) = (  0.3333333  0.6666667  0.2500000  )
         2           Zn  tau(   2) = (  0.6666667  0.3333333  0.7500000  )

     number of k points=    96  Marzari-Vanderbilt smearing, width (Ry)=  0.0005
                       cart. coord. in units 2pi/alat
        k(    1) = (   0.0000000   0.0000000   0.0000000), wk =   0.0007289
        k(    2) = (   0.0000000   0.0000000   0.0772201), wk =   0.0014577
        k(    3) = (   0.0000000   0.0000000   0.1544402), wk =   0.0014577
        k(    4) = (   0.0000000   0.0000000   0.2316602), wk =   0.0014577
        k(    5) = (   0.0000000   0.0824786   0.0000000), wk =   0.0043732
        k(    6) = (   0.0000000   0.0824786   0.0772201), wk =   0.0087464
        k(    7) = (   0.0000000   0.0824786   0.1544402), wk =   0.0087464
        k(    8) = (   0.0000000   0.0824786   0.2316602), wk =   0.0087464
        k(    9) = (   0.0000000   0.1649572   0.0000000), wk =   0.0043732
        k(   10) = (   0.0000000   0.1649572   0.0772201), wk =   0.0087464
        k(   11) = (   0.0000000   0.1649572   0.1544402), wk =   0.0087464
        k(   12) = (   0.0000000   0.1649572   0.2316602), wk =   0.0087464
        k(   13) = (   0.0000000   0.2474358   0.0000000), wk =   0.0043732
        k(   14) = (   0.0000000   0.2474358   0.0772201), wk =   0.0087464
        k(   15) = (   0.0000000   0.2474358   0.1544402), wk =   0.0087464
        k(   16) = (   0.0000000   0.2474358   0.2316602), wk =   0.0087464
        k(   17) = (   0.0000000   0.3299144   0.0000000), wk =   0.0043732
        k(   18) = (   0.0000000   0.3299144   0.0772201), wk =   0.0087464
        k(   19) = (   0.0000000   0.3299144   0.1544402), wk =   0.0087464
        k(   20) = (   0.0000000   0.3299144   0.2316602), wk =   0.0087464
        k(   21) = (   0.0000000   0.4123930   0.0000000), wk =   0.0043732
        k(   22) = (   0.0000000   0.4123930   0.0772201), wk =   0.0087464
        k(   23) = (   0.0000000   0.4123930   0.1544402), wk =   0.0087464
        k(   24) = (   0.0000000   0.4123930   0.2316602), wk =   0.0087464
        k(   25) = (   0.0000000   0.4948717   0.0000000), wk =   0.0043732
        k(   26) = (   0.0000000   0.4948717   0.0772201), wk =   0.0087464
        k(   27) = (   0.0000000   0.4948717   0.1544402), wk =   0.0087464
        k(   28) = (   0.0000000   0.4948717   0.2316602), wk =   0.0087464
        k(   29) = (   0.0000000  -0.5773503   0.0000000), wk =   0.0021866
        k(   30) = (   0.0000000  -0.5773503   0.0772201), wk =   0.0043732
        k(   31) = (   0.0000000  -0.5773503   0.1544402), wk =   0.0043732
        k(   32) = (   0.0000000  -0.5773503   0.2316602), wk =   0.0043732
        k(   33) = (   0.0714286   0.1237179   0.0000000), wk =   0.0043732
        k(   34) = (   0.0714286   0.1237179   0.0772201), wk =   0.0087464
        k(   35) = (   0.0714286   0.1237179   0.1544402), wk =   0.0087464
        k(   36) = (   0.0714286   0.1237179   0.2316602), wk =   0.0087464
        k(   37) = (   0.0714286   0.2061965   0.0000000), wk =   0.0087464
        k(   38) = (   0.0714286   0.2061965   0.0772201), wk =   0.0174927
        k(   39) = (   0.0714286   0.2061965   0.1544402), wk =   0.0174927
        k(   40) = (   0.0714286   0.2061965   0.2316602), wk =   0.0174927
        k(   41) = (   0.0714286   0.2886751   0.0000000), wk =   0.0087464
        k(   42) = (   0.0714286   0.2886751   0.0772201), wk =   0.0174927
        k(   43) = (   0.0714286   0.2886751   0.1544402), wk =   0.0174927
        k(   44) = (   0.0714286   0.2886751   0.2316602), wk =   0.0174927
        k(   45) = (   0.0714286   0.3711537   0.0000000), wk =   0.0087464
        k(   46) = (   0.0714286   0.3711537   0.0772201), wk =   0.0174927
        k(   47) = (   0.0714286   0.3711537   0.1544402), wk =   0.0174927
        k(   48) = (   0.0714286   0.3711537   0.2316602), wk =   0.0174927
        k(   49) = (   0.0714286   0.4536324   0.0000000), wk =   0.0087464
        k(   50) = (   0.0714286   0.4536324   0.0772201), wk =   0.0174927
        k(   51) = (   0.0714286   0.4536324   0.1544402), wk =   0.0174927
        k(   52) = (   0.0714286   0.4536324   0.2316602), wk =   0.0174927
        k(   53) = (   0.0714286   0.5361110   0.0000000), wk =   0.0087464
        k(   54) = (   0.0714286   0.5361110   0.0772201), wk =   0.0174927
        k(   55) = (   0.0714286   0.5361110   0.1544402), wk =   0.0174927
        k(   56) = (   0.0714286   0.5361110   0.2316602), wk =   0.0174927
        k(   57) = (   0.1428571   0.2474358   0.0000000), wk =   0.0043732
        k(   58) = (   0.1428571   0.2474358   0.0772201), wk =   0.0087464
        k(   59) = (   0.1428571   0.2474358   0.1544402), wk =   0.0087464
        k(   60) = (   0.1428571   0.2474358   0.2316602), wk =   0.0087464
        k(   61) = (   0.1428571   0.3299144   0.0000000), wk =   0.0087464
        k(   62) = (   0.1428571   0.3299144   0.0772201), wk =   0.0174927
        k(   63) = (   0.1428571   0.3299144   0.1544402), wk =   0.0174927
        k(   64) = (   0.1428571   0.3299144   0.2316602), wk =   0.0174927
        k(   65) = (   0.1428571   0.4123930   0.0000000), wk =   0.0087464
        k(   66) = (   0.1428571   0.4123930   0.0772201), wk =   0.0174927
        k(   67) = (   0.1428571   0.4123930   0.1544402), wk =   0.0174927
        k(   68) = (   0.1428571   0.4123930   0.2316602), wk =   0.0174927
        k(   69) = (   0.1428571   0.4948717   0.0000000), wk =   0.0087464
        k(   70) = (   0.1428571   0.4948717   0.0772201), wk =   0.0174927
        k(   71) = (   0.1428571   0.4948717   0.1544402), wk =   0.0174927
        k(   72) = (   0.1428571   0.4948717   0.2316602), wk =   0.0174927
        k(   73) = (   0.1428571   0.5773503   0.0000000), wk =   0.0043732
        k(   74) = (   0.1428571   0.5773503   0.0772201), wk =   0.0087464
        k(   75) = (   0.1428571   0.5773503   0.1544402), wk =   0.0087464
        k(   76) = (   0.1428571   0.5773503   0.2316602), wk =   0.0087464
        k(   77) = (   0.2142857   0.3711537   0.0000000), wk =   0.0043732
        k(   78) = (   0.2142857   0.3711537   0.0772201), wk =   0.0087464
        k(   79) = (   0.2142857   0.3711537   0.1544402), wk =   0.0087464
        k(   80) = (   0.2142857   0.3711537   0.2316602), wk =   0.0087464
        k(   81) = (   0.2142857   0.4536324   0.0000000), wk =   0.0087464
        k(   82) = (   0.2142857   0.4536324   0.0772201), wk =   0.0174927
        k(   83) = (   0.2142857   0.4536324   0.1544402), wk =   0.0174927
        k(   84) = (   0.2142857   0.4536324   0.2316602), wk =   0.0174927
        k(   85) = (   0.2142857   0.5361110   0.0000000), wk =   0.0087464
        k(   86) = (   0.2142857   0.5361110   0.0772201), wk =   0.0174927
        k(   87) = (   0.2142857   0.5361110   0.1544402), wk =   0.0174927
        k(   88) = (   0.2142857   0.5361110   0.2316602), wk =   0.0174927
        k(   89) = (   0.2857143   0.4948717   0.0000000), wk =   0.0043732
        k(   90) = (   0.2857143   0.4948717   0.0772201), wk =   0.0087464
        k(   91) = (   0.2857143   0.4948717   0.1544402), wk =   0.0087464
        k(   92) = (   0.2857143   0.4948717   0.2316602), wk =   0.0087464
        k(   93) = (   0.2857143   0.5773503   0.0000000), wk =   0.0043732
        k(   94) = (   0.2857143   0.5773503   0.0772201), wk =   0.0087464
        k(   95) = (   0.2857143   0.5773503   0.1544402), wk =   0.0087464
        k(   96) = (   0.2857143   0.5773503   0.2316602), wk =   0.0087464

                       cryst. coord.
        k(    1) = (   0.0000000   0.0000000   0.0000000), wk =   0.0007289
        k(    2) = (   0.0000000   0.0000000   0.1428571), wk =   0.0014577
        k(    3) = (   0.0000000   0.0000000   0.2857143), wk =   0.0014577
        k(    4) = (   0.0000000   0.0000000   0.4285714), wk =   0.0014577
        k(    5) = (   0.0000000   0.0714286   0.0000000), wk =   0.0043732
        k(    6) = (   0.0000000   0.0714286   0.1428571), wk =   0.0087464
        k(    7) = (   0.0000000   0.0714286   0.2857143), wk =   0.0087464
        k(    8) = (   0.0000000   0.0714286   0.4285714), wk =   0.0087464
        k(    9) = (   0.0000000   0.1428571   0.0000000), wk =   0.0043732
        k(   10) = (   0.0000000   0.1428571   0.1428571), wk =   0.0087464
        k(   11) = (   0.0000000   0.1428571   0.2857143), wk =   0.0087464
        k(   12) = (   0.0000000   0.1428571   0.4285714), wk =   0.0087464
        k(   13) = (   0.0000000   0.2142857   0.0000000), wk =   0.0043732
        k(   14) = (   0.0000000   0.2142857   0.1428571), wk =   0.0087464
        k(   15) = (   0.0000000   0.2142857   0.2857143), wk =   0.0087464
        k(   16) = (   0.0000000   0.2142857   0.4285714), wk =   0.0087464
        k(   17) = (   0.0000000   0.2857143   0.0000000), wk =   0.0043732
        k(   18) = (   0.0000000   0.2857143   0.1428571), wk =   0.0087464
        k(   19) = (   0.0000000   0.2857143   0.2857143), wk =   0.0087464
        k(   20) = (   0.0000000   0.2857143   0.4285714), wk =   0.0087464
        k(   21) = (   0.0000000   0.3571429   0.0000000), wk =   0.0043732
        k(   22) = (   0.0000000   0.3571429   0.1428571), wk =   0.0087464
        k(   23) = (   0.0000000   0.3571429   0.2857143), wk =   0.0087464
        k(   24) = (   0.0000000   0.3571429   0.4285714), wk =   0.0087464
        k(   25) = (   0.0000000   0.4285714   0.0000000), wk =   0.0043732
        k(   26) = (   0.0000000   0.4285714   0.1428571), wk =   0.0087464
        k(   27) = (   0.0000000   0.4285714   0.2857143), wk =   0.0087464
        k(   28) = (   0.0000000   0.4285714   0.4285714), wk =   0.0087464
        k(   29) = (   0.0000000  -0.5000000   0.0000000), wk =   0.0021866
        k(   30) = (   0.0000000  -0.5000000   0.1428571), wk =   0.0043732
        k(   31) = (   0.0000000  -0.5000000   0.2857143), wk =   0.0043732
        k(   32) = (   0.0000000  -0.5000000   0.4285714), wk =   0.0043732
        k(   33) = (   0.0714286   0.0714286   0.0000000), wk =   0.0043732
        k(   34) = (   0.0714286   0.0714286   0.1428571), wk =   0.0087464
        k(   35) = (   0.0714286   0.0714286   0.2857143), wk =   0.0087464
        k(   36) = (   0.0714286   0.0714286   0.4285714), wk =   0.0087464
        k(   37) = (   0.0714286   0.1428571   0.0000000), wk =   0.0087464
        k(   38) = (   0.0714286   0.1428571   0.1428571), wk =   0.0174927
        k(   39) = (   0.0714286   0.1428571   0.2857143), wk =   0.0174927
        k(   40) = (   0.0714286   0.1428571   0.4285714), wk =   0.0174927
        k(   41) = (   0.0714286   0.2142857   0.0000000), wk =   0.0087464
        k(   42) = (   0.0714286   0.2142857   0.1428571), wk =   0.0174927
        k(   43) = (   0.0714286   0.2142857   0.2857143), wk =   0.0174927
        k(   44) = (   0.0714286   0.2142857   0.4285714), wk =   0.0174927
        k(   45) = (   0.0714286   0.2857143   0.0000000), wk =   0.0087464
        k(   46) = (   0.0714286   0.2857143   0.1428571), wk =   0.0174927
        k(   47) = (   0.0714286   0.2857143   0.2857143), wk =   0.0174927
        k(   48) = (   0.0714286   0.2857143   0.4285714), wk =   0.0174927
        k(   49) = (   0.0714286   0.3571429   0.0000000), wk =   0.0087464
        k(   50) = (   0.0714286   0.3571429   0.1428571), wk =   0.0174927
        k(   51) = (   0.0714286   0.3571429   0.2857143), wk =   0.0174927
        k(   52) = (   0.0714286   0.3571429   0.4285714), wk =   0.0174927
        k(   53) = (   0.0714286   0.4285714   0.0000000), wk =   0.0087464
        k(   54) = (   0.0714286   0.4285714   0.1428571), wk =   0.0174927
        k(   55) = (   0.0714286   0.4285714   0.2857143), wk =   0.0174927
        k(   56) = (   0.0714286   0.4285714   0.4285714), wk =   0.0174927
        k(   57) = (   0.1428571   0.1428571   0.0000000), wk =   0.0043732
        k(   58) = (   0.1428571   0.1428571   0.1428571), wk =   0.0087464
        k(   59) = (   0.1428571   0.1428571   0.2857143), wk =   0.0087464
        k(   60) = (   0.1428571   0.1428571   0.4285714), wk =   0.0087464
        k(   61) = (   0.1428571   0.2142857   0.0000000), wk =   0.0087464
        k(   62) = (   0.1428571   0.2142857   0.1428571), wk =   0.0174927
        k(   63) = (   0.1428571   0.2142857   0.2857143), wk =   0.0174927
        k(   64) = (   0.1428571   0.2142857   0.4285714), wk =   0.0174927
        k(   65) = (   0.1428571   0.2857143   0.0000000), wk =   0.0087464
        k(   66) = (   0.1428571   0.2857143   0.1428571), wk =   0.0174927
        k(   67) = (   0.1428571   0.2857143   0.2857143), wk =   0.0174927
        k(   68) = (   0.1428571   0.2857143   0.4285714), wk =   0.0174927
        k(   69) = (   0.1428571   0.3571429   0.0000000), wk =   0.0087464
        k(   70) = (   0.1428571   0.3571429   0.1428571), wk =   0.0174927
        k(   71) = (   0.1428571   0.3571429   0.2857143), wk =   0.0174927
        k(   72) = (   0.1428571   0.3571429   0.4285714), wk =   0.0174927
        k(   73) = (   0.1428571   0.4285714   0.0000000), wk =   0.0043732
        k(   74) = (   0.1428571   0.4285714   0.1428571), wk =   0.0087464
        k(   75) = (   0.1428571   0.4285714   0.2857143), wk =   0.0087464
        k(   76) = (   0.1428571   0.4285714   0.4285714), wk =   0.0087464
        k(   77) = (   0.2142857   0.2142857   0.0000000), wk =   0.0043732
        k(   78) = (   0.2142857   0.2142857   0.1428571), wk =   0.0087464
        k(   79) = (   0.2142857   0.2142857   0.2857143), wk =   0.0087464
        k(   80) = (   0.2142857   0.2142857   0.4285714), wk =   0.0087464
        k(   81) = (   0.2142857   0.2857143   0.0000000), wk =   0.0087464
        k(   82) = (   0.2142857   0.2857143   0.1428571), wk =   0.0174927
        k(   83) = (   0.2142857   0.2857143   0.2857143), wk =   0.0174927
        k(   84) = (   0.2142857   0.2857143   0.4285714), wk =   0.0174927
        k(   85) = (   0.2142857   0.3571429   0.0000000), wk =   0.0087464
        k(   86) = (   0.2142857   0.3571429   0.1428571), wk =   0.0174927
        k(   87) = (   0.2142857   0.3571429   0.2857143), wk =   0.0174927
        k(   88) = (   0.2142857   0.3571429   0.4285714), wk =   0.0174927
        k(   89) = (   0.2857143   0.2857143   0.0000000), wk =   0.0043732
        k(   90) = (   0.2857143   0.2857143   0.1428571), wk =   0.0087464
        k(   91) = (   0.2857143   0.2857143   0.2857143), wk =   0.0087464
        k(   92) = (   0.2857143   0.2857143   0.4285714), wk =   0.0087464
        k(   93) = (   0.2857143   0.3571429   0.0000000), wk =   0.0043732
        k(   94) = (   0.2857143   0.3571429   0.1428571), wk =   0.0087464
        k(   95) = (   0.2857143   0.3571429   0.2857143), wk =   0.0087464
        k(   96) = (   0.2857143   0.3571429   0.4285714), wk =   0.0087464

     Dense  grid:    15763 G-vectors     FFT dimensions: (  27,  27,  50)

     Dynamical RAM for                 wfc:       0.03 MB

     Dynamical RAM for     wfc (w. buffer):       3.34 MB

     Dynamical RAM for           str. fact:       0.02 MB

     Dynamical RAM for           local pot:       0.00 MB

     Dynamical RAM for          nlocal pot:       0.08 MB

     Dynamical RAM for                qrad:       1.34 MB

     Dynamical RAM for          rho,v,vnew:       0.24 MB

     Dynamical RAM for               rhoin:       0.08 MB

     Dynamical RAM for            rho*nmix:       0.55 MB

     Dynamical RAM for           G-vectors:       0.07 MB

     Dynamical RAM for          h,s,v(r/c):       0.05 MB

     Dynamical RAM for          <psi|beta>:       0.01 MB

     Dynamical RAM for                 psi:       0.07 MB

     Dynamical RAM for                hpsi:       0.07 MB

     Dynamical RAM for                spsi:       0.07 MB

     Dynamical RAM for      wfcinit/wfcrot:       0.09 MB

     Dynamical RAM for           addusdens:       1.64 MB

     Estimated static dynamical RAM per process >       5.33 MB

     Estimated max dynamical RAM per process >       7.53 MB

     Estimated total dynamical RAM >     203.09 MB

     Check: negative core charge=   -0.000003
     Generating pointlists ...
     new r_m :   0.4125 (alat units)  2.0625 (a.u.) for type    1

     Initial potential from superposition of free atoms

     starting charge      23.9926, renormalised to      24.0000
     Starting wfcs are   18 randomized atomic wfcs
     Checking if some PAW data can be deallocated... 

     total cpu time spent up to now is        0.6 secs

     Self-consistent Calculation

     iteration #  1     ecut=    70.00 Ry     beta= 0.70
     Davidson diagonalization with overlap

---- Real-time Memory Report at c_bands before calling an iterative solver
            58 MiB given to the printing process from OS
             0 MiB allocation reported by mallinfo(arena+hblkhd)
        166872 MiB available memory on the node where the printing process lives
------------------
     ethr =  1.00E-02,  avg # of iterations =  3.3

     Threshold (ethr) on eigenvalues was too large:
     Diagonalizing with lowered threshold

     Davidson diagonalization with overlap

---- Real-time Memory Report at c_bands before calling an iterative solver
            58 MiB given to the printing process from OS
             0 MiB allocation reported by mallinfo(arena+hblkhd)
        166821 MiB available memory on the node where the printing process lives
------------------
     ethr =  1.88E-05,  avg # of iterations =  6.5

     total cpu time spent up to now is        2.6 secs

     total energy              =    -487.44596672 Ry
     estimated scf accuracy    <       0.00435960 Ry

     total magnetization       =    -0.00 Bohr mag/cell
     absolute magnetization    =     0.00 Bohr mag/cell

     iteration #  2     ecut=    70.00 Ry     beta= 0.70
     Davidson diagonalization with overlap

---- Real-time Memory Report at c_bands before calling an iterative solver
            75 MiB given to the printing process from OS
             0 MiB allocation reported by mallinfo(arena+hblkhd)
        166748 MiB available memory on the node where the printing process lives
------------------
     ethr =  1.82E-05,  avg # of iterations =  2.0

     total cpu time spent up to now is        3.6 secs

     total energy              =    -487.44613078 Ry
     estimated scf accuracy    <       0.00181136 Ry

     total magnetization       =    -0.00 Bohr mag/cell
     absolute magnetization    =     0.00 Bohr mag/cell

     iteration #  3     ecut=    70.00 Ry     beta= 0.70
     Davidson diagonalization with overlap

---- Real-time Memory Report at c_bands before calling an iterative solver
            76 MiB given to the printing process from OS
             0 MiB allocation reported by mallinfo(arena+hblkhd)
        166730 MiB available memory on the node where the printing process lives
------------------
     ethr =  7.55E-06,  avg # of iterations =  2.0

     total cpu time spent up to now is        4.5 secs

     total energy              =    -487.44663270 Ry
     estimated scf accuracy    <       0.00035046 Ry

     total magnetization       =    -0.00 Bohr mag/cell
     absolute magnetization    =     0.00 Bohr mag/cell

     iteration #  4     ecut=    70.00 Ry     beta= 0.70
     Davidson diagonalization with overlap

---- Real-time Memory Report at c_bands before calling an iterative solver
            76 MiB given to the printing process from OS
             0 MiB allocation reported by mallinfo(arena+hblkhd)
        166719 MiB available memory on the node where the printing process lives
------------------
     ethr =  1.46E-06,  avg # of iterations =  2.2
 
     Magnetic moment per site  (integrated on atomic sphere of radius R)
     atom   1 (R=0.413)  charge= 10.6851  magn= -0.0001
     atom   2 (R=0.413)  charge= 10.6851  magn= -0.0001

     total cpu time spent up to now is        5.2 secs

     End of self-consistent calculation

 ------ SPIN UP ------------


          k = 0.0000 0.0000 0.0000 (  1993 PWs)   bands (ev):

     0.8594   2.8021   3.5541   3.7939   3.7939   3.8478   3.8478   4.1866
     4.1866   4.4098   4.4098   7.7195   8.5040  25.3796  29.0788  29.0789

     occupation numbers 
     1.0000   1.0000   1.0000   1.0000   1.0000   1.0000   1.0000   1.0000
     1.0000   1.0000   1.0000   1.0000   1.0000   0.0000   0.0000   0.0000

          k = 0.0000 0.0000 0.0772 (  1999 PWs)   bands (ev):

     0.9860   2.7859   3.5557   3.7920   3.7920   3.8418   3.8418   4.2022
     4.2022   4.4022   4.4022   6.3472  10.1549  23.3902  29.2056  29.2057

     occupation numbers 
     1.0000   1.0000   1.0000   1.0000   1.0000   1.0000   1.0000   1.0000
     1.0000   1.0000   1.0000   1.0000   1.0000   0.0000   0.0000   0.0000

          k = 0.0000 0.0000 0.1544 (  1999 PWs)   bands (ev):

     1.3527   2.7045   3.5750   3.7904   3.7904   3.8265   3.8265   4.2424
     4.2424   4.3792   4.3792   4.9776  12.3894  20.4445  29.5721  29.5723

     occupation numbers 
     1.0000   1.0000   1.0000   1.0000   1.0000   1.0000   1.0000   1.0000
     1.0000   1.0000   1.0000   1.0000   0.0000   0.0000   0.0000   0.0000

          k = 0.0000 0.0000 0.2317 (  2004 PWs)   bands (ev):

     1.8996   2.4330   3.6770   3.7954   3.7954   3.8086   3.8086   4.0606
     4.2931   4.2931   4.3415   4.3415  14.8703  17.5673  30.1185  30.1195

     occupation numbers 
     1.0000   1.0000   1.0000   1.0000   1.0000   1.0000   1.0000   1.0000
     1.0000   1.0000   1.0000   1.0000   0.0000   0.0000   0.0000   0.0000

          k = 0.0000 0.0825 0.0000 (  1985 PWs)   bands (ev):

     1.0129   2.8706   3.5697   3.7788   3.8309   3.8310   3.8830   4.1523
     4.1718   4.3182   4.4118   7.9708   8.5821  25.5464  26.5368  27.7661

     occupation numbers 
     1.0000   1.0000   1.0000   1.0000   1.0000   1.0000   1.0000   1.0000
     1.0000   1.0000   1.0000   1.0000   1.0000   0.0000   0.0000   0.0000

          k = 0.0000 0.0825 0.0772 (  1994 PWs)   bands (ev):

     1.1385   2.8586   3.5703   3.7745   3.8234   3.8286   3.8768   4.1723
     4.1888   4.3016   4.4034   6.5404  10.2971  23.5313  26.6861  27.9000

     occupation numbers 
     1.0000   1.0000   1.0000   1.0000   1.0000   1.0000   1.0000   1.0000
     1.0000   1.0000   1.0000   1.0000   1.0000   0.0000   0.0000   0.0000

          k = 0.0000 0.0825 0.1544 (  1998 PWs)   bands (ev):

     1.5021   2.7925   3.5834   3.7694   3.8041   3.8260   3.8612   4.2036
     4.2319   4.2512   4.3783   5.2042  12.5345  20.5846  27.0673  28.2977

     occupation numbers 
     1.0000   1.0000   1.0000   1.0000   1.0000   1.0000   1.0000   1.0000
     1.0000   1.0000   1.0000   1.0000   0.0000   0.0000   0.0000   0.0000

          k = 0.0000 0.0825 0.2317 (  2009 PWs)   bands (ev):

     2.0404   2.5505   3.6607   3.7751   3.7805   3.8303   3.8433   3.9565
     4.2861   4.3165   4.3378   4.4901  15.0143  17.7093  27.6906  28.5499

     occupation numbers 
     1.0000   1.0000   1.0000   1.0000   1.0000   1.0000   1.0000   1.0000
     1.0000   1.0000   1.0000   1.0000   0.0000   0.0000   0.0000   0.0000

          k = 0.0000 0.1650 0.0000 (  1993 PWs)   bands (ev):

     1.4629   3.0444   3.5961   3.7472   3.8164   3.9362   3.9827   4.0066
     4.1329   4.1645   4.4148   8.6501   8.8346  23.1249  26.0000  26.0738

     occupation numbers 
     1.0000   1.0000   1.0000   1.0000   1.0000   1.0000   1.0000   1.0000
     1.0000   1.0000   1.0000   1.0000   1.0000   0.0000   0.0000   0.0000

          k = 0.0000 0.1650 0.0772 (  1978 PWs)   bands (ev):

     1.5847   3.0432   3.5979   3.7348   3.7962   3.9314   3.9756   4.0176
     4.1546   4.1703   4.4046   7.0364  10.7306  23.2037  24.0161  26.2159

     occupation numbers 
     1.0000   1.0000   1.0000   1.0000   1.0000   1.0000   1.0000   1.0000
     1.0000   1.0000   1.0000   1.0000   1.0000   0.0000   0.0000   0.0000

          k = 0.0000 0.1650 0.1544 (  2006 PWs)   bands (ev):

     1.9338   3.0167   3.6012   3.7148   3.7564   3.9253   3.9590   3.9750
     4.2064   4.2328   4.3747   5.6759  12.9692  20.9844  23.6820  26.3007

     occupation numbers 
     1.0000   1.0000   1.0000   1.0000   1.0000   1.0000   1.0000   1.0000
     1.0000   1.0000   1.0000   1.0000   0.0000   0.0000   0.0000   0.0000

          k = 0.0000 0.1650 0.2317 (  2001 PWs)   bands (ev):

     2.4345   2.8599   3.6185   3.6816   3.7477   3.8396   3.9279   3.9407
     4.2686   4.3277   4.3958   4.7884  15.4424  18.1277  24.3101  25.1904

     occupation numbers 
     1.0000   1.0000   1.0000   1.0000   1.0000   1.0000   1.0000   1.0000
     1.0000   1.0000   1.0000   1.0000   0.0000   0.0000   0.0000   0.0000

          k = 0.0000 0.2474 0.0000 (  1979 PWs)   bands (ev):

     2.1561   3.2059   3.6310   3.7133   3.7680   3.9275   4.0546   4.0810
     4.0925   4.1300   4.4148   9.3115   9.6426  19.8501  24.5796  25.5402

     occupation numbers 
     1.0000   1.0000   1.0000   1.0000   1.0000   1.0000   1.0000   1.0000
     1.0000   1.0000   1.0000   1.0000   1.0000   0.0000   0.0000   0.0000

          k = 0.0000 0.2474 0.0772 (  1971 PWs)   bands (ev):

     2.2620   3.2144   3.6290   3.6875   3.7599   3.9192   4.0602   4.1039
     4.1134   4.1409   4.4030   7.7548  11.4652  19.9735  24.5346  24.7269

     occupation numbers 
     1.0000   1.0000   1.0000   1.0000   1.0000   1.0000   1.0000   1.0000
     1.0000   1.0000   1.0000   1.0000   0.0000   0.0000   0.0000   0.0000

          k = 0.0000 0.2474 0.1544 (  1981 PWs)   bands (ev):

     2.5523   3.2253   3.6048   3.6285   3.7608   3.8947   4.0521   4.1002
     4.1940   4.2569   4.3693   6.3381  13.6879  20.2942  21.7698  23.0798

     occupation numbers 
     1.0000   1.0000   1.0000   1.0000   1.0000   1.0000   1.0000   1.0000
     1.0000   1.0000   1.0000   1.0000   0.0000   0.0000   0.0000   0.0000

          k = 0.0000 0.2474 0.2317 (  1992 PWs)   bands (ev):

     2.9185   3.1666   3.5608   3.5737   3.7977   3.8509   4.0601   4.0787
     4.2570   4.3183   4.5909   5.2641  16.1383  18.7695  21.1063  21.9620

     occupation numbers 
     1.0000   1.0000   1.0000   1.0000   1.0000   1.0000   1.0000   1.0000
     1.0000   1.0000   1.0000   1.0000   0.0000   0.0000   0.0000   0.0000

          k = 0.0000 0.3299 0.0000 (  1982 PWs)   bands (ev):

     2.8378   3.2123   3.5516   3.7221   3.8444   3.9521   4.0273   4.2717
     4.2937   4.2987   4.4112  10.0730  10.8808  16.8041  22.5650  23.3532

     occupation numbers 
     1.0000   1.0000   1.0000   1.0000   1.0000   1.0000   1.0000   1.0000
     1.0000   1.0000   1.0000   1.0000   1.0000   0.0000   0.0000   0.0000

          k = 0.0000 0.3299 0.0772 (  1985 PWs)   bands (ev):

     2.8815   3.2214   3.5463   3.6778   3.8113   4.0412   4.0971   4.2740
     4.2907   4.3108   4.4015   8.7079  12.4911  16.9310  21.4084  23.5056

     occupation numbers 
     1.0000   1.0000   1.0000   1.0000   1.0000   1.0000   1.0000   1.0000
     1.0000   1.0000   1.0000   1.0000   0.0000   0.0000   0.0000   0.0000

          k = 0.0000 0.3299 0.1544 (  1974 PWs)   bands (ev):

     2.9884   3.2358   3.5216   3.5622   3.8988   4.0803   4.1646   4.2501
     4.2966   4.3772   4.5701   7.2634  14.6640  17.3039  20.0935  22.5227

     occupation numbers 
     1.0000   1.0000   1.0000   1.0000   1.0000   1.0000   1.0000   1.0000
     1.0000   1.0000   1.0000   1.0000   0.0000   0.0000   0.0000   0.0000

          k = 0.0000 0.3299 0.2317 (  1980 PWs)   bands (ev):

     3.1120   3.2089   3.4847   3.4984   4.0107   4.1057   4.1367   4.1982
     4.3192   4.3475   5.1749   6.0774  16.9917  17.8544  19.0621  19.9250

     occupation numbers 
     1.0000   1.0000   1.0000   1.0000   1.0000   1.0000   1.0000   1.0000
     1.0000   1.0000   1.0000   1.0000   0.0000   0.0000   0.0000   0.0000

          k = 0.0000 0.4124 0.0000 (  1982 PWs)   bands (ev):

     3.0545   3.1525   3.3924   3.8348   3.8630   3.9812   4.0817   4.4058
     4.4375   4.4572   5.3249  11.1072  12.3262  14.0819  19.7820  20.8449

     occupation numbers 
     1.0000   1.0000   1.0000   1.0000   1.0000   1.0000   1.0000   1.0000
     1.0000   1.0000   1.0000   1.0000   0.0000   0.0000   0.0000   0.0000

          k = 0.0000 0.4124 0.0772 (  1980 PWs)   bands (ev):

     3.0502   3.1476   3.4134   3.6968   3.9181   3.9998   4.2022   4.3758
     4.4399   4.4640   5.4129   9.9112  13.6869  14.2537  18.6937  22.5928

     occupation numbers 
     1.0000   1.0000   1.0000   1.0000   1.0000   1.0000   1.0000   1.0000
     1.0000   1.0000   1.0000   1.0000   0.0000   0.0000   0.0000   0.0000

          k = 0.0000 0.4124 0.1544 (  1973 PWs)   bands (ev):

     3.0529   3.1499   3.4265   3.5281   4.0447   4.0528   4.3083   4.3134
     4.4463   4.4675   5.7366   8.4910  14.5238  15.7008  17.5896  22.8471

     occupation numbers 
     1.0000   1.0000   1.0000   1.0000   1.0000   1.0000   1.0000   1.0000
     1.0000   1.0000   1.0000   1.0000   0.0000   0.0000   0.0000   0.0000

          k = 0.0000 0.4124 0.2317 (  1967 PWs)   bands (ev):

     3.0869   3.1344   3.4153   3.4314   4.1312   4.1936   4.2217   4.3009
     4.4550   4.4633   6.3670   7.2954  15.1439  15.9131  18.6061  20.9629

     occupation numbers 
     1.0000   1.0000   1.0000   1.0000   1.0000   1.0000   1.0000   1.0000
     1.0000   1.0000   1.0000   1.0000   0.0000   0.0000   0.0000   0.0000

          k = 0.0000 0.4949 0.0000 (  1984 PWs)   bands (ev):

     3.0352   3.1160   3.2973   3.8021   3.9190   3.9503   4.2233   4.4011
     4.5529   4.5726   6.9210  11.0355  13.0770  13.9115  17.3051  18.5769

     occupation numbers 
     1.0000   1.0000   1.0000   1.0000   1.0000   1.0000   1.0000   1.0000
     1.0000   1.0000   1.0000   1.0000   0.0000   0.0000   0.0000   0.0000

          k = 0.0000 0.4949 0.0772 (  1986 PWs)   bands (ev):

     3.0389   3.0821   3.3341   3.6818   3.9710   3.9785   4.3100   4.3762
     4.5545   4.5728   7.0240  10.7733  12.3135  14.9134  16.6661  19.7781

     occupation numbers 
     1.0000   1.0000   1.0000   1.0000   1.0000   1.0000   1.0000   1.0000
     1.0000   1.0000   1.0000   1.0000   0.0000   0.0000   0.0000   0.0000

          k = 0.0000 0.4949 0.1544 (  1974 PWs)   bands (ev):

     3.0270   3.0738   3.3636   3.5026   4.0297   4.1196   4.3088   4.4076
     4.5584   4.5717   7.3539   9.8355  12.2518  14.5003  17.8404  21.4794

     occupation numbers 
     1.0000   1.0000   1.0000   1.0000   1.0000   1.0000   1.0000   1.0000
     1.0000   1.0000   1.0000   1.0000   0.0000   0.0000   0.0000   0.0000

          k = 0.0000 0.4949 0.2317 (  1969 PWs)   bands (ev):

     3.0381   3.0689   3.3632   3.3890   4.1164   4.2158   4.2860   4.4000
     4.5635   4.5684   7.9429   8.7910  12.7436  13.5297  19.9609  21.8625

     occupation numbers 
     1.0000   1.0000   1.0000   1.0000   1.0000   1.0000   1.0000   1.0000
     1.0000   1.0000   1.0000   1.0000   0.0000   0.0000   0.0000   0.0000

          k = 0.0000-0.5774 0.0000 (  1962 PWs)   bands (ev):

     3.0160   3.1022   3.2659   3.7804   3.9394   3.9491   4.2689   4.3993
     4.5940   4.6153   8.5389   9.2794  14.1650  15.0283  15.7125  17.2317

     occupation numbers 
     1.0000   1.0000   1.0000   1.0000   1.0000   1.0000   1.0000   1.0000
     1.0000   1.0000   1.0000   1.0000   0.0000   0.0000   0.0000   0.0000

          k = 0.0000-0.5774 0.0772 (  1962 PWs)   bands (ev):

     3.0253   3.0574   3.3077   3.6716   3.9607   4.0008   4.3489   4.3747
     4.5955   4.6144   8.6450   9.3332  13.5069  13.7639  17.2534  18.1139

     occupation numbers 
     1.0000   1.0000   1.0000   1.0000   1.0000   1.0000   1.0000   1.0000
     1.0000   1.0000   1.0000   1.0000   0.0000   0.0000   0.0000   0.0000

          k = 0.0000-0.5774 0.1544 (  1968 PWs)   bands (ev):

     3.0140   3.0440   3.3418   3.4924   4.0212   4.1425   4.3071   4.4413
     4.5991   4.6118   8.9495   9.4746  12.4499  12.5458  19.2855  19.8380

     occupation numbers 
     1.0000   1.0000   1.0000   1.0000   1.0000   1.0000   1.0000   1.0000
     1.0000   1.0000   1.0000   1.0000   0.0000   0.0000   0.0000   0.0000

          k = 0.0000-0.5774 0.2317 (  1964 PWs)   bands (ev):

     3.0182   3.0444   3.3446   3.3741   4.1104   4.2123   4.3136   4.4315
     4.6035   4.6080   9.3590   9.5764  11.7217  11.7708  21.2539  21.5241

     occupation numbers 
     1.0000   1.0000   1.0000   1.0000   1.0000   1.0000   1.0000   1.0000
     1.0000   1.0000   1.0000   1.0000   0.0000   0.0000   0.0000   0.0000

          k = 0.0714 0.1237 0.0000 (  1997 PWs)   bands (ev):

     1.3151   2.9938   3.5902   3.7585   3.7974   3.9069   3.9582   4.0850
     4.1025   4.2218   4.4106   8.4335   8.7477  24.8167  24.9638  25.8623

     occupation numbers 
     1.0000   1.0000   1.0000   1.0000   1.0000   1.0000   1.0000   1.0000
     1.0000   1.0000   1.0000   1.0000   1.0000   0.0000   0.0000   0.0000

          k = 0.0714 0.1237 0.0772 (  1986 PWs)   bands (ev):

     1.4385   2.9894   3.5914   3.7461   3.7863   3.9028   3.9511   4.0851
     4.1344   4.2176   4.4015   6.8806  10.5853  23.7811  24.9483  25.1614

     occupation numbers 
     1.0000   1.0000   1.0000   1.0000   1.0000   1.0000   1.0000   1.0000
     1.0000   1.0000   1.0000   1.0000   1.0000   0.0000   0.0000   0.0000

          k = 0.0714 0.1237 0.1544 (  1997 PWs)   bands (ev):

     1.7937   2.9511   3.5972   3.7295   3.7570   3.8968   3.9348   4.0321
     4.2183   4.2317   4.3750   5.5334  12.8247  20.8574  25.3411  25.5243

     occupation numbers 
     1.0000   1.0000   1.0000   1.0000   1.0000   1.0000   1.0000   1.0000
     1.0000   1.0000   1.0000   1.0000   0.0000   0.0000   0.0000   0.0000

          k = 0.0714 0.1237 0.2317 (  2000 PWs)   bands (ev):

     2.3099   2.7668   3.6318   3.7111   3.7427   3.8498   3.9109   3.9174
     4.2773   4.3227   4.3723   4.6972  15.3005  17.9900  25.9870  26.1473

     occupation numbers 
     1.0000   1.0000   1.0000   1.0000   1.0000   1.0000   1.0000   1.0000
     1.0000   1.0000   1.0000   1.0000   0.0000   0.0000   0.0000   0.0000

          k = 0.0714 0.2062 0.0000 (  1981 PWs)   bands (ev):

     1.8942   3.1805   3.5921   3.7278   3.8078   3.8685   4.0294   4.0482
     4.1082   4.1561   4.4062   9.1148   9.2613  21.5493  23.4304  26.3048

     occupation numbers 
     1.0000   1.0000   1.0000   1.0000   1.0000   1.0000   1.0000   1.0000
     1.0000   1.0000   1.0000   1.0000   1.0000   0.0000   0.0000   0.0000

          k = 0.0714 0.2062 0.0772 (  1982 PWs)   bands (ev):

     2.0091   3.1874   3.5994   3.7043   3.7640   3.8811   4.0336   4.0770
     4.1027   4.1764   4.3970   7.4776  11.1715  21.6684  23.5253  24.4147

     occupation numbers 
     1.0000   1.0000   1.0000   1.0000   1.0000   1.0000   1.0000   1.0000
     1.0000   1.0000   1.0000   1.0000   1.0000   0.0000   0.0000   0.0000

          k = 0.0714 0.2062 0.1544 (  1990 PWs)   bands (ev):

     2.3332   3.1911   3.6123   3.6531   3.7002   3.8545   4.0208   4.0796
     4.2032   4.2325   4.3736   6.0816  13.4028  21.2947  22.1927  23.9966

     occupation numbers 
     1.0000   1.0000   1.0000   1.0000   1.0000   1.0000   1.0000   1.0000
     1.0000   1.0000   1.0000   1.0000   0.0000   0.0000   0.0000   0.0000

          k = 0.0714 0.2062 0.2317 (  1992 PWs)   bands (ev):

     2.7738   3.1037   3.5870   3.6004   3.7048   3.7767   4.0319   4.0549
     4.2665   4.3136   4.5088   5.0729  15.8652  18.5326  22.7566  23.6381

     occupation numbers 
     1.0000   1.0000   1.0000   1.0000   1.0000   1.0000   1.0000   1.0000
     1.0000   1.0000   1.0000   1.0000   0.0000   0.0000   0.0000   0.0000

          k = 0.0714 0.2887 0.0000 (  1983 PWs)   bands (ev):

     2.6315   3.2737   3.6448   3.6573   3.7069   3.9510   3.9605   4.0849
     4.2236   4.3491   4.4001   9.7429  10.3682  18.3904  22.1983  24.1372

     occupation numbers 
     1.0000   1.0000   1.0000   1.0000   1.0000   1.0000   1.0000   1.0000
     1.0000   1.0000   1.0000   1.0000   1.0000   0.0000   0.0000   0.0000

          k = 0.0714 0.2887 0.0772 (  1977 PWs)   bands (ev):

     2.7108   3.2860   3.6128   3.6633   3.6928   3.9342   4.0460   4.0838
     4.2401   4.3254   4.4141   8.3083  12.0576  18.5170  22.3265  22.9734

     occupation numbers 
     1.0000   1.0000   1.0000   1.0000   1.0000   1.0000   1.0000   1.0000
     1.0000   1.0000   1.0000   1.0000   0.0000   0.0000   0.0000   0.0000

          k = 0.0714 0.2887 0.1544 (  1980 PWs)   bands (ev):

     2.9110   3.3104   3.5513   3.6005   3.7463   3.9063   4.0834   4.2210
     4.2464   4.3193   4.4874   6.8732  14.2576  18.8824  21.6468  22.1368

     occupation numbers 
     1.0000   1.0000   1.0000   1.0000   1.0000   1.0000   1.0000   1.0000
     1.0000   1.0000   1.0000   1.0000   0.0000   0.0000   0.0000   0.0000

          k = 0.0714 0.2887 0.2317 (  1979 PWs)   bands (ev):

     3.1326   3.2820   3.5105   3.5460   3.8065   3.8622   4.1203   4.1799
     4.3066   4.3351   4.9108   5.7267  16.6746  19.0219  19.9380  20.5417

     occupation numbers 
     1.0000   1.0000   1.0000   1.0000   1.0000   1.0000   1.0000   1.0000
     1.0000   1.0000   1.0000   1.0000   0.0000   0.0000   0.0000   0.0000

          k = 0.0714 0.3712 0.0000 (  1985 PWs)   bands (ev):

     3.0798   3.2247   3.4659   3.7839   3.8775   3.9020   4.0136   4.2266
     4.3911   4.3927   4.9318  10.6751  11.7059  15.4862  21.2196  21.2569

     occupation numbers 
     1.0000   1.0000   1.0000   1.0000   1.0000   1.0000   1.0000   1.0000
     1.0000   1.0000   1.0000   1.0000   0.0000   0.0000   0.0000   0.0000

          k = 0.0714 0.3712 0.0772 (  1977 PWs)   bands (ev):

     3.0835   3.2312   3.4815   3.6776   3.8434   4.0195   4.1019   4.2217
     4.3638   4.4035   4.9950   9.3994  13.2144  15.6140  20.1085  21.3689

     occupation numbers 
     1.0000   1.0000   1.0000   1.0000   1.0000   1.0000   1.0000   1.0000
     1.0000   1.0000   1.0000   1.0000   0.0000   0.0000   0.0000   0.0000

          k = 0.0714 0.3712 0.1544 (  1971 PWs)   bands (ev):

     3.1074   3.2444   3.4832   3.5393   3.9226   4.0615   4.1764   4.2886
     4.3122   4.4236   5.2628   7.9644  15.3180  15.9967  18.8290  21.7518

     occupation numbers 
     1.0000   1.0000   1.0000   1.0000   1.0000   1.0000   1.0000   1.0000
     1.0000   1.0000   1.0000   1.0000   0.0000   0.0000   0.0000   0.0000

          k = 0.0714 0.3712 0.2317 (  1972 PWs)   bands (ev):

     3.1620   3.2255   3.4554   3.4749   4.0324   4.1064   4.1407   4.2031
     4.3986   4.4303   5.8569   6.7710  16.5825  17.0788  18.3490  20.4905

     occupation numbers 
     1.0000   1.0000   1.0000   1.0000   1.0000   1.0000   1.0000   1.0000
     1.0000   1.0000   1.0000   1.0000   0.0000   0.0000   0.0000   0.0000

          k = 0.0714 0.4536 0.0000 (  1971 PWs)   bands (ev):

     3.1022   3.1800   3.3460   3.8198   3.8866   3.9568   4.1134   4.3856
     4.4346   4.5133   6.2350  11.6528  13.1488  13.2331  18.5993  19.7593

     occupation numbers 
     1.0000   1.0000   1.0000   1.0000   1.0000   1.0000   1.0000   1.0000
     1.0000   1.0000   1.0000   0.0000   0.0000   0.0000   0.0000   0.0000

          k = 0.0714 0.4536 0.0772 (  1984 PWs)   bands (ev):

     3.1010   3.1538   3.3851   3.6855   3.9228   3.9954   4.2197   4.3587
     4.4324   4.5172   6.3355  10.6758  13.0405  14.5949  17.6010  20.7020

     occupation numbers 
     1.0000   1.0000   1.0000   1.0000   1.0000   1.0000   1.0000   1.0000
     1.0000   1.0000   1.0000   1.0000   0.0000   0.0000   0.0000   0.0000

          k = 0.0714 0.4536 0.1544 (  1979 PWs)   bands (ev):

     3.0884   3.1529   3.4143   3.5150   3.9837   4.1056   4.2882   4.3337
     4.4345   4.5232   6.6664   9.3277  13.3860  15.5913  17.3639  21.1144

     occupation numbers 
     1.0000   1.0000   1.0000   1.0000   1.0000   1.0000   1.0000   1.0000
     1.0000   1.0000   1.0000   1.0000   0.0000   0.0000   0.0000   0.0000

          k = 0.0714 0.4536 0.2317 (  1972 PWs)   bands (ev):

     3.1063   3.1450   3.4051   3.4175   4.0811   4.1883   4.2310   4.3199
     4.4781   4.5140   7.2749   8.1705  13.9867  14.8030  19.3375  21.4478

     occupation numbers 
     1.0000   1.0000   1.0000   1.0000   1.0000   1.0000   1.0000   1.0000
     1.0000   1.0000   1.0000   1.0000   0.0000   0.0000   0.0000   0.0000

          k = 0.0714 0.5361 0.0000 (  1970 PWs)   bands (ev):

     3.0640   3.1552   3.2866   3.7880   3.9256   3.9441   4.2187   4.3814
     4.5416   4.5694   7.9813  10.1611  13.8358  14.7788  16.3610  17.7556

     occupation numbers 
     1.0000   1.0000   1.0000   1.0000   1.0000   1.0000   1.0000   1.0000
     1.0000   1.0000   1.0000   1.0000   0.0000   0.0000   0.0000   0.0000

          k = 0.0714 0.5361 0.0772 (  1978 PWs)   bands (ev):

     3.0730   3.1065   3.3366   3.6772   3.9194   4.0188   4.3048   4.3552
     4.5385   4.5687   8.0857  10.1902  12.8795  14.6375  16.8849  18.8535

     occupation numbers 
     1.0000   1.0000   1.0000   1.0000   1.0000   1.0000   1.0000   1.0000
     1.0000   1.0000   1.0000   1.0000   0.0000   0.0000   0.0000   0.0000

          k = 0.0714 0.5361 0.1544 (  1978 PWs)   bands (ev):

     3.0596   3.0970   3.3742   3.5021   3.9715   4.1576   4.2829   4.4147
     4.5279   4.5641   8.4049  10.1255  11.9703  13.5581  18.7270  20.6386

     occupation numbers 
     1.0000   1.0000   1.0000   1.0000   1.0000   1.0000   1.0000   1.0000
     1.0000   1.0000   1.0000   1.0000   0.0000   0.0000   0.0000   0.0000

          k = 0.0714 0.5361 0.2317 (  1982 PWs)   bands (ev):

     3.0670   3.0971   3.3718   3.3914   4.0686   4.1804   4.3136   4.4224
     4.5298   4.5507   8.9378   9.6156  11.9440  12.5814  20.7785  21.4364

     occupation numbers 
     1.0000   1.0000   1.0000   1.0000   1.0000   1.0000   1.0000   1.0000
     1.0000   1.0000   1.0000   1.0000   0.0000   0.0000   0.0000   0.0000

          k = 0.1429 0.2474 0.0000 (  1973 PWs)   bands (ev):

     2.5497   3.3493   3.5369   3.6928   3.7153   3.8317   3.9284   4.1245
     4.2177   4.3680   4.3859   9.6393  10.1939  20.0998  20.3496  25.9136

     occupation numbers 
     1.0000   1.0000   1.0000   1.0000   1.0000   1.0000   1.0000   1.0000
     1.0000   1.0000   1.0000   1.0000   1.0000   0.0000   0.0000   0.0000

          k = 0.1429 0.2474 0.0772 (  1973 PWs)   bands (ev):

     2.6419   3.3650   3.5468   3.6391   3.7465   3.7618   4.0326   4.0997
     4.2466   4.3196   4.4236   8.1781  11.9139  20.2338  20.4673  24.6595

     occupation numbers 
     1.0000   1.0000   1.0000   1.0000   1.0000   1.0000   1.0000   1.0000
     1.0000   1.0000   1.0000   1.0000   0.0000   0.0000   0.0000   0.0000

          k = 0.1429 0.2474 0.1544 (  1978 PWs)   bands (ev):

     2.8853   3.4058   3.5553   3.5776   3.6707   3.7470   4.0819   4.2116
     4.2593   4.2909   4.5018   6.7504  14.1215  20.6333  20.7337  22.2498

     occupation numbers 
     1.0000   1.0000   1.0000   1.0000   1.0000   1.0000   1.0000   1.0000
     1.0000   1.0000   1.0000   1.0000   0.0000   0.0000   0.0000   0.0000

          k = 0.1429 0.2474 0.2317 (  1981 PWs)   bands (ev):

     3.1743   3.3847   3.5088   3.5803   3.6323   3.6981   4.1110   4.1734
     4.3238   4.3270   4.8592   5.6270  16.5555  19.1523  21.2911  21.6627

     occupation numbers 
     1.0000   1.0000   1.0000   1.0000   1.0000   1.0000   1.0000   1.0000
     1.0000   1.0000   1.0000   1.0000   0.0000   0.0000   0.0000   0.0000

          k = 0.1429 0.3299 0.0000 (  1987 PWs)   bands (ev):

     3.1748   3.3712   3.5312   3.6072   3.7433   3.8528   3.9573   4.0598
     4.3653   4.3820   4.8816  10.4645  11.3909  17.1896  19.1667  22.9650

     occupation numbers 
     1.0000   1.0000   1.0000   1.0000   1.0000   1.0000   1.0000   1.0000
     1.0000   1.0000   1.0000   1.0000   0.7048   0.0000   0.0000   0.0000

          k = 0.1429 0.3299 0.0772 (  1976 PWs)   bands (ev):

     3.1942   3.3867   3.5158   3.6111   3.7075   3.8801   4.0374   4.0569
     4.3365   4.3969   4.9330   9.1513  12.9475  17.3189  19.2966  21.7966

     occupation numbers 
     1.0000   1.0000   1.0000   1.0000   1.0000   1.0000   1.0000   1.0000
     1.0000   1.0000   1.0000   1.0000   0.0000   0.0000   0.0000   0.0000

          k = 0.1429 0.3299 0.1544 (  1974 PWs)   bands (ev):

     3.2427   3.4291   3.4603   3.6180   3.7016   3.8582   4.0535   4.2465
     4.2646   4.4238   5.1465   7.7193  15.1034  17.6997  19.6727  20.4756

     occupation numbers 
     1.0000   1.0000   1.0000   1.0000   1.0000   1.0000   1.0000   1.0000
     1.0000   1.0000   1.0000   1.0000   0.0000   0.0000   0.0000   0.0000

          k = 0.1429 0.3299 0.2317 (  1976 PWs)   bands (ev):

     3.3071   3.3797   3.5024   3.5715   3.7529   3.8107   4.0956   4.1744
     4.3895   4.4332   5.6707   6.5445  17.4202  18.2736  19.4164  19.9395

     occupation numbers 
     1.0000   1.0000   1.0000   1.0000   1.0000   1.0000   1.0000   1.0000
     1.0000   1.0000   1.0000   1.0000   0.0000   0.0000   0.0000   0.0000

          k = 0.1429 0.4124 0.0000 (  1987 PWs)   bands (ev):

     3.2698   3.3275   3.4110   3.8056   3.8382   3.8918   3.9801   4.1629
     4.3485   4.4913   5.9256  11.5836  12.8131  14.4604  18.3737  20.1943

     occupation numbers 
     1.0000   1.0000   1.0000   1.0000   1.0000   1.0000   1.0000   1.0000
     1.0000   1.0000   1.0000   0.0000   0.0000   0.0000   0.0000   0.0000

          k = 0.1429 0.4124 0.0772 (  1981 PWs)   bands (ev):

     3.2605   3.3026   3.4675   3.6551   3.8352   3.9934   4.0715   4.1579
     4.3202   4.4998   6.0199  10.4007  14.1703  14.6292  18.5067  19.0885

     occupation numbers 
     1.0000   1.0000   1.0000   1.0000   1.0000   1.0000   1.0000   1.0000
     1.0000   1.0000   1.0000   1.0000   0.0000   0.0000   0.0000   0.0000

          k = 0.1429 0.4124 0.1544 (  1983 PWs)   bands (ev):

     3.2347   3.3220   3.4828   3.5416   3.8647   4.0298   4.1231   4.2426
     4.2879   4.5123   6.3355   8.9970  14.9312  16.1698  17.9449  18.9024

     occupation numbers 
     1.0000   1.0000   1.0000   1.0000   1.0000   1.0000   1.0000   1.0000
     1.0000   1.0000   1.0000   1.0000   0.0000   0.0000   0.0000   0.0000

          k = 0.1429 0.4124 0.2317 (  1978 PWs)   bands (ev):

     3.2517   3.3045   3.4576   3.5011   3.9537   4.0408   4.1030   4.1560
     4.4298   4.4992   6.9309   7.8251  15.5585  16.3530  18.9107  19.5086

     occupation numbers 
     1.0000   1.0000   1.0000   1.0000   1.0000   1.0000   1.0000   1.0000
     1.0000   1.0000   1.0000   1.0000   0.0000   0.0000   0.0000   0.0000

          k = 0.1429 0.4949 0.0000 (  1976 PWs)   bands (ev):

     3.2022   3.3009   3.3394   3.7894   3.9080   3.9276   4.0584   4.3372
     4.3556   4.5239   7.4860  11.5703  13.4607  14.3966  17.6978  17.8984

     occupation numbers 
     1.0000   1.0000   1.0000   1.0000   1.0000   1.0000   1.0000   1.0000
     1.0000   1.0000   1.0000   0.0000   0.0000   0.0000   0.0000   0.0000

          k = 0.1429 0.4949 0.0772 (  1985 PWs)   bands (ev):

     3.2101   3.2335   3.4216   3.6755   3.8610   4.0140   4.1629   4.3077
     4.3492   4.5270   7.5952  11.3623  12.6536  15.4192  17.0173  18.0243

     occupation numbers 
     1.0000   1.0000   1.0000   1.0000   1.0000   1.0000   1.0000   1.0000
     1.0000   1.0000   1.0000   1.0000   0.0000   0.0000   0.0000   0.0000

          k = 0.1429 0.4949 0.1544 (  1979 PWs)   bands (ev):

     3.1839   3.2445   3.4700   3.5180   3.8760   4.1233   4.2214   4.3079
     4.3339   4.5270   7.9346  10.4260  12.6056  14.9518  18.2095  18.4258

     occupation numbers 
     1.0000   1.0000   1.0000   1.0000   1.0000   1.0000   1.0000   1.0000
     1.0000   1.0000   1.0000   1.0000   0.0000   0.0000   0.0000   0.0000

          k = 0.1429 0.4949 0.2317 (  1980 PWs)   bands (ev):

     3.1978   3.2426   3.4347   3.4535   3.9728   4.0992   4.2230   4.2864
     4.4294   4.5004   8.5262   9.3734  13.1318  13.9465  19.0716  19.7740

     occupation numbers 
     1.0000   1.0000   1.0000   1.0000   1.0000   1.0000   1.0000   1.0000
     1.0000   1.0000   1.0000   1.0000   0.0000   0.0000   0.0000   0.0000

          k = 0.1429 0.5774 0.0000 (  1970 PWs)   bands (ev):

     3.1768   3.2857   3.3158   3.7918   3.8741   3.9573   4.1156   4.3332
     4.4667   4.4877   9.1729   9.6943  14.6731  15.5516  16.0482  17.7240

     occupation numbers 
     1.0000   1.0000   1.0000   1.0000   1.0000   1.0000   1.0000   1.0000
     1.0000   1.0000   1.0000   1.0000   0.0000   0.0000   0.0000   0.0000

          k = 0.1429 0.5774 0.0772 (  1975 PWs)   bands (ev):

     3.1890   3.2083   3.4038   3.6850   3.8411   4.0396   4.2005   4.3035
     4.4637   4.4860   9.2891   9.7679  13.9804  14.1872  17.6730  17.8653

     occupation numbers 
     1.0000   1.0000   1.0000   1.0000   1.0000   1.0000   1.0000   1.0000
     1.0000   1.0000   1.0000   1.0000   0.0000   0.0000   0.0000   0.0000

          k = 0.1429 0.5774 0.1544 (  1977 PWs)   bands (ev):

     3.1647   3.2164   3.4539   3.5212   3.8619   4.1777   4.2140   4.3175
     4.4547   4.4742   9.6193   9.9757  12.8734  12.9200  18.2637  19.7254

     occupation numbers 
     1.0000   1.0000   1.0000   1.0000   1.0000   1.0000   1.0000   1.0000
     1.0000   1.0000   1.0000   1.0000   0.0000   0.0000   0.0000   0.0000

          k = 0.1429 0.5774 0.2317 (  1982 PWs)   bands (ev):

     3.1779   3.2192   3.4281   3.4373   3.9633   4.0941   4.3120   4.3741
     4.4391   4.4397  10.0535  10.2019  12.0618  12.0868  18.9184  19.7719

     occupation numbers 
     1.0000   1.0000   1.0000   1.0000   1.0000   1.0000   1.0000   1.0000
     1.0000   1.0000   1.0000   1.0000   0.0000   0.0000   0.0000   0.0000

          k = 0.2143 0.3712 0.0000 (  1997 PWs)   bands (ev):

     3.4201   3.4453   3.4873   3.6481   3.7861   3.8071   3.9997   4.0155
     4.3266   4.4873   5.8494  11.5111  12.6715  16.1437  16.4197  21.9816

     occupation numbers 
     1.0000   1.0000   1.0000   1.0000   1.0000   1.0000   1.0000   1.0000
     1.0000   1.0000   1.0000   0.0000   0.0000   0.0000   0.0000   0.0000

          k = 0.2143 0.3712 0.0772 (  1990 PWs)   bands (ev):

     3.4069   3.4340   3.5427   3.5441   3.7930   3.8662   3.9958   4.0836
     4.2982   4.4973   5.9406  10.2975  14.1133  16.2767  16.5484  20.7440

     occupation numbers 
     1.0000   1.0000   1.0000   1.0000   1.0000   1.0000   1.0000   1.0000
     1.0000   1.0000   1.0000   1.0000   0.0000   0.0000   0.0000   0.0000

          k = 0.2143 0.3712 0.1544 (  1981 PWs)   bands (ev):

     3.3732   3.4251   3.4912   3.6173   3.7593   3.8715   4.0028   4.2192
     4.2733   4.5120   6.2469   8.8880  16.1714  16.6766  16.9263  19.3772

     occupation numbers 
     1.0000   1.0000   1.0000   1.0000   1.0000   1.0000   1.0000   1.0000
     1.0000   1.0000   1.0000   1.0000   0.0000   0.0000   0.0000   0.0000

          k = 0.2143 0.3712 0.2317 (  1973 PWs)   bands (ev):

     3.3604   3.3748   3.5521   3.6177   3.7734   3.8305   4.0458   4.1265
     4.4256   4.4993   6.8312   7.7182  17.3231  17.5113  17.8795  18.2321

     occupation numbers 
     1.0000   1.0000   1.0000   1.0000   1.0000   1.0000   1.0000   1.0000
     1.0000   1.0000   1.0000   1.0000   0.0000   0.0000   0.0000   0.0000

          k = 0.2143 0.4536 0.0000 (  1989 PWs)   bands (ev):

     3.3889   3.3921   3.4771   3.7608   3.8353   3.9069   3.9187   4.1470
     4.2963   4.5084   7.2603  12.7072  13.8337  14.1721  15.6599  19.4240

     occupation numbers 
     1.0000   1.0000   1.0000   1.0000   1.0000   1.0000   1.0000   1.0000
     1.0000   1.0000   1.0000   0.0000   0.0000   0.0000   0.0000   0.0000

          k = 0.2143 0.4536 0.0772 (  1984 PWs)   bands (ev):

     3.3567   3.4044   3.5302   3.6370   3.8225   3.9504   3.9952   4.1706
     4.2664   4.5153   7.3711  11.6904  13.8166  15.4951  15.7968  18.3603

     occupation numbers 
     1.0000   1.0000   1.0000   1.0000   1.0000   1.0000   1.0000   1.0000
     1.0000   1.0000   1.0000   0.0000   0.0000   0.0000   0.0000   0.0000

          k = 0.2143 0.4536 0.1544 (  1978 PWs)   bands (ev):

     3.3284   3.4436   3.4908   3.6177   3.7806   3.9829   4.0426   4.1889
     4.2894   4.5220   7.7165  10.3431  14.1826  16.1747  16.5431  17.8799

     occupation numbers 
     1.0000   1.0000   1.0000   1.0000   1.0000   1.0000   1.0000   1.0000
     1.0000   1.0000   1.0000   1.0000   0.0000   0.0000   0.0000   0.0000

          k = 0.2143 0.4536 0.2317 (  1973 PWs)   bands (ev):

     3.3379   3.3898   3.5162   3.5876   3.8471   3.9482   4.0605   4.1095
     4.4211   4.4988   8.3222   9.2016  14.8074  15.6569  16.8278  17.6595

     occupation numbers 
     1.0000   1.0000   1.0000   1.0000   1.0000   1.0000   1.0000   1.0000
     1.0000   1.0000   1.0000   1.0000   0.0000   0.0000   0.0000   0.0000

          k = 0.2143 0.5361 0.0000 (  1977 PWs)   bands (ev):

     3.3515   3.3677   3.4619   3.7791   3.8395   3.9270   3.9615   4.2800
     4.3032   4.4514   9.0285  11.1207  14.7086  15.3356  15.7552  17.1506

     occupation numbers 
     1.0000   1.0000   1.0000   1.0000   1.0000   1.0000   1.0000   1.0000
     1.0000   1.0000   1.0000   1.0000   0.0000   0.0000   0.0000   0.0000

          k = 0.2143 0.5361 0.0772 (  1975 PWs)   bands (ev):

     3.3297   3.3659   3.5262   3.6799   3.7798   3.9995   4.0364   4.2488
     4.3084   4.4574   9.1438  11.1996  13.7004  15.4094  15.6391  17.6196

     occupation numbers 
     1.0000   1.0000   1.0000   1.0000   1.0000   1.0000   1.0000   1.0000
     1.0000   1.0000   1.0000   1.0000   0.0000   0.0000   0.0000   0.0000

          k = 0.2143 0.5361 0.1544 (  1978 PWs)   bands (ev):

     3.3042   3.4027   3.5384   3.6005   3.7425   4.0555   4.1199   4.1892
     4.3357   4.4647   9.4906  11.2962  12.6507  14.4132  15.8728  18.3747

     occupation numbers 
     1.0000   1.0000   1.0000   1.0000   1.0000   1.0000   1.0000   1.0000
     1.0000   1.0000   1.0000   1.0000   0.0000   0.0000   0.0000   0.0000

          k = 0.2143 0.5361 0.2317 (  1972 PWs)   bands (ev):

     3.3259   3.3917   3.4939   3.5576   3.8418   3.9773   4.1567   4.1798
     4.3971   4.4489  10.0636  10.8050  12.6404  13.3734  16.5174  17.3919

     occupation numbers 
     1.0000   1.0000   1.0000   1.0000   1.0000   1.0000   1.0000   1.0000
     1.0000   1.0000   1.0000   1.0000   0.0000   0.0000   0.0000   0.0000

          k = 0.2857 0.4949 0.0000 (  1983 PWs)   bands (ev):

     3.3975   3.4911   3.5538   3.7508   3.7965   3.8445   3.9522   4.2016
     4.2556   4.4434   8.9112  12.8720  13.2386  14.7212  15.7366  18.7694

     occupation numbers 
     1.0000   1.0000   1.0000   1.0000   1.0000   1.0000   1.0000   1.0000
     1.0000   1.0000   1.0000   0.0000   0.0000   0.0000   0.0000   0.0000

          k = 0.2857 0.4949 0.0772 (  1979 PWs)   bands (ev):

     3.3966   3.5001   3.5826   3.6449   3.8043   3.8856   3.9744   4.2242
     4.2293   4.4520   9.0294  12.7692  13.3725  13.8306  16.7110  17.6681

     occupation numbers 
     1.0000   1.0000   1.0000   1.0000   1.0000   1.0000   1.0000   1.0000
     1.0000   1.0000   1.0000   0.0000   0.0000   0.0000   0.0000   0.0000

          k = 0.2857 0.4949 0.1544 (  1966 PWs)   bands (ev):

     3.3996   3.5075   3.5621   3.6586   3.7322   3.9237   4.0055   4.1488
     4.3082   4.4641   9.3879  11.9005  13.7321  13.7677  16.2952  16.3037

     occupation numbers 
     1.0000   1.0000   1.0000   1.0000   1.0000   1.0000   1.0000   1.0000
     1.0000   1.0000   1.0000   0.0000   0.0000   0.0000   0.0000   0.0000

          k = 0.2857 0.4949 0.2317 (  1971 PWs)   bands (ev):

     3.4158   3.4539   3.5922   3.6532   3.7716   3.8758   4.0351   4.0766
     4.3973   4.4520   9.9938  10.8461  14.2703  14.3900  15.1949  15.3213

     occupation numbers 
     1.0000   1.0000   1.0000   1.0000   1.0000   1.0000   1.0000   1.0000
     1.0000   1.0000   1.0000   1.0000   0.0000   0.0000   0.0000   0.0000

          k = 0.2857 0.5774 0.0000 (  1974 PWs)   bands (ev):

     3.4041   3.5272   3.5859   3.7642   3.7740   3.7880   3.9804   4.2405
     4.2851   4.3552  10.8144  10.8953  12.9470  16.1116  17.0499  17.1721

     occupation numbers 
     1.0000   1.0000   1.0000   1.0000   1.0000   1.0000   1.0000   1.0000
     1.0000   1.0000   1.0000   1.0000   0.0000   0.0000   0.0000   0.0000

          k = 0.2857 0.5774 0.0772 (  1981 PWs)   bands (ev):

     3.4144   3.5328   3.5859   3.6873   3.7665   3.8457   3.9948   4.2086
     4.3023   4.3698  10.9436  10.9978  13.0620  15.3664  15.5088  17.3899

     occupation numbers 
     1.0000   1.0000   1.0000   1.0000   1.0000   1.0000   1.0000   1.0000
     1.0000   1.0000   1.0000   1.0000   0.0000   0.0000   0.0000   0.0000

          k = 0.2857 0.5774 0.1544 (  1979 PWs)   bands (ev):

     3.4344   3.5363   3.6018   3.6150   3.7582   3.8766   4.0181   4.1319
     4.3466   4.3987  11.3026  11.3139  13.3299  14.1861  14.2896  16.1814

     occupation numbers 
     1.0000   1.0000   1.0000   1.0000   1.0000   1.0000   1.0000   1.0000
     1.0000   1.0000   1.0000   1.0000   0.0000   0.0000   0.0000   0.0000

          k = 0.2857 0.5774 0.2317 (  1987 PWs)   bands (ev):

     3.4578   3.4976   3.6093   3.6199   3.7866   3.8516   4.0349   4.0631
     4.3925   4.4122  11.7542  11.8099  13.0286  13.2005  14.2853  15.1033

     occupation numbers 
     1.0000   1.0000   1.0000   1.0000   1.0000   1.0000   1.0000   1.0000
     1.0000   1.0000   0.0000   0.0000   0.0000   0.0000   0.0000   0.0000

 ------ SPIN DOWN ----------


          k = 0.0000 0.0000 0.0000 (  1993 PWs)   bands (ev):

     0.8589   2.8020   3.5540   3.7939   3.7939   3.8479   3.8479   4.1865
     4.1865   4.4097   4.4097   7.7186   8.5039  25.3794  29.0784  29.0784

     occupation numbers 
     1.0000   1.0000   1.0000   1.0000   1.0000   1.0000   1.0000   1.0000
     1.0000   1.0000   1.0000   1.0000   1.0000   0.0000   0.0000   0.0000

          k = 0.0000 0.0000 0.0772 (  1999 PWs)   bands (ev):

     0.9855   2.7858   3.5556   3.7921   3.7921   3.8418   3.8418   4.2021
     4.2021   4.4020   4.4020   6.3467  10.1545  23.3898  29.2052  29.2052

     occupation numbers 
     1.0000   1.0000   1.0000   1.0000   1.0000   1.0000   1.0000   1.0000
     1.0000   1.0000   1.0000   1.0000   1.0000   0.0000   0.0000   0.0000

          k = 0.0000 0.0000 0.1544 (  1999 PWs)   bands (ev):

     1.3523   2.7043   3.5749   3.7905   3.7905   3.8265   3.8265   4.2422
     4.2422   4.3790   4.3790   4.9771  12.3890  20.4440  29.5716  29.5719

     occupation numbers 
     1.0000   1.0000   1.0000   1.0000   1.0000   1.0000   1.0000   1.0000
     1.0000   1.0000   1.0000   1.0000   0.0000   0.0000   0.0000   0.0000

          k = 0.0000 0.0000 0.2317 (  2004 PWs)   bands (ev):

     1.8992   2.4327   3.6767   3.7954   3.7954   3.8087   3.8087   4.0603
     4.2930   4.2930   4.3414   4.3414  14.8699  17.5669  30.1181  30.1191

     occupation numbers 
     1.0000   1.0000   1.0000   1.0000   1.0000   1.0000   1.0000   1.0000
     1.0000   1.0000   1.0000   1.0000   0.0000   0.0000   0.0000   0.0000

          k = 0.0000 0.0825 0.0000 (  1985 PWs)   bands (ev):

     1.0124   2.8704   3.5696   3.7788   3.8310   3.8310   3.8831   4.1522
     4.1717   4.3181   4.4116   7.9698   8.5820  25.5461  26.5363  27.7656

     occupation numbers 
     1.0000   1.0000   1.0000   1.0000   1.0000   1.0000   1.0000   1.0000
     1.0000   1.0000   1.0000   1.0000   1.0000   0.0000   0.0000   0.0000

          k = 0.0000 0.0825 0.0772 (  1994 PWs)   bands (ev):

     1.1380   2.8585   3.5702   3.7745   3.8234   3.8286   3.8768   4.1721
     4.1886   4.3014   4.4032   6.5398  10.2967  23.5309  26.6856  27.8995

     occupation numbers 
     1.0000   1.0000   1.0000   1.0000   1.0000   1.0000   1.0000   1.0000
     1.0000   1.0000   1.0000   1.0000   1.0000   0.0000   0.0000   0.0000

          k = 0.0000 0.0825 0.1544 (  1998 PWs)   bands (ev):

     1.5017   2.7924   3.5833   3.7694   3.8041   3.8261   3.8613   4.2034
     4.2318   4.2511   4.3782   5.2038  12.5341  20.5842  27.0668  28.2973

     occupation numbers 
     1.0000   1.0000   1.0000   1.0000   1.0000   1.0000   1.0000   1.0000
     1.0000   1.0000   1.0000   1.0000   0.0000   0.0000   0.0000   0.0000

          k = 0.0000 0.0825 0.2317 (  2009 PWs)   bands (ev):

     2.0400   2.5502   3.6605   3.7751   3.7805   3.8303   3.8434   3.9563
     4.2859   4.3163   4.3376   4.4899  15.0138  17.7089  27.6902  28.5494

     occupation numbers 
     1.0000   1.0000   1.0000   1.0000   1.0000   1.0000   1.0000   1.0000
     1.0000   1.0000   1.0000   1.0000   0.0000   0.0000   0.0000   0.0000

          k = 0.0000 0.1650 0.0000 (  1993 PWs)   bands (ev):

     1.4624   3.0443   3.5960   3.7472   3.8165   3.9363   3.9828   4.0065
     4.1327   4.1643   4.4146   8.6492   8.8346  23.1244  25.9997  26.0734

     occupation numbers 
     1.0000   1.0000   1.0000   1.0000   1.0000   1.0000   1.0000   1.0000
     1.0000   1.0000   1.0000   1.0000   1.0000   0.0000   0.0000   0.0000

          k = 0.0000 0.1650 0.0772 (  1978 PWs)   bands (ev):

     1.5842   3.0431   3.5978   3.7349   3.7962   3.9315   3.9756   4.0174
     4.1545   4.1701   4.4044   7.0359  10.7301  23.2033  24.0157  26.2154

     occupation numbers 
     1.0000   1.0000   1.0000   1.0000   1.0000   1.0000   1.0000   1.0000
     1.0000   1.0000   1.0000   1.0000   1.0000   0.0000   0.0000   0.0000

          k = 0.0000 0.1650 0.1544 (  2006 PWs)   bands (ev):

     1.9334   3.0166   3.6010   3.7148   3.7564   3.9253   3.9591   3.9748
     4.2063   4.2326   4.3746   5.6755  12.9688  20.9840  23.6815  26.3002

     occupation numbers 
     1.0000   1.0000   1.0000   1.0000   1.0000   1.0000   1.0000   1.0000
     1.0000   1.0000   1.0000   1.0000   0.0000   0.0000   0.0000   0.0000

          k = 0.0000 0.1650 0.2317 (  2001 PWs)   bands (ev):

     2.4341   2.8597   3.6183   3.6815   3.7477   3.8395   3.9279   3.9408
     4.2685   4.3275   4.3956   4.7881  15.4419  18.1272  24.3097  25.1899

     occupation numbers 
     1.0000   1.0000   1.0000   1.0000   1.0000   1.0000   1.0000   1.0000
     1.0000   1.0000   1.0000   1.0000   0.0000   0.0000   0.0000   0.0000

          k = 0.0000 0.2474 0.0000 (  1979 PWs)   bands (ev):

[...]
     1.0000   1.0000   1.0000   1.0000   1.0000   0.0000   0.0000   0.0000

          k = 0.1429 0.2474 0.0772 (  1973 PWs)   bands (ev):

     2.6415   3.3649   3.5469   3.6389   3.7464   3.7617   4.0325   4.0995
     4.2467   4.3195   4.4235   8.1777  11.9133  20.2333  20.4669  24.6590

     occupation numbers 
     1.0000   1.0000   1.0000   1.0000   1.0000   1.0000   1.0000   1.0000
     1.0000   1.0000   1.0000   1.0000   0.0000   0.0000   0.0000   0.0000

          k = 0.1429 0.2474 0.1544 (  1978 PWs)   bands (ev):

     2.8849   3.4057   3.5552   3.5776   3.6706   3.7470   4.0818   4.2115
     4.2592   4.2909   4.5017   6.7500  14.1210  20.6328  20.7332  22.2493

     occupation numbers 
     1.0000   1.0000   1.0000   1.0000   1.0000   1.0000   1.0000   1.0000
     1.0000   1.0000   1.0000   1.0000   0.0000   0.0000   0.0000   0.0000

          k = 0.1429 0.2474 0.2317 (  1981 PWs)   bands (ev):

     3.1739   3.3845   3.5087   3.5803   3.6323   3.6981   4.1109   4.1733
     4.3238   4.3269   4.8589   5.6267  16.5550  19.1518  21.2906  21.6622

     occupation numbers 
     1.0000   1.0000   1.0000   1.0000   1.0000   1.0000   1.0000   1.0000
     1.0000   1.0000   1.0000   1.0000   0.0000   0.0000   0.0000   0.0000

          k = 0.1429 0.3299 0.0000 (  1987 PWs)   bands (ev):

     3.1745   3.3712   3.5309   3.6071   3.7432   3.8526   3.9572   4.0596
     4.3651   4.3821   4.8815  10.4645  11.3900  17.1891  19.1662  22.9649

     occupation numbers 
     1.0000   1.0000   1.0000   1.0000   1.0000   1.0000   1.0000   1.0000
     1.0000   1.0000   1.0000   1.0000   0.7952   0.0000   0.0000   0.0000

          k = 0.1429 0.3299 0.0772 (  1976 PWs)   bands (ev):

     3.1939   3.3867   3.5156   3.6110   3.7075   3.8801   4.0373   4.0567
     4.3364   4.3969   4.9329   9.1510  12.9470  17.3184  19.2961  21.7962

     occupation numbers 
     1.0000   1.0000   1.0000   1.0000   1.0000   1.0000   1.0000   1.0000
     1.0000   1.0000   1.0000   1.0000   0.0000   0.0000   0.0000   0.0000

          k = 0.1429 0.3299 0.1544 (  1974 PWs)   bands (ev):

     3.2425   3.4291   3.4601   3.6179   3.7016   3.8582   4.0534   4.2464
     4.2644   4.4238   5.1463   7.7189  15.1029  17.6992  19.6723  20.4752

     occupation numbers 
     1.0000   1.0000   1.0000   1.0000   1.0000   1.0000   1.0000   1.0000
     1.0000   1.0000   1.0000   1.0000   0.0000   0.0000   0.0000   0.0000

          k = 0.1429 0.3299 0.2317 (  1976 PWs)   bands (ev):

     3.3068   3.3795   3.5023   3.5715   3.7529   3.8107   4.0955   4.1743
     4.3895   4.4331   5.6704   6.5442  17.4197  18.2732  19.4160  19.9390

     occupation numbers 
     1.0000   1.0000   1.0000   1.0000   1.0000   1.0000   1.0000   1.0000
     1.0000   1.0000   1.0000   1.0000   0.0000   0.0000   0.0000   0.0000

          k = 0.1429 0.4124 0.0000 (  1987 PWs)   bands (ev):

     3.2698   3.3275   3.4108   3.8054   3.8382   3.8917   3.9799   4.1629
     4.3483   4.4914   5.9253  11.5836  12.8122  14.4600  18.3732  20.1942

     occupation numbers 
     1.0000   1.0000   1.0000   1.0000   1.0000   1.0000   1.0000   1.0000
     1.0000   1.0000   1.0000   0.0000   0.0000   0.0000   0.0000   0.0000

          k = 0.1429 0.4124 0.0772 (  1981 PWs)   bands (ev):

     3.2604   3.3025   3.4673   3.6549   3.8351   3.9933   4.0714   4.1579
     4.3201   4.4998   6.0196  10.4004  14.1697  14.6287  18.5062  19.0881

     occupation numbers 
     1.0000   1.0000   1.0000   1.0000   1.0000   1.0000   1.0000   1.0000
     1.0000   1.0000   1.0000   1.0000   0.0000   0.0000   0.0000   0.0000

          k = 0.1429 0.4124 0.1544 (  1983 PWs)   bands (ev):

     3.2345   3.3220   3.4826   3.5415   3.8646   4.0297   4.1231   4.2424
     4.2879   4.5123   6.3352   8.9966  14.9307  16.1693  17.9445  18.9019

     occupation numbers 
     1.0000   1.0000   1.0000   1.0000   1.0000   1.0000   1.0000   1.0000
     1.0000   1.0000   1.0000   1.0000   0.0000   0.0000   0.0000   0.0000

          k = 0.1429 0.4124 0.2317 (  1978 PWs)   bands (ev):

     3.2515   3.3044   3.4574   3.5010   3.9536   4.0407   4.1029   4.1559
     4.4297   4.4992   6.9305   7.8247  15.5580  16.3525  18.9102  19.5081

     occupation numbers 
     1.0000   1.0000   1.0000   1.0000   1.0000   1.0000   1.0000   1.0000
     1.0000   1.0000   1.0000   1.0000   0.0000   0.0000   0.0000   0.0000

          k = 0.1429 0.4949 0.0000 (  1976 PWs)   bands (ev):

     3.2022   3.3009   3.3392   3.7892   3.9078   3.9275   4.0584   4.3371
     4.3557   4.5239   7.4856  11.5699  13.4606  14.3957  17.6978  17.8979

     occupation numbers 
     1.0000   1.0000   1.0000   1.0000   1.0000   1.0000   1.0000   1.0000
     1.0000   1.0000   1.0000   0.0000   0.0000   0.0000   0.0000   0.0000

          k = 0.1429 0.4949 0.0772 (  1985 PWs)   bands (ev):

     3.2101   3.2334   3.4215   3.6753   3.8608   4.0138   4.1628   4.3076
     4.3492   4.5270   7.5948  11.3619  12.6532  15.4186  17.0169  18.0239

     occupation numbers 
     1.0000   1.0000   1.0000   1.0000   1.0000   1.0000   1.0000   1.0000
     1.0000   1.0000   1.0000   1.0000   0.0000   0.0000   0.0000   0.0000

          k = 0.1429 0.4949 0.1544 (  1979 PWs)   bands (ev):

     3.1838   3.2445   3.4699   3.5178   3.8758   4.1232   4.2213   4.3080
     4.3339   4.5270   7.9342  10.4256  12.6051  14.9513  18.2090  18.4253

     occupation numbers 
     1.0000   1.0000   1.0000   1.0000   1.0000   1.0000   1.0000   1.0000
     1.0000   1.0000   1.0000   1.0000   0.0000   0.0000   0.0000   0.0000

          k = 0.1429 0.4949 0.2317 (  1980 PWs)   bands (ev):

     3.1977   3.2426   3.4345   3.4534   3.9727   4.0991   4.2229   4.2864
     4.4293   4.5004   8.5258   9.3730  13.1313  13.9460  19.0712  19.7736

     occupation numbers 
     1.0000   1.0000   1.0000   1.0000   1.0000   1.0000   1.0000   1.0000
     1.0000   1.0000   1.0000   1.0000   0.0000   0.0000   0.0000   0.0000

          k = 0.1429 0.5774 0.0000 (  1970 PWs)   bands (ev):

     3.1768   3.2857   3.3156   3.7916   3.8739   3.9572   4.1155   4.3330
     4.4667   4.4877   9.1725   9.6939  14.6730  15.5507  16.0482  17.7235

     occupation numbers 
     1.0000   1.0000   1.0000   1.0000   1.0000   1.0000   1.0000   1.0000
     1.0000   1.0000   1.0000   1.0000   0.0000   0.0000   0.0000   0.0000

          k = 0.1429 0.5774 0.0772 (  1975 PWs)   bands (ev):

     3.1890   3.2082   3.4037   3.6848   3.8409   4.0395   4.2005   4.3034
     4.4638   4.4860   9.2887   9.7675  13.9801  14.1867  17.6726  17.8648

     occupation numbers 
     1.0000   1.0000   1.0000   1.0000   1.0000   1.0000   1.0000   1.0000
     1.0000   1.0000   1.0000   1.0000   0.0000   0.0000   0.0000   0.0000

          k = 0.1429 0.5774 0.1544 (  1977 PWs)   bands (ev):

     3.1646   3.2164   3.4538   3.5210   3.8617   4.1776   4.2138   4.3175
     4.4547   4.4742   9.6189   9.9752  12.8730  12.9195  18.2632  19.7250

     occupation numbers 
     1.0000   1.0000   1.0000   1.0000   1.0000   1.0000   1.0000   1.0000
     1.0000   1.0000   1.0000   1.0000   0.0000   0.0000   0.0000   0.0000

          k = 0.1429 0.5774 0.2317 (  1982 PWs)   bands (ev):

     3.1777   3.2192   3.4279   3.4372   3.9631   4.0939   4.3120   4.3742
     4.4391   4.4396  10.0531  10.2014  12.0614  12.0864  18.9180  19.7714

     occupation numbers 
     1.0000   1.0000   1.0000   1.0000   1.0000   1.0000   1.0000   1.0000
     1.0000   1.0000   1.0000   1.0000   0.0000   0.0000   0.0000   0.0000

          k = 0.2143 0.3712 0.0000 (  1997 PWs)   bands (ev):

     3.4200   3.4451   3.4873   3.6480   3.7860   3.8071   3.9995   4.0155
     4.3264   4.4873   5.8491  11.5111  12.6707  16.1432  16.4192  21.9815

     occupation numbers 
     1.0000   1.0000   1.0000   1.0000   1.0000   1.0000   1.0000   1.0000
     1.0000   1.0000   1.0000   0.0000   0.0000   0.0000   0.0000   0.0000

          k = 0.2143 0.3712 0.0772 (  1990 PWs)   bands (ev):

     3.4067   3.4340   3.5425   3.5440   3.7930   3.8661   3.9956   4.0835
     4.2981   4.4973   5.9403  10.2972  14.1127  16.2763  16.5479  20.7435

     occupation numbers 
     1.0000   1.0000   1.0000   1.0000   1.0000   1.0000   1.0000   1.0000
     1.0000   1.0000   1.0000   1.0000   0.0000   0.0000   0.0000   0.0000

          k = 0.2143 0.3712 0.1544 (  1981 PWs)   bands (ev):

     3.3730   3.4249   3.4913   3.6173   3.7592   3.8715   4.0027   4.2191
     4.2732   4.5120   6.2465   8.8877  16.1709  16.6761  16.9258  19.3768

     occupation numbers 
     1.0000   1.0000   1.0000   1.0000   1.0000   1.0000   1.0000   1.0000
     1.0000   1.0000   1.0000   1.0000   0.0000   0.0000   0.0000   0.0000

          k = 0.2143 0.3712 0.2317 (  1973 PWs)   bands (ev):

     3.3602   3.3746   3.5521   3.6177   3.7733   3.8304   4.0456   4.1264
     4.4256   4.4993   6.8308   7.7178  17.3226  17.5109  17.8790  18.2316

     occupation numbers 
     1.0000   1.0000   1.0000   1.0000   1.0000   1.0000   1.0000   1.0000
     1.0000   1.0000   1.0000   1.0000   0.0000   0.0000   0.0000   0.0000

          k = 0.2143 0.4536 0.0000 (  1989 PWs)   bands (ev):

     3.3889   3.3918   3.4771   3.7606   3.8352   3.9069   3.9186   4.1470
     4.2961   4.5084   7.2599  12.7071  13.8333  14.1712  15.6595  19.4239

     occupation numbers 
     1.0000   1.0000   1.0000   1.0000   1.0000   1.0000   1.0000   1.0000
     1.0000   1.0000   1.0000   0.0000   0.0000   0.0000   0.0000   0.0000

          k = 0.2143 0.4536 0.0772 (  1984 PWs)   bands (ev):

     3.3565   3.4043   3.5301   3.6369   3.8224   3.9503   3.9952   4.1706
     4.2662   4.5153   7.3707  11.6900  13.8161  15.4945  15.7963  18.3600

     occupation numbers 
     1.0000   1.0000   1.0000   1.0000   1.0000   1.0000   1.0000   1.0000
     1.0000   1.0000   1.0000   0.0000   0.0000   0.0000   0.0000   0.0000

          k = 0.2143 0.4536 0.1544 (  1978 PWs)   bands (ev):

     3.3282   3.4436   3.4906   3.6177   3.7805   3.9828   4.0426   4.1888
     4.2893   4.5220   7.7161  10.3427  14.1821  16.1743  16.5427  17.8794

     occupation numbers 
     1.0000   1.0000   1.0000   1.0000   1.0000   1.0000   1.0000   1.0000
     1.0000   1.0000   1.0000   1.0000   0.0000   0.0000   0.0000   0.0000

          k = 0.2143 0.4536 0.2317 (  1973 PWs)   bands (ev):

     3.3377   3.3896   3.5161   3.5876   3.8470   3.9481   4.0604   4.1094
     4.4210   4.4988   8.3218   9.2012  14.8070  15.6564  16.8273  17.6590

     occupation numbers 
     1.0000   1.0000   1.0000   1.0000   1.0000   1.0000   1.0000   1.0000
     1.0000   1.0000   1.0000   1.0000   0.0000   0.0000   0.0000   0.0000

          k = 0.2143 0.5361 0.0000 (  1977 PWs)   bands (ev):

     3.3515   3.3675   3.4619   3.7789   3.8393   3.9269   3.9614   4.2798
     4.3032   4.4513   9.0280  11.1203  14.7085  15.3351  15.7544  17.1505

     occupation numbers 
     1.0000   1.0000   1.0000   1.0000   1.0000   1.0000   1.0000   1.0000
     1.0000   1.0000   1.0000   1.0000   0.0000   0.0000   0.0000   0.0000

          k = 0.2143 0.5361 0.0772 (  1975 PWs)   bands (ev):

     3.3295   3.3659   3.5262   3.6798   3.7796   3.9995   4.0363   4.2487
     4.3084   4.4574   9.1434  11.1992  13.7000  15.4090  15.6386  17.6191

     occupation numbers 
     1.0000   1.0000   1.0000   1.0000   1.0000   1.0000   1.0000   1.0000
     1.0000   1.0000   1.0000   1.0000   0.0000   0.0000   0.0000   0.0000

          k = 0.2143 0.5361 0.1544 (  1978 PWs)   bands (ev):

     3.3041   3.4027   3.5382   3.6004   3.7424   4.0555   4.1199   4.1892
     4.3357   4.4646   9.4902  11.2958  12.6503  14.4128  15.8724  18.3743

     occupation numbers 
     1.0000   1.0000   1.0000   1.0000   1.0000   1.0000   1.0000   1.0000
     1.0000   1.0000   1.0000   1.0000   0.0000   0.0000   0.0000   0.0000

          k = 0.2143 0.5361 0.2317 (  1972 PWs)   bands (ev):

     3.3257   3.3916   3.4938   3.5576   3.8417   3.9772   4.1567   4.1799
     4.3971   4.4488  10.0632  10.8045  12.6400  13.3730  16.5169  17.3915

     occupation numbers 
     1.0000   1.0000   1.0000   1.0000   1.0000   1.0000   1.0000   1.0000
     1.0000   1.0000   1.0000   1.0000   0.0000   0.0000   0.0000   0.0000

          k = 0.2857 0.4949 0.0000 (  1983 PWs)   bands (ev):

     3.3973   3.4911   3.5538   3.7506   3.7964   3.8443   3.9522   4.2015
     4.2555   4.4433   8.9108  12.8716  13.2381  14.7211  15.7357  18.7694

     occupation numbers 
     1.0000   1.0000   1.0000   1.0000   1.0000   1.0000   1.0000   1.0000
     1.0000   1.0000   1.0000   0.0000   0.0000   0.0000   0.0000   0.0000

          k = 0.2857 0.4949 0.0772 (  1979 PWs)   bands (ev):

     3.3964   3.5001   3.5825   3.6448   3.8042   3.8856   3.9744   4.2241
     4.2292   4.4520   9.0290  12.7688  13.3721  13.8302  16.7105  17.6676

     occupation numbers 
     1.0000   1.0000   1.0000   1.0000   1.0000   1.0000   1.0000   1.0000
     1.0000   1.0000   1.0000   0.0000   0.0000   0.0000   0.0000   0.0000

          k = 0.2857 0.4949 0.1544 (  1966 PWs)   bands (ev):

     3.3994   3.5074   3.5621   3.6584   3.7321   3.9236   4.0055   4.1487
     4.3081   4.4641   9.3875  11.9001  13.7316  13.7672  16.2947  16.3033

     occupation numbers 
     1.0000   1.0000   1.0000   1.0000   1.0000   1.0000   1.0000   1.0000
     1.0000   1.0000   1.0000   0.0000   0.0000   0.0000   0.0000   0.0000

          k = 0.2857 0.4949 0.2317 (  1971 PWs)   bands (ev):

     3.4156   3.4537   3.5922   3.6532   3.7715   3.8758   4.0351   4.0766
     4.3972   4.4519   9.9933  10.8457  14.2699  14.3895  15.1944  15.3209

     occupation numbers 
     1.0000   1.0000   1.0000   1.0000   1.0000   1.0000   1.0000   1.0000
     1.0000   1.0000   1.0000   1.0000   0.0000   0.0000   0.0000   0.0000

          k = 0.2857 0.5774 0.0000 (  1974 PWs)   bands (ev):

     3.4038   3.5272   3.5858   3.7642   3.7738   3.7878   3.9804   4.2403
     4.2851   4.3551  10.8139  10.8948  12.9465  16.1115  17.0490  17.1720

     occupation numbers 
     1.0000   1.0000   1.0000   1.0000   1.0000   1.0000   1.0000   1.0000
     1.0000   1.0000   1.0000   1.0000   0.0000   0.0000   0.0000   0.0000

          k = 0.2857 0.5774 0.0772 (  1981 PWs)   bands (ev):

     3.4142   3.5328   3.5858   3.6872   3.7664   3.8456   3.9949   4.2085
     4.3023   4.3698  10.9432  10.9974  13.0616  15.3662  15.5083  17.3895

     occupation numbers 
     1.0000   1.0000   1.0000   1.0000   1.0000   1.0000   1.0000   1.0000
     1.0000   1.0000   1.0000   1.0000   0.0000   0.0000   0.0000   0.0000

          k = 0.2857 0.5774 0.1544 (  1979 PWs)   bands (ev):

     3.4342   3.5362   3.6016   3.6150   3.7582   3.8766   4.0181   4.1318
     4.3465   4.3986  11.3021  11.3135  13.3295  14.1857  14.2891  16.1810

     occupation numbers 
     1.0000   1.0000   1.0000   1.0000   1.0000   1.0000   1.0000   1.0000
     1.0000   1.0000   1.0000   1.0000   0.0000   0.0000   0.0000   0.0000

          k = 0.2857 0.5774 0.2317 (  1987 PWs)   bands (ev):

     3.4577   3.4974   3.6093   3.6198   3.7866   3.8516   4.0349   4.0630
     4.3924   4.4121  11.7538  11.8095  13.0281  13.2001  14.2848  15.1029

     occupation numbers 
     1.0000   1.0000   1.0000   1.0000   1.0000   1.0000   1.0000   1.0000
     1.0000   1.0000   0.0000   0.0000   0.0000   0.0000   0.0000   0.0000

     the Fermi energy is    11.3937 ev

!    total energy              =    -487.44668358 Ry
     total all-electron energy =     -7184.240729 Ry
     estimated scf accuracy    <       0.00000358 Ry
     smearing contrib. (-TS)   =      -0.00000075 Ry
     internal energy E=F+TS    =    -487.44668283 Ry

     The total energy is F=E-TS. E is the sum of the following terms:
     one-electron contribution =    -114.06665420 Ry
     hartree contribution      =      90.56485966 Ry
     xc contribution           =     -94.38714588 Ry
     ewald contribution        =    -178.68338100 Ry
     one-center paw contrib.   =    -190.87436139 Ry
      -> PAW hartree energy AE =     122.26229389 Ry
      -> PAW hartree energy PS =    -121.63948869 Ry
      -> PAW xc energy AE      =    -143.09711316 Ry
      -> PAW xc energy PS      =      47.03712727 Ry
      -> total E_H with PAW    =      91.18766485 Ry
      -> total E_XC with PAW   =    -190.44713178 Ry

     total magnetization       =    -0.00 Bohr mag/cell
     absolute magnetization    =     0.00 Bohr mag/cell

     convergence has been achieved in   4 iterations

     Writing all to output data dir ./out/Zn.save/
 
     init_run     :      0.39s CPU      0.44s WALL (       1 calls)
     electrons    :      4.27s CPU      4.68s WALL (       1 calls)

     Called by init_run:
     wfcinit      :      0.24s CPU      0.26s WALL (       1 calls)
     wfcinit:atom :      0.00s CPU      0.00s WALL (      96 calls)
     wfcinit:wfcr :      0.23s CPU      0.24s WALL (      96 calls)
     potinit      :      0.09s CPU      0.13s WALL (       1 calls)
     hinit0       :      0.04s CPU      0.04s WALL (       1 calls)

     Called by electrons:
     c_bands      :      3.35s CPU      3.64s WALL (       5 calls)
     sum_band     :      0.53s CPU      0.56s WALL (       5 calls)
     v_of_rho     :      0.02s CPU      0.02s WALL (       5 calls)
     v_h          :      0.00s CPU      0.00s WALL (       5 calls)
     v_xc         :      0.02s CPU      0.02s WALL (       5 calls)
     newd         :      0.01s CPU      0.01s WALL (       5 calls)
     PAW_pot      :      0.44s CPU      0.56s WALL (       5 calls)
     mix_rho      :      0.00s CPU      0.00s WALL (       5 calls)

     Called by c_bands:
     init_us_2    :      0.04s CPU      0.04s WALL (    1056 calls)
     init_us_2:cp :      0.04s CPU      0.04s WALL (    1056 calls)
     cegterg      :      3.11s CPU      3.29s WALL (     480 calls)

     Called by sum_band:
     sum_band:wei :      0.01s CPU      0.01s WALL (       5 calls)
     sum_band:loo :      0.49s CPU      0.52s WALL (       5 calls)
     sum_band:buf :      0.00s CPU      0.00s WALL (     480 calls)
     sum_band:ini :      0.02s CPU      0.02s WALL (     480 calls)
     sum_band:cal :      0.04s CPU      0.04s WALL (     480 calls)
     sum_band:bec :      0.00s CPU      0.00s WALL (     480 calls)
     addusdens    :      0.02s CPU      0.02s WALL (       5 calls)
                                        0.00s GPU  (       5 calls)
     addusd:skk   :      0.00s CPU      0.00s WALL (       5 calls)
                                        0.00s GPU  (       5 calls)

     Called by *egterg:
     cdiaghg      :      0.53s CPU      0.56s WALL (    1911 calls)
     cegterg:over :      0.07s CPU      0.08s WALL (    1527 calls)
     cegterg:upda :      0.02s CPU      0.02s WALL (    1527 calls)
     cegterg:last :      0.03s CPU      0.03s WALL (    1058 calls)
     h_psi        :      2.54s CPU      2.70s WALL (    2103 calls)
     s_psi        :      0.04s CPU      0.05s WALL (    2103 calls)
     g_psi        :      0.01s CPU      0.01s WALL (    1527 calls)

     Called by h_psi:
     h_psi:calbec :      0.12s CPU      0.12s WALL (    2103 calls)
     vloc_psi     :      2.36s CPU      2.51s WALL (    2103 calls)
     add_vuspsi   :      0.05s CPU      0.05s WALL (    2103 calls)

     General routines
     calbec       :      0.15s CPU      0.15s WALL (    2583 calls)
     fft          :      0.01s CPU      0.01s WALL (     105 calls)
     ffts         :      0.00s CPU      0.00s WALL (      10 calls)
     fftw         :      2.58s CPU      2.73s WALL (   53094 calls)
 
     Parallel routines

     PAW routines
     PAW_pot      :      0.44s CPU      0.56s WALL (       5 calls)
     PAW_symme    :      0.01s CPU      0.01s WALL (      10 calls)
 
     PWSCF        :      4.88s CPU      5.63s WALL

 
   This run was terminated on:   4: 1:37  13Mar2024            

=------------------------------------------------------------------------------=
   JOB DONE.
=------------------------------------------------------------------------------=
