
     Program PWSCF v.7.2 starts on 13Mar2024 at  4: 1:25 

     This program is part of the open-source Quantum ESPRESSO suite
     for quantum simulation of materials; please cite
         "P. Giannozzi et al., J. Phys.:Condens. Matter 21 395502 (2009);
         "P. Giannozzi et al., J. Phys.:Condens. Matter 29 465901 (2017);
         "P. Giannozzi et al., J. Chem. Phys. 152 154105 (2020);
          URL http://www.quantum-espresso.org", 
     in publications or presentations arising from this work. More details at
     http://www.quantum-espresso.org/quote

     Parallel version (MPI), running on    28 processors

     MPI processes distributed on     1 nodes
     167781 MiB available memory on the printing compute node when the environment starts
 
     Waiting for input...
     Reading input from standard input

     Current dimensions of program PWSCF are:
     Max number of different atomic species (ntypx) = 10
     Max number of k-points (npk) = 120000
     Max angular momentum in pseudopotentials (lmaxx) =  4
     file Zn.pbe-dnl-kjpaw_psl.1.0.0.UPF: wavefunction(s)  4S 3D renormalized
 
     K-points division:     npool     =       2
     R & G space division:  proc/nbgrp/npool/nimage =      14
     Subspace diagonalization in iterative solution of the eigenvalue problem:
     a serial algorithm will be used

 
     Parallelization info
     --------------------
     sticks:   dense  smooth     PW     G-vecs:    dense   smooth      PW
     Min          33      33     10                 1115     1115     188
     Max          34      34     11                 1124     1124     193
     Sum         475     475    151                15715    15715    2661
 
     Using Slab Decomposition
 


     bravais-lattice index     =            4
     lattice parameter (alat)  =       5.0000  a.u.
     unit-cell volume          =     199.1858 (a.u.)^3
     number of atoms/cell      =            2
     number of atomic types    =            1
     number of electrons       =        24.00
     number of Kohn-Sham states=           16
     kinetic-energy cutoff     =      70.0000  Ry
     charge density cutoff     =     280.0000  Ry
     scf convergence threshold =      4.0E-06
     mixing beta               =       0.7000
     number of iterations used =            8  plain     mixing
     Exchange-correlation= SLA  PW   PBX  PBC
                           (   1   4   3   4   0   0   0)

     celldm(1)=   5.000000  celldm(2)=   0.000000  celldm(3)=   1.840000
     celldm(4)=   0.000000  celldm(5)=   0.000000  celldm(6)=   0.000000

     crystal axes: (cart. coord. in units of alat)
               a(1) = (   1.000000   0.000000   0.000000 )  
               a(2) = (  -0.500000   0.866025   0.000000 )  
               a(3) = (   0.000000   0.000000   1.840000 )  

     reciprocal axes: (cart. coord. in units 2 pi/alat)
               b(1) = (  1.000000  0.577350  0.000000 )  
               b(2) = (  0.000000  1.154701  0.000000 )  
               b(3) = (  0.000000  0.000000  0.543478 )  


     PseudoPot. # 1 for Zn read from file:
     /truba/home/amuhaymin/ZnS/pseudo/QE/Zn.pbe-dnl-kjpaw_psl.1.0.0.UPF
     MD5 check sum: c608214d9520ac179f507641260889e3
     Pseudo is Projector augmented-wave + core cor, Zval = 12.0
     Generated using &quot;atomic&quot; code by A. Dal Corso  v.6.2.2
     Shape of augmentation charge: PSQ
     Using radial grid of 1201 points,  6 beta functions with: 
                l(1) =   0
                l(2) =   0
                l(3) =   1
                l(4) =   1
                l(5) =   2
                l(6) =   2
     Q(r) pseudized with 0 coefficients 


     atomic species   valence    mass     pseudopotential
        Zn            12.00    65.38000     Zn( 1.00)

     Starting magnetic structure 
     atomic species   magnetization
        Zn           0.000

     24 Sym. Ops., with inversion, found (12 have fractional translation)


                                    s                        frac. trans.

      isym =  1     identity                                     

 cryst.   s( 1) = (     1          0          0      )
                  (     0          1          0      )
                  (     0          0          1      )

 cart.    s( 1) = (  1.0000000  0.0000000  0.0000000 )
                  (  0.0000000  1.0000000  0.0000000 )
                  (  0.0000000  0.0000000  1.0000000 )


      isym =  2     180 deg rotation - cart. axis [0,0,1]        

 cryst.   s( 2) = (    -1          0          0      )    f =(  0.0000000 )
                  (     0         -1          0      )       (  0.0000000 )
                  (     0          0          1      )       ( -0.5000000 )

 cart.    s( 2) = ( -1.0000000  0.0000000  0.0000000 )    f =(  0.0000000 )
                  (  0.0000000 -1.0000000  0.0000000 )       (  0.0000000 )
                  (  0.0000000  0.0000000  1.0000000 )       ( -0.9200000 )


      isym =  3     180 deg rotation - cart. axis [0,1,0]        

 cryst.   s( 3) = (    -1          0          0      )    f =(  0.0000000 )
                  (     1          1          0      )       (  0.0000000 )
                  (     0          0         -1      )       ( -0.5000000 )

 cart.    s( 3) = ( -1.0000000  0.0000000  0.0000000 )    f =(  0.0000000 )
                  (  0.0000000  1.0000000  0.0000000 )       (  0.0000000 )
                  (  0.0000000  0.0000000 -1.0000000 )       ( -0.9200000 )


      isym =  4     180 deg rotation - cart. axis [1,0,0]        

 cryst.   s( 4) = (     1          0          0      )
                  (    -1         -1          0      )
                  (     0          0         -1      )

 cart.    s( 4) = (  1.0000000  0.0000000  0.0000000 )
                  (  0.0000000 -1.0000000  0.0000000 )
                  (  0.0000000  0.0000000 -1.0000000 )


      isym =  5      60 deg rotation - cryst. axis [0,0,1]       

 cryst.   s( 5) = (     1          1          0      )    f =(  0.0000000 )
                  (    -1          0          0      )       ( -0.0000000 )
                  (     0          0          1      )       ( -0.5000000 )

 cart.    s( 5) = (  0.5000000 -0.8660254  0.0000000 )    f =(  0.0000000 )
                  (  0.8660254  0.5000000  0.0000000 )       ( -0.0000000 )
                  (  0.0000000  0.0000000  1.0000000 )       ( -0.9200000 )


      isym =  6      60 deg rotation - cryst. axis [0,0,-1]      

 cryst.   s( 6) = (     0         -1          0      )    f =(  0.0000000 )
                  (     1          1          0      )       ( -0.0000000 )
                  (     0          0          1      )       ( -0.5000000 )

 cart.    s( 6) = (  0.5000000  0.8660254  0.0000000 )    f =(  0.0000000 )
                  ( -0.8660254  0.5000000  0.0000000 )       ( -0.0000000 )
                  (  0.0000000  0.0000000  1.0000000 )       ( -0.9200000 )


      isym =  7     120 deg rotation - cryst. axis [0,0,1]       

 cryst.   s( 7) = (     0          1          0      )
                  (    -1         -1          0      )
                  (     0          0          1      )

 cart.    s( 7) = ( -0.5000000 -0.8660254  0.0000000 )
                  (  0.8660254 -0.5000000  0.0000000 )
                  (  0.0000000  0.0000000  1.0000000 )


      isym =  8     120 deg rotation - cryst. axis [0,0,-1]      

 cryst.   s( 8) = (    -1         -1          0      )
                  (     1          0          0      )
                  (     0          0          1      )

 cart.    s( 8) = ( -0.5000000  0.8660254  0.0000000 )
                  ( -0.8660254 -0.5000000  0.0000000 )
                  (  0.0000000  0.0000000  1.0000000 )


      isym =  9     180 deg rotation - cryst. axis [1,-1,0]      

 cryst.   s( 9) = (     0         -1          0      )    f =(  0.0000000 )
                  (    -1          0          0      )       (  0.0000000 )
                  (     0          0         -1      )       ( -0.5000000 )

 cart.    s( 9) = (  0.5000000 -0.8660254  0.0000000 )    f =(  0.0000000 )
                  ( -0.8660254 -0.5000000  0.0000000 )       (  0.0000000 )
                  (  0.0000000  0.0000000 -1.0000000 )       ( -0.9200000 )


      isym = 10     180 deg rotation - cryst. axis [2,1,0]       

 cryst.   s(10) = (     1          1          0      )    f =(  0.0000000 )
                  (     0         -1          0      )       ( -0.0000000 )
                  (     0          0         -1      )       ( -0.5000000 )

 cart.    s(10) = (  0.5000000  0.8660254  0.0000000 )    f =(  0.0000000 )
                  (  0.8660254 -0.5000000  0.0000000 )       ( -0.0000000 )
                  (  0.0000000  0.0000000 -1.0000000 )       ( -0.9200000 )


      isym = 11     180 deg rotation - cryst. axis [0,1,0]       

 cryst.   s(11) = (    -1         -1          0      )
                  (     0          1          0      )
                  (     0          0         -1      )

 cart.    s(11) = ( -0.5000000 -0.8660254  0.0000000 )
                  ( -0.8660254  0.5000000  0.0000000 )
                  (  0.0000000  0.0000000 -1.0000000 )


      isym = 12     180 deg rotation - cryst. axis [1,1,0]       

 cryst.   s(12) = (     0          1          0      )
                  (     1          0          0      )
                  (     0          0         -1      )

 cart.    s(12) = ( -0.5000000  0.8660254  0.0000000 )
                  (  0.8660254  0.5000000  0.0000000 )
                  (  0.0000000  0.0000000 -1.0000000 )


      isym = 13     inversion                                    

 cryst.   s(13) = (    -1          0          0      )
                  (     0         -1          0      )
                  (     0          0         -1      )

 cart.    s(13) = ( -1.0000000  0.0000000  0.0000000 )
                  (  0.0000000 -1.0000000  0.0000000 )
                  (  0.0000000  0.0000000 -1.0000000 )


      isym = 14     inv. 180 deg rotation - cart. axis [0,0,1]   

 cryst.   s(14) = (     1          0          0      )    f =(  0.0000000 )
                  (     0          1          0      )       (  0.0000000 )
                  (     0          0         -1      )       ( -0.5000000 )

 cart.    s(14) = (  1.0000000  0.0000000  0.0000000 )    f =(  0.0000000 )
                  (  0.0000000  1.0000000  0.0000000 )       (  0.0000000 )
                  (  0.0000000  0.0000000 -1.0000000 )       ( -0.9200000 )


      isym = 15     inv. 180 deg rotation - cart. axis [0,1,0]   

 cryst.   s(15) = (     1          0          0      )    f =(  0.0000000 )
                  (    -1         -1          0      )       (  0.0000000 )
                  (     0          0          1      )       ( -0.5000000 )

 cart.    s(15) = (  1.0000000  0.0000000  0.0000000 )    f =(  0.0000000 )
                  (  0.0000000 -1.0000000  0.0000000 )       (  0.0000000 )
                  (  0.0000000  0.0000000  1.0000000 )       ( -0.9200000 )


      isym = 16     inv. 180 deg rotation - cart. axis [1,0,0]   

 cryst.   s(16) = (    -1          0          0      )
                  (     1          1          0      )
                  (     0          0          1      )

 cart.    s(16) = ( -1.0000000  0.0000000  0.0000000 )
                  (  0.0000000  1.0000000  0.0000000 )
                  (  0.0000000  0.0000000  1.0000000 )


      isym = 17     inv.  60 deg rotation - cryst. axis [0,0,1]  

 cryst.   s(17) = (    -1         -1          0      )    f =(  0.0000000 )
                  (     1          0          0      )       (  0.0000000 )
                  (     0          0         -1      )       ( -0.5000000 )

 cart.    s(17) = ( -0.5000000  0.8660254  0.0000000 )    f =(  0.0000000 )
                  ( -0.8660254 -0.5000000  0.0000000 )       (  0.0000000 )
                  (  0.0000000  0.0000000 -1.0000000 )       ( -0.9200000 )


      isym = 18     inv.  60 deg rotation - cryst. axis [0,0,-1] 

 cryst.   s(18) = (     0          1          0      )    f =(  0.0000000 )
                  (    -1         -1          0      )       ( -0.0000000 )
                  (     0          0         -1      )       ( -0.5000000 )

 cart.    s(18) = ( -0.5000000 -0.8660254  0.0000000 )    f =(  0.0000000 )
                  (  0.8660254 -0.5000000  0.0000000 )       ( -0.0000000 )
                  (  0.0000000  0.0000000 -1.0000000 )       ( -0.9200000 )


      isym = 19     inv. 120 deg rotation - cryst. axis [0,0,1]  

 cryst.   s(19) = (     0         -1          0      )
                  (     1          1          0      )
                  (     0          0         -1      )

 cart.    s(19) = (  0.5000000  0.8660254  0.0000000 )
                  ( -0.8660254  0.5000000  0.0000000 )
                  (  0.0000000  0.0000000 -1.0000000 )


      isym = 20     inv. 120 deg rotation - cryst. axis [0,0,-1] 

 cryst.   s(20) = (     1          1          0      )
                  (    -1          0          0      )
                  (     0          0         -1      )

 cart.    s(20) = (  0.5000000 -0.8660254  0.0000000 )
                  (  0.8660254  0.5000000  0.0000000 )
                  (  0.0000000  0.0000000 -1.0000000 )


      isym = 21     inv. 180 deg rotation - cryst. axis [1,-1,0] 

 cryst.   s(21) = (     0          1          0      )    f =(  0.0000000 )
                  (     1          0          0      )       ( -0.0000000 )
                  (     0          0          1      )       ( -0.5000000 )

 cart.    s(21) = ( -0.5000000  0.8660254  0.0000000 )    f =(  0.0000000 )
                  (  0.8660254  0.5000000  0.0000000 )       ( -0.0000000 )
                  (  0.0000000  0.0000000  1.0000000 )       ( -0.9200000 )


      isym = 22     inv. 180 deg rotation - cryst. axis [2,1,0]  

 cryst.   s(22) = (    -1         -1          0      )    f =(  0.0000000 )
                  (     0          1          0      )       ( -0.0000000 )
                  (     0          0          1      )       ( -0.5000000 )

 cart.    s(22) = ( -0.5000000 -0.8660254  0.0000000 )    f =(  0.0000000 )
                  ( -0.8660254  0.5000000  0.0000000 )       ( -0.0000000 )
                  (  0.0000000  0.0000000  1.0000000 )       ( -0.9200000 )


      isym = 23     inv. 180 deg rotation - cryst. axis [0,1,0]  

 cryst.   s(23) = (     1          1          0      )
                  (     0         -1          0      )
                  (     0          0          1      )

 cart.    s(23) = (  0.5000000  0.8660254  0.0000000 )
                  (  0.8660254 -0.5000000  0.0000000 )
                  (  0.0000000  0.0000000  1.0000000 )


      isym = 24     inv. 180 deg rotation - cryst. axis [1,1,0]  

 cryst.   s(24) = (     0         -1          0      )
                  (    -1          0          0      )
                  (     0          0          1      )

 cart.    s(24) = (  0.5000000 -0.8660254  0.0000000 )
                  ( -0.8660254 -0.5000000  0.0000000 )
                  (  0.0000000  0.0000000  1.0000000 )


     point group D_6h(6/mmm)
     there are 12 classes
     the character table:

       E     2C6   2C3   C2    3C2'  3C2'' i     2S3   2S6   s_h   3s_d  3s_v 
A_1g   1.00  1.00  1.00  1.00  1.00  1.00  1.00  1.00  1.00  1.00  1.00  1.00
A_2g   1.00  1.00  1.00  1.00 -1.00 -1.00  1.00  1.00  1.00  1.00 -1.00 -1.00
B_1g   1.00 -1.00  1.00 -1.00  1.00 -1.00  1.00 -1.00  1.00 -1.00  1.00 -1.00
B_2g   1.00 -1.00  1.00 -1.00 -1.00  1.00  1.00 -1.00  1.00 -1.00 -1.00  1.00
E_1g   2.00  1.00 -1.00 -2.00  0.00  0.00  2.00  1.00 -1.00 -2.00  0.00  0.00
E_2g   2.00 -1.00 -1.00  2.00  0.00  0.00  2.00 -1.00 -1.00  2.00  0.00  0.00
A_1u   1.00  1.00  1.00  1.00  1.00  1.00 -1.00 -1.00 -1.00 -1.00 -1.00 -1.00
A_2u   1.00  1.00  1.00  1.00 -1.00 -1.00 -1.00 -1.00 -1.00 -1.00  1.00  1.00
B_1u   1.00 -1.00  1.00 -1.00  1.00 -1.00 -1.00  1.00 -1.00  1.00 -1.00  1.00
B_2u   1.00 -1.00  1.00 -1.00 -1.00  1.00 -1.00  1.00 -1.00  1.00  1.00 -1.00
E_1u   2.00  1.00 -1.00 -2.00  0.00  0.00 -2.00 -1.00  1.00  2.00  0.00  0.00
E_2u   2.00 -1.00 -1.00  2.00  0.00  0.00 -2.00  1.00  1.00 -2.00  0.00  0.00

     the symmetry operations in each class and the name of the first element:

     E        1
          identity                                               
     2C6      5    6
           60 deg rotation - cryst. axis [0,0,1]                 
     2C3      7    8
          120 deg rotation - cryst. axis [0,0,1]                 
     C2       2
          180 deg rotation - cart. axis [0,0,1]                  
     3C2'     4   12   11
          180 deg rotation - cart. axis [1,0,0]                  
     3C2''    3    9   10
          180 deg rotation - cart. axis [0,1,0]                  
     i       13
          inversion                                              
     2S3     17   18
          inv.  60 deg rotation - cryst. axis [0,0,1]            
     2S6     19   20
          inv. 120 deg rotation - cryst. axis [0,0,1]            
     s_h     14
          inv. 180 deg rotation - cart. axis [0,0,1]             
     3s_d    16   24   23
          inv. 180 deg rotation - cart. axis [1,0,0]             
     3s_v    15   21   22
          inv. 180 deg rotation - cart. axis [0,1,0]             

   Cartesian axes

     site n.     atom                  positions (alat units)
         1           Zn  tau(   1) = (  -0.0000000   0.5773503   0.4600000  )
         2           Zn  tau(   2) = (   0.5000000   0.2886751   1.3800000  )

   Crystallographic axes

     site n.     atom                  positions (cryst. coord.)
         1           Zn  tau(   1) = (  0.3333333  0.6666667  0.2500000  )
         2           Zn  tau(   2) = (  0.6666667  0.3333333  0.7500000  )

     number of k points=    96  Marzari-Vanderbilt smearing, width (Ry)=  0.0005
                       cart. coord. in units 2pi/alat
        k(    1) = (   0.0000000   0.0000000   0.0000000), wk =   0.0007289
        k(    2) = (   0.0000000   0.0000000   0.0776398), wk =   0.0014577
        k(    3) = (   0.0000000   0.0000000   0.1552795), wk =   0.0014577
        k(    4) = (   0.0000000   0.0000000   0.2329193), wk =   0.0014577
        k(    5) = (   0.0000000   0.0824786   0.0000000), wk =   0.0043732
        k(    6) = (   0.0000000   0.0824786   0.0776398), wk =   0.0087464
        k(    7) = (   0.0000000   0.0824786   0.1552795), wk =   0.0087464
        k(    8) = (   0.0000000   0.0824786   0.2329193), wk =   0.0087464
        k(    9) = (   0.0000000   0.1649572   0.0000000), wk =   0.0043732
        k(   10) = (   0.0000000   0.1649572   0.0776398), wk =   0.0087464
        k(   11) = (   0.0000000   0.1649572   0.1552795), wk =   0.0087464
        k(   12) = (   0.0000000   0.1649572   0.2329193), wk =   0.0087464
        k(   13) = (   0.0000000   0.2474358   0.0000000), wk =   0.0043732
        k(   14) = (   0.0000000   0.2474358   0.0776398), wk =   0.0087464
        k(   15) = (   0.0000000   0.2474358   0.1552795), wk =   0.0087464
        k(   16) = (   0.0000000   0.2474358   0.2329193), wk =   0.0087464
        k(   17) = (   0.0000000   0.3299144   0.0000000), wk =   0.0043732
        k(   18) = (   0.0000000   0.3299144   0.0776398), wk =   0.0087464
        k(   19) = (   0.0000000   0.3299144   0.1552795), wk =   0.0087464
        k(   20) = (   0.0000000   0.3299144   0.2329193), wk =   0.0087464
        k(   21) = (   0.0000000   0.4123930   0.0000000), wk =   0.0043732
        k(   22) = (   0.0000000   0.4123930   0.0776398), wk =   0.0087464
        k(   23) = (   0.0000000   0.4123930   0.1552795), wk =   0.0087464
        k(   24) = (   0.0000000   0.4123930   0.2329193), wk =   0.0087464
        k(   25) = (   0.0000000   0.4948717   0.0000000), wk =   0.0043732
        k(   26) = (   0.0000000   0.4948717   0.0776398), wk =   0.0087464
        k(   27) = (   0.0000000   0.4948717   0.1552795), wk =   0.0087464
        k(   28) = (   0.0000000   0.4948717   0.2329193), wk =   0.0087464
        k(   29) = (   0.0000000  -0.5773503   0.0000000), wk =   0.0021866
        k(   30) = (   0.0000000  -0.5773503   0.0776398), wk =   0.0043732
        k(   31) = (   0.0000000  -0.5773503   0.1552795), wk =   0.0043732
        k(   32) = (   0.0000000  -0.5773503   0.2329193), wk =   0.0043732
        k(   33) = (   0.0714286   0.1237179   0.0000000), wk =   0.0043732
        k(   34) = (   0.0714286   0.1237179   0.0776398), wk =   0.0087464
        k(   35) = (   0.0714286   0.1237179   0.1552795), wk =   0.0087464
        k(   36) = (   0.0714286   0.1237179   0.2329193), wk =   0.0087464
        k(   37) = (   0.0714286   0.2061965   0.0000000), wk =   0.0087464
        k(   38) = (   0.0714286   0.2061965   0.0776398), wk =   0.0174927
        k(   39) = (   0.0714286   0.2061965   0.1552795), wk =   0.0174927
        k(   40) = (   0.0714286   0.2061965   0.2329193), wk =   0.0174927
        k(   41) = (   0.0714286   0.2886751   0.0000000), wk =   0.0087464
        k(   42) = (   0.0714286   0.2886751   0.0776398), wk =   0.0174927
        k(   43) = (   0.0714286   0.2886751   0.1552795), wk =   0.0174927
        k(   44) = (   0.0714286   0.2886751   0.2329193), wk =   0.0174927
        k(   45) = (   0.0714286   0.3711537   0.0000000), wk =   0.0087464
        k(   46) = (   0.0714286   0.3711537   0.0776398), wk =   0.0174927
        k(   47) = (   0.0714286   0.3711537   0.1552795), wk =   0.0174927
        k(   48) = (   0.0714286   0.3711537   0.2329193), wk =   0.0174927
        k(   49) = (   0.0714286   0.4536324   0.0000000), wk =   0.0087464
        k(   50) = (   0.0714286   0.4536324   0.0776398), wk =   0.0174927
        k(   51) = (   0.0714286   0.4536324   0.1552795), wk =   0.0174927
        k(   52) = (   0.0714286   0.4536324   0.2329193), wk =   0.0174927
        k(   53) = (   0.0714286   0.5361110   0.0000000), wk =   0.0087464
        k(   54) = (   0.0714286   0.5361110   0.0776398), wk =   0.0174927
        k(   55) = (   0.0714286   0.5361110   0.1552795), wk =   0.0174927
        k(   56) = (   0.0714286   0.5361110   0.2329193), wk =   0.0174927
        k(   57) = (   0.1428571   0.2474358   0.0000000), wk =   0.0043732
        k(   58) = (   0.1428571   0.2474358   0.0776398), wk =   0.0087464
        k(   59) = (   0.1428571   0.2474358   0.1552795), wk =   0.0087464
        k(   60) = (   0.1428571   0.2474358   0.2329193), wk =   0.0087464
        k(   61) = (   0.1428571   0.3299144   0.0000000), wk =   0.0087464
        k(   62) = (   0.1428571   0.3299144   0.0776398), wk =   0.0174927
        k(   63) = (   0.1428571   0.3299144   0.1552795), wk =   0.0174927
        k(   64) = (   0.1428571   0.3299144   0.2329193), wk =   0.0174927
        k(   65) = (   0.1428571   0.4123930   0.0000000), wk =   0.0087464
        k(   66) = (   0.1428571   0.4123930   0.0776398), wk =   0.0174927
        k(   67) = (   0.1428571   0.4123930   0.1552795), wk =   0.0174927
        k(   68) = (   0.1428571   0.4123930   0.2329193), wk =   0.0174927
        k(   69) = (   0.1428571   0.4948717   0.0000000), wk =   0.0087464
        k(   70) = (   0.1428571   0.4948717   0.0776398), wk =   0.0174927
        k(   71) = (   0.1428571   0.4948717   0.1552795), wk =   0.0174927
        k(   72) = (   0.1428571   0.4948717   0.2329193), wk =   0.0174927
        k(   73) = (   0.1428571   0.5773503   0.0000000), wk =   0.0043732
        k(   74) = (   0.1428571   0.5773503   0.0776398), wk =   0.0087464
        k(   75) = (   0.1428571   0.5773503   0.1552795), wk =   0.0087464
        k(   76) = (   0.1428571   0.5773503   0.2329193), wk =   0.0087464
        k(   77) = (   0.2142857   0.3711537   0.0000000), wk =   0.0043732
        k(   78) = (   0.2142857   0.3711537   0.0776398), wk =   0.0087464
        k(   79) = (   0.2142857   0.3711537   0.1552795), wk =   0.0087464
        k(   80) = (   0.2142857   0.3711537   0.2329193), wk =   0.0087464
        k(   81) = (   0.2142857   0.4536324   0.0000000), wk =   0.0087464
        k(   82) = (   0.2142857   0.4536324   0.0776398), wk =   0.0174927
        k(   83) = (   0.2142857   0.4536324   0.1552795), wk =   0.0174927
        k(   84) = (   0.2142857   0.4536324   0.2329193), wk =   0.0174927
        k(   85) = (   0.2142857   0.5361110   0.0000000), wk =   0.0087464
        k(   86) = (   0.2142857   0.5361110   0.0776398), wk =   0.0174927
        k(   87) = (   0.2142857   0.5361110   0.1552795), wk =   0.0174927
        k(   88) = (   0.2142857   0.5361110   0.2329193), wk =   0.0174927
        k(   89) = (   0.2857143   0.4948717   0.0000000), wk =   0.0043732
        k(   90) = (   0.2857143   0.4948717   0.0776398), wk =   0.0087464
        k(   91) = (   0.2857143   0.4948717   0.1552795), wk =   0.0087464
        k(   92) = (   0.2857143   0.4948717   0.2329193), wk =   0.0087464
        k(   93) = (   0.2857143   0.5773503   0.0000000), wk =   0.0043732
        k(   94) = (   0.2857143   0.5773503   0.0776398), wk =   0.0087464
        k(   95) = (   0.2857143   0.5773503   0.1552795), wk =   0.0087464
        k(   96) = (   0.2857143   0.5773503   0.2329193), wk =   0.0087464

                       cryst. coord.
        k(    1) = (   0.0000000   0.0000000   0.0000000), wk =   0.0007289
        k(    2) = (   0.0000000   0.0000000   0.1428571), wk =   0.0014577
        k(    3) = (   0.0000000   0.0000000   0.2857143), wk =   0.0014577
        k(    4) = (   0.0000000   0.0000000   0.4285714), wk =   0.0014577
        k(    5) = (   0.0000000   0.0714286   0.0000000), wk =   0.0043732
        k(    6) = (   0.0000000   0.0714286   0.1428571), wk =   0.0087464
        k(    7) = (   0.0000000   0.0714286   0.2857143), wk =   0.0087464
        k(    8) = (   0.0000000   0.0714286   0.4285714), wk =   0.0087464
        k(    9) = (   0.0000000   0.1428571   0.0000000), wk =   0.0043732
        k(   10) = (   0.0000000   0.1428571   0.1428571), wk =   0.0087464
        k(   11) = (   0.0000000   0.1428571   0.2857143), wk =   0.0087464
        k(   12) = (   0.0000000   0.1428571   0.4285714), wk =   0.0087464
        k(   13) = (   0.0000000   0.2142857   0.0000000), wk =   0.0043732
        k(   14) = (   0.0000000   0.2142857   0.1428571), wk =   0.0087464
        k(   15) = (   0.0000000   0.2142857   0.2857143), wk =   0.0087464
        k(   16) = (   0.0000000   0.2142857   0.4285714), wk =   0.0087464
        k(   17) = (   0.0000000   0.2857143   0.0000000), wk =   0.0043732
        k(   18) = (   0.0000000   0.2857143   0.1428571), wk =   0.0087464
        k(   19) = (   0.0000000   0.2857143   0.2857143), wk =   0.0087464
        k(   20) = (   0.0000000   0.2857143   0.4285714), wk =   0.0087464
        k(   21) = (   0.0000000   0.3571429   0.0000000), wk =   0.0043732
        k(   22) = (   0.0000000   0.3571429   0.1428571), wk =   0.0087464
        k(   23) = (   0.0000000   0.3571429   0.2857143), wk =   0.0087464
        k(   24) = (   0.0000000   0.3571429   0.4285714), wk =   0.0087464
        k(   25) = (   0.0000000   0.4285714   0.0000000), wk =   0.0043732
        k(   26) = (   0.0000000   0.4285714   0.1428571), wk =   0.0087464
        k(   27) = (   0.0000000   0.4285714   0.2857143), wk =   0.0087464
        k(   28) = (   0.0000000   0.4285714   0.4285714), wk =   0.0087464
        k(   29) = (   0.0000000  -0.5000000   0.0000000), wk =   0.0021866
        k(   30) = (   0.0000000  -0.5000000   0.1428571), wk =   0.0043732
        k(   31) = (   0.0000000  -0.5000000   0.2857143), wk =   0.0043732
        k(   32) = (   0.0000000  -0.5000000   0.4285714), wk =   0.0043732
        k(   33) = (   0.0714286   0.0714286   0.0000000), wk =   0.0043732
        k(   34) = (   0.0714286   0.0714286   0.1428571), wk =   0.0087464
        k(   35) = (   0.0714286   0.0714286   0.2857143), wk =   0.0087464
        k(   36) = (   0.0714286   0.0714286   0.4285714), wk =   0.0087464
        k(   37) = (   0.0714286   0.1428571   0.0000000), wk =   0.0087464
        k(   38) = (   0.0714286   0.1428571   0.1428571), wk =   0.0174927
        k(   39) = (   0.0714286   0.1428571   0.2857143), wk =   0.0174927
        k(   40) = (   0.0714286   0.1428571   0.4285714), wk =   0.0174927
        k(   41) = (   0.0714286   0.2142857   0.0000000), wk =   0.0087464
        k(   42) = (   0.0714286   0.2142857   0.1428571), wk =   0.0174927
        k(   43) = (   0.0714286   0.2142857   0.2857143), wk =   0.0174927
        k(   44) = (   0.0714286   0.2142857   0.4285714), wk =   0.0174927
        k(   45) = (   0.0714286   0.2857143   0.0000000), wk =   0.0087464
        k(   46) = (   0.0714286   0.2857143   0.1428571), wk =   0.0174927
        k(   47) = (   0.0714286   0.2857143   0.2857143), wk =   0.0174927
        k(   48) = (   0.0714286   0.2857143   0.4285714), wk =   0.0174927
        k(   49) = (   0.0714286   0.3571429   0.0000000), wk =   0.0087464
        k(   50) = (   0.0714286   0.3571429   0.1428571), wk =   0.0174927
        k(   51) = (   0.0714286   0.3571429   0.2857143), wk =   0.0174927
        k(   52) = (   0.0714286   0.3571429   0.4285714), wk =   0.0174927
        k(   53) = (   0.0714286   0.4285714   0.0000000), wk =   0.0087464
        k(   54) = (   0.0714286   0.4285714   0.1428571), wk =   0.0174927
        k(   55) = (   0.0714286   0.4285714   0.2857143), wk =   0.0174927
        k(   56) = (   0.0714286   0.4285714   0.4285714), wk =   0.0174927
        k(   57) = (   0.1428571   0.1428571   0.0000000), wk =   0.0043732
        k(   58) = (   0.1428571   0.1428571   0.1428571), wk =   0.0087464
        k(   59) = (   0.1428571   0.1428571   0.2857143), wk =   0.0087464
        k(   60) = (   0.1428571   0.1428571   0.4285714), wk =   0.0087464
        k(   61) = (   0.1428571   0.2142857   0.0000000), wk =   0.0087464
        k(   62) = (   0.1428571   0.2142857   0.1428571), wk =   0.0174927
        k(   63) = (   0.1428571   0.2142857   0.2857143), wk =   0.0174927
        k(   64) = (   0.1428571   0.2142857   0.4285714), wk =   0.0174927
        k(   65) = (   0.1428571   0.2857143   0.0000000), wk =   0.0087464
        k(   66) = (   0.1428571   0.2857143   0.1428571), wk =   0.0174927
        k(   67) = (   0.1428571   0.2857143   0.2857143), wk =   0.0174927
        k(   68) = (   0.1428571   0.2857143   0.4285714), wk =   0.0174927
        k(   69) = (   0.1428571   0.3571429   0.0000000), wk =   0.0087464
        k(   70) = (   0.1428571   0.3571429   0.1428571), wk =   0.0174927
        k(   71) = (   0.1428571   0.3571429   0.2857143), wk =   0.0174927
        k(   72) = (   0.1428571   0.3571429   0.4285714), wk =   0.0174927
        k(   73) = (   0.1428571   0.4285714   0.0000000), wk =   0.0043732
        k(   74) = (   0.1428571   0.4285714   0.1428571), wk =   0.0087464
        k(   75) = (   0.1428571   0.4285714   0.2857143), wk =   0.0087464
        k(   76) = (   0.1428571   0.4285714   0.4285714), wk =   0.0087464
        k(   77) = (   0.2142857   0.2142857   0.0000000), wk =   0.0043732
        k(   78) = (   0.2142857   0.2142857   0.1428571), wk =   0.0087464
        k(   79) = (   0.2142857   0.2142857   0.2857143), wk =   0.0087464
        k(   80) = (   0.2142857   0.2142857   0.4285714), wk =   0.0087464
        k(   81) = (   0.2142857   0.2857143   0.0000000), wk =   0.0087464
        k(   82) = (   0.2142857   0.2857143   0.1428571), wk =   0.0174927
        k(   83) = (   0.2142857   0.2857143   0.2857143), wk =   0.0174927
        k(   84) = (   0.2142857   0.2857143   0.4285714), wk =   0.0174927
        k(   85) = (   0.2142857   0.3571429   0.0000000), wk =   0.0087464
        k(   86) = (   0.2142857   0.3571429   0.1428571), wk =   0.0174927
        k(   87) = (   0.2142857   0.3571429   0.2857143), wk =   0.0174927
        k(   88) = (   0.2142857   0.3571429   0.4285714), wk =   0.0174927
        k(   89) = (   0.2857143   0.2857143   0.0000000), wk =   0.0043732
        k(   90) = (   0.2857143   0.2857143   0.1428571), wk =   0.0087464
        k(   91) = (   0.2857143   0.2857143   0.2857143), wk =   0.0087464
        k(   92) = (   0.2857143   0.2857143   0.4285714), wk =   0.0087464
        k(   93) = (   0.2857143   0.3571429   0.0000000), wk =   0.0043732
        k(   94) = (   0.2857143   0.3571429   0.1428571), wk =   0.0087464
        k(   95) = (   0.2857143   0.3571429   0.2857143), wk =   0.0087464
        k(   96) = (   0.2857143   0.3571429   0.4285714), wk =   0.0087464

     Dense  grid:    15715 G-vectors     FFT dimensions: (  27,  27,  50)

     Dynamical RAM for                 wfc:       0.03 MB

     Dynamical RAM for     wfc (w. buffer):       3.32 MB

     Dynamical RAM for           str. fact:       0.02 MB

     Dynamical RAM for           local pot:       0.00 MB

     Dynamical RAM for          nlocal pot:       0.08 MB

     Dynamical RAM for                qrad:       1.34 MB

     Dynamical RAM for          rho,v,vnew:       0.24 MB

     Dynamical RAM for               rhoin:       0.08 MB

     Dynamical RAM for            rho*nmix:       0.55 MB

     Dynamical RAM for           G-vectors:       0.07 MB

     Dynamical RAM for          h,s,v(r/c):       0.05 MB

     Dynamical RAM for          <psi|beta>:       0.01 MB

     Dynamical RAM for                 psi:       0.07 MB

     Dynamical RAM for                hpsi:       0.07 MB

     Dynamical RAM for                spsi:       0.07 MB

     Dynamical RAM for      wfcinit/wfcrot:       0.08 MB

     Dynamical RAM for           addusdens:       1.64 MB

     Estimated static dynamical RAM per process >       5.31 MB

     Estimated max dynamical RAM per process >       7.50 MB

     Estimated total dynamical RAM >     202.19 MB

     Check: negative core charge=   -0.000003
     Generating pointlists ...
     new r_m :   0.4125 (alat units)  2.0625 (a.u.) for type    1

     Initial potential from superposition of free atoms

     starting charge      23.9926, renormalised to      24.0000
     Starting wfcs are   18 randomized atomic wfcs
     Checking if some PAW data can be deallocated... 

     total cpu time spent up to now is        0.6 secs

     Self-consistent Calculation

     iteration #  1     ecut=    70.00 Ry     beta= 0.70
     Davidson diagonalization with overlap

---- Real-time Memory Report at c_bands before calling an iterative solver
            58 MiB given to the printing process from OS
             0 MiB allocation reported by mallinfo(arena+hblkhd)
        166899 MiB available memory on the node where the printing process lives
------------------
     ethr =  1.00E-02,  avg # of iterations =  3.2

     Threshold (ethr) on eigenvalues was too large:
     Diagonalizing with lowered threshold

     Davidson diagonalization with overlap

---- Real-time Memory Report at c_bands before calling an iterative solver
            58 MiB given to the printing process from OS
             0 MiB allocation reported by mallinfo(arena+hblkhd)
        166847 MiB available memory on the node where the printing process lives
------------------
     ethr =  1.80E-05,  avg # of iterations =  6.6

     total cpu time spent up to now is        2.6 secs

     total energy              =    -487.44605312 Ry
     estimated scf accuracy    <       0.00419117 Ry

     total magnetization       =    -0.00 Bohr mag/cell
     absolute magnetization    =     0.00 Bohr mag/cell

     iteration #  2     ecut=    70.00 Ry     beta= 0.70
     Davidson diagonalization with overlap

---- Real-time Memory Report at c_bands before calling an iterative solver
            75 MiB given to the printing process from OS
             0 MiB allocation reported by mallinfo(arena+hblkhd)
        166773 MiB available memory on the node where the printing process lives
------------------
     ethr =  1.75E-05,  avg # of iterations =  2.0

     total cpu time spent up to now is        3.5 secs

     total energy              =    -487.44619311 Ry
     estimated scf accuracy    <       0.00165386 Ry

     total magnetization       =    -0.00 Bohr mag/cell
     absolute magnetization    =     0.00 Bohr mag/cell

     iteration #  3     ecut=    70.00 Ry     beta= 0.70
     Davidson diagonalization with overlap

---- Real-time Memory Report at c_bands before calling an iterative solver
            76 MiB given to the printing process from OS
             0 MiB allocation reported by mallinfo(arena+hblkhd)
        166754 MiB available memory on the node where the printing process lives
------------------
     ethr =  6.89E-06,  avg # of iterations =  2.0

     total cpu time spent up to now is        4.4 secs

     total energy              =    -487.44665110 Ry
     estimated scf accuracy    <       0.00036062 Ry

     total magnetization       =    -0.00 Bohr mag/cell
     absolute magnetization    =     0.00 Bohr mag/cell

     iteration #  4     ecut=    70.00 Ry     beta= 0.70
     Davidson diagonalization with overlap

---- Real-time Memory Report at c_bands before calling an iterative solver
            76 MiB given to the printing process from OS
             0 MiB allocation reported by mallinfo(arena+hblkhd)
        166744 MiB available memory on the node where the printing process lives
------------------
     ethr =  1.50E-06,  avg # of iterations =  2.1
 
     Magnetic moment per site  (integrated on atomic sphere of radius R)
     atom   1 (R=0.413)  charge= 10.6881  magn= -0.0002
     atom   2 (R=0.413)  charge= 10.6881  magn= -0.0002

     total cpu time spent up to now is        5.2 secs

     End of self-consistent calculation

 ------ SPIN UP ------------


          k = 0.0000 0.0000 0.0000 (  1993 PWs)   bands (ev):

     0.9009   2.8737   3.6325   3.8670   3.8670   3.9230   3.9230   4.2567
     4.2567   4.4881   4.4881   7.8014   8.6566  25.7001  29.1214  29.1214

     occupation numbers 
     1.0000   1.0000   1.0000   1.0000   1.0000   1.0000   1.0000   1.0000
     1.0000   1.0000   1.0000   1.0000   1.0000   0.0000   0.0000   0.0000

          k = 0.0000 0.0000 0.0776 (  1993 PWs)   bands (ev):

     1.0292   2.8578   3.6334   3.8649   3.8649   3.9166   3.9166   4.2730
     4.2730   4.4803   4.4803   6.4377  10.3017  23.6771  29.2499  29.2500

     occupation numbers 
     1.0000   1.0000   1.0000   1.0000   1.0000   1.0000   1.0000   1.0000
     1.0000   1.0000   1.0000   1.0000   1.0000   0.0000   0.0000   0.0000

          k = 0.0000 0.0000 0.1553 (  1992 PWs)   bands (ev):

     1.4015   2.7768   3.6507   3.8628   3.8628   3.9004   3.9004   4.3151
     4.3151   4.4567   4.4567   5.0553  12.5574  20.6972  29.6217  29.6222

     occupation numbers 
     1.0000   1.0000   1.0000   1.0000   1.0000   1.0000   1.0000   1.0000
     1.0000   1.0000   1.0000   1.0000   0.0000   0.0000   0.0000   0.0000

          k = 0.0000 0.0000 0.2329 (  1992 PWs)   bands (ev):

     1.9576   2.5014   3.7492   3.8677   3.8677   3.8816   3.8816   4.1310
     4.3679   4.3679   4.4180   4.4180  15.0640  17.7893  30.1760  30.1774

     occupation numbers 
     1.0000   1.0000   1.0000   1.0000   1.0000   1.0000   1.0000   1.0000
     1.0000   1.0000   1.0000   1.0000   0.0000   0.0000   0.0000   0.0000

          k = 0.0000 0.0825 0.0000 (  1971 PWs)   bands (ev):

     1.0543   2.9417   3.6475   3.8524   3.9041   3.9062   3.9581   4.2224
     4.2416   4.3957   4.4902   8.0538   8.7347  25.8664  26.5851  27.8096

     occupation numbers 
     1.0000   1.0000   1.0000   1.0000   1.0000   1.0000   1.0000   1.0000
     1.0000   1.0000   1.0000   1.0000   1.0000   0.0000   0.0000   0.0000

          k = 0.0000 0.0825 0.0776 (  1982 PWs)   bands (ev):

     1.1817   2.9301   3.6476   3.8475   3.8981   3.9014   3.9515   4.2433
     4.2594   4.3787   4.4817   6.6333  10.4427  23.8168  26.7349  27.9452

     occupation numbers 
     1.0000   1.0000   1.0000   1.0000   1.0000   1.0000   1.0000   1.0000
     1.0000   1.0000   1.0000   1.0000   1.0000   0.0000   0.0000   0.0000

          k = 0.0000 0.0825 0.1553 (  1988 PWs)   bands (ev):

     1.5508   2.8645   3.6588   3.8417   3.8777   3.8983   3.9351   4.2777
     4.3046   4.3258   4.4560   5.2851  12.7020  20.8366  27.1197  28.3479

     occupation numbers 
     1.0000   1.0000   1.0000   1.0000   1.0000   1.0000   1.0000   1.0000
     1.0000   1.0000   1.0000   1.0000   0.0000   0.0000   0.0000   0.0000

          k = 0.0000 0.0825 0.2329 (  1997 PWs)   bands (ev):

     2.0983   2.6189   3.7323   3.8473   3.8528   3.9026   3.9162   4.0277
     4.3608   4.3919   4.4143   4.5671  15.2074  17.9308  27.7500  28.6162

     occupation numbers 
     1.0000   1.0000   1.0000   1.0000   1.0000   1.0000   1.0000   1.0000
     1.0000   1.0000   1.0000   1.0000   0.0000   0.0000   0.0000   0.0000

          k = 0.0000 0.1650 0.0000 (  1973 PWs)   bands (ev):

     1.5041   3.1144   3.6714   3.8222   3.8928   4.0095   4.0577   4.0776
     4.2021   4.2397   4.4938   8.7357   8.9872  23.1727  26.1167  26.3153

     occupation numbers 
     1.0000   1.0000   1.0000   1.0000   1.0000   1.0000   1.0000   1.0000
     1.0000   1.0000   1.0000   1.0000   1.0000   0.0000   0.0000   0.0000

          k = 0.0000 0.1650 0.0776 (  1968 PWs)   bands (ev):

     1.6276   3.1137   3.6732   3.8087   3.8709   4.0042   4.0502   4.0905
     4.2250   4.2449   4.4834   7.1349  10.8732  23.2657  24.2862  26.2606

     occupation numbers 
     1.0000   1.0000   1.0000   1.0000   1.0000   1.0000   1.0000   1.0000
     1.0000   1.0000   1.0000   1.0000   1.0000   0.0000   0.0000   0.0000

          k = 0.0000 0.1650 0.1553 (  1996 PWs)   bands (ev):

     1.9822   3.0880   3.6757   3.7867   3.8285   3.9973   4.0327   4.0491
     4.2791   4.3079   4.4528   5.7611  13.1351  21.2324  23.7379  26.3867

     occupation numbers 
     1.0000   1.0000   1.0000   1.0000   1.0000   1.0000   1.0000   1.0000
     1.0000   1.0000   1.0000   1.0000   0.0000   0.0000   0.0000   0.0000

          k = 0.0000 0.1650 0.2329 (  1990 PWs)   bands (ev):

     2.4922   2.9282   3.6890   3.7503   3.8204   3.9131   3.9999   4.0134
     4.3436   4.4045   4.4726   4.8671  15.6342  18.3474  24.3715  25.2617

     occupation numbers 
     1.0000   1.0000   1.0000   1.0000   1.0000   1.0000   1.0000   1.0000
     1.0000   1.0000   1.0000   1.0000   0.0000   0.0000   0.0000   0.0000

          k = 0.0000 0.2474 0.0000 (  1973 PWs)   bands (ev):

     2.1978   3.2750   3.7043   3.7870   3.8382   4.0061   4.1294   4.1495
     4.1660   4.2049   4.4945   9.4634   9.7309  19.8984  24.6217  25.6816

     occupation numbers 
     1.0000   1.0000   1.0000   1.0000   1.0000   1.0000   1.0000   1.0000
     1.0000   1.0000   1.0000   1.0000   1.0000   0.0000   0.0000   0.0000

          k = 0.0000 0.2474 0.0776 (  1961 PWs)   bands (ev):

     2.3056   3.2841   3.7028   3.7595   3.8298   3.9971   4.1301   4.1794
     4.1871   4.2144   4.4825   7.8593  11.6037  20.0238  24.5046  24.7715

     occupation numbers 
     1.0000   1.0000   1.0000   1.0000   1.0000   1.0000   1.0000   1.0000
     1.0000   1.0000   1.0000   1.0000   0.0000   0.0000   0.0000   0.0000

          k = 0.0000 0.2474 0.1553 (  1975 PWs)   bands (ev):

     2.6016   3.2962   3.6786   3.6967   3.8311   3.9713   4.1223   4.1736
     4.2683   4.3331   4.4480   6.4268  13.8513  20.3578  22.0076  23.1667

     occupation numbers 
     1.0000   1.0000   1.0000   1.0000   1.0000   1.0000   1.0000   1.0000
     1.0000   1.0000   1.0000   1.0000   0.0000   0.0000   0.0000   0.0000

          k = 0.0000 0.2474 0.2329 (  1984 PWs)   bands (ev):

     2.9774   3.2354   3.6293   3.6427   3.8700   3.9256   4.1311   4.1509
     4.3329   4.3957   4.6673   5.3433  16.3274  18.9813  21.1748  22.0358

     occupation numbers 
     1.0000   1.0000   1.0000   1.0000   1.0000   1.0000   1.0000   1.0000
     1.0000   1.0000   1.0000   1.0000   0.0000   0.0000   0.0000   0.0000

          k = 0.0000 0.3299 0.0000 (  1976 PWs)   bands (ev):

     2.8885   3.2814   3.6202   3.7963   3.9120   4.0276   4.0950   4.3455
     4.3678   4.3735   4.4916  10.2225  10.9714  16.8535  22.7042  23.3944

     occupation numbers 
     1.0000   1.0000   1.0000   1.0000   1.0000   1.0000   1.0000   1.0000
     1.0000   1.0000   1.0000   1.0000   1.0000   0.0000   0.0000   0.0000

          k = 0.0000 0.3299 0.0776 (  1976 PWs)   bands (ev):

     2.9343   3.2911   3.6161   3.7491   3.8813   4.1093   4.1740   4.3480
     4.3652   4.3813   4.4815   8.8162  12.6254  16.9820  21.5158  23.5489

     occupation numbers 
     1.0000   1.0000   1.0000   1.0000   1.0000   1.0000   1.0000   1.0000
     1.0000   1.0000   1.0000   1.0000   0.0000   0.0000   0.0000   0.0000

          k = 0.0000 0.3299 0.1553 (  1961 PWs)   bands (ev):

     3.0461   3.3066   3.5911   3.6320   3.9704   4.1494   4.2436   4.3237
     4.3715   4.4561   4.6367   7.3533  14.8236  17.3601  20.1834  22.7608

     occupation numbers 
     1.0000   1.0000   1.0000   1.0000   1.0000   1.0000   1.0000   1.0000
     1.0000   1.0000   1.0000   1.0000   0.0000   0.0000   0.0000   0.0000

          k = 0.0000 0.3299 0.2329 (  1970 PWs)   bands (ev):

     3.1756   3.2779   3.5523   3.5692   4.0848   4.1822   4.2073   4.2704
     4.3952   4.4250   5.2445   6.1547  17.1667  17.9251  19.1490  20.1333

     occupation numbers 
     1.0000   1.0000   1.0000   1.0000   1.0000   1.0000   1.0000   1.0000
     1.0000   1.0000   1.0000   1.0000   0.0000   0.0000   0.0000   0.0000

          k = 0.0000 0.4124 0.0000 (  1976 PWs)   bands (ev):

     3.1201   3.2210   3.4595   3.9074   3.9395   4.0483   4.1519   4.4868
     4.5114   4.5320   5.3838  11.2486  12.4186  14.1367  19.9223  20.9476

     occupation numbers 
     1.0000   1.0000   1.0000   1.0000   1.0000   1.0000   1.0000   1.0000
     1.0000   1.0000   1.0000   1.0000   0.0000   0.0000   0.0000   0.0000

          k = 0.0000 0.4124 0.0776 (  1970 PWs)   bands (ev):

     3.1147   3.2166   3.4831   3.7680   3.9902   4.0675   4.2789   4.4549
     4.5139   4.5399   5.4706  10.0194  13.8003  14.3234  18.8048  22.6355

     occupation numbers 
     1.0000   1.0000   1.0000   1.0000   1.0000   1.0000   1.0000   1.0000
     1.0000   1.0000   1.0000   1.0000   0.0000   0.0000   0.0000   0.0000

          k = 0.0000 0.4124 0.1553 (  1955 PWs)   bands (ev):

     3.1168   3.2201   3.4981   3.5961   4.1179   4.1220   4.3851   4.3939
     4.5207   4.5435   5.7946   8.5796  14.5817  15.8412  17.6983  23.0485

     occupation numbers 
     1.0000   1.0000   1.0000   1.0000   1.0000   1.0000   1.0000   1.0000
     1.0000   1.0000   1.0000   1.0000   0.0000   0.0000   0.0000   0.0000

          k = 0.0000 0.4124 0.2329 (  1961 PWs)   bands (ev):

     3.1524   3.2034   3.4853   3.5000   4.2027   4.2700   4.2959   4.3804
     4.5300   4.5388   6.4308   7.3697  15.2090  15.9925  18.7885  21.1736

     occupation numbers 
     1.0000   1.0000   1.0000   1.0000   1.0000   1.0000   1.0000   1.0000
     1.0000   1.0000   1.0000   1.0000   0.0000   0.0000   0.0000   0.0000

          k = 0.0000 0.4949 0.0000 (  1970 PWs)   bands (ev):

     3.1042   3.1855   3.3635   3.8793   3.9914   4.0170   4.2958   4.4825
     4.6268   4.6476   6.9735  11.0989  13.2063  14.0040  17.4477  18.6797

     occupation numbers 
     1.0000   1.0000   1.0000   1.0000   1.0000   1.0000   1.0000   1.0000
     1.0000   1.0000   1.0000   1.0000   0.0000   0.0000   0.0000   0.0000

          k = 0.0000 0.4949 0.0776 (  1970 PWs)   bands (ev):

     3.1073   3.1499   3.4040   3.7545   4.0383   4.0509   4.3869   4.4565
     4.6285   4.6478   7.0770  10.8486  12.3991  15.0279  16.7944  19.9121

     occupation numbers 
     1.0000   1.0000   1.0000   1.0000   1.0000   1.0000   1.0000   1.0000
     1.0000   1.0000   1.0000   1.0000   0.0000   0.0000   0.0000   0.0000

          k = 0.0000 0.4949 0.1553 (  1966 PWs)   bands (ev):

     3.0922   3.1440   3.4359   3.5708   4.0988   4.1938   4.3868   4.4884
     4.6327   4.6467   7.4090   9.9149  12.3177  14.5908  18.0003  21.6443

     occupation numbers 
     1.0000   1.0000   1.0000   1.0000   1.0000   1.0000   1.0000   1.0000
     1.0000   1.0000   1.0000   1.0000   0.0000   0.0000   0.0000   0.0000

          k = 0.0000 0.4949 0.2329 (  1963 PWs)   bands (ev):

     3.1042   3.1381   3.4340   3.4569   4.1882   4.2907   4.3638   4.4807
     4.6380   4.6432   8.0037   8.8607  12.8117  13.6065  20.1466  22.0630

     occupation numbers 
     1.0000   1.0000   1.0000   1.0000   1.0000   1.0000   1.0000   1.0000
     1.0000   1.0000   1.0000   1.0000   0.0000   0.0000   0.0000   0.0000

          k = 0.0000-0.5774 0.0000 (  1954 PWs)   bands (ev):

     3.0852   3.1724   3.3318   3.8579   4.0060   4.0213   4.3421   4.4808
     4.6679   4.6903   8.5879   9.3342  14.2991  15.1175  15.8607  17.3379

     occupation numbers 
     1.0000   1.0000   1.0000   1.0000   1.0000   1.0000   1.0000   1.0000
     1.0000   1.0000   1.0000   1.0000   0.0000   0.0000   0.0000   0.0000

          k = 0.0000-0.5774 0.0776 (  1958 PWs)   bands (ev):

     3.0949   3.1242   3.3777   3.7447   4.0279   4.0732   4.4261   4.4552
     4.6695   4.6893   8.6951   9.3882  13.6232  13.8585  17.3995  18.2403

     occupation numbers 
     1.0000   1.0000   1.0000   1.0000   1.0000   1.0000   1.0000   1.0000
     1.0000   1.0000   1.0000   1.0000   0.0000   0.0000   0.0000   0.0000

          k = 0.0000-0.5774 0.1553 (  1960 PWs)   bands (ev):

     3.0790   3.1144   3.4141   3.5609   4.0902   4.2170   4.3853   4.5222
     4.6733   4.6866   9.0030   9.5309  12.5459  12.6289  19.4531  19.9920

     occupation numbers 
     1.0000   1.0000   1.0000   1.0000   1.0000   1.0000   1.0000   1.0000
     1.0000   1.0000   1.0000   1.0000   0.0000   0.0000   0.0000   0.0000

          k = 0.0000-0.5774 0.2329 (  1960 PWs)   bands (ev):

     3.0844   3.1137   3.4155   3.4420   4.1823   4.2874   4.3918   4.5125
     4.6780   4.6826   9.4170   9.6348  11.8031  11.8474  21.4447  21.7071

     occupation numbers 
     1.0000   1.0000   1.0000   1.0000   1.0000   1.0000   1.0000   1.0000
     1.0000   1.0000   1.0000   1.0000   0.0000   0.0000   0.0000   0.0000

          k = 0.0714 0.1237 0.0000 (  1987 PWs)   bands (ev):

     1.3564   3.0642   3.6662   3.8338   3.8728   3.9801   4.0333   4.1561
     4.1726   4.2964   4.4895   8.5183   8.9003  24.8625  25.0128  26.1806

     occupation numbers 
     1.0000   1.0000   1.0000   1.0000   1.0000   1.0000   1.0000   1.0000
     1.0000   1.0000   1.0000   1.0000   1.0000   0.0000   0.0000   0.0000

          k = 0.0714 0.1237 0.0776 (  1976 PWs)   bands (ev):

     1.4815   3.0602   3.6673   3.8201   3.8610   3.9755   4.0257   4.1577
     4.2059   4.2914   4.4802   6.9775  10.7289  24.0554  24.9958  25.2210

     occupation numbers 
     1.0000   1.0000   1.0000   1.0000   1.0000   1.0000   1.0000   1.0000
     1.0000   1.0000   1.0000   1.0000   1.0000   0.0000   0.0000   0.0000

          k = 0.0714 0.1237 0.1553 (  1986 PWs)   bands (ev):

     1.8421   3.0226   3.6720   3.8018   3.8297   3.9690   4.0085   4.1058
     4.2922   4.3051   4.4531   5.6175  12.9910  21.1075  25.3932  25.5785

     occupation numbers 
     1.0000   1.0000   1.0000   1.0000   1.0000   1.0000   1.0000   1.0000
     1.0000   1.0000   1.0000   1.0000   0.0000   0.0000   0.0000   0.0000

          k = 0.0714 0.1237 0.2329 (  1990 PWs)   bands (ev):

     2.3675   2.8351   3.7025   3.7807   3.8156   3.9226   3.9829   3.9901
     4.3523   4.3991   4.4490   4.7754  15.4928  18.2104  26.0467  26.2078

     occupation numbers 
     1.0000   1.0000   1.0000   1.0000   1.0000   1.0000   1.0000   1.0000
     1.0000   1.0000   1.0000   1.0000   0.0000   0.0000   0.0000   0.0000

          k = 0.0714 0.2062 0.0000 (  1971 PWs)   bands (ev):

     1.9353   3.2497   3.6647   3.8039   3.8859   3.9395   4.1000   4.1216
     4.1831   4.2284   4.4858   9.2670   9.3486  21.5971  23.4770  26.5929

     occupation numbers 
     1.0000   1.0000   1.0000   1.0000   1.0000   1.0000   1.0000   1.0000
     1.0000   1.0000   1.0000   1.0000   1.0000   0.0000   0.0000   0.0000

          k = 0.0714 0.2062 0.0776 (  1973 PWs)   bands (ev):

     2.0520   3.2571   3.6723   3.7790   3.8384   3.9549   4.1056   4.1490
     4.1777   4.2496   4.4764   7.5800  11.3116  21.7188  23.5824  24.6834

     occupation numbers 
     1.0000   1.0000   1.0000   1.0000   1.0000   1.0000   1.0000   1.0000
     1.0000   1.0000   1.0000   1.0000   1.0000   0.0000   0.0000   0.0000

          k = 0.0714 0.2062 0.1553 (  1977 PWs)   bands (ev):

     2.3814   3.2619   3.6862   3.7238   3.7716   3.9295   4.0916   4.1528
     4.2775   4.3078   4.4523   6.1692  13.5672  21.5108  22.2768  24.0516

     occupation numbers 
     1.0000   1.0000   1.0000   1.0000   1.0000   1.0000   1.0000   1.0000
     1.0000   1.0000   1.0000   1.0000   0.0000   0.0000   0.0000   0.0000

          k = 0.0714 0.2062 0.2329 (  1980 PWs)   bands (ev):

     2.8315   3.1721   3.6570   3.6684   3.7776   3.8510   4.1032   4.1272
     4.3424   4.3907   4.5858   5.1521  16.0555  18.7499  22.8193  23.7103

     occupation numbers 
     1.0000   1.0000   1.0000   1.0000   1.0000   1.0000   1.0000   1.0000
     1.0000   1.0000   1.0000   1.0000   0.0000   0.0000   0.0000   0.0000

          k = 0.0714 0.2887 0.0000 (  1967 PWs)   bands (ev):

     2.6755   3.3426   3.7141   3.7279   3.7814   4.0228   4.0394   4.1560
     4.2973   4.4231   4.4804   9.8936  10.4580  18.4390  22.2441  24.2775

     occupation numbers 
     1.0000   1.0000   1.0000   1.0000   1.0000   1.0000   1.0000   1.0000
     1.0000   1.0000   1.0000   1.0000   1.0000   0.0000   0.0000   0.0000

          k = 0.0714 0.2887 0.0776 (  1967 PWs)   bands (ev):

     2.7569   3.3554   3.6818   3.7378   3.7628   4.0109   4.1185   4.1562
     4.3147   4.3996   4.4928   8.4154  12.1937  18.5673  22.3748  23.0797

     occupation numbers 
     1.0000   1.0000   1.0000   1.0000   1.0000   1.0000   1.0000   1.0000
     1.0000   1.0000   1.0000   1.0000   0.0000   0.0000   0.0000   0.0000

          k = 0.0714 0.2887 0.1553 (  1969 PWs)   bands (ev):

     2.9632   3.3813   3.6180   3.6742   3.8173   3.9824   4.1528   4.2979
     4.3204   4.3954   4.5617   6.9629  14.4192  18.9389  21.7347  22.3435

     occupation numbers 
     1.0000   1.0000   1.0000   1.0000   1.0000   1.0000   1.0000   1.0000
     1.0000   1.0000   1.0000   1.0000   0.0000   0.0000   0.0000   0.0000

          k = 0.0714 0.2887 0.2329 (  1969 PWs)   bands (ev):

     3.1934   3.3507   3.5779   3.6173   3.8791   3.9367   4.1909   4.2525
     4.3837   4.4132   4.9835   5.8049  16.8605  19.1676  20.0706  20.6179

     occupation numbers 
     1.0000   1.0000   1.0000   1.0000   1.0000   1.0000   1.0000   1.0000
     1.0000   1.0000   1.0000   1.0000   0.0000   0.0000   0.0000   0.0000

          k = 0.0714 0.3712 0.0000 (  1975 PWs)   bands (ev):

     3.1398   3.2931   3.5336   3.8572   3.9511   3.9694   4.0832   4.3025
     4.4654   4.4736   4.9970  10.8219  11.7977  15.5367  21.2729  21.3883

     occupation numbers 
     1.0000   1.0000   1.0000   1.0000   1.0000   1.0000   1.0000   1.0000
     1.0000   1.0000   1.0000   1.0000   0.0000   0.0000   0.0000   0.0000

          k = 0.0714 0.3712 0.0776 (  1968 PWs)   bands (ev):

     3.1438   3.3003   3.5508   3.7477   3.9143   4.0882   4.1776   4.2966
     4.4431   4.4791   5.0588   9.5084  13.3459  15.6662  20.2169  21.4162

     occupation numbers 
     1.0000   1.0000   1.0000   1.0000   1.0000   1.0000   1.0000   1.0000
     1.0000   1.0000   1.0000   1.0000   0.0000   0.0000   0.0000   0.0000

          k = 0.0714 0.3712 0.1553 (  1959 PWs)   bands (ev):

     3.1692   3.3149   3.5528   3.6089   3.9940   4.1315   4.2539   4.3657
     4.3880   4.5001   5.3249   8.0540  15.4706  16.0560  18.9224  21.8090

     occupation numbers 
     1.0000   1.0000   1.0000   1.0000   1.0000   1.0000   1.0000   1.0000
     1.0000   1.0000   1.0000   1.0000   0.0000   0.0000   0.0000   0.0000

          k = 0.0714 0.3712 0.2329 (  1965 PWs)   bands (ev):

     3.2265   3.2941   3.5235   3.5462   4.1062   4.1790   4.2155   4.2772
     4.4757   4.5077   5.9230   6.8467  16.6479  17.1883  18.5006  20.6991

     occupation numbers 
     1.0000   1.0000   1.0000   1.0000   1.0000   1.0000   1.0000   1.0000
     1.0000   1.0000   1.0000   1.0000   0.0000   0.0000   0.0000   0.0000

          k = 0.0714 0.4536 0.0000 (  1963 PWs)   bands (ev):

     3.1707   3.2484   3.4124   3.8955   3.9591   4.0249   4.1837   4.4670
     4.5098   4.5883   6.2899  11.7677  13.2280  13.3260  18.7403  19.8613

     occupation numbers 
     1.0000   1.0000   1.0000   1.0000   1.0000   1.0000   1.0000   1.0000
     1.0000   1.0000   1.0000   0.0000   0.0000   0.0000   0.0000   0.0000

          k = 0.0714 0.4536 0.0776 (  1971 PWs)   bands (ev):

     3.1681   3.2217   3.4551   3.7567   3.9929   4.0655   4.2953   4.4389
     4.5077   4.5925   6.3905  10.7790  13.0983  14.7210  17.7160  20.7487

     occupation numbers 
     1.0000   1.0000   1.0000   1.0000   1.0000   1.0000   1.0000   1.0000
     1.0000   1.0000   1.0000   1.0000   0.0000   0.0000   0.0000   0.0000

          k = 0.0714 0.4536 0.1553 (  1961 PWs)   bands (ev):

     3.1529   3.2230   3.4867   3.5828   4.0530   4.1787   4.3660   4.4136
     4.5087   4.5995   6.7231   9.4141  13.4451  15.6915  17.5130  21.1676

     occupation numbers 
     1.0000   1.0000   1.0000   1.0000   1.0000   1.0000   1.0000   1.0000
     1.0000   1.0000   1.0000   1.0000   0.0000   0.0000   0.0000   0.0000

          k = 0.0714 0.4536 0.2329 (  1961 PWs)   bands (ev):

     3.1719   3.2139   3.4755   3.4864   4.1527   4.2631   4.3070   4.3982
     4.5541   4.5908   7.3374   8.2430  14.0524  14.8795  19.5217  21.5997

     occupation numbers 
     1.0000   1.0000   1.0000   1.0000   1.0000   1.0000   1.0000   1.0000
     1.0000   1.0000   1.0000   1.0000   0.0000   0.0000   0.0000   0.0000

          k = 0.0714 0.5361 0.0000 (  1960 PWs)   bands (ev):

     3.1331   3.2251   3.3524   3.8650   3.9926   4.0164   4.2903   4.4630
     4.6169   4.6448   8.0324  10.2148  13.9721  14.8701  16.5059  17.8596

     occupation numbers 
     1.0000   1.0000   1.0000   1.0000   1.0000   1.0000   1.0000   1.0000
     1.0000   1.0000   1.0000   1.0000   0.0000   0.0000   0.0000   0.0000

          k = 0.0714 0.5361 0.0776 (  1965 PWs)   bands (ev):

     3.1422   3.1731   3.4070   3.7499   3.9872   4.0907   4.3805   4.4359
     4.6139   4.6442   8.1376  10.2455  12.9850  14.7415  17.0249  18.9850

     occupation numbers 
     1.0000   1.0000   1.0000   1.0000   1.0000   1.0000   1.0000   1.0000
     1.0000   1.0000   1.0000   1.0000   0.0000   0.0000   0.0000   0.0000

          k = 0.0714 0.5361 0.1553 (  1969 PWs)   bands (ev):

     3.1244   3.1673   3.4470   3.5703   4.0403   4.2319   4.3612   4.4944
     4.6027   4.6399   8.4595  10.1871  12.0539  13.6477  18.8887  20.7930

     occupation numbers 
     1.0000   1.0000   1.0000   1.0000   1.0000   1.0000   1.0000   1.0000
     1.0000   1.0000   1.0000   1.0000   0.0000   0.0000   0.0000   0.0000

          k = 0.0714 0.5361 0.2329 (  1974 PWs)   bands (ev):

     3.1330   3.1663   3.4430   3.4593   4.1402   4.2555   4.3913   4.5028
     4.6043   4.6262   8.9973   9.6801  12.0170  12.6592  20.9614  21.5045

     occupation numbers 
     1.0000   1.0000   1.0000   1.0000   1.0000   1.0000   1.0000   1.0000
     1.0000   1.0000   1.0000   1.0000   0.0000   0.0000   0.0000   0.0000

          k = 0.1429 0.2474 0.0000 (  1961 PWs)   bands (ev):

     2.5915   3.4172   3.6078   3.7626   3.7921   3.9115   3.9988   4.1965
     4.2915   4.4417   4.4663   9.7903  10.2833  20.1467  20.3982  26.0753

     occupation numbers 
     1.0000   1.0000   1.0000   1.0000   1.0000   1.0000   1.0000   1.0000
     1.0000   1.0000   1.0000   1.0000   1.0000   0.0000   0.0000   0.0000

          k = 0.1429 0.2474 0.0776 (  1962 PWs)   bands (ev):

     2.6857   3.4334   3.6179   3.7098   3.8221   3.8383   4.1065   4.1703
     4.3215   4.3949   4.5014   8.2847  12.0506  20.2823  20.5182  24.7643

     occupation numbers 
     1.0000   1.0000   1.0000   1.0000   1.0000   1.0000   1.0000   1.0000
     1.0000   1.0000   1.0000   1.0000   0.0000   0.0000   0.0000   0.0000

          k = 0.1429 0.2474 0.1553 (  1967 PWs)   bands (ev):

     2.9346   3.4760   3.6234   3.6492   3.7455   3.8229   4.1514   4.2890
     4.3327   4.3671   4.5769   6.8399  14.2836  20.6867  20.8044  22.4792

     occupation numbers 
     1.0000   1.0000   1.0000   1.0000   1.0000   1.0000   1.0000   1.0000
     1.0000   1.0000   1.0000   1.0000   0.0000   0.0000   0.0000   0.0000

          k = 0.1429 0.2474 0.2329 (  1975 PWs)   bands (ev):

     3.2321   3.4515   3.5778   3.6528   3.7054   3.7727   4.1816   4.2460
     4.4013   4.4053   4.9325   5.7055  16.7430  19.3600  21.3523  21.7345

     occupation numbers 
     1.0000   1.0000   1.0000   1.0000   1.0000   1.0000   1.0000   1.0000
     1.0000   1.0000   1.0000   1.0000   0.0000   0.0000   0.0000   0.0000

          k = 0.1429 0.3299 0.0000 (  1973 PWs)   bands (ev):

     3.2252   3.4396   3.5993   3.6751   3.8190   3.9238   4.0371   4.1315
     4.4464   4.4567   4.9494  10.6128  11.4823  17.2383  19.2142  23.1041

     occupation numbers 
     1.0000   1.0000   1.0000   1.0000   1.0000   1.0000   1.0000   1.0000
     1.0000   1.0000   1.0000   1.0000   0.7049   0.0000   0.0000   0.0000

          k = 0.1429 0.3299 0.0776 (  1966 PWs)   bands (ev):

     3.2467   3.4555   3.5830   3.6806   3.7827   3.9552   4.1111   4.1304
     4.4164   4.4723   5.0002   9.2602  13.0807  17.3692  19.3459  21.9032

     occupation numbers 
     1.0000   1.0000   1.0000   1.0000   1.0000   1.0000   1.0000   1.0000
     1.0000   1.0000   1.0000   1.0000   0.0000   0.0000   0.0000   0.0000

          k = 0.1429 0.3299 0.1553 (  1964 PWs)   bands (ev):

     3.3000   3.4997   3.5255   3.6919   3.7738   3.9340   4.1236   4.3235
     4.3421   4.5007   5.2120   7.8092  15.2622  17.7553  19.7282  20.5648

     occupation numbers 
     1.0000   1.0000   1.0000   1.0000   1.0000   1.0000   1.0000   1.0000
     1.0000   1.0000   1.0000   1.0000   0.0000   0.0000   0.0000   0.0000

          k = 0.1429 0.3299 0.2329 (  1971 PWs)   bands (ev):

     3.3687   3.4447   3.5734   3.6450   3.8255   3.8850   4.1669   4.2484
     4.4682   4.5113   5.7386   6.6210  17.5952  18.3427  19.4997  20.0682

     occupation numbers 
     1.0000   1.0000   1.0000   1.0000   1.0000   1.0000   1.0000   1.0000
     1.0000   1.0000   1.0000   1.0000   0.0000   0.0000   0.0000   0.0000

          k = 0.1429 0.4124 0.0000 (  1973 PWs)   bands (ev):

     3.3383   3.3929   3.4777   3.8777   3.9112   3.9584   4.0511   4.2410
     4.4302   4.5672   5.9833  11.7248  12.9060  14.5135  18.4207  20.3341

     occupation numbers 
     1.0000   1.0000   1.0000   1.0000   1.0000   1.0000   1.0000   1.0000
     1.0000   1.0000   1.0000   0.0000   0.0000   0.0000   0.0000   0.0000

          k = 0.1429 0.4124 0.0776 (  1978 PWs)   bands (ev):

     3.3256   3.3705   3.5367   3.7241   3.9063   4.0642   4.1429   4.2367
     4.4010   4.5763   6.0776  10.5089  14.2835  14.6979  18.5554  19.1986

     occupation numbers 
     1.0000   1.0000   1.0000   1.0000   1.0000   1.0000   1.0000   1.0000
     1.0000   1.0000   1.0000   1.0000   0.0000   0.0000   0.0000   0.0000

          k = 0.1429 0.4124 0.1553 (  1969 PWs)   bands (ev):

     3.2979   3.3924   3.5491   3.6148   3.9345   4.1015   4.1989   4.3201
     4.3656   4.5901   6.3945   9.0855  14.9880  16.3113  18.0504  18.9570

     occupation numbers 
     1.0000   1.0000   1.0000   1.0000   1.0000   1.0000   1.0000   1.0000
     1.0000   1.0000   1.0000   1.0000   0.0000   0.0000   0.0000   0.0000

          k = 0.1429 0.4124 0.2329 (  1965 PWs)   bands (ev):

     3.3158   3.3717   3.5266   3.5741   4.0257   4.1143   4.1771   4.2306
     4.5085   4.5780   6.9952   7.8993  15.6230  16.4314  19.0833  19.5753

     occupation numbers 
     1.0000   1.0000   1.0000   1.0000   1.0000   1.0000   1.0000   1.0000
     1.0000   1.0000   1.0000   1.0000   0.0000   0.0000   0.0000   0.0000

          k = 0.1429 0.4949 0.0000 (  1966 PWs)   bands (ev):

     3.2710   3.3696   3.4051   3.8634   3.9775   4.0005   4.1269   4.4194
     4.4330   4.6008   7.5383  11.6295  13.5925  14.4897  17.8261  17.9587

     occupation numbers 
     1.0000   1.0000   1.0000   1.0000   1.0000   1.0000   1.0000   1.0000
     1.0000   1.0000   1.0000   0.0000   0.0000   0.0000   0.0000   0.0000

          k = 0.1429 0.4949 0.0776 (  1970 PWs)   bands (ev):

     3.2781   3.2997   3.4925   3.7461   3.9296   4.0864   4.2354   4.3890
     4.4265   4.6044   7.6482  11.4352  12.7404  15.5341  17.1430  18.0734

     occupation numbers 
     1.0000   1.0000   1.0000   1.0000   1.0000   1.0000   1.0000   1.0000
     1.0000   1.0000   1.0000   1.0000   0.0000   0.0000   0.0000   0.0000

          k = 0.1429 0.4949 0.1553 (  1969 PWs)   bands (ev):

     3.2478   3.3148   3.5433   3.5857   3.9439   4.1969   4.2995   4.3820
     4.4132   4.6055   7.9905  10.5064  12.6698  15.0418  18.3654  18.4811

     occupation numbers 
     1.0000   1.0000   1.0000   1.0000   1.0000   1.0000   1.0000   1.0000
     1.0000   1.0000   1.0000   1.0000   0.0000   0.0000   0.0000   0.0000

          k = 0.1429 0.4949 0.2329 (  1968 PWs)   bands (ev):

     3.2627   3.3112   3.5030   3.5260   4.0436   4.1738   4.2981   4.3619
     4.5080   4.5794   8.5879   9.4440  13.1989  14.0227  19.1348  19.8719

     occupation numbers 
     1.0000   1.0000   1.0000   1.0000   1.0000   1.0000   1.0000   1.0000
     1.0000   1.0000   1.0000   1.0000   0.0000   0.0000   0.0000   0.0000

          k = 0.1429 0.5774 0.0000 (  1962 PWs)   bands (ev):

     3.2455   3.3551   3.3811   3.8678   3.9417   4.0301   4.1847   4.4155
     4.5435   4.5656   9.2220   9.7471  14.8070  15.6417  16.1950  17.7714

     occupation numbers 
     1.0000   1.0000   1.0000   1.0000   1.0000   1.0000   1.0000   1.0000
     1.0000   1.0000   1.0000   1.0000   0.0000   0.0000   0.0000   0.0000

          k = 0.1429 0.5774 0.0776 (  1966 PWs)   bands (ev):

     3.2582   3.2733   3.4750   3.7568   3.9086   4.1123   4.2729   4.3849
     4.5406   4.5644   9.3396   9.8212  14.0959  14.2832  17.8084  17.9231

     occupation numbers 
     1.0000   1.0000   1.0000   1.0000   1.0000   1.0000   1.0000   1.0000
     1.0000   1.0000   1.0000   1.0000   0.0000   0.0000   0.0000   0.0000

          k = 0.1429 0.5774 0.1553 (  1973 PWs)   bands (ev):

     3.2287   3.2867   3.5279   3.5889   3.9294   4.2520   4.2921   4.3924
     4.5318   4.5539   9.6738  10.0307  12.9688  13.0035  18.3176  19.8921

     occupation numbers 
     1.0000   1.0000   1.0000   1.0000   1.0000   1.0000   1.0000   1.0000
     1.0000   1.0000   1.0000   1.0000   0.0000   0.0000   0.0000   0.0000

          k = 0.1429 0.5774 0.2329 (  1972 PWs)   bands (ev):

     3.2430   3.2881   3.4961   3.5095   4.0340   4.1688   4.3876   4.4481
     4.5171   4.5207  10.1127  10.2603  12.1429  12.1629  18.9812  19.8480

     occupation numbers 
     1.0000   1.0000   1.0000   1.0000   1.0000   1.0000   1.0000   1.0000
     1.0000   1.0000   1.0000   1.0000   0.0000   0.0000   0.0000   0.0000

          k = 0.2143 0.3712 0.0000 (  1989 PWs)   bands (ev):

     3.4854   3.5120   3.5552   3.7087   3.8571   3.8837   4.0716   4.0955
     4.4087   4.5634   5.9082  11.6553  12.7645  16.1926  16.4686  22.1165

     occupation numbers 
     1.0000   1.0000   1.0000   1.0000   1.0000   1.0000   1.0000   1.0000
     1.0000   1.0000   1.0000   0.0000   0.0000   0.0000   0.0000   0.0000

          k = 0.2143 0.3712 0.0776 (  1978 PWs)   bands (ev):

     3.4730   3.4988   3.6065   3.6133   3.8691   3.9387   4.0671   4.1613
     4.3793   4.5741   5.9994  10.4063  14.2432  16.3274  16.5991  20.8484

     occupation numbers 
     1.0000   1.0000   1.0000   1.0000   1.0000   1.0000   1.0000   1.0000
     1.0000   1.0000   1.0000   1.0000   0.0000   0.0000   0.0000   0.0000

          k = 0.2143 0.3712 0.1553 (  1971 PWs)   bands (ev):

     3.4387   3.4856   3.5619   3.6896   3.8329   3.9463   4.0738   4.2969
     4.3517   4.5901   6.3068   8.9771  16.3216  16.7342  16.9823  19.4640

     occupation numbers 
     1.0000   1.0000   1.0000   1.0000   1.0000   1.0000   1.0000   1.0000
     1.0000   1.0000   1.0000   1.0000   0.0000   0.0000   0.0000   0.0000

          k = 0.2143 0.3712 0.2329 (  1964 PWs)   bands (ev):

     3.4248   3.4377   3.6237   3.6915   3.8457   3.9045   4.1179   4.2013
     4.5049   4.5785   6.8962   7.7930  17.3854  17.5773  17.9938  18.3053

     occupation numbers 
     1.0000   1.0000   1.0000   1.0000   1.0000   1.0000   1.0000   1.0000
     1.0000   1.0000   1.0000   1.0000   0.0000   0.0000   0.0000   0.0000

          k = 0.2143 0.4536 0.0000 (  1977 PWs)   bands (ev):

     3.4569   3.4574   3.5442   3.8322   3.9019   3.9806   3.9906   4.2268
     4.3791   4.5861   7.3135  12.8240  13.9068  14.2658  15.7090  19.5637

     occupation numbers 
     1.0000   1.0000   1.0000   1.0000   1.0000   1.0000   1.0000   1.0000
     1.0000   1.0000   1.0000   0.0000   0.0000   0.0000   0.0000   0.0000

          k = 0.2143 0.4536 0.0776 (  1977 PWs)   bands (ev):

     3.4214   3.4728   3.5983   3.7053   3.8943   4.0228   4.0669   4.2501
     4.3482   4.5935   7.4251  11.7943  13.8713  15.6172  15.8511  18.4717

     occupation numbers 
     1.0000   1.0000   1.0000   1.0000   1.0000   1.0000   1.0000   1.0000
     1.0000   1.0000   1.0000   0.0000   0.0000   0.0000   0.0000   0.0000

          k = 0.2143 0.4536 0.1553 (  1975 PWs)   bands (ev):

     3.3925   3.5140   3.5551   3.6918   3.8495   4.0559   4.1170   4.2675
     4.3682   4.6012   7.7734  10.4296  14.2398  16.2299  16.6417  18.0102

     occupation numbers 
     1.0000   1.0000   1.0000   1.0000   1.0000   1.0000   1.0000   1.0000
     1.0000   1.0000   1.0000   1.0000   0.0000   0.0000   0.0000   0.0000

          k = 0.2143 0.4536 0.2329 (  1963 PWs)   bands (ev):

     3.4022   3.4549   3.5869   3.6610   3.9177   4.0215   4.1349   4.1851
     4.5007   4.5787   8.3852   9.2745  14.8718  15.7319  16.8918  17.7362

     occupation numbers 
     1.0000   1.0000   1.0000   1.0000   1.0000   1.0000   1.0000   1.0000
     1.0000   1.0000   1.0000   1.0000   0.0000   0.0000   0.0000   0.0000

          k = 0.2143 0.5361 0.0000 (  1965 PWs)   bands (ev):

     3.4196   3.4322   3.5295   3.8514   3.9107   3.9953   4.0349   4.3632
     4.3822   4.5303   9.0790  11.1712  14.8387  15.3897  15.8480  17.2938

     occupation numbers 
     1.0000   1.0000   1.0000   1.0000   1.0000   1.0000   1.0000   1.0000
     1.0000   1.0000   1.0000   1.0000   0.0000   0.0000   0.0000   0.0000

          k = 0.2143 0.5361 0.0776 (  1967 PWs)   bands (ev):

     3.3937   3.4345   3.5956   3.7497   3.8494   4.0719   4.1088   4.3311
     4.3876   4.5367   9.1955  11.2517  13.8058  15.4690  15.7347  17.7545

     occupation numbers 
     1.0000   1.0000   1.0000   1.0000   1.0000   1.0000   1.0000   1.0000
     1.0000   1.0000   1.0000   1.0000   0.0000   0.0000   0.0000   0.0000

          k = 0.2143 0.5361 0.1553 (  1968 PWs)   bands (ev):

     3.3679   3.4728   3.6049   3.6751   3.8092   4.1289   4.1943   4.2675
     4.4155   4.5448   9.5457  11.3556  12.7346  14.5016  15.9288  18.4678

     occupation numbers 
     1.0000   1.0000   1.0000   1.0000   1.0000   1.0000   1.0000   1.0000
     1.0000   1.0000   1.0000   1.0000   0.0000   0.0000   0.0000   0.0000

          k = 0.2143 0.5361 0.2329 (  1961 PWs)   bands (ev):

     3.3902   3.4586   3.5633   3.6304   3.9119   4.0509   4.2316   4.2548
     4.4775   4.5295  10.1243  10.8714  12.7109  13.4499  16.5810  17.4666

     occupation numbers 
     1.0000   1.0000   1.0000   1.0000   1.0000   1.0000   1.0000   1.0000
     1.0000   1.0000   1.0000   1.0000   0.0000   0.0000   0.0000   0.0000

          k = 0.2857 0.4949 0.0000 (  1977 PWs)   bands (ev):

     3.4615   3.5579   3.6206   3.8221   3.8626   3.9167   4.0292   4.2815
     4.3394   4.5225   8.9618  12.9239  13.2876  14.8561  15.8306  18.9061

     occupation numbers 
     1.0000   1.0000   1.0000   1.0000   1.0000   1.0000   1.0000   1.0000
     1.0000   1.0000   1.0000   0.0000   0.0000   0.0000   0.0000   0.0000

          k = 0.2857 0.4949 0.0776 (  1963 PWs)   bands (ev):

     3.4609   3.5667   3.6495   3.7130   3.8770   3.9560   4.0504   4.3069
     4.3090   4.5315   9.0813  12.8331  13.4233  13.9237  16.8251  17.7710

     occupation numbers 
     1.0000   1.0000   1.0000   1.0000   1.0000   1.0000   1.0000   1.0000
     1.0000   1.0000   1.0000   0.0000   0.0000   0.0000   0.0000   0.0000

          k = 0.2857 0.4949 0.1553 (  1960 PWs)   bands (ev):

     3.4644   3.5719   3.6321   3.7260   3.8053   3.9963   4.0809   4.2285
     4.3879   4.5443   9.4433  11.9801  13.7948  13.8236  16.3821  16.3951

     occupation numbers 
     1.0000   1.0000   1.0000   1.0000   1.0000   1.0000   1.0000   1.0000
     1.0000   1.0000   1.0000   0.0000   0.0000   0.0000   0.0000   0.0000

          k = 0.2857 0.4949 0.2329 (  1967 PWs)   bands (ev):

     3.4807   3.5185   3.6625   3.7236   3.8432   3.9488   4.1105   4.1533
     4.4775   4.5326  10.0554  10.9167  14.3348  14.4537  15.2700  15.3984

     occupation numbers 
     1.0000   1.0000   1.0000   1.0000   1.0000   1.0000   1.0000   1.0000
     1.0000   1.0000   1.0000   1.0000   0.0000   0.0000   0.0000   0.0000

          k = 0.2857 0.5774 0.0000 (  1962 PWs)   bands (ev):

     3.4673   3.5941   3.6509   3.8320   3.8450   3.8607   4.0575   4.3246
     4.3649   4.4351  10.8634  10.9447  12.9953  16.2428  17.1421  17.3187

     occupation numbers 
     1.0000   1.0000   1.0000   1.0000   1.0000   1.0000   1.0000   1.0000
     1.0000   1.0000   1.0000   1.0000   0.0000   0.0000   0.0000   0.0000

          k = 0.2857 0.5774 0.0776 (  1965 PWs)   bands (ev):

     3.4782   3.5997   3.6506   3.7565   3.8388   3.9172   4.0713   4.2917
     4.3822   4.4500  10.9943  11.0481  13.1119  15.4788  15.6089  17.4932

     occupation numbers 
     1.0000   1.0000   1.0000   1.0000   1.0000   1.0000   1.0000   1.0000
     1.0000   1.0000   1.0000   1.0000   0.0000   0.0000   0.0000   0.0000

          k = 0.2857 0.5774 0.1553 (  1971 PWs)   bands (ev):

     3.4988   3.6022   3.6671   3.6849   3.8318   3.9486   4.0940   4.2122
     4.4268   4.4792  11.3555  11.3691  13.3862  14.2793  14.3738  16.2702

     occupation numbers 
     1.0000   1.0000   1.0000   1.0000   1.0000   1.0000   1.0000   1.0000
     1.0000   1.0000   1.0000   1.0000   0.0000   0.0000   0.0000   0.0000

          k = 0.2857 0.5774 0.2329 (  1969 PWs)   bands (ev):

     3.5225   3.5625   3.6793   3.6882   3.8594   3.9241   4.1109   4.1403
     4.4731   4.4930  11.8112  11.8698  13.1001  13.2803  14.3535  15.1792

     occupation numbers 
     1.0000   1.0000   1.0000   1.0000   1.0000   1.0000   1.0000   1.0000
     1.0000   1.0000   0.0000   0.0000   0.0000   0.0000   0.0000   0.0000

 ------ SPIN DOWN ----------


          k = 0.0000 0.0000 0.0000 (  1993 PWs)   bands (ev):

     0.9004   2.8736   3.6324   3.8670   3.8670   3.9230   3.9230   4.2565
     4.2565   4.4879   4.4879   7.8005   8.6565  25.6998  29.1210  29.1210

     occupation numbers 
     1.0000   1.0000   1.0000   1.0000   1.0000   1.0000   1.0000   1.0000
     1.0000   1.0000   1.0000   1.0000   1.0000   0.0000   0.0000   0.0000

          k = 0.0000 0.0000 0.0776 (  1993 PWs)   bands (ev):

     1.0288   2.8577   3.6333   3.8649   3.8649   3.9166   3.9166   4.2729
     4.2729   4.4801   4.4801   6.4371  10.3013  23.6767  29.2494  29.2495

     occupation numbers 
     1.0000   1.0000   1.0000   1.0000   1.0000   1.0000   1.0000   1.0000
     1.0000   1.0000   1.0000   1.0000   1.0000   0.0000   0.0000   0.0000

          k = 0.0000 0.0000 0.1553 (  1992 PWs)   bands (ev):

     1.4010   2.7766   3.6505   3.8629   3.8629   3.9004   3.9004   4.3149
     4.3149   4.4566   4.4566   5.0548  12.5570  20.6967  29.6213  29.6217

     occupation numbers 
     1.0000   1.0000   1.0000   1.0000   1.0000   1.0000   1.0000   1.0000
     1.0000   1.0000   1.0000   1.0000   0.0000   0.0000   0.0000   0.0000

          k = 0.0000 0.0000 0.2329 (  1992 PWs)   bands (ev):

     1.9571   2.5011   3.7490   3.8678   3.8678   3.8816   3.8816   4.1307
     4.3677   4.3677   4.4178   4.4178  15.0635  17.7888  30.1756  30.1770

     occupation numbers 
     1.0000   1.0000   1.0000   1.0000   1.0000   1.0000   1.0000   1.0000
     1.0000   1.0000   1.0000   1.0000   0.0000   0.0000   0.0000   0.0000

          k = 0.0000 0.0825 0.0000 (  1971 PWs)   bands (ev):

     1.0538   2.9416   3.6474   3.8524   3.9041   3.9062   3.9582   4.2223
     4.2415   4.3955   4.4901   8.0529   8.7347  25.8661  26.5846  27.8091

     occupation numbers 
     1.0000   1.0000   1.0000   1.0000   1.0000   1.0000   1.0000   1.0000
     1.0000   1.0000   1.0000   1.0000   1.0000   0.0000   0.0000   0.0000

          k = 0.0000 0.0825 0.0776 (  1982 PWs)   bands (ev):

     1.1812   2.9300   3.6474   3.8476   3.8982   3.9014   3.9516   4.2432
     4.2593   4.3785   4.4815   6.6327  10.4423  23.8164  26.7344  27.9447

     occupation numbers 
     1.0000   1.0000   1.0000   1.0000   1.0000   1.0000   1.0000   1.0000
     1.0000   1.0000   1.0000   1.0000   1.0000   0.0000   0.0000   0.0000

          k = 0.0000 0.0825 0.1553 (  1988 PWs)   bands (ev):

     1.5503   2.8643   3.6586   3.8417   3.8777   3.8984   3.9351   4.2775
     4.3044   4.3256   4.4558   5.2846  12.7015  20.8362  27.1192  28.3474

     occupation numbers 
     1.0000   1.0000   1.0000   1.0000   1.0000   1.0000   1.0000   1.0000
     1.0000   1.0000   1.0000   1.0000   0.0000   0.0000   0.0000   0.0000

          k = 0.0000 0.0825 0.2329 (  1997 PWs)   bands (ev):

     2.0979   2.6186   3.7321   3.8473   3.8528   3.9026   3.9163   4.0275
     4.3607   4.3918   4.4141   4.5669  15.2070  17.9303  27.7495  28.6157

     occupation numbers 
     1.0000   1.0000   1.0000   1.0000   1.0000   1.0000   1.0000   1.0000
     1.0000   1.0000   1.0000   1.0000   0.0000   0.0000   0.0000   0.0000

          k = 0.0000 0.1650 0.0000 (  1973 PWs)   bands (ev):

     1.5036   3.1143   3.6713   3.8223   3.8929   4.0096   4.0578   4.0774
     4.2019   4.2395   4.4936   8.7348   8.9872  23.1722  26.1162  26.3150

     occupation numbers 
     1.0000   1.0000   1.0000   1.0000   1.0000   1.0000   1.0000   1.0000
     1.0000   1.0000   1.0000   1.0000   1.0000   0.0000   0.0000   0.0000

          k = 0.0000 0.1650 0.0776 (  1968 PWs)   bands (ev):

     1.6271   3.1136   3.6731   3.8088   3.8710   4.0042   4.0502   4.0903
     4.2249   4.2448   4.4832   7.1345  10.8728  23.2652  24.2858  26.2601

     occupation numbers 
     1.0000   1.0000   1.0000   1.0000   1.0000   1.0000   1.0000   1.0000
     1.0000   1.0000   1.0000   1.0000   1.0000   0.0000   0.0000   0.0000

          k = 0.0000 0.1650 0.1553 (  1996 PWs)   bands (ev):

     1.9817   3.0879   3.6756   3.7867   3.8285   3.9973   4.0327   4.0489
     4.2790   4.3077   4.4527   5.7607  13.1346  21.2320  23.7374  26.3863

     occupation numbers 
     1.0000   1.0000   1.0000   1.0000   1.0000   1.0000   1.0000   1.0000
     1.0000   1.0000   1.0000   1.0000   0.0000   0.0000   0.0000   0.0000

          k = 0.0000 0.1650 0.2329 (  1990 PWs)   bands (ev):

     2.4918   2.9279   3.6889   3.7502   3.8204   3.9130   3.9999   4.0134
     4.3434   4.4043   4.4725   4.8668  15.6337  18.3469  24.3710  25.2612

     occupation numbers 
     1.0000   1.0000   1.0000   1.0000   1.0000   1.0000   1.0000   1.0000
     1.0000   1.0000   1.0000   1.0000   0.0000   0.0000   0.0000   0.0000

          k = 0.0000 0.2474 0.0000 (  1973 PWs)   bands (ev):

[...]
     1.0000   1.0000   1.0000   1.0000   1.0000   0.0000   0.0000   0.0000

          k = 0.1429 0.2474 0.0776 (  1962 PWs)   bands (ev):

     2.6852   3.4333   3.6179   3.7096   3.8220   3.8382   4.1063   4.1702
     4.3215   4.3948   4.5013   8.2843  12.0501  20.2818  20.5177  24.7639

     occupation numbers 
     1.0000   1.0000   1.0000   1.0000   1.0000   1.0000   1.0000   1.0000
     1.0000   1.0000   1.0000   1.0000   0.0000   0.0000   0.0000   0.0000

          k = 0.1429 0.2474 0.1553 (  1967 PWs)   bands (ev):

     2.9342   3.4759   3.6232   3.6493   3.7454   3.8229   4.1513   4.2889
     4.3325   4.3671   4.5768   6.8395  14.2831  20.6862  20.8040  22.4787

     occupation numbers 
     1.0000   1.0000   1.0000   1.0000   1.0000   1.0000   1.0000   1.0000
     1.0000   1.0000   1.0000   1.0000   0.0000   0.0000   0.0000   0.0000

          k = 0.1429 0.2474 0.2329 (  1975 PWs)   bands (ev):

     3.2317   3.4512   3.5777   3.6527   3.7054   3.7727   4.1815   4.2459
     4.4012   4.4052   4.9323   5.7051  16.7426  19.3596  21.3518  21.7340

     occupation numbers 
     1.0000   1.0000   1.0000   1.0000   1.0000   1.0000   1.0000   1.0000
     1.0000   1.0000   1.0000   1.0000   0.0000   0.0000   0.0000   0.0000

          k = 0.1429 0.3299 0.0000 (  1973 PWs)   bands (ev):

     3.2249   3.4396   3.5991   3.6751   3.8190   3.9236   4.0370   4.1313
     4.4463   4.4567   4.9493  10.6127  11.4815  17.2378  19.2137  23.1040

     occupation numbers 
     1.0000   1.0000   1.0000   1.0000   1.0000   1.0000   1.0000   1.0000
     1.0000   1.0000   1.0000   1.0000   0.7951   0.0000   0.0000   0.0000

          k = 0.1429 0.3299 0.0776 (  1966 PWs)   bands (ev):

     3.2464   3.4554   3.5828   3.6805   3.7827   3.9551   4.1109   4.1303
     4.4163   4.4723   5.0000   9.2598  13.0802  17.3687  19.3454  21.9028

     occupation numbers 
     1.0000   1.0000   1.0000   1.0000   1.0000   1.0000   1.0000   1.0000
     1.0000   1.0000   1.0000   1.0000   0.0000   0.0000   0.0000   0.0000

          k = 0.1429 0.3299 0.1553 (  1964 PWs)   bands (ev):

     3.2997   3.4997   3.5253   3.6918   3.7737   3.9340   4.1234   4.3234
     4.3419   4.5007   5.2118   7.8088  15.2617  17.7548  19.7277  20.5643

     occupation numbers 
     1.0000   1.0000   1.0000   1.0000   1.0000   1.0000   1.0000   1.0000
     1.0000   1.0000   1.0000   1.0000   0.0000   0.0000   0.0000   0.0000

          k = 0.1429 0.3299 0.2329 (  1971 PWs)   bands (ev):

     3.3685   3.4445   3.5733   3.6450   3.8255   3.8850   4.1668   4.2483
     4.4682   4.5113   5.7383   6.6207  17.5947  18.3422  19.4992  20.0677

     occupation numbers 
     1.0000   1.0000   1.0000   1.0000   1.0000   1.0000   1.0000   1.0000
     1.0000   1.0000   1.0000   1.0000   0.0000   0.0000   0.0000   0.0000

          k = 0.1429 0.4124 0.0000 (  1973 PWs)   bands (ev):

     3.3383   3.3929   3.4775   3.8775   3.9111   3.9583   4.0509   4.2410
     4.4301   4.5673   5.9830  11.7248  12.9051  14.5130  18.4202  20.3341

     occupation numbers 
     1.0000   1.0000   1.0000   1.0000   1.0000   1.0000   1.0000   1.0000
     1.0000   1.0000   1.0000   0.0000   0.0000   0.0000   0.0000   0.0000

          k = 0.1429 0.4124 0.0776 (  1978 PWs)   bands (ev):

     3.3255   3.3705   3.5365   3.7240   3.9062   4.0640   4.1428   4.2367
     4.4008   4.5763   6.0773  10.5085  14.2829  14.6974  18.5549  19.1982

     occupation numbers 
     1.0000   1.0000   1.0000   1.0000   1.0000   1.0000   1.0000   1.0000
     1.0000   1.0000   1.0000   1.0000   0.0000   0.0000   0.0000   0.0000

          k = 0.1429 0.4124 0.1553 (  1969 PWs)   bands (ev):

     3.2978   3.3924   3.5489   3.6147   3.9344   4.1014   4.1989   4.3200
     4.3655   4.5901   6.3941   9.0851  14.9876  16.3108  18.0500  18.9565

     occupation numbers 
     1.0000   1.0000   1.0000   1.0000   1.0000   1.0000   1.0000   1.0000
     1.0000   1.0000   1.0000   1.0000   0.0000   0.0000   0.0000   0.0000

          k = 0.1429 0.4124 0.2329 (  1965 PWs)   bands (ev):

     3.3157   3.3716   3.5265   3.5740   4.0256   4.1142   4.1771   4.2305
     4.5084   4.5780   6.9948   7.8989  15.6225  16.4310  19.0828  19.5748

     occupation numbers 
     1.0000   1.0000   1.0000   1.0000   1.0000   1.0000   1.0000   1.0000
     1.0000   1.0000   1.0000   1.0000   0.0000   0.0000   0.0000   0.0000

          k = 0.1429 0.4949 0.0000 (  1966 PWs)   bands (ev):

     3.2710   3.3696   3.4048   3.8633   3.9773   4.0004   4.1269   4.4192
     4.4330   4.6009   7.5379  11.6291  13.5924  14.4888  17.8260  17.9583

     occupation numbers 
     1.0000   1.0000   1.0000   1.0000   1.0000   1.0000   1.0000   1.0000
     1.0000   1.0000   1.0000   0.0000   0.0000   0.0000   0.0000   0.0000

          k = 0.1429 0.4949 0.0776 (  1970 PWs)   bands (ev):

     3.2780   3.2996   3.4924   3.7459   3.9294   4.0862   4.2354   4.3889
     4.4266   4.6044   7.6478  11.4348  12.7400  15.5336  17.1426  18.0730

     occupation numbers 
     1.0000   1.0000   1.0000   1.0000   1.0000   1.0000   1.0000   1.0000
     1.0000   1.0000   1.0000   1.0000   0.0000   0.0000   0.0000   0.0000

          k = 0.1429 0.4949 0.1553 (  1969 PWs)   bands (ev):

     3.2477   3.3148   3.5432   3.5856   3.9438   4.1968   4.2993   4.3820
     4.4132   4.6054   7.9901  10.5060  12.6694  15.0414  18.3649  18.4807

     occupation numbers 
     1.0000   1.0000   1.0000   1.0000   1.0000   1.0000   1.0000   1.0000
     1.0000   1.0000   1.0000   1.0000   0.0000   0.0000   0.0000   0.0000

          k = 0.1429 0.4949 0.2329 (  1968 PWs)   bands (ev):

     3.2626   3.3111   3.5028   3.5259   4.0435   4.1736   4.2980   4.3619
     4.5079   4.5794   8.5874   9.4436  13.1984  14.0223  19.1344  19.8714

     occupation numbers 
     1.0000   1.0000   1.0000   1.0000   1.0000   1.0000   1.0000   1.0000
     1.0000   1.0000   1.0000   1.0000   0.0000   0.0000   0.0000   0.0000

          k = 0.1429 0.5774 0.0000 (  1962 PWs)   bands (ev):

     3.2455   3.3551   3.3809   3.8676   3.9415   4.0300   4.1846   4.4153
     4.5436   4.5656   9.2216   9.7467  14.8069  15.6408  16.1950  17.7709

     occupation numbers 
     1.0000   1.0000   1.0000   1.0000   1.0000   1.0000   1.0000   1.0000
     1.0000   1.0000   1.0000   1.0000   0.0000   0.0000   0.0000   0.0000

          k = 0.1429 0.5774 0.0776 (  1966 PWs)   bands (ev):

     3.2582   3.2731   3.4749   3.7566   3.9084   4.1122   4.2729   4.3847
     4.5407   4.5644   9.3392   9.8208  14.0957  14.2827  17.8079  17.9226

     occupation numbers 
     1.0000   1.0000   1.0000   1.0000   1.0000   1.0000   1.0000   1.0000
     1.0000   1.0000   1.0000   1.0000   0.0000   0.0000   0.0000   0.0000

          k = 0.1429 0.5774 0.1553 (  1973 PWs)   bands (ev):

     3.2285   3.2867   3.5279   3.5887   3.9293   4.2519   4.2919   4.3924
     4.5318   4.5539   9.6734  10.0303  12.9685  13.0030  18.3171  19.8917

     occupation numbers 
     1.0000   1.0000   1.0000   1.0000   1.0000   1.0000   1.0000   1.0000
     1.0000   1.0000   1.0000   1.0000   0.0000   0.0000   0.0000   0.0000

          k = 0.1429 0.5774 0.2329 (  1972 PWs)   bands (ev):

     3.2429   3.2880   3.4960   3.5095   4.0338   4.1687   4.3876   4.4482
     4.5171   4.5206  10.1123  10.2598  12.1425  12.1625  18.9807  19.8475

     occupation numbers 
     1.0000   1.0000   1.0000   1.0000   1.0000   1.0000   1.0000   1.0000
     1.0000   1.0000   1.0000   1.0000   0.0000   0.0000   0.0000   0.0000

          k = 0.2143 0.3712 0.0000 (  1989 PWs)   bands (ev):

     3.4853   3.5118   3.5551   3.7085   3.8569   3.8837   4.0714   4.0954
     4.4085   4.5634   5.9080  11.6552  12.7636  16.1921  16.4681  22.1164

     occupation numbers 
     1.0000   1.0000   1.0000   1.0000   1.0000   1.0000   1.0000   1.0000
     1.0000   1.0000   1.0000   0.0000   0.0000   0.0000   0.0000   0.0000

          k = 0.2143 0.3712 0.0776 (  1978 PWs)   bands (ev):

     3.4729   3.4987   3.6064   3.6133   3.8691   3.9386   4.0670   4.1612
     4.3791   4.5741   5.9992  10.4060  14.2426  16.3269  16.5986  20.8479

     occupation numbers 
     1.0000   1.0000   1.0000   1.0000   1.0000   1.0000   1.0000   1.0000
     1.0000   1.0000   1.0000   1.0000   0.0000   0.0000   0.0000   0.0000

          k = 0.2143 0.3712 0.1553 (  1971 PWs)   bands (ev):

     3.4385   3.4854   3.5619   3.6896   3.8329   3.9463   4.0737   4.2967
     4.3515   4.5901   6.3065   8.9767  16.3211  16.7337  16.9818  19.4636

     occupation numbers 
     1.0000   1.0000   1.0000   1.0000   1.0000   1.0000   1.0000   1.0000
     1.0000   1.0000   1.0000   1.0000   0.0000   0.0000   0.0000   0.0000

          k = 0.2143 0.3712 0.2329 (  1964 PWs)   bands (ev):

     3.4246   3.4375   3.6237   3.6915   3.8457   3.9045   4.1178   4.2012
     4.5049   4.5785   6.8958   7.7926  17.3849  17.5769  17.9934  18.3049

     occupation numbers 
     1.0000   1.0000   1.0000   1.0000   1.0000   1.0000   1.0000   1.0000
     1.0000   1.0000   1.0000   1.0000   0.0000   0.0000   0.0000   0.0000

          k = 0.2143 0.4536 0.0000 (  1977 PWs)   bands (ev):

     3.4569   3.4572   3.5441   3.8320   3.9018   3.9806   3.9904   4.2267
     4.3789   4.5861   7.3131  12.8238  13.9064  14.2650  15.7085  19.5636

     occupation numbers 
     1.0000   1.0000   1.0000   1.0000   1.0000   1.0000   1.0000   1.0000
     1.0000   1.0000   1.0000   0.0000   0.0000   0.0000   0.0000   0.0000

          k = 0.2143 0.4536 0.0776 (  1977 PWs)   bands (ev):

     3.4212   3.4728   3.5982   3.7051   3.8942   4.0227   4.0669   4.2500
     4.3480   4.5935   7.4247  11.7940  13.8708  15.6166  15.8506  18.4714

     occupation numbers 
     1.0000   1.0000   1.0000   1.0000   1.0000   1.0000   1.0000   1.0000
     1.0000   1.0000   1.0000   0.0000   0.0000   0.0000   0.0000   0.0000

          k = 0.2143 0.4536 0.1553 (  1975 PWs)   bands (ev):

     3.3924   3.5140   3.5549   3.6918   3.8493   4.0559   4.1170   4.2674
     4.3681   4.6012   7.7730  10.4292  14.2393  16.2294  16.6413  18.0097

     occupation numbers 
     1.0000   1.0000   1.0000   1.0000   1.0000   1.0000   1.0000   1.0000
     1.0000   1.0000   1.0000   1.0000   0.0000   0.0000   0.0000   0.0000

          k = 0.2143 0.4536 0.2329 (  1963 PWs)   bands (ev):

     3.4020   3.4547   3.5869   3.6610   3.9176   4.0214   4.1349   4.1850
     4.5007   4.5787   8.3848   9.2741  14.8714  15.7314  16.8913  17.7358

     occupation numbers 
     1.0000   1.0000   1.0000   1.0000   1.0000   1.0000   1.0000   1.0000
     1.0000   1.0000   1.0000   1.0000   0.0000   0.0000   0.0000   0.0000

          k = 0.2143 0.5361 0.0000 (  1965 PWs)   bands (ev):

     3.4196   3.4320   3.5295   3.8512   3.9105   3.9952   4.0349   4.3631
     4.3822   4.5303   9.0785  11.1708  14.8386  15.3893  15.8471  17.2938

     occupation numbers 
     1.0000   1.0000   1.0000   1.0000   1.0000   1.0000   1.0000   1.0000
     1.0000   1.0000   1.0000   1.0000   0.0000   0.0000   0.0000   0.0000

          k = 0.2143 0.5361 0.0776 (  1967 PWs)   bands (ev):

     3.3936   3.4345   3.5956   3.7496   3.8492   4.0718   4.1087   4.3309
     4.3876   4.5367   9.1951  11.2512  13.8055  15.4686  15.7342  17.7540

     occupation numbers 
     1.0000   1.0000   1.0000   1.0000   1.0000   1.0000   1.0000   1.0000
     1.0000   1.0000   1.0000   1.0000   0.0000   0.0000   0.0000   0.0000

          k = 0.2143 0.5361 0.1553 (  1968 PWs)   bands (ev):

     3.3677   3.4728   3.6047   3.6750   3.8090   4.1288   4.1943   4.2674
     4.4154   4.5448   9.5453  11.3552  12.7342  14.5012  15.9284  18.4673

     occupation numbers 
     1.0000   1.0000   1.0000   1.0000   1.0000   1.0000   1.0000   1.0000
     1.0000   1.0000   1.0000   1.0000   0.0000   0.0000   0.0000   0.0000

          k = 0.2143 0.5361 0.2329 (  1961 PWs)   bands (ev):

     3.3901   3.4585   3.5632   3.6303   3.9118   4.0508   4.2316   4.2548
     4.4774   4.5294  10.1239  10.8710  12.7105  13.4494  16.5805  17.4662

     occupation numbers 
     1.0000   1.0000   1.0000   1.0000   1.0000   1.0000   1.0000   1.0000
     1.0000   1.0000   1.0000   1.0000   0.0000   0.0000   0.0000   0.0000

          k = 0.2857 0.4949 0.0000 (  1977 PWs)   bands (ev):

     3.4613   3.5579   3.6206   3.8219   3.8626   3.9165   4.0292   4.2815
     4.3393   4.5224   8.9614  12.9235  13.2871  14.8560  15.8297  18.9061

     occupation numbers 
     1.0000   1.0000   1.0000   1.0000   1.0000   1.0000   1.0000   1.0000
     1.0000   1.0000   1.0000   0.0000   0.0000   0.0000   0.0000   0.0000

          k = 0.2857 0.4949 0.0776 (  1963 PWs)   bands (ev):

     3.4607   3.5667   3.6495   3.7129   3.8769   3.9560   4.0504   4.3068
     4.3090   4.5315   9.0808  12.8327  13.4229  13.9233  16.8246  17.7706

     occupation numbers 
     1.0000   1.0000   1.0000   1.0000   1.0000   1.0000   1.0000   1.0000
     1.0000   1.0000   1.0000   0.0000   0.0000   0.0000   0.0000   0.0000

          k = 0.2857 0.4949 0.1553 (  1960 PWs)   bands (ev):

     3.4642   3.5717   3.6321   3.7259   3.8053   3.9962   4.0809   4.2284
     4.3878   4.5443   9.4429  11.9797  13.7943  13.8232  16.3816  16.3947

     occupation numbers 
     1.0000   1.0000   1.0000   1.0000   1.0000   1.0000   1.0000   1.0000
     1.0000   1.0000   1.0000   0.0000   0.0000   0.0000   0.0000   0.0000

          k = 0.2857 0.4949 0.2329 (  1967 PWs)   bands (ev):

     3.4805   3.5183   3.6625   3.7235   3.8431   3.9487   4.1104   4.1532
     4.4774   4.5325  10.0550  10.9163  14.3343  14.4533  15.2695  15.3980

     occupation numbers 
     1.0000   1.0000   1.0000   1.0000   1.0000   1.0000   1.0000   1.0000
     1.0000   1.0000   1.0000   1.0000   0.0000   0.0000   0.0000   0.0000

          k = 0.2857 0.5774 0.0000 (  1962 PWs)   bands (ev):

     3.4671   3.5941   3.6509   3.8320   3.8448   3.8605   4.0575   4.3245
     4.3648   4.4351  10.8629  10.9443  12.9948  16.2427  17.1413  17.3186

     occupation numbers 
     1.0000   1.0000   1.0000   1.0000   1.0000   1.0000   1.0000   1.0000
     1.0000   1.0000   1.0000   1.0000   0.0000   0.0000   0.0000   0.0000

          k = 0.2857 0.5774 0.0776 (  1965 PWs)   bands (ev):

     3.4780   3.5996   3.6505   3.7564   3.8387   3.9172   4.0713   4.2916
     4.3821   4.4499  10.9939  11.0477  13.1114  15.4785  15.6084  17.4928

     occupation numbers 
     1.0000   1.0000   1.0000   1.0000   1.0000   1.0000   1.0000   1.0000
     1.0000   1.0000   1.0000   1.0000   0.0000   0.0000   0.0000   0.0000

          k = 0.2857 0.5774 0.1553 (  1971 PWs)   bands (ev):

     3.4986   3.6020   3.6669   3.6848   3.8318   3.9486   4.0940   4.2121
     4.4267   4.4792  11.3551  11.3687  13.3857  14.2789  14.3733  16.2698

     occupation numbers 
     1.0000   1.0000   1.0000   1.0000   1.0000   1.0000   1.0000   1.0000
     1.0000   1.0000   1.0000   1.0000   0.0000   0.0000   0.0000   0.0000

          k = 0.2857 0.5774 0.2329 (  1969 PWs)   bands (ev):

     3.5223   3.5624   3.6793   3.6881   3.8594   3.9240   4.1109   4.1403
     4.4730   4.4929  11.8108  11.8694  13.0997  13.2798  14.3530  15.1788

     occupation numbers 
     1.0000   1.0000   1.0000   1.0000   1.0000   1.0000   1.0000   1.0000
     1.0000   1.0000   0.0000   0.0000   0.0000   0.0000   0.0000   0.0000

     the Fermi energy is    11.4852 ev

!    total energy              =    -487.44670517 Ry
     total all-electron energy =     -7184.240751 Ry
     estimated scf accuracy    <       0.00000313 Ry
     smearing contrib. (-TS)   =      -0.00000075 Ry
     internal energy E=F+TS    =    -487.44670442 Ry

     The total energy is F=E-TS. E is the sum of the following terms:
     one-electron contribution =    -113.46338887 Ry
     hartree contribution      =      90.32903360 Ry
     xc contribution           =     -94.39060722 Ry
     ewald contribution        =    -179.04688402 Ry
     one-center paw contrib.   =    -190.87485791 Ry
      -> PAW hartree energy AE =     122.33020759 Ry
      -> PAW hartree energy PS =    -121.70762543 Ry
      -> PAW xc energy AE      =    -143.10146485 Ry
      -> PAW xc energy PS      =      47.04145374 Ry
      -> total E_H with PAW    =      90.95161575 Ry
      -> total E_XC with PAW   =    -190.45061833 Ry

     total magnetization       =    -0.00 Bohr mag/cell
     absolute magnetization    =     0.00 Bohr mag/cell

     convergence has been achieved in   4 iterations

     Writing all to output data dir ./out/Zn.save/
 
     init_run     :      0.39s CPU      0.44s WALL (       1 calls)
     electrons    :      4.30s CPU      4.66s WALL (       1 calls)

     Called by init_run:
     wfcinit      :      0.24s CPU      0.26s WALL (       1 calls)
     wfcinit:atom :      0.00s CPU      0.00s WALL (      96 calls)
     wfcinit:wfcr :      0.22s CPU      0.24s WALL (      96 calls)
     potinit      :      0.10s CPU      0.13s WALL (       1 calls)
     hinit0       :      0.04s CPU      0.04s WALL (       1 calls)

     Called by electrons:
     c_bands      :      3.39s CPU      3.62s WALL (       5 calls)
     sum_band     :      0.51s CPU      0.56s WALL (       5 calls)
     v_of_rho     :      0.01s CPU      0.02s WALL (       5 calls)
     v_h          :      0.00s CPU      0.00s WALL (       5 calls)
     v_xc         :      0.01s CPU      0.02s WALL (       5 calls)
     newd         :      0.01s CPU      0.01s WALL (       5 calls)
     PAW_pot      :      0.46s CPU      0.56s WALL (       5 calls)
     mix_rho      :      0.00s CPU      0.00s WALL (       5 calls)

     Called by c_bands:
     init_us_2    :      0.04s CPU      0.04s WALL (    1056 calls)
     init_us_2:cp :      0.04s CPU      0.04s WALL (    1056 calls)
     cegterg      :      3.17s CPU      3.31s WALL (     480 calls)

     Called by sum_band:
     sum_band:wei :      0.00s CPU      0.01s WALL (       5 calls)
     sum_band:loo :      0.48s CPU      0.52s WALL (       5 calls)
     sum_band:buf :      0.00s CPU      0.00s WALL (     480 calls)
     sum_band:ini :      0.02s CPU      0.02s WALL (     480 calls)
     sum_band:cal :      0.04s CPU      0.04s WALL (     480 calls)
     sum_band:bec :      0.00s CPU      0.00s WALL (     480 calls)
     addusdens    :      0.02s CPU      0.02s WALL (       5 calls)
                                        0.00s GPU  (       5 calls)
     addusd:skk   :      0.00s CPU      0.00s WALL (       5 calls)
                                        0.00s GPU  (       5 calls)

     Called by *egterg:
     cdiaghg      :      0.54s CPU      0.56s WALL (    1910 calls)
     cegterg:over :      0.08s CPU      0.08s WALL (    1526 calls)
     cegterg:upda :      0.02s CPU      0.02s WALL (    1526 calls)
     cegterg:last :      0.03s CPU      0.03s WALL (    1064 calls)
     h_psi        :      2.59s CPU      2.72s WALL (    2102 calls)
     s_psi        :      0.05s CPU      0.05s WALL (    2102 calls)
     g_psi        :      0.01s CPU      0.01s WALL (    1526 calls)

     Called by h_psi:
     h_psi:calbec :      0.12s CPU      0.12s WALL (    2102 calls)
     vloc_psi     :      2.41s CPU      2.52s WALL (    2102 calls)
     add_vuspsi   :      0.05s CPU      0.05s WALL (    2102 calls)

     General routines
     calbec       :      0.15s CPU      0.16s WALL (    2582 calls)
     fft          :      0.01s CPU      0.01s WALL (     105 calls)
     ffts         :      0.00s CPU      0.00s WALL (      10 calls)
     fftw         :      2.62s CPU      2.75s WALL (   53320 calls)
 
     Parallel routines

     PAW routines
     PAW_pot      :      0.46s CPU      0.56s WALL (       5 calls)
     PAW_symme    :      0.01s CPU      0.01s WALL (      10 calls)
 
     PWSCF        :      4.90s CPU      5.65s WALL

 
   This run was terminated on:   4: 1:30  13Mar2024            

=------------------------------------------------------------------------------=
   JOB DONE.
=------------------------------------------------------------------------------=
