
     Program PWSCF v.7.2 starts on 13Mar2024 at  4: 4:28 

     This program is part of the open-source Quantum ESPRESSO suite
     for quantum simulation of materials; please cite
         "P. Giannozzi et al., J. Phys.:Condens. Matter 21 395502 (2009);
         "P. Giannozzi et al., J. Phys.:Condens. Matter 29 465901 (2017);
         "P. Giannozzi et al., J. Chem. Phys. 152 154105 (2020);
          URL http://www.quantum-espresso.org", 
     in publications or presentations arising from this work. More details at
     http://www.quantum-espresso.org/quote

     Parallel version (MPI), running on    28 processors

     MPI processes distributed on     1 nodes
     167781 MiB available memory on the printing compute node when the environment starts
 
     Waiting for input...
     Reading input from standard input

     Current dimensions of program PWSCF are:
     Max number of different atomic species (ntypx) = 10
     Max number of k-points (npk) = 120000
     Max angular momentum in pseudopotentials (lmaxx) =  4
     file Zn.pbe-dnl-kjpaw_psl.1.0.0.UPF: wavefunction(s)  4S 3D renormalized
 
     K-points division:     npool     =       2
     R & G space division:  proc/nbgrp/npool/nimage =      14
     Subspace diagonalization in iterative solution of the eigenvalue problem:
     a serial algorithm will be used

 
     Parallelization info
     --------------------
     sticks:   dense  smooth     PW     G-vecs:    dense   smooth      PW
     Min          35      35     10                 1165     1165     192
     Max          36      36     11                 1174     1174     197
     Sum         499     499    151                16375    16375    2733
 
     Using Slab Decomposition
 


     bravais-lattice index     =            4
     lattice parameter (alat)  =       5.0800  a.u.
     unit-cell volume          =     206.6299 (a.u.)^3
     number of atoms/cell      =            2
     number of atomic types    =            1
     number of electrons       =        24.00
     number of Kohn-Sham states=           16
     kinetic-energy cutoff     =      70.0000  Ry
     charge density cutoff     =     280.0000  Ry
     scf convergence threshold =      4.0E-06
     mixing beta               =       0.7000
     number of iterations used =            8  plain     mixing
     Exchange-correlation= SLA  PW   PBX  PBC
                           (   1   4   3   4   0   0   0)

     celldm(1)=   5.080000  celldm(2)=   0.000000  celldm(3)=   1.820000
     celldm(4)=   0.000000  celldm(5)=   0.000000  celldm(6)=   0.000000

     crystal axes: (cart. coord. in units of alat)
               a(1) = (   1.000000   0.000000   0.000000 )  
               a(2) = (  -0.500000   0.866025   0.000000 )  
               a(3) = (   0.000000   0.000000   1.820000 )  

     reciprocal axes: (cart. coord. in units 2 pi/alat)
               b(1) = (  1.000000  0.577350  0.000000 )  
               b(2) = (  0.000000  1.154701  0.000000 )  
               b(3) = (  0.000000  0.000000  0.549451 )  


     PseudoPot. # 1 for Zn read from file:
     /truba/home/amuhaymin/ZnS/pseudo/QE/Zn.pbe-dnl-kjpaw_psl.1.0.0.UPF
     MD5 check sum: c608214d9520ac179f507641260889e3
     Pseudo is Projector augmented-wave + core cor, Zval = 12.0
     Generated using &quot;atomic&quot; code by A. Dal Corso  v.6.2.2
     Shape of augmentation charge: PSQ
     Using radial grid of 1201 points,  6 beta functions with: 
                l(1) =   0
                l(2) =   0
                l(3) =   1
                l(4) =   1
                l(5) =   2
                l(6) =   2
     Q(r) pseudized with 0 coefficients 


     atomic species   valence    mass     pseudopotential
        Zn            12.00    65.38000     Zn( 1.00)

     Starting magnetic structure 
     atomic species   magnetization
        Zn           0.000

     24 Sym. Ops., with inversion, found (12 have fractional translation)


                                    s                        frac. trans.

      isym =  1     identity                                     

 cryst.   s( 1) = (     1          0          0      )
                  (     0          1          0      )
                  (     0          0          1      )

 cart.    s( 1) = (  1.0000000  0.0000000  0.0000000 )
                  (  0.0000000  1.0000000  0.0000000 )
                  (  0.0000000  0.0000000  1.0000000 )


      isym =  2     180 deg rotation - cart. axis [0,0,1]        

 cryst.   s( 2) = (    -1          0          0      )    f =(  0.0000000 )
                  (     0         -1          0      )       (  0.0000000 )
                  (     0          0          1      )       (  0.5000000 )

 cart.    s( 2) = ( -1.0000000  0.0000000  0.0000000 )    f =(  0.0000000 )
                  (  0.0000000 -1.0000000  0.0000000 )       (  0.0000000 )
                  (  0.0000000  0.0000000  1.0000000 )       (  0.9100000 )


      isym =  3     180 deg rotation - cart. axis [0,1,0]        

 cryst.   s( 3) = (    -1          0          0      )    f =(  0.0000000 )
                  (     1          1          0      )       (  0.0000000 )
                  (     0          0         -1      )       (  0.5000000 )

 cart.    s( 3) = ( -1.0000000  0.0000000  0.0000000 )    f =(  0.0000000 )
                  (  0.0000000  1.0000000  0.0000000 )       (  0.0000000 )
                  (  0.0000000  0.0000000 -1.0000000 )       (  0.9100000 )


      isym =  4     180 deg rotation - cart. axis [1,0,0]        

 cryst.   s( 4) = (     1          0          0      )
                  (    -1         -1          0      )
                  (     0          0         -1      )

 cart.    s( 4) = (  1.0000000  0.0000000  0.0000000 )
                  (  0.0000000 -1.0000000  0.0000000 )
                  (  0.0000000  0.0000000 -1.0000000 )


      isym =  5      60 deg rotation - cryst. axis [0,0,1]       

 cryst.   s( 5) = (     1          1          0      )    f =(  0.0000000 )
                  (    -1          0          0      )       ( -0.0000000 )
                  (     0          0          1      )       (  0.5000000 )

 cart.    s( 5) = (  0.5000000 -0.8660254  0.0000000 )    f =(  0.0000000 )
                  (  0.8660254  0.5000000  0.0000000 )       ( -0.0000000 )
                  (  0.0000000  0.0000000  1.0000000 )       (  0.9100000 )


      isym =  6      60 deg rotation - cryst. axis [0,0,-1]      

 cryst.   s( 6) = (     0         -1          0      )    f =(  0.0000000 )
                  (     1          1          0      )       ( -0.0000000 )
                  (     0          0          1      )       (  0.5000000 )

 cart.    s( 6) = (  0.5000000  0.8660254  0.0000000 )    f =(  0.0000000 )
                  ( -0.8660254  0.5000000  0.0000000 )       ( -0.0000000 )
                  (  0.0000000  0.0000000  1.0000000 )       (  0.9100000 )


      isym =  7     120 deg rotation - cryst. axis [0,0,1]       

 cryst.   s( 7) = (     0          1          0      )
                  (    -1         -1          0      )
                  (     0          0          1      )

 cart.    s( 7) = ( -0.5000000 -0.8660254  0.0000000 )
                  (  0.8660254 -0.5000000  0.0000000 )
                  (  0.0000000  0.0000000  1.0000000 )


      isym =  8     120 deg rotation - cryst. axis [0,0,-1]      

 cryst.   s( 8) = (    -1         -1          0      )
                  (     1          0          0      )
                  (     0          0          1      )

 cart.    s( 8) = ( -0.5000000  0.8660254  0.0000000 )
                  ( -0.8660254 -0.5000000  0.0000000 )
                  (  0.0000000  0.0000000  1.0000000 )


      isym =  9     180 deg rotation - cryst. axis [1,-1,0]      

 cryst.   s( 9) = (     0         -1          0      )    f =(  0.0000000 )
                  (    -1          0          0      )       (  0.0000000 )
                  (     0          0         -1      )       (  0.5000000 )

 cart.    s( 9) = (  0.5000000 -0.8660254  0.0000000 )    f =(  0.0000000 )
                  ( -0.8660254 -0.5000000  0.0000000 )       (  0.0000000 )
                  (  0.0000000  0.0000000 -1.0000000 )       (  0.9100000 )


      isym = 10     180 deg rotation - cryst. axis [2,1,0]       

 cryst.   s(10) = (     1          1          0      )    f =(  0.0000000 )
                  (     0         -1          0      )       ( -0.0000000 )
                  (     0          0         -1      )       (  0.5000000 )

 cart.    s(10) = (  0.5000000  0.8660254  0.0000000 )    f =(  0.0000000 )
                  (  0.8660254 -0.5000000  0.0000000 )       ( -0.0000000 )
                  (  0.0000000  0.0000000 -1.0000000 )       (  0.9100000 )


      isym = 11     180 deg rotation - cryst. axis [0,1,0]       

 cryst.   s(11) = (    -1         -1          0      )
                  (     0          1          0      )
                  (     0          0         -1      )

 cart.    s(11) = ( -0.5000000 -0.8660254  0.0000000 )
                  ( -0.8660254  0.5000000  0.0000000 )
                  (  0.0000000  0.0000000 -1.0000000 )


      isym = 12     180 deg rotation - cryst. axis [1,1,0]       

 cryst.   s(12) = (     0          1          0      )
                  (     1          0          0      )
                  (     0          0         -1      )

 cart.    s(12) = ( -0.5000000  0.8660254  0.0000000 )
                  (  0.8660254  0.5000000  0.0000000 )
                  (  0.0000000  0.0000000 -1.0000000 )


      isym = 13     inversion                                    

 cryst.   s(13) = (    -1          0          0      )
                  (     0         -1          0      )
                  (     0          0         -1      )

 cart.    s(13) = ( -1.0000000  0.0000000  0.0000000 )
                  (  0.0000000 -1.0000000  0.0000000 )
                  (  0.0000000  0.0000000 -1.0000000 )


      isym = 14     inv. 180 deg rotation - cart. axis [0,0,1]   

 cryst.   s(14) = (     1          0          0      )    f =(  0.0000000 )
                  (     0          1          0      )       (  0.0000000 )
                  (     0          0         -1      )       (  0.5000000 )

 cart.    s(14) = (  1.0000000  0.0000000  0.0000000 )    f =(  0.0000000 )
                  (  0.0000000  1.0000000  0.0000000 )       (  0.0000000 )
                  (  0.0000000  0.0000000 -1.0000000 )       (  0.9100000 )


      isym = 15     inv. 180 deg rotation - cart. axis [0,1,0]   

 cryst.   s(15) = (     1          0          0      )    f =(  0.0000000 )
                  (    -1         -1          0      )       (  0.0000000 )
                  (     0          0          1      )       (  0.5000000 )

 cart.    s(15) = (  1.0000000  0.0000000  0.0000000 )    f =(  0.0000000 )
                  (  0.0000000 -1.0000000  0.0000000 )       (  0.0000000 )
                  (  0.0000000  0.0000000  1.0000000 )       (  0.9100000 )


      isym = 16     inv. 180 deg rotation - cart. axis [1,0,0]   

 cryst.   s(16) = (    -1          0          0      )
                  (     1          1          0      )
                  (     0          0          1      )

 cart.    s(16) = ( -1.0000000  0.0000000  0.0000000 )
                  (  0.0000000  1.0000000  0.0000000 )
                  (  0.0000000  0.0000000  1.0000000 )


      isym = 17     inv.  60 deg rotation - cryst. axis [0,0,1]  

 cryst.   s(17) = (    -1         -1          0      )    f =(  0.0000000 )
                  (     1          0          0      )       (  0.0000000 )
                  (     0          0         -1      )       (  0.5000000 )

 cart.    s(17) = ( -0.5000000  0.8660254  0.0000000 )    f =(  0.0000000 )
                  ( -0.8660254 -0.5000000  0.0000000 )       (  0.0000000 )
                  (  0.0000000  0.0000000 -1.0000000 )       (  0.9100000 )


      isym = 18     inv.  60 deg rotation - cryst. axis [0,0,-1] 

 cryst.   s(18) = (     0          1          0      )    f =(  0.0000000 )
                  (    -1         -1          0      )       ( -0.0000000 )
                  (     0          0         -1      )       (  0.5000000 )

 cart.    s(18) = ( -0.5000000 -0.8660254  0.0000000 )    f =(  0.0000000 )
                  (  0.8660254 -0.5000000  0.0000000 )       ( -0.0000000 )
                  (  0.0000000  0.0000000 -1.0000000 )       (  0.9100000 )


      isym = 19     inv. 120 deg rotation - cryst. axis [0,0,1]  

 cryst.   s(19) = (     0         -1          0      )
                  (     1          1          0      )
                  (     0          0         -1      )

 cart.    s(19) = (  0.5000000  0.8660254  0.0000000 )
                  ( -0.8660254  0.5000000  0.0000000 )
                  (  0.0000000  0.0000000 -1.0000000 )


      isym = 20     inv. 120 deg rotation - cryst. axis [0,0,-1] 

 cryst.   s(20) = (     1          1          0      )
                  (    -1          0          0      )
                  (     0          0         -1      )

 cart.    s(20) = (  0.5000000 -0.8660254  0.0000000 )
                  (  0.8660254  0.5000000  0.0000000 )
                  (  0.0000000  0.0000000 -1.0000000 )


      isym = 21     inv. 180 deg rotation - cryst. axis [1,-1,0] 

 cryst.   s(21) = (     0          1          0      )    f =(  0.0000000 )
                  (     1          0          0      )       ( -0.0000000 )
                  (     0          0          1      )       (  0.5000000 )

 cart.    s(21) = ( -0.5000000  0.8660254  0.0000000 )    f =(  0.0000000 )
                  (  0.8660254  0.5000000  0.0000000 )       ( -0.0000000 )
                  (  0.0000000  0.0000000  1.0000000 )       (  0.9100000 )


      isym = 22     inv. 180 deg rotation - cryst. axis [2,1,0]  

 cryst.   s(22) = (    -1         -1          0      )    f =(  0.0000000 )
                  (     0          1          0      )       ( -0.0000000 )
                  (     0          0          1      )       (  0.5000000 )

 cart.    s(22) = ( -0.5000000 -0.8660254  0.0000000 )    f =(  0.0000000 )
                  ( -0.8660254  0.5000000  0.0000000 )       ( -0.0000000 )
                  (  0.0000000  0.0000000  1.0000000 )       (  0.9100000 )


      isym = 23     inv. 180 deg rotation - cryst. axis [0,1,0]  

 cryst.   s(23) = (     1          1          0      )
                  (     0         -1          0      )
                  (     0          0          1      )

 cart.    s(23) = (  0.5000000  0.8660254  0.0000000 )
                  (  0.8660254 -0.5000000  0.0000000 )
                  (  0.0000000  0.0000000  1.0000000 )


      isym = 24     inv. 180 deg rotation - cryst. axis [1,1,0]  

 cryst.   s(24) = (     0         -1          0      )
                  (    -1          0          0      )
                  (     0          0          1      )

 cart.    s(24) = (  0.5000000 -0.8660254  0.0000000 )
                  ( -0.8660254 -0.5000000  0.0000000 )
                  (  0.0000000  0.0000000  1.0000000 )


     point group D_6h(6/mmm)
     there are 12 classes
     the character table:

       E     2C6   2C3   C2    3C2'  3C2'' i     2S3   2S6   s_h   3s_d  3s_v 
A_1g   1.00  1.00  1.00  1.00  1.00  1.00  1.00  1.00  1.00  1.00  1.00  1.00
A_2g   1.00  1.00  1.00  1.00 -1.00 -1.00  1.00  1.00  1.00  1.00 -1.00 -1.00
B_1g   1.00 -1.00  1.00 -1.00  1.00 -1.00  1.00 -1.00  1.00 -1.00  1.00 -1.00
B_2g   1.00 -1.00  1.00 -1.00 -1.00  1.00  1.00 -1.00  1.00 -1.00 -1.00  1.00
E_1g   2.00  1.00 -1.00 -2.00  0.00  0.00  2.00  1.00 -1.00 -2.00  0.00  0.00
E_2g   2.00 -1.00 -1.00  2.00  0.00  0.00  2.00 -1.00 -1.00  2.00  0.00  0.00
A_1u   1.00  1.00  1.00  1.00  1.00  1.00 -1.00 -1.00 -1.00 -1.00 -1.00 -1.00
A_2u   1.00  1.00  1.00  1.00 -1.00 -1.00 -1.00 -1.00 -1.00 -1.00  1.00  1.00
B_1u   1.00 -1.00  1.00 -1.00  1.00 -1.00 -1.00  1.00 -1.00  1.00 -1.00  1.00
B_2u   1.00 -1.00  1.00 -1.00 -1.00  1.00 -1.00  1.00 -1.00  1.00  1.00 -1.00
E_1u   2.00  1.00 -1.00 -2.00  0.00  0.00 -2.00 -1.00  1.00  2.00  0.00  0.00
E_2u   2.00 -1.00 -1.00  2.00  0.00  0.00 -2.00  1.00  1.00 -2.00  0.00  0.00

     the symmetry operations in each class and the name of the first element:

     E        1
          identity                                               
     2C6      5    6
           60 deg rotation - cryst. axis [0,0,1]                 
     2C3      7    8
          120 deg rotation - cryst. axis [0,0,1]                 
     C2       2
          180 deg rotation - cart. axis [0,0,1]                  
     3C2'     4   12   11
          180 deg rotation - cart. axis [1,0,0]                  
     3C2''    3    9   10
          180 deg rotation - cart. axis [0,1,0]                  
     i       13
          inversion                                              
     2S3     17   18
          inv.  60 deg rotation - cryst. axis [0,0,1]            
     2S6     19   20
          inv. 120 deg rotation - cryst. axis [0,0,1]            
     s_h     14
          inv. 180 deg rotation - cart. axis [0,0,1]             
     3s_d    16   24   23
          inv. 180 deg rotation - cart. axis [1,0,0]             
     3s_v    15   21   22
          inv. 180 deg rotation - cart. axis [0,1,0]             

   Cartesian axes

     site n.     atom                  positions (alat units)
         1           Zn  tau(   1) = (  -0.0000000   0.5773503   0.4550000  )
         2           Zn  tau(   2) = (   0.5000000   0.2886751   1.3650000  )

   Crystallographic axes

     site n.     atom                  positions (cryst. coord.)
         1           Zn  tau(   1) = (  0.3333333  0.6666667  0.2500000  )
         2           Zn  tau(   2) = (  0.6666667  0.3333333  0.7500000  )

     number of k points=    96  Marzari-Vanderbilt smearing, width (Ry)=  0.0005
                       cart. coord. in units 2pi/alat
        k(    1) = (   0.0000000   0.0000000   0.0000000), wk =   0.0007289
        k(    2) = (   0.0000000   0.0000000   0.0784929), wk =   0.0014577
        k(    3) = (   0.0000000   0.0000000   0.1569859), wk =   0.0014577
        k(    4) = (   0.0000000   0.0000000   0.2354788), wk =   0.0014577
        k(    5) = (   0.0000000   0.0824786   0.0000000), wk =   0.0043732
        k(    6) = (   0.0000000   0.0824786   0.0784929), wk =   0.0087464
        k(    7) = (   0.0000000   0.0824786   0.1569859), wk =   0.0087464
        k(    8) = (   0.0000000   0.0824786   0.2354788), wk =   0.0087464
        k(    9) = (   0.0000000   0.1649572   0.0000000), wk =   0.0043732
        k(   10) = (   0.0000000   0.1649572   0.0784929), wk =   0.0087464
        k(   11) = (   0.0000000   0.1649572   0.1569859), wk =   0.0087464
        k(   12) = (   0.0000000   0.1649572   0.2354788), wk =   0.0087464
        k(   13) = (   0.0000000   0.2474358   0.0000000), wk =   0.0043732
        k(   14) = (   0.0000000   0.2474358   0.0784929), wk =   0.0087464
        k(   15) = (   0.0000000   0.2474358   0.1569859), wk =   0.0087464
        k(   16) = (   0.0000000   0.2474358   0.2354788), wk =   0.0087464
        k(   17) = (   0.0000000   0.3299144   0.0000000), wk =   0.0043732
        k(   18) = (   0.0000000   0.3299144   0.0784929), wk =   0.0087464
        k(   19) = (   0.0000000   0.3299144   0.1569859), wk =   0.0087464
        k(   20) = (   0.0000000   0.3299144   0.2354788), wk =   0.0087464
        k(   21) = (   0.0000000   0.4123930   0.0000000), wk =   0.0043732
        k(   22) = (   0.0000000   0.4123930   0.0784929), wk =   0.0087464
        k(   23) = (   0.0000000   0.4123930   0.1569859), wk =   0.0087464
        k(   24) = (   0.0000000   0.4123930   0.2354788), wk =   0.0087464
        k(   25) = (   0.0000000   0.4948717   0.0000000), wk =   0.0043732
        k(   26) = (   0.0000000   0.4948717   0.0784929), wk =   0.0087464
        k(   27) = (   0.0000000   0.4948717   0.1569859), wk =   0.0087464
        k(   28) = (   0.0000000   0.4948717   0.2354788), wk =   0.0087464
        k(   29) = (   0.0000000  -0.5773503   0.0000000), wk =   0.0021866
        k(   30) = (   0.0000000  -0.5773503   0.0784929), wk =   0.0043732
        k(   31) = (   0.0000000  -0.5773503   0.1569859), wk =   0.0043732
        k(   32) = (   0.0000000  -0.5773503   0.2354788), wk =   0.0043732
        k(   33) = (   0.0714286   0.1237179   0.0000000), wk =   0.0043732
        k(   34) = (   0.0714286   0.1237179   0.0784929), wk =   0.0087464
        k(   35) = (   0.0714286   0.1237179   0.1569859), wk =   0.0087464
        k(   36) = (   0.0714286   0.1237179   0.2354788), wk =   0.0087464
        k(   37) = (   0.0714286   0.2061965   0.0000000), wk =   0.0087464
        k(   38) = (   0.0714286   0.2061965   0.0784929), wk =   0.0174927
        k(   39) = (   0.0714286   0.2061965   0.1569859), wk =   0.0174927
        k(   40) = (   0.0714286   0.2061965   0.2354788), wk =   0.0174927
        k(   41) = (   0.0714286   0.2886751   0.0000000), wk =   0.0087464
        k(   42) = (   0.0714286   0.2886751   0.0784929), wk =   0.0174927
        k(   43) = (   0.0714286   0.2886751   0.1569859), wk =   0.0174927
        k(   44) = (   0.0714286   0.2886751   0.2354788), wk =   0.0174927
        k(   45) = (   0.0714286   0.3711537   0.0000000), wk =   0.0087464
        k(   46) = (   0.0714286   0.3711537   0.0784929), wk =   0.0174927
        k(   47) = (   0.0714286   0.3711537   0.1569859), wk =   0.0174927
        k(   48) = (   0.0714286   0.3711537   0.2354788), wk =   0.0174927
        k(   49) = (   0.0714286   0.4536324   0.0000000), wk =   0.0087464
        k(   50) = (   0.0714286   0.4536324   0.0784929), wk =   0.0174927
        k(   51) = (   0.0714286   0.4536324   0.1569859), wk =   0.0174927
        k(   52) = (   0.0714286   0.4536324   0.2354788), wk =   0.0174927
        k(   53) = (   0.0714286   0.5361110   0.0000000), wk =   0.0087464
        k(   54) = (   0.0714286   0.5361110   0.0784929), wk =   0.0174927
        k(   55) = (   0.0714286   0.5361110   0.1569859), wk =   0.0174927
        k(   56) = (   0.0714286   0.5361110   0.2354788), wk =   0.0174927
        k(   57) = (   0.1428571   0.2474358   0.0000000), wk =   0.0043732
        k(   58) = (   0.1428571   0.2474358   0.0784929), wk =   0.0087464
        k(   59) = (   0.1428571   0.2474358   0.1569859), wk =   0.0087464
        k(   60) = (   0.1428571   0.2474358   0.2354788), wk =   0.0087464
        k(   61) = (   0.1428571   0.3299144   0.0000000), wk =   0.0087464
        k(   62) = (   0.1428571   0.3299144   0.0784929), wk =   0.0174927
        k(   63) = (   0.1428571   0.3299144   0.1569859), wk =   0.0174927
        k(   64) = (   0.1428571   0.3299144   0.2354788), wk =   0.0174927
        k(   65) = (   0.1428571   0.4123930   0.0000000), wk =   0.0087464
        k(   66) = (   0.1428571   0.4123930   0.0784929), wk =   0.0174927
        k(   67) = (   0.1428571   0.4123930   0.1569859), wk =   0.0174927
        k(   68) = (   0.1428571   0.4123930   0.2354788), wk =   0.0174927
        k(   69) = (   0.1428571   0.4948717   0.0000000), wk =   0.0087464
        k(   70) = (   0.1428571   0.4948717   0.0784929), wk =   0.0174927
        k(   71) = (   0.1428571   0.4948717   0.1569859), wk =   0.0174927
        k(   72) = (   0.1428571   0.4948717   0.2354788), wk =   0.0174927
        k(   73) = (   0.1428571   0.5773503   0.0000000), wk =   0.0043732
        k(   74) = (   0.1428571   0.5773503   0.0784929), wk =   0.0087464
        k(   75) = (   0.1428571   0.5773503   0.1569859), wk =   0.0087464
        k(   76) = (   0.1428571   0.5773503   0.2354788), wk =   0.0087464
        k(   77) = (   0.2142857   0.3711537   0.0000000), wk =   0.0043732
        k(   78) = (   0.2142857   0.3711537   0.0784929), wk =   0.0087464
        k(   79) = (   0.2142857   0.3711537   0.1569859), wk =   0.0087464
        k(   80) = (   0.2142857   0.3711537   0.2354788), wk =   0.0087464
        k(   81) = (   0.2142857   0.4536324   0.0000000), wk =   0.0087464
        k(   82) = (   0.2142857   0.4536324   0.0784929), wk =   0.0174927
        k(   83) = (   0.2142857   0.4536324   0.1569859), wk =   0.0174927
        k(   84) = (   0.2142857   0.4536324   0.2354788), wk =   0.0174927
        k(   85) = (   0.2142857   0.5361110   0.0000000), wk =   0.0087464
        k(   86) = (   0.2142857   0.5361110   0.0784929), wk =   0.0174927
        k(   87) = (   0.2142857   0.5361110   0.1569859), wk =   0.0174927
        k(   88) = (   0.2142857   0.5361110   0.2354788), wk =   0.0174927
        k(   89) = (   0.2857143   0.4948717   0.0000000), wk =   0.0043732
        k(   90) = (   0.2857143   0.4948717   0.0784929), wk =   0.0087464
        k(   91) = (   0.2857143   0.4948717   0.1569859), wk =   0.0087464
        k(   92) = (   0.2857143   0.4948717   0.2354788), wk =   0.0087464
        k(   93) = (   0.2857143   0.5773503   0.0000000), wk =   0.0043732
        k(   94) = (   0.2857143   0.5773503   0.0784929), wk =   0.0087464
        k(   95) = (   0.2857143   0.5773503   0.1569859), wk =   0.0087464
        k(   96) = (   0.2857143   0.5773503   0.2354788), wk =   0.0087464

                       cryst. coord.
        k(    1) = (   0.0000000   0.0000000   0.0000000), wk =   0.0007289
        k(    2) = (   0.0000000   0.0000000   0.1428571), wk =   0.0014577
        k(    3) = (   0.0000000   0.0000000   0.2857143), wk =   0.0014577
        k(    4) = (   0.0000000   0.0000000   0.4285714), wk =   0.0014577
        k(    5) = (   0.0000000   0.0714286   0.0000000), wk =   0.0043732
        k(    6) = (   0.0000000   0.0714286   0.1428571), wk =   0.0087464
        k(    7) = (   0.0000000   0.0714286   0.2857143), wk =   0.0087464
        k(    8) = (   0.0000000   0.0714286   0.4285714), wk =   0.0087464
        k(    9) = (   0.0000000   0.1428571   0.0000000), wk =   0.0043732
        k(   10) = (   0.0000000   0.1428571   0.1428571), wk =   0.0087464
        k(   11) = (   0.0000000   0.1428571   0.2857143), wk =   0.0087464
        k(   12) = (   0.0000000   0.1428571   0.4285714), wk =   0.0087464
        k(   13) = (   0.0000000   0.2142857   0.0000000), wk =   0.0043732
        k(   14) = (   0.0000000   0.2142857   0.1428571), wk =   0.0087464
        k(   15) = (   0.0000000   0.2142857   0.2857143), wk =   0.0087464
        k(   16) = (   0.0000000   0.2142857   0.4285714), wk =   0.0087464
        k(   17) = (   0.0000000   0.2857143   0.0000000), wk =   0.0043732
        k(   18) = (   0.0000000   0.2857143   0.1428571), wk =   0.0087464
        k(   19) = (   0.0000000   0.2857143   0.2857143), wk =   0.0087464
        k(   20) = (   0.0000000   0.2857143   0.4285714), wk =   0.0087464
        k(   21) = (   0.0000000   0.3571429   0.0000000), wk =   0.0043732
        k(   22) = (   0.0000000   0.3571429   0.1428571), wk =   0.0087464
        k(   23) = (   0.0000000   0.3571429   0.2857143), wk =   0.0087464
        k(   24) = (   0.0000000   0.3571429   0.4285714), wk =   0.0087464
        k(   25) = (   0.0000000   0.4285714   0.0000000), wk =   0.0043732
        k(   26) = (   0.0000000   0.4285714   0.1428571), wk =   0.0087464
        k(   27) = (   0.0000000   0.4285714   0.2857143), wk =   0.0087464
        k(   28) = (   0.0000000   0.4285714   0.4285714), wk =   0.0087464
        k(   29) = (   0.0000000  -0.5000000   0.0000000), wk =   0.0021866
        k(   30) = (   0.0000000  -0.5000000   0.1428571), wk =   0.0043732
        k(   31) = (   0.0000000  -0.5000000   0.2857143), wk =   0.0043732
        k(   32) = (   0.0000000  -0.5000000   0.4285714), wk =   0.0043732
        k(   33) = (   0.0714286   0.0714286   0.0000000), wk =   0.0043732
        k(   34) = (   0.0714286   0.0714286   0.1428571), wk =   0.0087464
        k(   35) = (   0.0714286   0.0714286   0.2857143), wk =   0.0087464
        k(   36) = (   0.0714286   0.0714286   0.4285714), wk =   0.0087464
        k(   37) = (   0.0714286   0.1428571   0.0000000), wk =   0.0087464
        k(   38) = (   0.0714286   0.1428571   0.1428571), wk =   0.0174927
        k(   39) = (   0.0714286   0.1428571   0.2857143), wk =   0.0174927
        k(   40) = (   0.0714286   0.1428571   0.4285714), wk =   0.0174927
        k(   41) = (   0.0714286   0.2142857   0.0000000), wk =   0.0087464
        k(   42) = (   0.0714286   0.2142857   0.1428571), wk =   0.0174927
        k(   43) = (   0.0714286   0.2142857   0.2857143), wk =   0.0174927
        k(   44) = (   0.0714286   0.2142857   0.4285714), wk =   0.0174927
        k(   45) = (   0.0714286   0.2857143   0.0000000), wk =   0.0087464
        k(   46) = (   0.0714286   0.2857143   0.1428571), wk =   0.0174927
        k(   47) = (   0.0714286   0.2857143   0.2857143), wk =   0.0174927
        k(   48) = (   0.0714286   0.2857143   0.4285714), wk =   0.0174927
        k(   49) = (   0.0714286   0.3571429   0.0000000), wk =   0.0087464
        k(   50) = (   0.0714286   0.3571429   0.1428571), wk =   0.0174927
        k(   51) = (   0.0714286   0.3571429   0.2857143), wk =   0.0174927
        k(   52) = (   0.0714286   0.3571429   0.4285714), wk =   0.0174927
        k(   53) = (   0.0714286   0.4285714   0.0000000), wk =   0.0087464
        k(   54) = (   0.0714286   0.4285714   0.1428571), wk =   0.0174927
        k(   55) = (   0.0714286   0.4285714   0.2857143), wk =   0.0174927
        k(   56) = (   0.0714286   0.4285714   0.4285714), wk =   0.0174927
        k(   57) = (   0.1428571   0.1428571   0.0000000), wk =   0.0043732
        k(   58) = (   0.1428571   0.1428571   0.1428571), wk =   0.0087464
        k(   59) = (   0.1428571   0.1428571   0.2857143), wk =   0.0087464
        k(   60) = (   0.1428571   0.1428571   0.4285714), wk =   0.0087464
        k(   61) = (   0.1428571   0.2142857   0.0000000), wk =   0.0087464
        k(   62) = (   0.1428571   0.2142857   0.1428571), wk =   0.0174927
        k(   63) = (   0.1428571   0.2142857   0.2857143), wk =   0.0174927
        k(   64) = (   0.1428571   0.2142857   0.4285714), wk =   0.0174927
        k(   65) = (   0.1428571   0.2857143   0.0000000), wk =   0.0087464
        k(   66) = (   0.1428571   0.2857143   0.1428571), wk =   0.0174927
        k(   67) = (   0.1428571   0.2857143   0.2857143), wk =   0.0174927
        k(   68) = (   0.1428571   0.2857143   0.4285714), wk =   0.0174927
        k(   69) = (   0.1428571   0.3571429   0.0000000), wk =   0.0087464
        k(   70) = (   0.1428571   0.3571429   0.1428571), wk =   0.0174927
        k(   71) = (   0.1428571   0.3571429   0.2857143), wk =   0.0174927
        k(   72) = (   0.1428571   0.3571429   0.4285714), wk =   0.0174927
        k(   73) = (   0.1428571   0.4285714   0.0000000), wk =   0.0043732
        k(   74) = (   0.1428571   0.4285714   0.1428571), wk =   0.0087464
        k(   75) = (   0.1428571   0.4285714   0.2857143), wk =   0.0087464
        k(   76) = (   0.1428571   0.4285714   0.4285714), wk =   0.0087464
        k(   77) = (   0.2142857   0.2142857   0.0000000), wk =   0.0043732
        k(   78) = (   0.2142857   0.2142857   0.1428571), wk =   0.0087464
        k(   79) = (   0.2142857   0.2142857   0.2857143), wk =   0.0087464
        k(   80) = (   0.2142857   0.2142857   0.4285714), wk =   0.0087464
        k(   81) = (   0.2142857   0.2857143   0.0000000), wk =   0.0087464
        k(   82) = (   0.2142857   0.2857143   0.1428571), wk =   0.0174927
        k(   83) = (   0.2142857   0.2857143   0.2857143), wk =   0.0174927
        k(   84) = (   0.2142857   0.2857143   0.4285714), wk =   0.0174927
        k(   85) = (   0.2142857   0.3571429   0.0000000), wk =   0.0087464
        k(   86) = (   0.2142857   0.3571429   0.1428571), wk =   0.0174927
        k(   87) = (   0.2142857   0.3571429   0.2857143), wk =   0.0174927
        k(   88) = (   0.2142857   0.3571429   0.4285714), wk =   0.0174927
        k(   89) = (   0.2857143   0.2857143   0.0000000), wk =   0.0043732
        k(   90) = (   0.2857143   0.2857143   0.1428571), wk =   0.0087464
        k(   91) = (   0.2857143   0.2857143   0.2857143), wk =   0.0087464
        k(   92) = (   0.2857143   0.2857143   0.4285714), wk =   0.0087464
        k(   93) = (   0.2857143   0.3571429   0.0000000), wk =   0.0043732
        k(   94) = (   0.2857143   0.3571429   0.1428571), wk =   0.0087464
        k(   95) = (   0.2857143   0.3571429   0.2857143), wk =   0.0087464
        k(   96) = (   0.2857143   0.3571429   0.4285714), wk =   0.0087464

     Dense  grid:    16375 G-vectors     FFT dimensions: (  27,  27,  50)

     Dynamical RAM for                 wfc:       0.04 MB

     Dynamical RAM for     wfc (w. buffer):       3.46 MB

     Dynamical RAM for           str. fact:       0.02 MB

     Dynamical RAM for           local pot:       0.00 MB

     Dynamical RAM for          nlocal pot:       0.08 MB

     Dynamical RAM for                qrad:       1.34 MB

     Dynamical RAM for          rho,v,vnew:       0.24 MB

     Dynamical RAM for               rhoin:       0.08 MB

     Dynamical RAM for            rho*nmix:       0.57 MB

     Dynamical RAM for           G-vectors:       0.08 MB

     Dynamical RAM for          h,s,v(r/c):       0.05 MB

     Dynamical RAM for          <psi|beta>:       0.01 MB

     Dynamical RAM for                 psi:       0.07 MB

     Dynamical RAM for                hpsi:       0.07 MB

     Dynamical RAM for                spsi:       0.07 MB

     Dynamical RAM for      wfcinit/wfcrot:       0.09 MB

     Dynamical RAM for           addusdens:       1.71 MB

     Estimated static dynamical RAM per process >       5.47 MB

     Estimated max dynamical RAM per process >       7.75 MB

     Estimated total dynamical RAM >     208.97 MB

     Check: negative core charge=   -0.000003
     Generating pointlists ...
     new r_m :   0.4125 (alat units)  2.0955 (a.u.) for type    1

     Initial potential from superposition of free atoms

     starting charge      23.9926, renormalised to      24.0000
     Starting wfcs are   18 randomized atomic wfcs
     Checking if some PAW data can be deallocated... 

     total cpu time spent up to now is        0.6 secs

     Self-consistent Calculation

     iteration #  1     ecut=    70.00 Ry     beta= 0.70
     Davidson diagonalization with overlap

---- Real-time Memory Report at c_bands before calling an iterative solver
            58 MiB given to the printing process from OS
             0 MiB allocation reported by mallinfo(arena+hblkhd)
        166876 MiB available memory on the node where the printing process lives
------------------
     ethr =  1.00E-02,  avg # of iterations =  3.2

     Threshold (ethr) on eigenvalues was too large:
     Diagonalizing with lowered threshold

     Davidson diagonalization with overlap

---- Real-time Memory Report at c_bands before calling an iterative solver
            58 MiB given to the printing process from OS
             0 MiB allocation reported by mallinfo(arena+hblkhd)
        166822 MiB available memory on the node where the printing process lives
------------------
     ethr =  2.20E-05,  avg # of iterations =  6.5

     total cpu time spent up to now is        2.6 secs

     total energy              =    -487.44554716 Ry
     estimated scf accuracy    <       0.00492271 Ry

     total magnetization       =    -0.00 Bohr mag/cell
     absolute magnetization    =     0.00 Bohr mag/cell

     iteration #  2     ecut=    70.00 Ry     beta= 0.70
     Davidson diagonalization with overlap

---- Real-time Memory Report at c_bands before calling an iterative solver
            76 MiB given to the printing process from OS
             0 MiB allocation reported by mallinfo(arena+hblkhd)
        166745 MiB available memory on the node where the printing process lives
------------------
     ethr =  2.05E-05,  avg # of iterations =  2.0

     total cpu time spent up to now is        3.6 secs

     total energy              =    -487.44598163 Ry
     estimated scf accuracy    <       0.00308283 Ry

     total magnetization       =    -0.00 Bohr mag/cell
     absolute magnetization    =     0.00 Bohr mag/cell

     iteration #  3     ecut=    70.00 Ry     beta= 0.70
     Davidson diagonalization with overlap

---- Real-time Memory Report at c_bands before calling an iterative solver
            77 MiB given to the printing process from OS
             0 MiB allocation reported by mallinfo(arena+hblkhd)
        166730 MiB available memory on the node where the printing process lives
------------------
     ethr =  1.28E-05,  avg # of iterations =  2.0

     total cpu time spent up to now is        4.4 secs

     total energy              =    -487.44676722 Ry
     estimated scf accuracy    <       0.00020636 Ry

     total magnetization       =    -0.00 Bohr mag/cell
     absolute magnetization    =     0.00 Bohr mag/cell

     iteration #  4     ecut=    70.00 Ry     beta= 0.70
     Davidson diagonalization with overlap

---- Real-time Memory Report at c_bands before calling an iterative solver
            77 MiB given to the printing process from OS
             0 MiB allocation reported by mallinfo(arena+hblkhd)
        166719 MiB available memory on the node where the printing process lives
------------------
     ethr =  8.60E-07,  avg # of iterations =  2.1

     total cpu time spent up to now is        5.2 secs

     total energy              =    -487.44678889 Ry
     estimated scf accuracy    <       0.00000609 Ry

     total magnetization       =    -0.00 Bohr mag/cell
     absolute magnetization    =     0.00 Bohr mag/cell

     iteration #  5     ecut=    70.00 Ry     beta= 0.70
     Davidson diagonalization with overlap

---- Real-time Memory Report at c_bands before calling an iterative solver
            78 MiB given to the printing process from OS
             0 MiB allocation reported by mallinfo(arena+hblkhd)
        166708 MiB available memory on the node where the printing process lives
------------------
     ethr =  2.54E-08,  avg # of iterations =  3.0
 
     Magnetic moment per site  (integrated on atomic sphere of radius R)
     atom   1 (R=0.413)  charge= 10.7284  magn= -0.0001
     atom   2 (R=0.413)  charge= 10.7284  magn= -0.0001

     total cpu time spent up to now is        6.2 secs

     End of self-consistent calculation

 ------ SPIN UP ------------


          k = 0.0000 0.0000 0.0000 (  2017 PWs)   bands (ev):

     0.6403   2.5133   3.2117   3.4154   3.4154   3.4700   3.4700   3.7658
     3.7658   3.9938   3.9938   7.4790   8.1954  25.1735  27.8656  27.8656

     occupation numbers 
     1.0000   1.0000   1.0000   1.0000   1.0000   1.0000   1.0000   1.0000
     1.0000   1.0000   1.0000   1.0000   1.0000   0.0000   0.0000   0.0000

          k = 0.0000 0.0000 0.0785 (  2035 PWs)   bands (ev):

     0.7676   2.5020   3.2121   3.4128   3.4128   3.4635   3.4635   3.7824
     3.7824   3.9864   3.9864   6.0706   9.8785  23.1528  27.9916  27.9916

     occupation numbers 
     1.0000   1.0000   1.0000   1.0000   1.0000   1.0000   1.0000   1.0000
     1.0000   1.0000   1.0000   1.0000   1.0000   0.0000   0.0000   0.0000

          k = 0.0000 0.0000 0.1570 (  2029 PWs)   bands (ev):

     1.1367   2.4388   3.2281   3.4100   3.4100   3.4471   3.4471   3.8245
     3.8245   3.9637   3.9637   4.6785  12.1201  20.1932  28.3557  28.3559

     occupation numbers 
     1.0000   1.0000   1.0000   1.0000   1.0000   1.0000   1.0000   1.0000
     1.0000   1.0000   1.0000   1.0000   0.0000   0.0000   0.0000   0.0000

          k = 0.0000 0.0000 0.2355 (  2064 PWs)   bands (ev):

     1.6849   2.2013   3.3274   3.4144   3.4144   3.4281   3.4281   3.7271
     3.8769   3.8769   3.9261   3.9261  14.6061  17.3086  28.8983  28.8996

     occupation numbers 
     1.0000   1.0000   1.0000   1.0000   1.0000   1.0000   1.0000   1.0000
     1.0000   1.0000   1.0000   1.0000   0.0000   0.0000   0.0000   0.0000

          k = 0.0000 0.0825 0.0000 (  2039 PWs)   bands (ev):

     0.7885   2.5753   3.2241   3.4034   3.4496   3.4551   3.5023   3.7351
     3.7517   3.9131   3.9962   7.7146   8.2746  25.3281  25.4796  26.6328

     occupation numbers 
     1.0000   1.0000   1.0000   1.0000   1.0000   1.0000   1.0000   1.0000
     1.0000   1.0000   1.0000   1.0000   1.0000   0.0000   0.0000   0.0000

          k = 0.0000 0.0825 0.0785 (  2035 PWs)   bands (ev):

     0.9150   2.5679   3.2239   3.3978   3.4464   3.4470   3.4956   3.7565
     3.7698   3.8982   3.9880   6.2514  10.0170  23.2835  25.6258  26.7663

     occupation numbers 
     1.0000   1.0000   1.0000   1.0000   1.0000   1.0000   1.0000   1.0000
     1.0000   1.0000   1.0000   1.0000   1.0000   0.0000   0.0000   0.0000

          k = 0.0000 0.0825 0.1570 (  2046 PWs)   bands (ev):

     1.2808   2.5188   3.2343   3.3909   3.4265   3.4426   3.4789   3.8017
     3.8150   3.8473   3.9633   4.8839  12.2606  20.3268  26.0062  27.1627

     occupation numbers 
     1.0000   1.0000   1.0000   1.0000   1.0000   1.0000   1.0000   1.0000
     1.0000   1.0000   1.0000   1.0000   0.0000   0.0000   0.0000   0.0000

          k = 0.0000 0.0825 0.2355 (  2052 PWs)   bands (ev):

     1.8199   2.3109   3.3069   3.3975   3.4029   3.4464   3.4599   3.6025
     3.8706   3.9043   3.9229   4.0978  14.7449  17.4450  26.6320  27.4911

     occupation numbers 
     1.0000   1.0000   1.0000   1.0000   1.0000   1.0000   1.0000   1.0000
     1.0000   1.0000   1.0000   1.0000   0.0000   0.0000   0.0000   0.0000

          k = 0.0000 0.1650 0.0000 (  2038 PWs)   bands (ev):

     1.2232   2.7320   3.2410   3.3798   3.4462   3.5469   3.5939   3.6108
     3.7147   3.7680   4.0003   8.3596   8.5291  22.1756  25.0085  25.7274

     occupation numbers 
     1.0000   1.0000   1.0000   1.0000   1.0000   1.0000   1.0000   1.0000
     1.0000   1.0000   1.0000   1.0000   1.0000   0.0000   0.0000   0.0000

          k = 0.0000 0.1650 0.0785 (  2039 PWs)   bands (ev):

     1.3457   2.7341   3.2435   3.3653   3.4241   3.5408   3.5862   3.6301
     3.7381   3.7704   3.9904   6.7277  10.4382  22.2830  23.7127  25.1504

     occupation numbers 
     1.0000   1.0000   1.0000   1.0000   1.0000   1.0000   1.0000   1.0000
     1.0000   1.0000   1.0000   1.0000   1.0000   0.0000   0.0000   0.0000

          k = 0.0000 0.1650 0.1570 (  2041 PWs)   bands (ev):

     1.6966   2.7211   3.2469   3.3417   3.3832   3.5330   3.5685   3.6034
     3.7921   3.8275   3.9611   5.3431  12.6812  20.7011  22.7402  25.3664

     occupation numbers 
     1.0000   1.0000   1.0000   1.0000   1.0000   1.0000   1.0000   1.0000
     1.0000   1.0000   1.0000   1.0000   0.0000   0.0000   0.0000   0.0000

          k = 0.0000 0.1650 0.2355 (  2051 PWs)   bands (ev):

     2.1955   2.5958   3.2582   3.3116   3.3772   3.4775   3.5353   3.5489
     3.8553   3.9145   3.9937   4.4122  15.1580  17.8466  23.3649  24.2488

     occupation numbers 
     1.0000   1.0000   1.0000   1.0000   1.0000   1.0000   1.0000   1.0000
     1.0000   1.0000   1.0000   1.0000   0.0000   0.0000   0.0000   0.0000

          k = 0.0000 0.2474 0.0000 (  2046 PWs)   bands (ev):

     1.8919   2.8749   3.2700   3.3507   3.3968   3.5579   3.6638   3.6653
     3.6912   3.7291   4.0023   9.0054   9.3128  18.9962  23.5694  24.7324

     occupation numbers 
     1.0000   1.0000   1.0000   1.0000   1.0000   1.0000   1.0000   1.0000
     1.0000   1.0000   1.0000   1.0000   1.0000   0.0000   0.0000   0.0000

          k = 0.0000 0.2474 0.0785 (  2041 PWs)   bands (ev):

     1.9980   2.8853   3.2694   3.3233   3.3905   3.5506   3.6503   3.7107
     3.7112   3.7352   3.9908   7.4310  11.1504  19.1218  23.5690  23.7172

     occupation numbers 
     1.0000   1.0000   1.0000   1.0000   1.0000   1.0000   1.0000   1.0000
     1.0000   1.0000   1.0000   1.0000   0.0000   0.0000   0.0000   0.0000

          k = 0.0000 0.2474 0.1570 (  2038 PWs)   bands (ev):

     2.2866   2.9042   3.2473   3.2637   3.3933   3.5279   3.6442   3.6978
     3.7854   3.8629   3.9577   6.0016  13.3767  19.4697  21.4342  22.2395

     occupation numbers 
     1.0000   1.0000   1.0000   1.0000   1.0000   1.0000   1.0000   1.0000
     1.0000   1.0000   1.0000   1.0000   0.0000   0.0000   0.0000   0.0000

          k = 0.0000 0.2474 0.2355 (  2049 PWs)   bands (ev):

     2.6413   2.8653   3.1986   3.2129   3.4318   3.4855   3.6540   3.6745
     3.8473   3.9076   4.2070   4.9058  15.8288  18.4467  20.2735  21.1176

     occupation numbers 
     1.0000   1.0000   1.0000   1.0000   1.0000   1.0000   1.0000   1.0000
     1.0000   1.0000   1.0000   1.0000   0.0000   0.0000   0.0000   0.0000

          k = 0.0000 0.3299 0.0000 (  2048 PWs)   bands (ev):

     2.5412   2.8774   3.1947   3.3614   3.4685   3.5719   3.6143   3.8564
     3.8839   3.9203   4.0009   9.7587  10.5095  16.0363  21.8247  22.3883

     occupation numbers 
     1.0000   1.0000   1.0000   1.0000   1.0000   1.0000   1.0000   1.0000
     1.0000   1.0000   1.0000   1.0000   1.0000   0.0000   0.0000   0.0000

          k = 0.0000 0.3299 0.0785 (  2044 PWs)   bands (ev):

     2.5821   2.8880   3.1929   3.3190   3.4313   3.6281   3.7118   3.8594
     3.8754   3.9432   3.9910   8.3682  12.1446  16.1645  20.6631  22.5406

     occupation numbers 
     1.0000   1.0000   1.0000   1.0000   1.0000   1.0000   1.0000   1.0000
     1.0000   1.0000   1.0000   1.0000   0.0000   0.0000   0.0000   0.0000

          k = 0.0000 0.3299 0.1570 (  2041 PWs)   bands (ev):

     2.6811   2.9074   3.1707   3.2022   3.5191   3.6669   3.7775   3.8358
     3.8818   3.9660   4.2078   6.9173  14.3209  16.5426  19.3426  22.1570

     occupation numbers 
     1.0000   1.0000   1.0000   1.0000   1.0000   1.0000   1.0000   1.0000
     1.0000   1.0000   1.0000   1.0000   0.0000   0.0000   0.0000   0.0000

          k = 0.0000 0.3299 0.2355 (  2037 PWs)   bands (ev):

     2.7961   2.8874   3.1280   3.1439   3.6296   3.7222   3.7229   3.7840
     3.9056   3.9352   4.8169   5.7256  16.6223  17.1218  18.3351  19.5536

     occupation numbers 
     1.0000   1.0000   1.0000   1.0000   1.0000   1.0000   1.0000   1.0000
     1.0000   1.0000   1.0000   1.0000   0.0000   0.0000   0.0000   0.0000

          k = 0.0000 0.4124 0.0000 (  2042 PWs)   bands (ev):

     2.7377   2.8246   3.0434   3.4609   3.4933   3.5705   3.6882   3.9974
     4.0087   4.0294   4.9392  10.7782  11.9104  13.3848  19.1197  21.5067

     occupation numbers 
     1.0000   1.0000   1.0000   1.0000   1.0000   1.0000   1.0000   1.0000
     1.0000   1.0000   1.0000   1.0000   0.0000   0.0000   0.0000   0.0000

          k = 0.0000 0.4124 0.0785 (  2048 PWs)   bands (ev):

     2.7314   2.8194   3.0686   3.3332   3.5333   3.5892   3.8081   3.9648
     4.0113   4.0387   5.0307   9.5505  13.2582  13.6019  18.0285  21.6625

     occupation numbers 
     1.0000   1.0000   1.0000   1.0000   1.0000   1.0000   1.0000   1.0000
     1.0000   1.0000   1.0000   1.0000   0.0000   0.0000   0.0000   0.0000

          k = 0.0000 0.4124 0.1570 (  2050 PWs)   bands (ev):

     2.7304   2.8255   3.0837   3.1681   3.6420   3.6535   3.8970   3.9135
     4.0181   4.0420   5.3606   8.1228  13.8474  15.2712  16.9560  22.1239

     occupation numbers 
     1.0000   1.0000   1.0000   1.0000   1.0000   1.0000   1.0000   1.0000
     1.0000   1.0000   1.0000   1.0000   0.0000   0.0000   0.0000   0.0000

          k = 0.0000 0.4124 0.2355 (  2041 PWs)   bands (ev):

     2.7634   2.8124   3.0674   3.0775   3.7202   3.7972   3.8105   3.9006
     4.0276   4.0368   5.9943   6.9244  14.4698  15.2663  18.1937  20.5698

     occupation numbers 
     1.0000   1.0000   1.0000   1.0000   1.0000   1.0000   1.0000   1.0000
     1.0000   1.0000   1.0000   1.0000   0.0000   0.0000   0.0000   0.0000

          k = 0.0000 0.4949 0.0000 (  2044 PWs)   bands (ev):

     2.7150   2.7958   2.9522   3.4397   3.5353   3.5412   3.8194   3.9941
     4.1145   4.1356   6.4964  10.5361  12.5857  13.4461  16.7103  18.0055

     occupation numbers 
     1.0000   1.0000   1.0000   1.0000   1.0000   1.0000   1.0000   1.0000
     1.0000   1.0000   1.0000   1.0000   0.0000   0.0000   0.0000   0.0000

          k = 0.0000 0.4949 0.0785 (  2051 PWs)   bands (ev):

     2.7190   2.7580   2.9944   3.3202   3.5619   3.5900   3.9059   3.9687
     4.1163   4.1359   6.6023  10.3419  11.7320  14.4430  16.0954  19.2158

     occupation numbers 
     1.0000   1.0000   1.0000   1.0000   1.0000   1.0000   1.0000   1.0000
     1.0000   1.0000   1.0000   1.0000   0.0000   0.0000   0.0000   0.0000

          k = 0.0000 0.4949 0.1570 (  2056 PWs)   bands (ev):

     2.7031   2.7543   3.0252   3.1443   3.6207   3.7239   3.9007   4.0004
     4.1206   4.1349   6.9388   9.4436  11.6232  13.9263  17.3778  20.9466

     occupation numbers 
     1.0000   1.0000   1.0000   1.0000   1.0000   1.0000   1.0000   1.0000
     1.0000   1.0000   1.0000   1.0000   0.0000   0.0000   0.0000   0.0000

          k = 0.0000 0.4949 0.2355 (  2048 PWs)   bands (ev):

     2.7155   2.7501   3.0197   3.0367   3.7075   3.8072   3.8835   3.9928
     4.1260   4.1313   7.5353   8.3913  12.1253  12.9281  19.5233  21.4141

     occupation numbers 
     1.0000   1.0000   1.0000   1.0000   1.0000   1.0000   1.0000   1.0000
     1.0000   1.0000   1.0000   1.0000   0.0000   0.0000   0.0000   0.0000

          k = 0.0000-0.5774 0.0000 (  2066 PWs)   bands (ev):

     2.6964   2.7841   2.9219   3.4207   3.5309   3.5619   3.8619   3.9928
     4.1521   4.1748   8.1086   8.7410  13.7218  14.5198  15.1346  16.7097

     occupation numbers 
     1.0000   1.0000   1.0000   1.0000   1.0000   1.0000   1.0000   1.0000
     1.0000   1.0000   1.0000   1.0000   0.0000   0.0000   0.0000   0.0000

          k = 0.0000-0.5774 0.0785 (  2068 PWs)   bands (ev):

     2.7064   2.7342   2.9698   3.3115   3.5523   3.6103   3.9417   3.9679
     4.1538   4.1738   8.2206   8.8037  13.0360  13.2078  16.7196  17.6150

     occupation numbers 
     1.0000   1.0000   1.0000   1.0000   1.0000   1.0000   1.0000   1.0000
     1.0000   1.0000   1.0000   1.0000   0.0000   0.0000   0.0000   0.0000

          k = 0.0000-0.5774 0.1570 (  2046 PWs)   bands (ev):

     2.6897   2.7271   3.0047   3.1351   3.6128   3.7454   3.8997   4.0315
     4.1577   4.1711   8.5411   8.9772  11.9363  11.9615  18.7715  19.3627

     occupation numbers 
     1.0000   1.0000   1.0000   1.0000   1.0000   1.0000   1.0000   1.0000
     1.0000   1.0000   1.0000   1.0000   0.0000   0.0000   0.0000   0.0000

          k = 0.0000-0.5774 0.2355 (  2028 PWs)   bands (ev):

     2.6964   2.7271   3.0023   3.0228   3.7022   3.8045   3.9095   4.0223
     4.1624   4.1671   8.9656   9.1442  11.1444  11.1622  20.7675  21.0653

     occupation numbers 
     1.0000   1.0000   1.0000   1.0000   1.0000   1.0000   1.0000   1.0000
     1.0000   1.0000   1.0000   1.0000   0.0000   0.0000   0.0000   0.0000

          k = 0.0714 0.1237 0.0000 (  2033 PWs)   bands (ev):

     1.0805   2.6866   3.2375   3.3902   3.4254   3.5198   3.5718   3.6814
     3.6896   3.8181   3.9963   8.1529   8.4417  23.7816  23.9944  25.6141

     occupation numbers 
     1.0000   1.0000   1.0000   1.0000   1.0000   1.0000   1.0000   1.0000
     1.0000   1.0000   1.0000   1.0000   1.0000   0.0000   0.0000   0.0000

          k = 0.0714 0.1237 0.0785 (  2032 PWs)   bands (ev):

     1.2046   2.6860   3.2391   3.3752   3.4137   3.5146   3.5640   3.6888
     3.7231   3.8110   3.9874   6.5768  10.2971  23.4740  23.9138  24.2337

     occupation numbers 
     1.0000   1.0000   1.0000   1.0000   1.0000   1.0000   1.0000   1.0000
     1.0000   1.0000   1.0000   1.0000   1.0000   0.0000   0.0000   0.0000

          k = 0.0714 0.1237 0.1570 (  2048 PWs)   bands (ev):

     1.5618   2.6623   3.2442   3.3549   3.3832   3.5074   3.5466   3.6550
     3.8088   3.8186   3.9616   5.2024  12.5413  20.5852  24.3078  24.5560

     occupation numbers 
     1.0000   1.0000   1.0000   1.0000   1.0000   1.0000   1.0000   1.0000
     1.0000   1.0000   1.0000   1.0000   0.0000   0.0000   0.0000   0.0000

          k = 0.0714 0.1237 0.2355 (  2048 PWs)   bands (ev):

     2.0773   2.5110   3.2727   3.3389   3.3705   3.4828   3.5272   3.5282
     3.8636   3.9096   3.9663   4.3166  15.0211  17.7146  24.9571  25.1832

     occupation numbers 
     1.0000   1.0000   1.0000   1.0000   1.0000   1.0000   1.0000   1.0000
     1.0000   1.0000   1.0000   1.0000   0.0000   0.0000   0.0000   0.0000

          k = 0.0714 0.2062 0.0000 (  2034 PWs)   bands (ev):

     1.6395   2.8538   3.2310   3.3654   3.4432   3.4905   3.6253   3.6505
     3.7112   3.7481   3.9941   8.8092   8.9455  20.6439  22.4753  25.8943

     occupation numbers 
     1.0000   1.0000   1.0000   1.0000   1.0000   1.0000   1.0000   1.0000
     1.0000   1.0000   1.0000   1.0000   1.0000   0.0000   0.0000   0.0000

          k = 0.0714 0.2062 0.0785 (  2038 PWs)   bands (ev):

     1.7549   2.8631   3.2385   3.3409   3.3961   3.5093   3.6330   3.6747
     3.7052   3.7687   3.9853   7.1584  10.8657  20.7672  22.5894  24.0875

     occupation numbers 
     1.0000   1.0000   1.0000   1.0000   1.0000   1.0000   1.0000   1.0000
     1.0000   1.0000   1.0000   1.0000   1.0000   0.0000   0.0000   0.0000

          k = 0.0714 0.2062 0.1570 (  2044 PWs)   bands (ev):

     2.0794   2.8767   3.2540   3.2862   3.3326   3.4897   3.6177   3.6806
     3.7957   3.8293   3.9637   5.7457  13.1007  20.8542  21.4262  23.0542

     occupation numbers 
     1.0000   1.0000   1.0000   1.0000   1.0000   1.0000   1.0000   1.0000
     1.0000   1.0000   1.0000   1.0000   0.0000   0.0000   0.0000   0.0000

          k = 0.0714 0.2062 0.2355 (  2044 PWs)   bands (ev):

     2.5137   2.8162   3.2242   3.2359   3.3388   3.4135   3.6300   3.6546
     3.8564   3.9028   4.1163   4.7075  15.5659  18.2334  21.8575  22.7420

     occupation numbers 
     1.0000   1.0000   1.0000   1.0000   1.0000   1.0000   1.0000   1.0000
     1.0000   1.0000   1.0000   1.0000   0.0000   0.0000   0.0000   0.0000

          k = 0.0714 0.2887 0.0000 (  2045 PWs)   bands (ev):

     2.3473   2.9342   3.2826   3.2908   3.3497   3.5577   3.5883   3.6789
     3.8126   3.9415   3.9904   9.4317  10.0133  17.5777  21.2788  23.3541

     occupation numbers 
     1.0000   1.0000   1.0000   1.0000   1.0000   1.0000   1.0000   1.0000
     1.0000   1.0000   1.0000   1.0000   1.0000   0.0000   0.0000   0.0000

          k = 0.0714 0.2887 0.0785 (  2044 PWs)   bands (ev):

     2.4250   2.9477   3.2529   3.3044   3.3257   3.5634   3.6453   3.6838
     3.8302   3.9167   4.0063   7.9744  11.7241  17.7058  21.4101  22.1805

     occupation numbers 
     1.0000   1.0000   1.0000   1.0000   1.0000   1.0000   1.0000   1.0000
     1.0000   1.0000   1.0000   1.0000   0.0000   0.0000   0.0000   0.0000

          k = 0.0714 0.2887 0.1570 (  2041 PWs)   bands (ev):

     2.6179   2.9778   3.1925   3.2433   3.3794   3.5379   3.6711   3.8188
     3.8375   3.9117   4.0926   6.5306  13.9278  18.0792  20.8489  21.6118

     occupation numbers 
     1.0000   1.0000   1.0000   1.0000   1.0000   1.0000   1.0000   1.0000
     1.0000   1.0000   1.0000   1.0000   0.0000   0.0000   0.0000   0.0000

          k = 0.0714 0.2887 0.2355 (  2047 PWs)   bands (ev):

     2.8248   2.9612   3.1507   3.1895   3.4397   3.4946   3.7084   3.7693
     3.8968   3.9254   4.5397   5.3724  16.3429  18.4565  19.3666  19.7420

     occupation numbers 
     1.0000   1.0000   1.0000   1.0000   1.0000   1.0000   1.0000   1.0000
     1.0000   1.0000   1.0000   1.0000   0.0000   0.0000   0.0000   0.0000

          k = 0.0714 0.3712 0.0000 (  2042 PWs)   bands (ev):

     2.7642   2.8885   3.1131   3.4157   3.4965   3.5230   3.6091   3.8290
     3.9677   3.9853   4.5325  10.3495  11.3087  14.7540  20.3395  20.5432

     occupation numbers 
     1.0000   1.0000   1.0000   1.0000   1.0000   1.0000   1.0000   1.0000
     1.0000   1.0000   1.0000   1.0000   0.0000   0.0000   0.0000   0.0000

          k = 0.0714 0.3712 0.0785 (  2046 PWs)   bands (ev):

     2.7646   2.8960   3.1328   3.3133   3.4621   3.6111   3.7156   3.8238
     3.9548   3.9828   4.6008   9.0453  12.8455  14.8828  19.4007  20.4803

     occupation numbers 
     1.0000   1.0000   1.0000   1.0000   1.0000   1.0000   1.0000   1.0000
     1.0000   1.0000   1.0000   1.0000   0.0000   0.0000   0.0000   0.0000

          k = 0.0714 0.3712 0.1570 (  2041 PWs)   bands (ev):

     2.7831   2.9135   3.1359   3.1795   3.5376   3.6534   3.7825   3.8808
     3.9062   4.0033   4.8823   7.6036  14.9483  15.2711  18.1203  20.8749

     occupation numbers 
     1.0000   1.0000   1.0000   1.0000   1.0000   1.0000   1.0000   1.0000
     1.0000   1.0000   1.0000   1.0000   0.0000   0.0000   0.0000   0.0000

          k = 0.0714 0.3712 0.2355 (  2034 PWs)   bands (ev):

     2.8344   2.8979   3.1008   3.1235   3.6457   3.7035   3.7439   3.7940
     3.9822   4.0114   5.4868   6.4061  15.8729  16.4916  17.8501  20.1010

     occupation numbers 
     1.0000   1.0000   1.0000   1.0000   1.0000   1.0000   1.0000   1.0000
     1.0000   1.0000   1.0000   1.0000   0.0000   0.0000   0.0000   0.0000

          k = 0.0714 0.4536 0.0000 (  2045 PWs)   bands (ev):

     2.7778   2.8533   2.9981   3.4505   3.5066   3.5521   3.7165   3.9802
     4.0126   4.0814   5.8195  11.2810  12.5062  12.7893  17.9704  19.6939

     occupation numbers 
     1.0000   1.0000   1.0000   1.0000   1.0000   1.0000   1.0000   1.0000
     1.0000   1.0000   1.0000   0.0000   0.0000   0.0000   0.0000   0.0000

          k = 0.0714 0.4536 0.0785 (  2047 PWs)   bands (ev):

     2.7763   2.8239   3.0427   3.3208   3.5291   3.5955   3.8218   3.9523
     4.0112   4.0859   5.9228  10.2983  12.3900  14.1619  16.9722  19.8348

     occupation numbers 
     1.0000   1.0000   1.0000   1.0000   1.0000   1.0000   1.0000   1.0000
     1.0000   1.0000   1.0000   1.0000   0.0000   0.0000   0.0000   0.0000

          k = 0.0714 0.4536 0.1570 (  2043 PWs)   bands (ev):

     2.7600   2.8276   3.0735   3.1548   3.5817   3.7064   3.8814   3.9304
     4.0116   4.0938   6.2602   8.9396  12.7336  15.0304  16.8726  20.2507

     occupation numbers 
     1.0000   1.0000   1.0000   1.0000   1.0000   1.0000   1.0000   1.0000
     1.0000   1.0000   1.0000   1.0000   0.0000   0.0000   0.0000   0.0000

          k = 0.0714 0.4536 0.2355 (  2039 PWs)   bands (ev):

     2.7785   2.8207   3.0578   3.0652   3.6763   3.7824   3.8285   3.9144
     4.0532   4.0869   6.8752   7.7762  13.3415  14.1731  18.9121  20.7948

     occupation numbers 
     1.0000   1.0000   1.0000   1.0000   1.0000   1.0000   1.0000   1.0000
     1.0000   1.0000   1.0000   1.0000   0.0000   0.0000   0.0000   0.0000

          k = 0.0714 0.5361 0.0000 (  2049 PWs)   bands (ev):

     2.7408   2.8327   2.9407   3.4261   3.5199   3.5576   3.8135   3.9770
     4.1086   4.1341   7.5285   9.6344  13.3762  14.2827  15.7849  17.2116

     occupation numbers 
     1.0000   1.0000   1.0000   1.0000   1.0000   1.0000   1.0000   1.0000
     1.0000   1.0000   1.0000   1.0000   0.0000   0.0000   0.0000   0.0000

          k = 0.0714 0.5361 0.0785 (  2058 PWs)   bands (ev):

     2.7503   2.7786   2.9974   3.3155   3.5180   3.6240   3.8987   3.9506
     4.1061   4.1337   7.6361   9.6819  12.3699  14.1117  16.3636  18.3189

     occupation numbers 
     1.0000   1.0000   1.0000   1.0000   1.0000   1.0000   1.0000   1.0000
     1.0000   1.0000   1.0000   1.0000   0.0000   0.0000   0.0000   0.0000

          k = 0.0714 0.5361 0.1570 (  2055 PWs)   bands (ev):

     2.7313   2.7760   3.0358   3.1433   3.5683   3.7576   3.8781   4.0046
     4.0959   4.1303   7.9639   9.6809  11.3886  12.9971  18.2431  19.9217

     occupation numbers 
     1.0000   1.0000   1.0000   1.0000   1.0000   1.0000   1.0000   1.0000
     1.0000   1.0000   1.0000   1.0000   0.0000   0.0000   0.0000   0.0000

          k = 0.0714 0.5361 0.2355 (  2040 PWs)   bands (ev):

     2.7410   2.7759   3.0282   3.0386   3.6644   3.7758   3.9077   4.0124
     4.0971   4.1178   8.5097   9.2015  11.3349  11.9952  20.2927  20.6092

     occupation numbers 
     1.0000   1.0000   1.0000   1.0000   1.0000   1.0000   1.0000   1.0000
     1.0000   1.0000   1.0000   1.0000   0.0000   0.0000   0.0000   0.0000

          k = 0.1429 0.2474 0.0000 (  2051 PWs)   bands (ev):

     2.2695   3.0038   3.1776   3.3288   3.3563   3.4692   3.5324   3.7176
     3.8074   3.9585   3.9778   9.3284   9.8446  19.2059  19.5190  25.0529

     occupation numbers 
     1.0000   1.0000   1.0000   1.0000   1.0000   1.0000   1.0000   1.0000
     1.0000   1.0000   1.0000   1.0000   1.0000   0.0000   0.0000   0.0000

          k = 0.1429 0.2474 0.0785 (  2038 PWs)   bands (ev):

     2.3609   3.0199   3.1869   3.2808   3.3852   3.3965   3.6399   3.6907
     3.8369   3.9102   4.0160   7.8456  11.5845  19.3404  19.6399  23.7878

     occupation numbers 
     1.0000   1.0000   1.0000   1.0000   1.0000   1.0000   1.0000   1.0000
     1.0000   1.0000   1.0000   1.0000   0.0000   0.0000   0.0000   0.0000

          k = 0.1429 0.2474 0.1570 (  2046 PWs)   bands (ev):

     2.5987   3.0644   3.2021   3.2165   3.3102   3.3874   3.6702   3.8119
     3.8506   3.8810   4.1016   6.4078  13.7959  19.7412  19.9492  21.8810

     occupation numbers 
     1.0000   1.0000   1.0000   1.0000   1.0000   1.0000   1.0000   1.0000
     1.0000   1.0000   1.0000   1.0000   0.0000   0.0000   0.0000   0.0000

          k = 0.1429 0.2474 0.2355 (  2046 PWs)   bands (ev):

     2.8719   3.0655   3.1481   3.2227   3.2711   3.3380   3.6998   3.7635
     3.9139   3.9184   4.4809   5.2695  16.2307  18.8076  20.4015  20.8614

     occupation numbers 
     1.0000   1.0000   1.0000   1.0000   1.0000   1.0000   1.0000   1.0000
     1.0000   1.0000   1.0000   1.0000   0.0000   0.0000   0.0000   0.0000

          k = 0.1429 0.3299 0.0000 (  2046 PWs)   bands (ev):

     2.8549   3.0214   3.1750   3.2472   3.3841   3.4655   3.5850   3.6578
     3.9604   3.9610   4.4651  10.1384  11.0030  16.4087  18.3421  22.2115

     occupation numbers 
     1.0000   1.0000   1.0000   1.0000   1.0000   1.0000   1.0000   1.0000
     1.0000   1.0000   1.0000   1.0000   0.7193   0.0000   0.0000   0.0000

          k = 0.1429 0.3299 0.0785 (  2045 PWs)   bands (ev):

     2.8703   3.0367   3.1632   3.2483   3.3464   3.5107   3.6402   3.6637
     3.9317   3.9760   4.5206   8.7987  12.5854  16.5392  18.4731  21.0360

     occupation numbers 
     1.0000   1.0000   1.0000   1.0000   1.0000   1.0000   1.0000   1.0000
     1.0000   1.0000   1.0000   1.0000   0.0000   0.0000   0.0000   0.0000

          k = 0.1429 0.3299 0.1570 (  2039 PWs)   bands (ev):

     2.9102   3.0820   3.1060   3.2640   3.3378   3.4932   3.6463   3.8473
     3.8593   4.0042   4.7488   7.3592  14.7452  16.9248  18.8546  19.7090

     occupation numbers 
     1.0000   1.0000   1.0000   1.0000   1.0000   1.0000   1.0000   1.0000
     1.0000   1.0000   1.0000   1.0000   0.0000   0.0000   0.0000   0.0000

          k = 0.1429 0.3299 0.2355 (  2038 PWs)   bands (ev):

     2.9666   3.0339   3.1505   3.2201   3.3891   3.4465   3.6877   3.7674
     3.9779   4.0157   5.2918   6.1771  17.0384  17.5242  18.6645  19.2917

     occupation numbers 
     1.0000   1.0000   1.0000   1.0000   1.0000   1.0000   1.0000   1.0000
     1.0000   1.0000   1.0000   1.0000   0.0000   0.0000   0.0000   0.0000

          k = 0.1429 0.4124 0.0000 (  2041 PWs)   bands (ev):

     2.9315   2.9871   3.0587   3.4263   3.4619   3.5155   3.5833   3.7723
     3.9474   4.0637   5.5007  11.2343  12.3817  13.7549  17.5718  19.5209

     occupation numbers 
     1.0000   1.0000   1.0000   1.0000   1.0000   1.0000   1.0000   1.0000
     1.0000   1.0000   1.0000   0.0000   0.0000   0.0000   0.0000   0.0000

          k = 0.1429 0.4124 0.0785 (  2038 PWs)   bands (ev):

     2.9213   2.9600   3.1206   3.2870   3.4543   3.5946   3.6845   3.7674
     3.9190   4.0729   5.5983  10.0202  13.7175  13.9762  17.7062  18.4103

     occupation numbers 
     1.0000   1.0000   1.0000   1.0000   1.0000   1.0000   1.0000   1.0000
     1.0000   1.0000   1.0000   1.0000   0.0000   0.0000   0.0000   0.0000

          k = 0.1429 0.4124 0.1570 (  2033 PWs)   bands (ev):

     2.8929   2.9843   3.1273   3.1897   3.4782   3.6320   3.7336   3.8401
     3.8864   4.0875   5.9225   8.6070  14.2414  15.7305  17.2953  18.1036

     occupation numbers 
     1.0000   1.0000   1.0000   1.0000   1.0000   1.0000   1.0000   1.0000
     1.0000   1.0000   1.0000   1.0000   0.0000   0.0000   0.0000   0.0000

          k = 0.1429 0.4124 0.2355 (  2040 PWs)   bands (ev):

     2.9098   2.9652   3.1033   3.1525   3.5671   3.6514   3.7060   3.7523
     4.0160   4.0782   6.5274   7.4289  14.8723  15.6908  18.4549  18.7276

     occupation numbers 
     1.0000   1.0000   1.0000   1.0000   1.0000   1.0000   1.0000   1.0000
     1.0000   1.0000   1.0000   1.0000   0.0000   0.0000   0.0000   0.0000

          k = 0.1429 0.4949 0.0000 (  2046 PWs)   bands (ev):

     2.8680   2.9653   2.9885   3.4176   3.5131   3.5437   3.6634   3.9382
     3.9455   4.0964   7.0282  11.0345  12.9726  13.9156  17.0984  17.1082

     occupation numbers 
     1.0000   1.0000   1.0000   1.0000   1.0000   1.0000   1.0000   1.0000
     1.0000   1.0000   1.0000   0.0000   0.0000   0.0000   0.0000   0.0000

          k = 0.1429 0.4949 0.0785 (  2049 PWs)   bands (ev):

     2.8750   2.8938   3.0782   3.3085   3.4681   3.6200   3.7652   3.9090
     3.9396   4.1003   7.1397  10.8975  12.0712  14.9336  16.4391  17.2362

     occupation numbers 
     1.0000   1.0000   1.0000   1.0000   1.0000   1.0000   1.0000   1.0000
     1.0000   1.0000   1.0000   1.0000   0.0000   0.0000   0.0000   0.0000

          k = 0.1429 0.4949 0.1570 (  2043 PWs)   bands (ev):

     2.8439   2.9124   3.1270   3.1561   3.4808   3.7241   3.8231   3.8980
     3.9288   4.1030   7.4853  10.0057  11.9703  14.3641  17.6345  17.7385

     occupation numbers 
     1.0000   1.0000   1.0000   1.0000   1.0000   1.0000   1.0000   1.0000
     1.0000   1.0000   1.0000   1.0000   0.0000   0.0000   0.0000   0.0000

          k = 0.1429 0.4949 0.2355 (  2040 PWs)   bands (ev):

     2.8593   2.9094   3.0791   3.1066   3.5772   3.7025   3.8191   3.8788
     4.0155   4.0804   8.0853   8.9424  12.5066  13.3355  18.2908  19.0637

     occupation numbers 
     1.0000   1.0000   1.0000   1.0000   1.0000   1.0000   1.0000   1.0000
     1.0000   1.0000   1.0000   1.0000   0.0000   0.0000   0.0000   0.0000

          k = 0.1429 0.5774 0.0000 (  2050 PWs)   bands (ev):

     2.8444   2.9520   2.9652   3.4273   3.4753   3.5705   3.7147   3.9350
     4.0450   4.0657   8.7075   9.1343  14.2156  15.0252  15.4707  16.9397

     occupation numbers 
     1.0000   1.0000   1.0000   1.0000   1.0000   1.0000   1.0000   1.0000
     1.0000   1.0000   1.0000   1.0000   0.0000   0.0000   0.0000   0.0000

          k = 0.1429 0.5774 0.0785 (  2053 PWs)   bands (ev):

     2.8572   2.8680   3.0615   3.3203   3.4463   3.6449   3.7980   3.9054
     4.0424   4.0654   8.8283   9.2145  13.4973  13.6220  17.0752  17.1378

     occupation numbers 
     1.0000   1.0000   1.0000   1.0000   1.0000   1.0000   1.0000   1.0000
     1.0000   1.0000   1.0000   1.0000   0.0000   0.0000   0.0000   0.0000

          k = 0.1429 0.5774 0.1570 (  2047 PWs)   bands (ev):

     2.8255   2.8866   3.1123   3.1592   3.4666   3.7756   3.8163   3.9074
     4.0346   4.0578   9.1719   9.4463  12.3312  12.3551  17.4833  19.1993

     occupation numbers 
     1.0000   1.0000   1.0000   1.0000   1.0000   1.0000   1.0000   1.0000
     1.0000   1.0000   1.0000   1.0000   0.0000   0.0000   0.0000   0.0000

          k = 0.1429 0.5774 0.2355 (  2045 PWs)   bands (ev):

     2.8409   2.8881   3.0720   3.0908   3.5680   3.6978   3.9022   3.9564
     4.0225   4.0291   9.6226   9.7297  11.4745  11.4860  18.1416  19.0065

     occupation numbers 
     1.0000   1.0000   1.0000   1.0000   1.0000   1.0000   1.0000   1.0000
     1.0000   1.0000   1.0000   1.0000   0.0000   0.0000   0.0000   0.0000

          k = 0.2143 0.3712 0.0000 (  2033 PWs)   bands (ev):

     3.0644   3.0906   3.1274   3.2967   3.4048   3.4427   3.6039   3.6380
     3.9283   4.0606   5.4187  11.1581  12.2442  15.3624  15.7055  21.2726

     occupation numbers 
     1.0000   1.0000   1.0000   1.0000   1.0000   1.0000   1.0000   1.0000
     1.0000   1.0000   1.0000   0.0000   0.0000   0.0000   0.0000   0.0000

          k = 0.2143 0.3712 0.0785 (  2029 PWs)   bands (ev):

     3.0522   3.0773   3.1856   3.1865   3.4282   3.4969   3.5989   3.6966
     3.8996   4.0713   5.5134   9.9153  13.7144  15.4960  15.8356  19.9892

     occupation numbers 
     1.0000   1.0000   1.0000   1.0000   1.0000   1.0000   1.0000   1.0000
     1.0000   1.0000   1.0000   1.0000   0.0000   0.0000   0.0000   0.0000

          k = 0.2143 0.3712 0.1570 (  2034 PWs)   bands (ev):

     3.0200   3.0669   3.1384   3.2625   3.3911   3.5056   3.6040   3.8188
     3.8737   4.0879   5.8290   8.4969  15.7709  15.9002  16.2180  18.6137

     occupation numbers 
     1.0000   1.0000   1.0000   1.0000   1.0000   1.0000   1.0000   1.0000
     1.0000   1.0000   1.0000   1.0000   0.0000   0.0000   0.0000   0.0000

          k = 0.2143 0.3712 0.2355 (  2034 PWs)   bands (ev):

     3.0075   3.0205   3.1974   3.2641   3.4054   3.4648   3.6452   3.7257
     4.0134   4.0793   6.4244   7.3201  16.5513  16.8172  17.3123  17.4617

     occupation numbers 
     1.0000   1.0000   1.0000   1.0000   1.0000   1.0000   1.0000   1.0000
     1.0000   1.0000   1.0000   1.0000   0.0000   0.0000   0.0000   0.0000

          k = 0.2143 0.4536 0.0000 (  2042 PWs)   bands (ev):

     3.0359   3.0385   3.1217   3.3835   3.4594   3.5303   3.5305   3.7587
     3.9027   4.0841   6.7976  12.2980  13.1724  13.6986  14.9376  18.7743

     occupation numbers 
     1.0000   1.0000   1.0000   1.0000   1.0000   1.0000   1.0000   1.0000
     1.0000   1.0000   1.0000   0.0000   0.0000   0.0000   0.0000   0.0000

          k = 0.2143 0.4536 0.0785 (  2041 PWs)   bands (ev):

     3.0028   3.0539   3.1730   3.2682   3.4440   3.5655   3.6103   3.7791
     3.8726   4.0916   6.9106  11.2728  13.1417  15.0240  15.0929  17.7026

     occupation numbers 
     1.0000   1.0000   1.0000   1.0000   1.0000   1.0000   1.0000   1.0000
     1.0000   1.0000   1.0000   0.0000   0.0000   0.0000   0.0000   0.0000

          k = 0.2143 0.4536 0.1570 (  2037 PWs)   bands (ev):

     2.9759   3.0955   3.1266   3.2647   3.3972   3.5977   3.6562   3.7933
     3.8880   4.1002   7.2618   9.9127  13.5093  15.4634  15.9443  17.3192

     occupation numbers 
     1.0000   1.0000   1.0000   1.0000   1.0000   1.0000   1.0000   1.0000
     1.0000   1.0000   1.0000   1.0000   0.0000   0.0000   0.0000   0.0000

          k = 0.2143 0.4536 0.2355 (  2044 PWs)   bands (ev):

     2.9852   3.0354   3.1618   3.2341   3.4654   3.5679   3.6678   3.7137
     4.0099   4.0809   7.8751   8.7625  14.1407  15.0036  16.1117  16.9576

     occupation numbers 
     1.0000   1.0000   1.0000   1.0000   1.0000   1.0000   1.0000   1.0000
     1.0000   1.0000   1.0000   1.0000   0.0000   0.0000   0.0000   0.0000

          k = 0.2143 0.5361 0.0000 (  2047 PWs)   bands (ev):

     3.0050   3.0098   3.1100   3.4031   3.4569   3.5405   3.5778   3.8889
     3.9006   4.0351   8.5211  10.5505  14.2315  14.6311  15.2279  16.5526

     occupation numbers 
     1.0000   1.0000   1.0000   1.0000   1.0000   1.0000   1.0000   1.0000
     1.0000   1.0000   1.0000   1.0000   0.0000   0.0000   0.0000   0.0000

          k = 0.2143 0.5361 0.0785 (  2044 PWs)   bands (ev):

     2.9756   3.0195   3.1710   3.3104   3.3973   3.6118   3.6458   3.8578
     3.9054   4.0415   8.6384  10.6406  13.1827  14.7371  15.0460  17.0751

     occupation numbers 
     1.0000   1.0000   1.0000   1.0000   1.0000   1.0000   1.0000   1.0000
     1.0000   1.0000   1.0000   1.0000   0.0000   0.0000   0.0000   0.0000

          k = 0.2143 0.5361 0.1570 (  2047 PWs)   bands (ev):

     2.9521   3.0579   3.1726   3.2496   3.3564   3.6661   3.7249   3.7944
     3.9310   4.0500   8.9911  10.7915  12.0680  13.8365  15.1582  17.7008

     occupation numbers 
     1.0000   1.0000   1.0000   1.0000   1.0000   1.0000   1.0000   1.0000
     1.0000   1.0000   1.0000   1.0000   0.0000   0.0000   0.0000   0.0000

          k = 0.2143 0.5361 0.2355 (  2048 PWs)   bands (ev):

     2.9740   3.0418   3.1364   3.2038   3.4580   3.5919   3.7590   3.7809
     3.9884   4.0364   9.5749  10.3330  12.0236  12.7769  15.8086  16.6903

     occupation numbers 
     1.0000   1.0000   1.0000   1.0000   1.0000   1.0000   1.0000   1.0000
     1.0000   1.0000   1.0000   1.0000   0.0000   0.0000   0.0000   0.0000

          k = 0.2857 0.4949 0.0000 (  2051 PWs)   bands (ev):

     3.0352   3.1325   3.1883   3.3750   3.4212   3.4642   3.5768   3.8085
     3.8682   4.0283   8.3999  12.2501  12.6230  14.2074  15.2130  18.1555

     occupation numbers 
     1.0000   1.0000   1.0000   1.0000   1.0000   1.0000   1.0000   1.0000
     1.0000   1.0000   1.0000   0.0000   0.0000   0.0000   0.0000   0.0000

          k = 0.2857 0.4949 0.0785 (  2044 PWs)   bands (ev):

     3.0360   3.1396   3.2142   3.2764   3.4295   3.5074   3.5946   3.8329
     3.8368   4.0370   8.5198  12.2179  12.7586  13.2209  16.1946  17.0013

     occupation numbers 
     1.0000   1.0000   1.0000   1.0000   1.0000   1.0000   1.0000   1.0000
     1.0000   1.0000   1.0000   0.0000   0.0000   0.0000   0.0000   0.0000

          k = 0.2857 0.4949 0.1570 (  2043 PWs)   bands (ev):

     3.0409   3.1381   3.2068   3.2831   3.3667   3.5466   3.6212   3.7599
     3.9055   4.0496   8.8829  11.4254  13.0369  13.1589  15.6172  15.7154

     occupation numbers 
     1.0000   1.0000   1.0000   1.0000   1.0000   1.0000   1.0000   1.0000
     1.0000   1.0000   1.0000   0.0000   0.0000   0.0000   0.0000   0.0000

          k = 0.2857 0.4949 0.2355 (  2044 PWs)   bands (ev):

     3.0560   3.0898   3.2333   3.2867   3.4004   3.5012   3.6477   3.6872
     3.9884   4.0392   9.4962  10.3588  13.5911  13.7950  14.4992  14.7084

     occupation numbers 
     1.0000   1.0000   1.0000   1.0000   1.0000   1.0000   1.0000   1.0000
     1.0000   1.0000   1.0000   1.0000   0.0000   0.0000   0.0000   0.0000

          k = 0.2857 0.5774 0.0000 (  2041 PWs)   bands (ev):

     3.0383   3.1654   3.2173   3.3907   3.3959   3.4144   3.6033   3.8554
     3.8850   3.9493  10.2770  10.2927  12.3214  15.6187  16.4756  16.5567

     occupation numbers 
     1.0000   1.0000   1.0000   1.0000   1.0000   1.0000   1.0000   1.0000
     1.0000   1.0000   1.0000   1.0000   0.0000   0.0000   0.0000   0.0000

          k = 0.2857 0.5774 0.0785 (  2052 PWs)   bands (ev):

     3.0501   3.1695   3.2134   3.3190   3.3945   3.4696   3.6149   3.8233
     3.9007   3.9630  10.3990  10.4081  12.4431  14.8454  14.8949  16.7699

     occupation numbers 
     1.0000   1.0000   1.0000   1.0000   1.0000   1.0000   1.0000   1.0000
     1.0000   1.0000   1.0000   1.0000   0.0000   0.0000   0.0000   0.0000

          k = 0.2857 0.5774 0.1570 (  2048 PWs)   bands (ev):

     3.0716   3.1669   3.2255   3.2560   3.3932   3.5005   3.6347   3.7458
     3.9414   3.9901  10.7165  10.7854  12.7487  13.6256  13.6395  15.5520

     occupation numbers 
     1.0000   1.0000   1.0000   1.0000   1.0000   1.0000   1.0000   1.0000
     1.0000   1.0000   1.0000   1.0000   0.0000   0.0000   0.0000   0.0000

          k = 0.2857 0.5774 0.2355 (  2041 PWs)   bands (ev):

     3.0931   3.1287   3.2501   3.2515   3.4181   3.4778   3.6495   3.6764
     3.9842   4.0028  11.2015  11.2984  12.4312  12.6231  13.6195  14.4622

     occupation numbers 
     1.0000   1.0000   1.0000   1.0000   1.0000   1.0000   1.0000   1.0000
     1.0000   1.0000   0.0000   0.0000   0.0000   0.0000   0.0000   0.0000

 ------ SPIN DOWN ----------


          k = 0.0000 0.0000 0.0000 (  2017 PWs)   bands (ev):

     0.6400   2.5132   3.2116   3.4154   3.4154   3.4700   3.4700   3.7658
     3.7658   3.9937   3.9937   7.4784   8.1953  25.1733  27.8653  27.8653

     occupation numbers 
     1.0000   1.0000   1.0000   1.0000   1.0000   1.0000   1.0000   1.0000
     1.0000   1.0000   1.0000   1.0000   1.0000   0.0000   0.0000   0.0000

          k = 0.0000 0.0000 0.0785 (  2035 PWs)   bands (ev):

     0.7673   2.5019   3.2120   3.4128   3.4128   3.4635   3.4635   3.7823
     3.7823   3.9863   3.9863   6.0702   9.8783  23.1525  27.9913  27.9913

     occupation numbers 
     1.0000   1.0000   1.0000   1.0000   1.0000   1.0000   1.0000   1.0000
     1.0000   1.0000   1.0000   1.0000   1.0000   0.0000   0.0000   0.0000

          k = 0.0000 0.0000 0.1570 (  2029 PWs)   bands (ev):

     1.1364   2.4387   3.2280   3.4100   3.4100   3.4471   3.4471   3.8245
     3.8245   3.9636   3.9636   4.6782  12.1198  20.1929  28.3554  28.3556

     occupation numbers 
     1.0000   1.0000   1.0000   1.0000   1.0000   1.0000   1.0000   1.0000
     1.0000   1.0000   1.0000   1.0000   0.0000   0.0000   0.0000   0.0000

          k = 0.0000 0.0000 0.2355 (  2064 PWs)   bands (ev):

     1.6847   2.2012   3.3272   3.4144   3.4144   3.4281   3.4281   3.7268
     3.8768   3.8768   3.9260   3.9260  14.6058  17.3083  28.8980  28.8993

     occupation numbers 
     1.0000   1.0000   1.0000   1.0000   1.0000   1.0000   1.0000   1.0000
     1.0000   1.0000   1.0000   1.0000   0.0000   0.0000   0.0000   0.0000

          k = 0.0000 0.0825 0.0000 (  2039 PWs)   bands (ev):

     0.7882   2.5753   3.2240   3.4034   3.4496   3.4551   3.5023   3.7350
     3.7517   3.9130   3.9961   7.7140   8.2745  25.3279  25.4792  26.6325

     occupation numbers 
     1.0000   1.0000   1.0000   1.0000   1.0000   1.0000   1.0000   1.0000
     1.0000   1.0000   1.0000   1.0000   1.0000   0.0000   0.0000   0.0000

          k = 0.0000 0.0825 0.0785 (  2035 PWs)   bands (ev):

     0.9146   2.5678   3.2239   3.3978   3.4464   3.4470   3.4956   3.7564
     3.7697   3.8981   3.9879   6.2510  10.0167  23.2833  25.6254  26.7660

     occupation numbers 
     1.0000   1.0000   1.0000   1.0000   1.0000   1.0000   1.0000   1.0000
     1.0000   1.0000   1.0000   1.0000   1.0000   0.0000   0.0000   0.0000

          k = 0.0000 0.0825 0.1570 (  2046 PWs)   bands (ev):

     1.2805   2.5188   3.2342   3.3909   3.4265   3.4426   3.4789   3.8016
     3.8149   3.8472   3.9632   4.8836  12.2603  20.3265  26.0058  27.1623

     occupation numbers 
     1.0000   1.0000   1.0000   1.0000   1.0000   1.0000   1.0000   1.0000
     1.0000   1.0000   1.0000   1.0000   0.0000   0.0000   0.0000   0.0000

          k = 0.0000 0.0825 0.2355 (  2052 PWs)   bands (ev):

     1.8197   2.3108   3.3068   3.3974   3.4029   3.4464   3.4599   3.6024
     3.8705   3.9042   3.9228   4.0976  14.7446  17.4447  26.6316  27.4908

     occupation numbers 
     1.0000   1.0000   1.0000   1.0000   1.0000   1.0000   1.0000   1.0000
     1.0000   1.0000   1.0000   1.0000   0.0000   0.0000   0.0000   0.0000

          k = 0.0000 0.1650 0.0000 (  2038 PWs)   bands (ev):

     1.2229   2.7319   3.2410   3.3798   3.4462   3.5469   3.5939   3.6107
     3.7146   3.7679   4.0003   8.3590   8.5291  22.1752  25.0081  25.7272

     occupation numbers 
     1.0000   1.0000   1.0000   1.0000   1.0000   1.0000   1.0000   1.0000
     1.0000   1.0000   1.0000   1.0000   1.0000   0.0000   0.0000   0.0000

          k = 0.0000 0.1650 0.0785 (  2039 PWs)   bands (ev):

     1.3454   2.7341   3.2434   3.3653   3.4240   3.5407   3.5862   3.6300
     3.7380   3.7703   3.9903   6.7274  10.4379  22.2826  23.7124  25.1500

     occupation numbers 
     1.0000   1.0000   1.0000   1.0000   1.0000   1.0000   1.0000   1.0000
     1.0000   1.0000   1.0000   1.0000   1.0000   0.0000   0.0000   0.0000

          k = 0.0000 0.1650 0.1570 (  2041 PWs)   bands (ev):

     1.6963   2.7210   3.2468   3.3417   3.3831   3.5330   3.5685   3.6033
[...]
     1.0000   1.0000   1.0000   1.0000   1.0000   0.0000   0.0000   0.0000

          k = 0.1429 0.2474 0.0785 (  2038 PWs)   bands (ev):

     2.3606   3.0199   3.1869   3.2807   3.3851   3.3964   3.6398   3.6906
     3.8369   3.9101   4.0160   7.8453  11.5842  19.3400  19.6396  23.7875

     occupation numbers 
     1.0000   1.0000   1.0000   1.0000   1.0000   1.0000   1.0000   1.0000
     1.0000   1.0000   1.0000   1.0000   0.0000   0.0000   0.0000   0.0000

          k = 0.1429 0.2474 0.1570 (  2046 PWs)   bands (ev):

     2.5984   3.0643   3.2020   3.2165   3.3102   3.3873   3.6702   3.8118
     3.8505   3.8810   4.1015   6.4075  13.7956  19.7409  19.9488  21.8807

     occupation numbers 
     1.0000   1.0000   1.0000   1.0000   1.0000   1.0000   1.0000   1.0000
     1.0000   1.0000   1.0000   1.0000   0.0000   0.0000   0.0000   0.0000

          k = 0.1429 0.2474 0.2355 (  2046 PWs)   bands (ev):

     2.8717   3.0654   3.1480   3.2227   3.2711   3.3380   3.6997   3.7634
     3.9138   3.9184   4.4807   5.2693  16.2304  18.8073  20.4012  20.8611

     occupation numbers 
     1.0000   1.0000   1.0000   1.0000   1.0000   1.0000   1.0000   1.0000
     1.0000   1.0000   1.0000   1.0000   0.0000   0.0000   0.0000   0.0000

          k = 0.1429 0.3299 0.0000 (  2046 PWs)   bands (ev):

     2.8547   3.0214   3.1748   3.2472   3.3841   3.4654   3.5849   3.6577
     3.9604   3.9610   4.4650  10.1383  11.0024  16.4084  18.3418  22.2115

     occupation numbers 
     1.0000   1.0000   1.0000   1.0000   1.0000   1.0000   1.0000   1.0000
     1.0000   1.0000   1.0000   1.0000   0.7807   0.0000   0.0000   0.0000

          k = 0.1429 0.3299 0.0785 (  2045 PWs)   bands (ev):

     2.8701   3.0367   3.1631   3.2483   3.3464   3.5106   3.6402   3.6636
     3.9316   3.9760   4.5205   8.7985  12.5850  16.5389  18.4727  21.0358

     occupation numbers 
     1.0000   1.0000   1.0000   1.0000   1.0000   1.0000   1.0000   1.0000
     1.0000   1.0000   1.0000   1.0000   0.0000   0.0000   0.0000   0.0000

          k = 0.1429 0.3299 0.1570 (  2039 PWs)   bands (ev):

     2.9101   3.0819   3.1059   3.2639   3.3377   3.4931   3.6462   3.8472
     3.8593   4.0041   4.7487   7.3589  14.7449  16.9245  18.8543  19.7087

     occupation numbers 
     1.0000   1.0000   1.0000   1.0000   1.0000   1.0000   1.0000   1.0000
     1.0000   1.0000   1.0000   1.0000   0.0000   0.0000   0.0000   0.0000

          k = 0.1429 0.3299 0.2355 (  2038 PWs)   bands (ev):

     2.9665   3.0338   3.1505   3.2200   3.3891   3.4465   3.6876   3.7673
     3.9779   4.0157   5.2916   6.1769  17.0381  17.5239  18.6642  19.2914

     occupation numbers 
     1.0000   1.0000   1.0000   1.0000   1.0000   1.0000   1.0000   1.0000
     1.0000   1.0000   1.0000   1.0000   0.0000   0.0000   0.0000   0.0000

          k = 0.1429 0.4124 0.0000 (  2041 PWs)   bands (ev):

     2.9315   2.9870   3.0586   3.4262   3.4618   3.5154   3.5832   3.7722
     3.9473   4.0636   5.5005  11.2343  12.3811  13.7545  17.5714  19.5209

     occupation numbers 
     1.0000   1.0000   1.0000   1.0000   1.0000   1.0000   1.0000   1.0000
     1.0000   1.0000   1.0000   0.0000   0.0000   0.0000   0.0000   0.0000

          k = 0.1429 0.4124 0.0785 (  2038 PWs)   bands (ev):

     2.9212   2.9599   3.1205   3.2869   3.4542   3.5946   3.6844   3.7674
     3.9189   4.0728   5.5981  10.0200  13.7171  13.9759  17.7059  18.4101

     occupation numbers 
     1.0000   1.0000   1.0000   1.0000   1.0000   1.0000   1.0000   1.0000
     1.0000   1.0000   1.0000   1.0000   0.0000   0.0000   0.0000   0.0000

          k = 0.1429 0.4124 0.1570 (  2033 PWs)   bands (ev):

     2.8928   2.9842   3.1272   3.1897   3.4781   3.6320   3.7336   3.8400
     3.8863   4.0875   5.9222   8.6068  14.2411  15.7302  17.2950  18.1033

     occupation numbers 
     1.0000   1.0000   1.0000   1.0000   1.0000   1.0000   1.0000   1.0000
     1.0000   1.0000   1.0000   1.0000   0.0000   0.0000   0.0000   0.0000

          k = 0.1429 0.4124 0.2355 (  2040 PWs)   bands (ev):

     2.9097   2.9651   3.1032   3.1524   3.5670   3.6513   3.7059   3.7522
     4.0159   4.0782   6.5271   7.4286  14.8720  15.6905  18.4545  18.7273

     occupation numbers 
     1.0000   1.0000   1.0000   1.0000   1.0000   1.0000   1.0000   1.0000
     1.0000   1.0000   1.0000   1.0000   0.0000   0.0000   0.0000   0.0000

          k = 0.1429 0.4949 0.0000 (  2046 PWs)   bands (ev):

     2.8680   2.9652   2.9884   3.4175   3.5130   3.5436   3.6633   3.9381
     3.9455   4.0964   7.0279  11.0342  12.9726  13.9150  17.0981  17.1081

     occupation numbers 
     1.0000   1.0000   1.0000   1.0000   1.0000   1.0000   1.0000   1.0000
     1.0000   1.0000   1.0000   0.0000   0.0000   0.0000   0.0000   0.0000

          k = 0.1429 0.4949 0.0785 (  2049 PWs)   bands (ev):

     2.8749   2.8937   3.0781   3.3084   3.4681   3.6200   3.7652   3.9089
     3.9395   4.1003   7.1394  10.8972  12.0710  14.9332  16.4389  17.2359

     occupation numbers 
     1.0000   1.0000   1.0000   1.0000   1.0000   1.0000   1.0000   1.0000
     1.0000   1.0000   1.0000   1.0000   0.0000   0.0000   0.0000   0.0000

          k = 0.1429 0.4949 0.1570 (  2043 PWs)   bands (ev):

     2.8438   2.9124   3.1270   3.1560   3.4807   3.7241   3.8230   3.8980
     3.9288   4.1029   7.4851  10.0054  11.9700  14.3639  17.6342  17.7382

     occupation numbers 
     1.0000   1.0000   1.0000   1.0000   1.0000   1.0000   1.0000   1.0000
     1.0000   1.0000   1.0000   1.0000   0.0000   0.0000   0.0000   0.0000

          k = 0.1429 0.4949 0.2355 (  2040 PWs)   bands (ev):

     2.8592   2.9093   3.0790   3.1065   3.5771   3.7025   3.8191   3.8788
     4.0154   4.0804   8.0851   8.9422  12.5063  13.3352  18.2905  19.0634

     occupation numbers 
     1.0000   1.0000   1.0000   1.0000   1.0000   1.0000   1.0000   1.0000
     1.0000   1.0000   1.0000   1.0000   0.0000   0.0000   0.0000   0.0000

          k = 0.1429 0.5774 0.0000 (  2050 PWs)   bands (ev):

     2.8444   2.9519   2.9651   3.4272   3.4752   3.5704   3.7146   3.9349
     4.0450   4.0657   8.7073   9.1340  14.2156  15.0246  15.4706  16.9394

     occupation numbers 
     1.0000   1.0000   1.0000   1.0000   1.0000   1.0000   1.0000   1.0000
     1.0000   1.0000   1.0000   1.0000   0.0000   0.0000   0.0000   0.0000

          k = 0.1429 0.5774 0.0785 (  2053 PWs)   bands (ev):

     2.8572   2.8679   3.0614   3.3202   3.4462   3.6449   3.7979   3.9053
     4.0424   4.0654   8.8280   9.2142  13.4971  13.6217  17.0749  17.1376

     occupation numbers 
     1.0000   1.0000   1.0000   1.0000   1.0000   1.0000   1.0000   1.0000
     1.0000   1.0000   1.0000   1.0000   0.0000   0.0000   0.0000   0.0000

          k = 0.1429 0.5774 0.1570 (  2047 PWs)   bands (ev):

     2.8254   2.8865   3.1122   3.1591   3.4665   3.7755   3.8163   3.9074
     4.0346   4.0577   9.1717   9.4460  12.3309  12.3548  17.4830  19.1990

     occupation numbers 
     1.0000   1.0000   1.0000   1.0000   1.0000   1.0000   1.0000   1.0000
     1.0000   1.0000   1.0000   1.0000   0.0000   0.0000   0.0000   0.0000

          k = 0.1429 0.5774 0.2355 (  2045 PWs)   bands (ev):

     2.8408   2.8881   3.0719   3.0908   3.5679   3.6977   3.9021   3.9564
     4.0225   4.0290   9.6223   9.7294  11.4742  11.4858  18.1413  19.0062

     occupation numbers 
     1.0000   1.0000   1.0000   1.0000   1.0000   1.0000   1.0000   1.0000
     1.0000   1.0000   1.0000   1.0000   0.0000   0.0000   0.0000   0.0000

          k = 0.2143 0.3712 0.0000 (  2033 PWs)   bands (ev):

     3.0643   3.0905   3.1274   3.2966   3.4047   3.4427   3.6038   3.6379
     3.9282   4.0606   5.4185  11.1581  12.2436  15.3620  15.7052  21.2725

     occupation numbers 
     1.0000   1.0000   1.0000   1.0000   1.0000   1.0000   1.0000   1.0000
     1.0000   1.0000   1.0000   0.0000   0.0000   0.0000   0.0000   0.0000

          k = 0.2143 0.3712 0.0785 (  2029 PWs)   bands (ev):

     3.0521   3.0772   3.1856   3.1864   3.4282   3.4969   3.5988   3.6965
     3.8995   4.0713   5.5132   9.9151  13.7140  15.4956  15.8353  19.9889

     occupation numbers 
     1.0000   1.0000   1.0000   1.0000   1.0000   1.0000   1.0000   1.0000
     1.0000   1.0000   1.0000   1.0000   0.0000   0.0000   0.0000   0.0000

          k = 0.2143 0.3712 0.1570 (  2034 PWs)   bands (ev):

     3.0199   3.0667   3.1384   3.2624   3.3911   3.5056   3.6040   3.8188
     3.8736   4.0879   5.8288   8.4966  15.7706  15.8999  16.2177  18.6134

     occupation numbers 
     1.0000   1.0000   1.0000   1.0000   1.0000   1.0000   1.0000   1.0000
     1.0000   1.0000   1.0000   1.0000   0.0000   0.0000   0.0000   0.0000

          k = 0.2143 0.3712 0.2355 (  2034 PWs)   bands (ev):

     3.0074   3.0203   3.1974   3.2641   3.4054   3.4648   3.6451   3.7256
     4.0134   4.0792   6.4242   7.3199  16.5510  16.8169  17.3120  17.4614

     occupation numbers 
     1.0000   1.0000   1.0000   1.0000   1.0000   1.0000   1.0000   1.0000
     1.0000   1.0000   1.0000   1.0000   0.0000   0.0000   0.0000   0.0000

          k = 0.2143 0.4536 0.0000 (  2042 PWs)   bands (ev):

     3.0358   3.0385   3.1216   3.3834   3.4594   3.5303   3.5304   3.7586
     3.9026   4.0841   6.7974  12.2979  13.1721  13.6980  14.9373  18.7743

     occupation numbers 
     1.0000   1.0000   1.0000   1.0000   1.0000   1.0000   1.0000   1.0000
     1.0000   1.0000   1.0000   0.0000   0.0000   0.0000   0.0000   0.0000

          k = 0.2143 0.4536 0.0785 (  2041 PWs)   bands (ev):

     3.0027   3.0539   3.1729   3.2681   3.4439   3.5654   3.6102   3.7790
     3.8725   4.0916   6.9104  11.2726  13.1414  15.0237  15.0925  17.7023

     occupation numbers 
     1.0000   1.0000   1.0000   1.0000   1.0000   1.0000   1.0000   1.0000
     1.0000   1.0000   1.0000   0.0000   0.0000   0.0000   0.0000   0.0000

          k = 0.2143 0.4536 0.1570 (  2037 PWs)   bands (ev):

     2.9758   3.0954   3.1265   3.2647   3.3972   3.5977   3.6562   3.7932
     3.8880   4.1002   7.2615   9.9124  13.5090  15.4631  15.9440  17.3189

     occupation numbers 
     1.0000   1.0000   1.0000   1.0000   1.0000   1.0000   1.0000   1.0000
     1.0000   1.0000   1.0000   1.0000   0.0000   0.0000   0.0000   0.0000

          k = 0.2143 0.4536 0.2355 (  2044 PWs)   bands (ev):

     2.9851   3.0353   3.1617   3.2341   3.4653   3.5678   3.6677   3.7137
     4.0099   4.0808   7.8748   8.7622  14.1404  15.0033  16.1114  16.9573

     occupation numbers 
     1.0000   1.0000   1.0000   1.0000   1.0000   1.0000   1.0000   1.0000
     1.0000   1.0000   1.0000   1.0000   0.0000   0.0000   0.0000   0.0000

          k = 0.2143 0.5361 0.0000 (  2047 PWs)   bands (ev):

     3.0049   3.0097   3.1099   3.4030   3.4568   3.5405   3.5777   3.8889
     3.9006   4.0351   8.5208  10.5502  14.2314  14.6308  15.2273  16.5526

     occupation numbers 
     1.0000   1.0000   1.0000   1.0000   1.0000   1.0000   1.0000   1.0000
     1.0000   1.0000   1.0000   1.0000   0.0000   0.0000   0.0000   0.0000

          k = 0.2143 0.5361 0.0785 (  2044 PWs)   bands (ev):

     2.9755   3.0195   3.1709   3.3103   3.3972   3.6118   3.6457   3.8577
     3.9054   4.0415   8.6381  10.6404  13.1824  14.7368  15.0458  17.0748

     occupation numbers 
     1.0000   1.0000   1.0000   1.0000   1.0000   1.0000   1.0000   1.0000
     1.0000   1.0000   1.0000   1.0000   0.0000   0.0000   0.0000   0.0000

          k = 0.2143 0.5361 0.1570 (  2047 PWs)   bands (ev):

     2.9520   3.0579   3.1725   3.2496   3.3563   3.6661   3.7249   3.7943
     3.9310   4.0499   8.9908  10.7912  12.0677  13.8362  15.1579  17.7005

     occupation numbers 
     1.0000   1.0000   1.0000   1.0000   1.0000   1.0000   1.0000   1.0000
     1.0000   1.0000   1.0000   1.0000   0.0000   0.0000   0.0000   0.0000

          k = 0.2143 0.5361 0.2355 (  2048 PWs)   bands (ev):

     2.9739   3.0417   3.1363   3.2037   3.4579   3.5919   3.7589   3.7809
     3.9883   4.0364   9.5746  10.3327  12.0233  12.7766  15.8083  16.6900

     occupation numbers 
     1.0000   1.0000   1.0000   1.0000   1.0000   1.0000   1.0000   1.0000
     1.0000   1.0000   1.0000   1.0000   0.0000   0.0000   0.0000   0.0000

          k = 0.2857 0.4949 0.0000 (  2051 PWs)   bands (ev):

     3.0351   3.1324   3.1883   3.3750   3.4211   3.4641   3.5767   3.8085
     3.8681   4.0283   8.3996  12.2498  12.6227  14.2073  15.2124  18.1555

     occupation numbers 
     1.0000   1.0000   1.0000   1.0000   1.0000   1.0000   1.0000   1.0000
     1.0000   1.0000   1.0000   0.0000   0.0000   0.0000   0.0000   0.0000

          k = 0.2857 0.4949 0.0785 (  2044 PWs)   bands (ev):

     3.0359   3.1396   3.2141   3.2763   3.4294   3.5073   3.5946   3.8329
     3.8367   4.0370   8.5195  12.2176  12.7583  13.2207  16.1943  17.0010

     occupation numbers 
     1.0000   1.0000   1.0000   1.0000   1.0000   1.0000   1.0000   1.0000
     1.0000   1.0000   1.0000   0.0000   0.0000   0.0000   0.0000   0.0000

          k = 0.2857 0.4949 0.1570 (  2043 PWs)   bands (ev):

     3.0408   3.1380   3.2068   3.2830   3.3667   3.5466   3.6211   3.7598
     3.9054   4.0495   8.8826  11.4251  13.0366  13.1586  15.6169  15.7151

     occupation numbers 
     1.0000   1.0000   1.0000   1.0000   1.0000   1.0000   1.0000   1.0000
     1.0000   1.0000   1.0000   0.0000   0.0000   0.0000   0.0000   0.0000

          k = 0.2857 0.4949 0.2355 (  2044 PWs)   bands (ev):

     3.0559   3.0896   3.2333   3.2867   3.4003   3.5011   3.6476   3.6872
     3.9884   4.0392   9.4959  10.3585  13.5908  13.7947  14.4989  14.7082

     occupation numbers 
     1.0000   1.0000   1.0000   1.0000   1.0000   1.0000   1.0000   1.0000
     1.0000   1.0000   1.0000   1.0000   0.0000   0.0000   0.0000   0.0000

          k = 0.2857 0.5774 0.0000 (  2041 PWs)   bands (ev):

     3.0382   3.1653   3.2172   3.3907   3.3958   3.4143   3.6033   3.8553
     3.8850   3.9492  10.2767  10.2924  12.3211  15.6187  16.4750  16.5567

     occupation numbers 
     1.0000   1.0000   1.0000   1.0000   1.0000   1.0000   1.0000   1.0000
     1.0000   1.0000   1.0000   1.0000   0.0000   0.0000   0.0000   0.0000

          k = 0.2857 0.5774 0.0785 (  2052 PWs)   bands (ev):

     3.0500   3.1694   3.2133   3.3189   3.3945   3.4696   3.6149   3.8233
     3.9006   3.9630  10.3987  10.4078  12.4428  14.8453  14.8946  16.7696

     occupation numbers 
     1.0000   1.0000   1.0000   1.0000   1.0000   1.0000   1.0000   1.0000
     1.0000   1.0000   1.0000   1.0000   0.0000   0.0000   0.0000   0.0000

          k = 0.2857 0.5774 0.1570 (  2048 PWs)   bands (ev):

     3.0715   3.1668   3.2254   3.2559   3.3932   3.5004   3.6347   3.7457
     3.9414   3.9901  10.7162  10.7851  12.7484  13.6252  13.6393  15.5518

     occupation numbers 
     1.0000   1.0000   1.0000   1.0000   1.0000   1.0000   1.0000   1.0000
     1.0000   1.0000   1.0000   1.0000   0.0000   0.0000   0.0000   0.0000

          k = 0.2857 0.5774 0.2355 (  2041 PWs)   bands (ev):

     3.0929   3.1286   3.2501   3.2514   3.4181   3.4778   3.6495   3.6764
     3.9841   4.0027  11.2012  11.2981  12.4309  12.6228  13.6192  14.4619

     occupation numbers 
     1.0000   1.0000   1.0000   1.0000   1.0000   1.0000   1.0000   1.0000
     1.0000   1.0000   0.0000   0.0000   0.0000   0.0000   0.0000   0.0000

     the Fermi energy is    11.0059 ev

!    total energy              =    -487.44679188 Ry
     total all-electron energy =     -7184.240837 Ry
     estimated scf accuracy    <       0.00000145 Ry
     smearing contrib. (-TS)   =      -0.00000076 Ry
     internal energy E=F+TS    =    -487.44679112 Ry

     The total energy is F=E-TS. E is the sum of the following terms:
     one-electron contribution =    -116.84271637 Ry
     hartree contribution      =      91.56286085 Ry
     xc contribution           =     -94.35341215 Ry
     ewald contribution        =    -176.94446311 Ry
     one-center paw contrib.   =    -190.86906034 Ry
      -> PAW hartree energy AE =     121.67304018 Ry
      -> PAW hartree energy PS =    -121.04821297 Ry
      -> PAW xc energy AE      =    -143.05476114 Ry
      -> PAW xc energy PS      =      46.99540376 Ry
      -> total E_H with PAW    =      92.18768806 Ry
      -> total E_XC with PAW   =    -190.41276953 Ry

     total magnetization       =    -0.00 Bohr mag/cell
     absolute magnetization    =     0.00 Bohr mag/cell

     convergence has been achieved in   5 iterations

     Writing all to output data dir ./out/Zn.save/
 
     init_run     :      0.40s CPU      0.44s WALL (       1 calls)
     electrons    :      5.14s CPU      5.63s WALL (       1 calls)

     Called by init_run:
     wfcinit      :      0.24s CPU      0.26s WALL (       1 calls)
     wfcinit:atom :      0.00s CPU      0.00s WALL (      96 calls)
     wfcinit:wfcr :      0.23s CPU      0.24s WALL (      96 calls)
     potinit      :      0.10s CPU      0.13s WALL (       1 calls)
     hinit0       :      0.04s CPU      0.04s WALL (       1 calls)

     Called by electrons:
     c_bands      :      4.01s CPU      4.37s WALL (       6 calls)
     sum_band     :      0.62s CPU      0.66s WALL (       6 calls)
     v_of_rho     :      0.02s CPU      0.02s WALL (       6 calls)
     v_h          :      0.00s CPU      0.00s WALL (       6 calls)
     v_xc         :      0.02s CPU      0.02s WALL (       6 calls)
     newd         :      0.01s CPU      0.01s WALL (       6 calls)
     PAW_pot      :      0.56s CPU      0.67s WALL (       6 calls)
     mix_rho      :      0.00s CPU      0.00s WALL (       6 calls)

     Called by c_bands:
     init_us_2    :      0.05s CPU      0.05s WALL (    1248 calls)
     init_us_2:cp :      0.04s CPU      0.05s WALL (    1248 calls)
     cegterg      :      3.71s CPU      3.92s WALL (     576 calls)

     Called by sum_band:
     sum_band:wei :      0.01s CPU      0.01s WALL (       6 calls)
     sum_band:loo :      0.58s CPU      0.62s WALL (       6 calls)
     sum_band:buf :      0.00s CPU      0.00s WALL (     576 calls)
     sum_band:ini :      0.02s CPU      0.02s WALL (     576 calls)
     sum_band:cal :      0.04s CPU      0.05s WALL (     576 calls)
     sum_band:bec :      0.00s CPU      0.00s WALL (     576 calls)
     addusdens    :      0.02s CPU      0.02s WALL (       6 calls)
                                        0.00s GPU  (       6 calls)
     addusd:skk   :      0.00s CPU      0.00s WALL (       6 calls)
                                        0.00s GPU  (       6 calls)

     Called by *egterg:
     cdiaghg      :      0.63s CPU      0.67s WALL (    2290 calls)
     cegterg:over :      0.09s CPU      0.10s WALL (    1810 calls)
     cegterg:upda :      0.02s CPU      0.03s WALL (    1810 calls)
     cegterg:last :      0.04s CPU      0.04s WALL (    1257 calls)
     h_psi        :      3.00s CPU      3.17s WALL (    2482 calls)
     s_psi        :      0.05s CPU      0.06s WALL (    2482 calls)
     g_psi        :      0.01s CPU      0.01s WALL (    1810 calls)

     Called by h_psi:
     h_psi:calbec :      0.14s CPU      0.15s WALL (    2482 calls)
     vloc_psi     :      2.77s CPU      2.93s WALL (    2482 calls)
     add_vuspsi   :      0.06s CPU      0.06s WALL (    2482 calls)

     General routines
     calbec       :      0.18s CPU      0.19s WALL (    3058 calls)
     fft          :      0.01s CPU      0.01s WALL (     126 calls)
     ffts         :      0.00s CPU      0.00s WALL (      12 calls)
     fftw         :      3.04s CPU      3.21s WALL (   63086 calls)
 
     Parallel routines

     PAW routines
     PAW_pot      :      0.56s CPU      0.67s WALL (       6 calls)
     PAW_symme    :      0.01s CPU      0.01s WALL (      12 calls)
 
     PWSCF        :      5.75s CPU      6.61s WALL

 
   This run was terminated on:   4: 4:35  13Mar2024            

=------------------------------------------------------------------------------=
   JOB DONE.
=------------------------------------------------------------------------------=
