
     Program PWSCF v.7.2 starts on 13Mar2024 at  4: 3:22 

     This program is part of the open-source Quantum ESPRESSO suite
     for quantum simulation of materials; please cite
         "P. Giannozzi et al., J. Phys.:Condens. Matter 21 395502 (2009);
         "P. Giannozzi et al., J. Phys.:Condens. Matter 29 465901 (2017);
         "P. Giannozzi et al., J. Chem. Phys. 152 154105 (2020);
          URL http://www.quantum-espresso.org", 
     in publications or presentations arising from this work. More details at
     http://www.quantum-espresso.org/quote

     Parallel version (MPI), running on    28 processors

     MPI processes distributed on     1 nodes
     167781 MiB available memory on the printing compute node when the environment starts
 
     Waiting for input...
     Reading input from standard input

     Current dimensions of program PWSCF are:
     Max number of different atomic species (ntypx) = 10
     Max number of k-points (npk) = 120000
     Max angular momentum in pseudopotentials (lmaxx) =  4
     file Zn.pbe-dnl-kjpaw_psl.1.0.0.UPF: wavefunction(s)  4S 3D renormalized
 
     K-points division:     npool     =       2
     R & G space division:  proc/nbgrp/npool/nimage =      14
     Subspace diagonalization in iterative solution of the eigenvalue problem:
     a serial algorithm will be used

 
     Parallelization info
     --------------------
     sticks:   dense  smooth     PW     G-vecs:    dense   smooth      PW
     Min          35      35     10                 1151     1151     188
     Max          36      36     11                 1158     1158     195
     Sum         499     499    151                16171    16171    2697
 
     Using Slab Decomposition
 


     bravais-lattice index     =            4
     lattice parameter (alat)  =       5.0600  a.u.
     unit-cell volume          =     203.0770 (a.u.)^3
     number of atoms/cell      =            2
     number of atomic types    =            1
     number of electrons       =        24.00
     number of Kohn-Sham states=           16
     kinetic-energy cutoff     =      70.0000  Ry
     charge density cutoff     =     280.0000  Ry
     scf convergence threshold =      4.0E-06
     mixing beta               =       0.7000
     number of iterations used =            8  plain     mixing
     Exchange-correlation= SLA  PW   PBX  PBC
                           (   1   4   3   4   0   0   0)

     celldm(1)=   5.060000  celldm(2)=   0.000000  celldm(3)=   1.810000
     celldm(4)=   0.000000  celldm(5)=   0.000000  celldm(6)=   0.000000

     crystal axes: (cart. coord. in units of alat)
               a(1) = (   1.000000   0.000000   0.000000 )  
               a(2) = (  -0.500000   0.866025   0.000000 )  
               a(3) = (   0.000000   0.000000   1.810000 )  

     reciprocal axes: (cart. coord. in units 2 pi/alat)
               b(1) = (  1.000000  0.577350  0.000000 )  
               b(2) = (  0.000000  1.154701  0.000000 )  
               b(3) = (  0.000000  0.000000  0.552486 )  


     PseudoPot. # 1 for Zn read from file:
     /truba/home/amuhaymin/ZnS/pseudo/QE/Zn.pbe-dnl-kjpaw_psl.1.0.0.UPF
     MD5 check sum: c608214d9520ac179f507641260889e3
     Pseudo is Projector augmented-wave + core cor, Zval = 12.0
     Generated using &quot;atomic&quot; code by A. Dal Corso  v.6.2.2
     Shape of augmentation charge: PSQ
     Using radial grid of 1201 points,  6 beta functions with: 
                l(1) =   0
                l(2) =   0
                l(3) =   1
                l(4) =   1
                l(5) =   2
                l(6) =   2
     Q(r) pseudized with 0 coefficients 


     atomic species   valence    mass     pseudopotential
        Zn            12.00    65.38000     Zn( 1.00)

     Starting magnetic structure 
     atomic species   magnetization
        Zn           0.000

     24 Sym. Ops., with inversion, found (12 have fractional translation)


                                    s                        frac. trans.

      isym =  1     identity                                     

 cryst.   s( 1) = (     1          0          0      )
                  (     0          1          0      )
                  (     0          0          1      )

 cart.    s( 1) = (  1.0000000  0.0000000  0.0000000 )
                  (  0.0000000  1.0000000  0.0000000 )
                  (  0.0000000  0.0000000  1.0000000 )


      isym =  2     180 deg rotation - cart. axis [0,0,1]        

 cryst.   s( 2) = (    -1          0          0      )    f =(  0.0000000 )
                  (     0         -1          0      )       ( -0.0000000 )
                  (     0          0          1      )       ( -0.5000000 )

 cart.    s( 2) = ( -1.0000000  0.0000000  0.0000000 )    f =(  0.0000000 )
                  (  0.0000000 -1.0000000  0.0000000 )       ( -0.0000000 )
                  (  0.0000000  0.0000000  1.0000000 )       ( -0.9050000 )


      isym =  3     180 deg rotation - cart. axis [0,1,0]        

 cryst.   s( 3) = (    -1          0          0      )    f =(  0.0000000 )
                  (     1          1          0      )       (  0.0000000 )
                  (     0          0         -1      )       (  0.5000000 )

 cart.    s( 3) = ( -1.0000000  0.0000000  0.0000000 )    f =(  0.0000000 )
                  (  0.0000000  1.0000000  0.0000000 )       (  0.0000000 )
                  (  0.0000000  0.0000000 -1.0000000 )       (  0.9050000 )


      isym =  4     180 deg rotation - cart. axis [1,0,0]        

 cryst.   s( 4) = (     1          0          0      )
                  (    -1         -1          0      )
                  (     0          0         -1      )

 cart.    s( 4) = (  1.0000000  0.0000000  0.0000000 )
                  (  0.0000000 -1.0000000  0.0000000 )
                  (  0.0000000  0.0000000 -1.0000000 )


      isym =  5      60 deg rotation - cryst. axis [0,0,1]       

 cryst.   s( 5) = (     1          1          0      )    f =(  0.0000000 )
                  (    -1          0          0      )       ( -0.0000000 )
                  (     0          0          1      )       ( -0.5000000 )

 cart.    s( 5) = (  0.5000000 -0.8660254  0.0000000 )    f =(  0.0000000 )
                  (  0.8660254  0.5000000  0.0000000 )       ( -0.0000000 )
                  (  0.0000000  0.0000000  1.0000000 )       ( -0.9050000 )


      isym =  6      60 deg rotation - cryst. axis [0,0,-1]      

 cryst.   s( 6) = (     0         -1          0      )    f =(  0.0000000 )
                  (     1          1          0      )       ( -0.0000000 )
                  (     0          0          1      )       ( -0.5000000 )

 cart.    s( 6) = (  0.5000000  0.8660254  0.0000000 )    f =(  0.0000000 )
                  ( -0.8660254  0.5000000  0.0000000 )       ( -0.0000000 )
                  (  0.0000000  0.0000000  1.0000000 )       ( -0.9050000 )


      isym =  7     120 deg rotation - cryst. axis [0,0,1]       

 cryst.   s( 7) = (     0          1          0      )
                  (    -1         -1          0      )
                  (     0          0          1      )

 cart.    s( 7) = ( -0.5000000 -0.8660254  0.0000000 )
                  (  0.8660254 -0.5000000  0.0000000 )
                  (  0.0000000  0.0000000  1.0000000 )


      isym =  8     120 deg rotation - cryst. axis [0,0,-1]      

 cryst.   s( 8) = (    -1         -1          0      )
                  (     1          0          0      )
                  (     0          0          1      )

 cart.    s( 8) = ( -0.5000000  0.8660254  0.0000000 )
                  ( -0.8660254 -0.5000000  0.0000000 )
                  (  0.0000000  0.0000000  1.0000000 )


      isym =  9     180 deg rotation - cryst. axis [1,-1,0]      

 cryst.   s( 9) = (     0         -1          0      )    f =( -0.0000000 )
                  (    -1          0          0      )       ( -0.0000000 )
                  (     0          0         -1      )       (  0.5000000 )

 cart.    s( 9) = (  0.5000000 -0.8660254  0.0000000 )    f =( -0.0000000 )
                  ( -0.8660254 -0.5000000  0.0000000 )       ( -0.0000000 )
                  (  0.0000000  0.0000000 -1.0000000 )       (  0.9050000 )


      isym = 10     180 deg rotation - cryst. axis [2,1,0]       

 cryst.   s(10) = (     1          1          0      )    f =(  0.0000000 )
                  (     0         -1          0      )       ( -0.0000000 )
                  (     0          0         -1      )       (  0.5000000 )

 cart.    s(10) = (  0.5000000  0.8660254  0.0000000 )    f =(  0.0000000 )
                  (  0.8660254 -0.5000000  0.0000000 )       ( -0.0000000 )
                  (  0.0000000  0.0000000 -1.0000000 )       (  0.9050000 )


      isym = 11     180 deg rotation - cryst. axis [0,1,0]       

 cryst.   s(11) = (    -1         -1          0      )
                  (     0          1          0      )
                  (     0          0         -1      )

 cart.    s(11) = ( -0.5000000 -0.8660254  0.0000000 )
                  ( -0.8660254  0.5000000  0.0000000 )
                  (  0.0000000  0.0000000 -1.0000000 )


      isym = 12     180 deg rotation - cryst. axis [1,1,0]       

 cryst.   s(12) = (     0          1          0      )
                  (     1          0          0      )
                  (     0          0         -1      )

 cart.    s(12) = ( -0.5000000  0.8660254  0.0000000 )
                  (  0.8660254  0.5000000  0.0000000 )
                  (  0.0000000  0.0000000 -1.0000000 )


      isym = 13     inversion                                    

 cryst.   s(13) = (    -1          0          0      )
                  (     0         -1          0      )
                  (     0          0         -1      )

 cart.    s(13) = ( -1.0000000  0.0000000  0.0000000 )
                  (  0.0000000 -1.0000000  0.0000000 )
                  (  0.0000000  0.0000000 -1.0000000 )


      isym = 14     inv. 180 deg rotation - cart. axis [0,0,1]   

 cryst.   s(14) = (     1          0          0      )    f =(  0.0000000 )
                  (     0          1          0      )       (  0.0000000 )
                  (     0          0         -1      )       (  0.5000000 )

 cart.    s(14) = (  1.0000000  0.0000000  0.0000000 )    f =(  0.0000000 )
                  (  0.0000000  1.0000000  0.0000000 )       (  0.0000000 )
                  (  0.0000000  0.0000000 -1.0000000 )       (  0.9050000 )


      isym = 15     inv. 180 deg rotation - cart. axis [0,1,0]   

 cryst.   s(15) = (     1          0          0      )    f =(  0.0000000 )
                  (    -1         -1          0      )       ( -0.0000000 )
                  (     0          0          1      )       ( -0.5000000 )

 cart.    s(15) = (  1.0000000  0.0000000  0.0000000 )    f =(  0.0000000 )
                  (  0.0000000 -1.0000000  0.0000000 )       ( -0.0000000 )
                  (  0.0000000  0.0000000  1.0000000 )       ( -0.9050000 )


      isym = 16     inv. 180 deg rotation - cart. axis [1,0,0]   

 cryst.   s(16) = (    -1          0          0      )
                  (     1          1          0      )
                  (     0          0          1      )

 cart.    s(16) = ( -1.0000000  0.0000000  0.0000000 )
                  (  0.0000000  1.0000000  0.0000000 )
                  (  0.0000000  0.0000000  1.0000000 )


      isym = 17     inv.  60 deg rotation - cryst. axis [0,0,1]  

 cryst.   s(17) = (    -1         -1          0      )    f =(  0.0000000 )
                  (     1          0          0      )       ( -0.0000000 )
                  (     0          0         -1      )       (  0.5000000 )

 cart.    s(17) = ( -0.5000000  0.8660254  0.0000000 )    f =(  0.0000000 )
                  ( -0.8660254 -0.5000000  0.0000000 )       ( -0.0000000 )
                  (  0.0000000  0.0000000 -1.0000000 )       (  0.9050000 )


      isym = 18     inv.  60 deg rotation - cryst. axis [0,0,-1] 

 cryst.   s(18) = (     0          1          0      )    f =( -0.0000000 )
                  (    -1         -1          0      )       ( -0.0000000 )
                  (     0          0         -1      )       (  0.5000000 )

 cart.    s(18) = ( -0.5000000 -0.8660254  0.0000000 )    f =(  0.0000000 )
                  (  0.8660254 -0.5000000  0.0000000 )       ( -0.0000000 )
                  (  0.0000000  0.0000000 -1.0000000 )       (  0.9050000 )


      isym = 19     inv. 120 deg rotation - cryst. axis [0,0,1]  

 cryst.   s(19) = (     0         -1          0      )
                  (     1          1          0      )
                  (     0          0         -1      )

 cart.    s(19) = (  0.5000000  0.8660254  0.0000000 )
                  ( -0.8660254  0.5000000  0.0000000 )
                  (  0.0000000  0.0000000 -1.0000000 )


      isym = 20     inv. 120 deg rotation - cryst. axis [0,0,-1] 

 cryst.   s(20) = (     1          1          0      )
                  (    -1          0          0      )
                  (     0          0         -1      )

 cart.    s(20) = (  0.5000000 -0.8660254  0.0000000 )
                  (  0.8660254  0.5000000  0.0000000 )
                  (  0.0000000  0.0000000 -1.0000000 )


      isym = 21     inv. 180 deg rotation - cryst. axis [1,-1,0] 

 cryst.   s(21) = (     0          1          0      )    f =(  0.0000000 )
                  (     1          0          0      )       ( -0.0000000 )
                  (     0          0          1      )       ( -0.5000000 )

 cart.    s(21) = ( -0.5000000  0.8660254  0.0000000 )    f =(  0.0000000 )
                  (  0.8660254  0.5000000  0.0000000 )       ( -0.0000000 )
                  (  0.0000000  0.0000000  1.0000000 )       ( -0.9050000 )


      isym = 22     inv. 180 deg rotation - cryst. axis [2,1,0]  

 cryst.   s(22) = (    -1         -1          0      )    f =(  0.0000000 )
                  (     0          1          0      )       ( -0.0000000 )
                  (     0          0          1      )       ( -0.5000000 )

 cart.    s(22) = ( -0.5000000 -0.8660254  0.0000000 )    f =(  0.0000000 )
                  ( -0.8660254  0.5000000  0.0000000 )       ( -0.0000000 )
                  (  0.0000000  0.0000000  1.0000000 )       ( -0.9050000 )


      isym = 23     inv. 180 deg rotation - cryst. axis [0,1,0]  

 cryst.   s(23) = (     1          1          0      )
                  (     0         -1          0      )
                  (     0          0          1      )

 cart.    s(23) = (  0.5000000  0.8660254  0.0000000 )
                  (  0.8660254 -0.5000000  0.0000000 )
                  (  0.0000000  0.0000000  1.0000000 )


      isym = 24     inv. 180 deg rotation - cryst. axis [1,1,0]  

 cryst.   s(24) = (     0         -1          0      )
                  (    -1          0          0      )
                  (     0          0          1      )

 cart.    s(24) = (  0.5000000 -0.8660254  0.0000000 )
                  ( -0.8660254 -0.5000000  0.0000000 )
                  (  0.0000000  0.0000000  1.0000000 )


     point group D_6h(6/mmm)
     there are 12 classes
     the character table:

       E     2C6   2C3   C2    3C2'  3C2'' i     2S3   2S6   s_h   3s_d  3s_v 
A_1g   1.00  1.00  1.00  1.00  1.00  1.00  1.00  1.00  1.00  1.00  1.00  1.00
A_2g   1.00  1.00  1.00  1.00 -1.00 -1.00  1.00  1.00  1.00  1.00 -1.00 -1.00
B_1g   1.00 -1.00  1.00 -1.00  1.00 -1.00  1.00 -1.00  1.00 -1.00  1.00 -1.00
B_2g   1.00 -1.00  1.00 -1.00 -1.00  1.00  1.00 -1.00  1.00 -1.00 -1.00  1.00
E_1g   2.00  1.00 -1.00 -2.00  0.00  0.00  2.00  1.00 -1.00 -2.00  0.00  0.00
E_2g   2.00 -1.00 -1.00  2.00  0.00  0.00  2.00 -1.00 -1.00  2.00  0.00  0.00
A_1u   1.00  1.00  1.00  1.00  1.00  1.00 -1.00 -1.00 -1.00 -1.00 -1.00 -1.00
A_2u   1.00  1.00  1.00  1.00 -1.00 -1.00 -1.00 -1.00 -1.00 -1.00  1.00  1.00
B_1u   1.00 -1.00  1.00 -1.00  1.00 -1.00 -1.00  1.00 -1.00  1.00 -1.00  1.00
B_2u   1.00 -1.00  1.00 -1.00 -1.00  1.00 -1.00  1.00 -1.00  1.00  1.00 -1.00
E_1u   2.00  1.00 -1.00 -2.00  0.00  0.00 -2.00 -1.00  1.00  2.00  0.00  0.00
E_2u   2.00 -1.00 -1.00  2.00  0.00  0.00 -2.00  1.00  1.00 -2.00  0.00  0.00

     the symmetry operations in each class and the name of the first element:

     E        1
          identity                                               
     2C6      5    6
           60 deg rotation - cryst. axis [0,0,1]                 
     2C3      7    8
          120 deg rotation - cryst. axis [0,0,1]                 
     C2       2
          180 deg rotation - cart. axis [0,0,1]                  
     3C2'     4   12   11
          180 deg rotation - cart. axis [1,0,0]                  
     3C2''    3    9   10
          180 deg rotation - cart. axis [0,1,0]                  
     i       13
          inversion                                              
     2S3     17   18
          inv.  60 deg rotation - cryst. axis [0,0,1]            
     2S6     19   20
          inv. 120 deg rotation - cryst. axis [0,0,1]            
     s_h     14
          inv. 180 deg rotation - cart. axis [0,0,1]             
     3s_d    16   24   23
          inv. 180 deg rotation - cart. axis [1,0,0]             
     3s_v    15   21   22
          inv. 180 deg rotation - cart. axis [0,1,0]             

   Cartesian axes

     site n.     atom                  positions (alat units)
         1           Zn  tau(   1) = (  -0.0000000   0.5773503   0.4525000  )
         2           Zn  tau(   2) = (   0.5000000   0.2886751   1.3575000  )

   Crystallographic axes

     site n.     atom                  positions (cryst. coord.)
         1           Zn  tau(   1) = (  0.3333333  0.6666667  0.2500000  )
         2           Zn  tau(   2) = (  0.6666667  0.3333333  0.7500000  )

     number of k points=    96  Marzari-Vanderbilt smearing, width (Ry)=  0.0005
                       cart. coord. in units 2pi/alat
        k(    1) = (   0.0000000   0.0000000   0.0000000), wk =   0.0007289
        k(    2) = (   0.0000000   0.0000000   0.0789266), wk =   0.0014577
        k(    3) = (   0.0000000   0.0000000   0.1578532), wk =   0.0014577
        k(    4) = (   0.0000000   0.0000000   0.2367798), wk =   0.0014577
        k(    5) = (   0.0000000   0.0824786   0.0000000), wk =   0.0043732
        k(    6) = (   0.0000000   0.0824786   0.0789266), wk =   0.0087464
        k(    7) = (   0.0000000   0.0824786   0.1578532), wk =   0.0087464
        k(    8) = (   0.0000000   0.0824786   0.2367798), wk =   0.0087464
        k(    9) = (   0.0000000   0.1649572   0.0000000), wk =   0.0043732
        k(   10) = (   0.0000000   0.1649572   0.0789266), wk =   0.0087464
        k(   11) = (   0.0000000   0.1649572   0.1578532), wk =   0.0087464
        k(   12) = (   0.0000000   0.1649572   0.2367798), wk =   0.0087464
        k(   13) = (   0.0000000   0.2474358   0.0000000), wk =   0.0043732
        k(   14) = (   0.0000000   0.2474358   0.0789266), wk =   0.0087464
        k(   15) = (   0.0000000   0.2474358   0.1578532), wk =   0.0087464
        k(   16) = (   0.0000000   0.2474358   0.2367798), wk =   0.0087464
        k(   17) = (   0.0000000   0.3299144   0.0000000), wk =   0.0043732
        k(   18) = (   0.0000000   0.3299144   0.0789266), wk =   0.0087464
        k(   19) = (   0.0000000   0.3299144   0.1578532), wk =   0.0087464
        k(   20) = (   0.0000000   0.3299144   0.2367798), wk =   0.0087464
        k(   21) = (   0.0000000   0.4123930   0.0000000), wk =   0.0043732
        k(   22) = (   0.0000000   0.4123930   0.0789266), wk =   0.0087464
        k(   23) = (   0.0000000   0.4123930   0.1578532), wk =   0.0087464
        k(   24) = (   0.0000000   0.4123930   0.2367798), wk =   0.0087464
        k(   25) = (   0.0000000   0.4948717   0.0000000), wk =   0.0043732
        k(   26) = (   0.0000000   0.4948717   0.0789266), wk =   0.0087464
        k(   27) = (   0.0000000   0.4948717   0.1578532), wk =   0.0087464
        k(   28) = (   0.0000000   0.4948717   0.2367798), wk =   0.0087464
        k(   29) = (   0.0000000  -0.5773503   0.0000000), wk =   0.0021866
        k(   30) = (   0.0000000  -0.5773503   0.0789266), wk =   0.0043732
        k(   31) = (   0.0000000  -0.5773503   0.1578532), wk =   0.0043732
        k(   32) = (   0.0000000  -0.5773503   0.2367798), wk =   0.0043732
        k(   33) = (   0.0714286   0.1237179   0.0000000), wk =   0.0043732
        k(   34) = (   0.0714286   0.1237179   0.0789266), wk =   0.0087464
        k(   35) = (   0.0714286   0.1237179   0.1578532), wk =   0.0087464
        k(   36) = (   0.0714286   0.1237179   0.2367798), wk =   0.0087464
        k(   37) = (   0.0714286   0.2061965   0.0000000), wk =   0.0087464
        k(   38) = (   0.0714286   0.2061965   0.0789266), wk =   0.0174927
        k(   39) = (   0.0714286   0.2061965   0.1578532), wk =   0.0174927
        k(   40) = (   0.0714286   0.2061965   0.2367798), wk =   0.0174927
        k(   41) = (   0.0714286   0.2886751   0.0000000), wk =   0.0087464
        k(   42) = (   0.0714286   0.2886751   0.0789266), wk =   0.0174927
        k(   43) = (   0.0714286   0.2886751   0.1578532), wk =   0.0174927
        k(   44) = (   0.0714286   0.2886751   0.2367798), wk =   0.0174927
        k(   45) = (   0.0714286   0.3711537   0.0000000), wk =   0.0087464
        k(   46) = (   0.0714286   0.3711537   0.0789266), wk =   0.0174927
        k(   47) = (   0.0714286   0.3711537   0.1578532), wk =   0.0174927
        k(   48) = (   0.0714286   0.3711537   0.2367798), wk =   0.0174927
        k(   49) = (   0.0714286   0.4536324   0.0000000), wk =   0.0087464
        k(   50) = (   0.0714286   0.4536324   0.0789266), wk =   0.0174927
        k(   51) = (   0.0714286   0.4536324   0.1578532), wk =   0.0174927
        k(   52) = (   0.0714286   0.4536324   0.2367798), wk =   0.0174927
        k(   53) = (   0.0714286   0.5361110   0.0000000), wk =   0.0087464
        k(   54) = (   0.0714286   0.5361110   0.0789266), wk =   0.0174927
        k(   55) = (   0.0714286   0.5361110   0.1578532), wk =   0.0174927
        k(   56) = (   0.0714286   0.5361110   0.2367798), wk =   0.0174927
        k(   57) = (   0.1428571   0.2474358   0.0000000), wk =   0.0043732
        k(   58) = (   0.1428571   0.2474358   0.0789266), wk =   0.0087464
        k(   59) = (   0.1428571   0.2474358   0.1578532), wk =   0.0087464
        k(   60) = (   0.1428571   0.2474358   0.2367798), wk =   0.0087464
        k(   61) = (   0.1428571   0.3299144   0.0000000), wk =   0.0087464
        k(   62) = (   0.1428571   0.3299144   0.0789266), wk =   0.0174927
        k(   63) = (   0.1428571   0.3299144   0.1578532), wk =   0.0174927
        k(   64) = (   0.1428571   0.3299144   0.2367798), wk =   0.0174927
        k(   65) = (   0.1428571   0.4123930   0.0000000), wk =   0.0087464
        k(   66) = (   0.1428571   0.4123930   0.0789266), wk =   0.0174927
        k(   67) = (   0.1428571   0.4123930   0.1578532), wk =   0.0174927
        k(   68) = (   0.1428571   0.4123930   0.2367798), wk =   0.0174927
        k(   69) = (   0.1428571   0.4948717   0.0000000), wk =   0.0087464
        k(   70) = (   0.1428571   0.4948717   0.0789266), wk =   0.0174927
        k(   71) = (   0.1428571   0.4948717   0.1578532), wk =   0.0174927
        k(   72) = (   0.1428571   0.4948717   0.2367798), wk =   0.0174927
        k(   73) = (   0.1428571   0.5773503   0.0000000), wk =   0.0043732
        k(   74) = (   0.1428571   0.5773503   0.0789266), wk =   0.0087464
        k(   75) = (   0.1428571   0.5773503   0.1578532), wk =   0.0087464
        k(   76) = (   0.1428571   0.5773503   0.2367798), wk =   0.0087464
        k(   77) = (   0.2142857   0.3711537   0.0000000), wk =   0.0043732
        k(   78) = (   0.2142857   0.3711537   0.0789266), wk =   0.0087464
        k(   79) = (   0.2142857   0.3711537   0.1578532), wk =   0.0087464
        k(   80) = (   0.2142857   0.3711537   0.2367798), wk =   0.0087464
        k(   81) = (   0.2142857   0.4536324   0.0000000), wk =   0.0087464
        k(   82) = (   0.2142857   0.4536324   0.0789266), wk =   0.0174927
        k(   83) = (   0.2142857   0.4536324   0.1578532), wk =   0.0174927
        k(   84) = (   0.2142857   0.4536324   0.2367798), wk =   0.0174927
        k(   85) = (   0.2142857   0.5361110   0.0000000), wk =   0.0087464
        k(   86) = (   0.2142857   0.5361110   0.0789266), wk =   0.0174927
        k(   87) = (   0.2142857   0.5361110   0.1578532), wk =   0.0174927
        k(   88) = (   0.2142857   0.5361110   0.2367798), wk =   0.0174927
        k(   89) = (   0.2857143   0.4948717   0.0000000), wk =   0.0043732
        k(   90) = (   0.2857143   0.4948717   0.0789266), wk =   0.0087464
        k(   91) = (   0.2857143   0.4948717   0.1578532), wk =   0.0087464
        k(   92) = (   0.2857143   0.4948717   0.2367798), wk =   0.0087464
        k(   93) = (   0.2857143   0.5773503   0.0000000), wk =   0.0043732
        k(   94) = (   0.2857143   0.5773503   0.0789266), wk =   0.0087464
        k(   95) = (   0.2857143   0.5773503   0.1578532), wk =   0.0087464
        k(   96) = (   0.2857143   0.5773503   0.2367798), wk =   0.0087464

                       cryst. coord.
        k(    1) = (   0.0000000   0.0000000   0.0000000), wk =   0.0007289
        k(    2) = (   0.0000000   0.0000000   0.1428571), wk =   0.0014577
        k(    3) = (   0.0000000   0.0000000   0.2857143), wk =   0.0014577
        k(    4) = (   0.0000000   0.0000000   0.4285714), wk =   0.0014577
        k(    5) = (   0.0000000   0.0714286   0.0000000), wk =   0.0043732
        k(    6) = (   0.0000000   0.0714286   0.1428571), wk =   0.0087464
        k(    7) = (   0.0000000   0.0714286   0.2857143), wk =   0.0087464
        k(    8) = (   0.0000000   0.0714286   0.4285714), wk =   0.0087464
        k(    9) = (   0.0000000   0.1428571   0.0000000), wk =   0.0043732
        k(   10) = (   0.0000000   0.1428571   0.1428571), wk =   0.0087464
        k(   11) = (   0.0000000   0.1428571   0.2857143), wk =   0.0087464
        k(   12) = (   0.0000000   0.1428571   0.4285714), wk =   0.0087464
        k(   13) = (   0.0000000   0.2142857   0.0000000), wk =   0.0043732
        k(   14) = (   0.0000000   0.2142857   0.1428571), wk =   0.0087464
        k(   15) = (   0.0000000   0.2142857   0.2857143), wk =   0.0087464
        k(   16) = (   0.0000000   0.2142857   0.4285714), wk =   0.0087464
        k(   17) = (   0.0000000   0.2857143   0.0000000), wk =   0.0043732
        k(   18) = (   0.0000000   0.2857143   0.1428571), wk =   0.0087464
        k(   19) = (   0.0000000   0.2857143   0.2857143), wk =   0.0087464
        k(   20) = (   0.0000000   0.2857143   0.4285714), wk =   0.0087464
        k(   21) = (   0.0000000   0.3571429   0.0000000), wk =   0.0043732
        k(   22) = (   0.0000000   0.3571429   0.1428571), wk =   0.0087464
        k(   23) = (   0.0000000   0.3571429   0.2857143), wk =   0.0087464
        k(   24) = (   0.0000000   0.3571429   0.4285714), wk =   0.0087464
        k(   25) = (   0.0000000   0.4285714   0.0000000), wk =   0.0043732
        k(   26) = (   0.0000000   0.4285714   0.1428571), wk =   0.0087464
        k(   27) = (   0.0000000   0.4285714   0.2857143), wk =   0.0087464
        k(   28) = (   0.0000000   0.4285714   0.4285714), wk =   0.0087464
        k(   29) = (   0.0000000  -0.5000000   0.0000000), wk =   0.0021866
        k(   30) = (   0.0000000  -0.5000000   0.1428571), wk =   0.0043732
        k(   31) = (   0.0000000  -0.5000000   0.2857143), wk =   0.0043732
        k(   32) = (   0.0000000  -0.5000000   0.4285714), wk =   0.0043732
        k(   33) = (   0.0714286   0.0714286   0.0000000), wk =   0.0043732
        k(   34) = (   0.0714286   0.0714286   0.1428571), wk =   0.0087464
        k(   35) = (   0.0714286   0.0714286   0.2857143), wk =   0.0087464
        k(   36) = (   0.0714286   0.0714286   0.4285714), wk =   0.0087464
        k(   37) = (   0.0714286   0.1428571   0.0000000), wk =   0.0087464
        k(   38) = (   0.0714286   0.1428571   0.1428571), wk =   0.0174927
        k(   39) = (   0.0714286   0.1428571   0.2857143), wk =   0.0174927
        k(   40) = (   0.0714286   0.1428571   0.4285714), wk =   0.0174927
        k(   41) = (   0.0714286   0.2142857   0.0000000), wk =   0.0087464
        k(   42) = (   0.0714286   0.2142857   0.1428571), wk =   0.0174927
        k(   43) = (   0.0714286   0.2142857   0.2857143), wk =   0.0174927
        k(   44) = (   0.0714286   0.2142857   0.4285714), wk =   0.0174927
        k(   45) = (   0.0714286   0.2857143   0.0000000), wk =   0.0087464
        k(   46) = (   0.0714286   0.2857143   0.1428571), wk =   0.0174927
        k(   47) = (   0.0714286   0.2857143   0.2857143), wk =   0.0174927
        k(   48) = (   0.0714286   0.2857143   0.4285714), wk =   0.0174927
        k(   49) = (   0.0714286   0.3571429   0.0000000), wk =   0.0087464
        k(   50) = (   0.0714286   0.3571429   0.1428571), wk =   0.0174927
        k(   51) = (   0.0714286   0.3571429   0.2857143), wk =   0.0174927
        k(   52) = (   0.0714286   0.3571429   0.4285714), wk =   0.0174927
        k(   53) = (   0.0714286   0.4285714   0.0000000), wk =   0.0087464
        k(   54) = (   0.0714286   0.4285714   0.1428571), wk =   0.0174927
        k(   55) = (   0.0714286   0.4285714   0.2857143), wk =   0.0174927
        k(   56) = (   0.0714286   0.4285714   0.4285714), wk =   0.0174927
        k(   57) = (   0.1428571   0.1428571   0.0000000), wk =   0.0043732
        k(   58) = (   0.1428571   0.1428571   0.1428571), wk =   0.0087464
        k(   59) = (   0.1428571   0.1428571   0.2857143), wk =   0.0087464
        k(   60) = (   0.1428571   0.1428571   0.4285714), wk =   0.0087464
        k(   61) = (   0.1428571   0.2142857   0.0000000), wk =   0.0087464
        k(   62) = (   0.1428571   0.2142857   0.1428571), wk =   0.0174927
        k(   63) = (   0.1428571   0.2142857   0.2857143), wk =   0.0174927
        k(   64) = (   0.1428571   0.2142857   0.4285714), wk =   0.0174927
        k(   65) = (   0.1428571   0.2857143   0.0000000), wk =   0.0087464
        k(   66) = (   0.1428571   0.2857143   0.1428571), wk =   0.0174927
        k(   67) = (   0.1428571   0.2857143   0.2857143), wk =   0.0174927
        k(   68) = (   0.1428571   0.2857143   0.4285714), wk =   0.0174927
        k(   69) = (   0.1428571   0.3571429   0.0000000), wk =   0.0087464
        k(   70) = (   0.1428571   0.3571429   0.1428571), wk =   0.0174927
        k(   71) = (   0.1428571   0.3571429   0.2857143), wk =   0.0174927
        k(   72) = (   0.1428571   0.3571429   0.4285714), wk =   0.0174927
        k(   73) = (   0.1428571   0.4285714   0.0000000), wk =   0.0043732
        k(   74) = (   0.1428571   0.4285714   0.1428571), wk =   0.0087464
        k(   75) = (   0.1428571   0.4285714   0.2857143), wk =   0.0087464
        k(   76) = (   0.1428571   0.4285714   0.4285714), wk =   0.0087464
        k(   77) = (   0.2142857   0.2142857   0.0000000), wk =   0.0043732
        k(   78) = (   0.2142857   0.2142857   0.1428571), wk =   0.0087464
        k(   79) = (   0.2142857   0.2142857   0.2857143), wk =   0.0087464
        k(   80) = (   0.2142857   0.2142857   0.4285714), wk =   0.0087464
        k(   81) = (   0.2142857   0.2857143   0.0000000), wk =   0.0087464
        k(   82) = (   0.2142857   0.2857143   0.1428571), wk =   0.0174927
        k(   83) = (   0.2142857   0.2857143   0.2857143), wk =   0.0174927
        k(   84) = (   0.2142857   0.2857143   0.4285714), wk =   0.0174927
        k(   85) = (   0.2142857   0.3571429   0.0000000), wk =   0.0087464
        k(   86) = (   0.2142857   0.3571429   0.1428571), wk =   0.0174927
        k(   87) = (   0.2142857   0.3571429   0.2857143), wk =   0.0174927
        k(   88) = (   0.2142857   0.3571429   0.4285714), wk =   0.0174927
        k(   89) = (   0.2857143   0.2857143   0.0000000), wk =   0.0043732
        k(   90) = (   0.2857143   0.2857143   0.1428571), wk =   0.0087464
        k(   91) = (   0.2857143   0.2857143   0.2857143), wk =   0.0087464
        k(   92) = (   0.2857143   0.2857143   0.4285714), wk =   0.0087464
        k(   93) = (   0.2857143   0.3571429   0.0000000), wk =   0.0043732
        k(   94) = (   0.2857143   0.3571429   0.1428571), wk =   0.0087464
        k(   95) = (   0.2857143   0.3571429   0.2857143), wk =   0.0087464
        k(   96) = (   0.2857143   0.3571429   0.4285714), wk =   0.0087464

     Dense  grid:    16171 G-vectors     FFT dimensions: (  27,  27,  50)

     Dynamical RAM for                 wfc:       0.03 MB

     Dynamical RAM for     wfc (w. buffer):       3.39 MB

     Dynamical RAM for           str. fact:       0.02 MB

     Dynamical RAM for           local pot:       0.00 MB

     Dynamical RAM for          nlocal pot:       0.08 MB

     Dynamical RAM for                qrad:       1.34 MB

     Dynamical RAM for          rho,v,vnew:       0.24 MB

     Dynamical RAM for               rhoin:       0.08 MB

     Dynamical RAM for            rho*nmix:       0.57 MB

     Dynamical RAM for           G-vectors:       0.08 MB

     Dynamical RAM for          h,s,v(r/c):       0.05 MB

     Dynamical RAM for          <psi|beta>:       0.01 MB

     Dynamical RAM for                 psi:       0.07 MB

     Dynamical RAM for                hpsi:       0.07 MB

     Dynamical RAM for                spsi:       0.07 MB

     Dynamical RAM for      wfcinit/wfcrot:       0.09 MB

     Dynamical RAM for           addusdens:       1.69 MB

     Estimated static dynamical RAM per process >       5.39 MB

     Estimated max dynamical RAM per process >       7.64 MB

     Estimated total dynamical RAM >     206.07 MB

     Check: negative core charge=   -0.000003
     Generating pointlists ...
     new r_m :   0.4125 (alat units)  2.0873 (a.u.) for type    1

     Initial potential from superposition of free atoms

     starting charge      23.9926, renormalised to      24.0000
     Starting wfcs are   18 randomized atomic wfcs
     Checking if some PAW data can be deallocated... 

     total cpu time spent up to now is        0.6 secs

     Self-consistent Calculation

     iteration #  1     ecut=    70.00 Ry     beta= 0.70
     Davidson diagonalization with overlap

---- Real-time Memory Report at c_bands before calling an iterative solver
            58 MiB given to the printing process from OS
             0 MiB allocation reported by mallinfo(arena+hblkhd)
        166881 MiB available memory on the node where the printing process lives
------------------
     ethr =  1.00E-02,  avg # of iterations =  3.2

     Threshold (ethr) on eigenvalues was too large:
     Diagonalizing with lowered threshold

     Davidson diagonalization with overlap

---- Real-time Memory Report at c_bands before calling an iterative solver
            58 MiB given to the printing process from OS
             0 MiB allocation reported by mallinfo(arena+hblkhd)
        166825 MiB available memory on the node where the printing process lives
------------------
     ethr =  1.99E-05,  avg # of iterations =  6.6

     total cpu time spent up to now is        2.6 secs

     total energy              =    -487.44600098 Ry
     estimated scf accuracy    <       0.00448858 Ry

     total magnetization       =     0.00 Bohr mag/cell
     absolute magnetization    =     0.00 Bohr mag/cell

     iteration #  2     ecut=    70.00 Ry     beta= 0.70
     Davidson diagonalization with overlap

---- Real-time Memory Report at c_bands before calling an iterative solver
            75 MiB given to the printing process from OS
             0 MiB allocation reported by mallinfo(arena+hblkhd)
        166759 MiB available memory on the node where the printing process lives
------------------
     ethr =  1.87E-05,  avg # of iterations =  2.0

     total cpu time spent up to now is        3.6 secs

     total energy              =    -487.44628538 Ry
     estimated scf accuracy    <       0.00239991 Ry

     total magnetization       =     0.00 Bohr mag/cell
     absolute magnetization    =     0.00 Bohr mag/cell

     iteration #  3     ecut=    70.00 Ry     beta= 0.70
     Davidson diagonalization with overlap

---- Real-time Memory Report at c_bands before calling an iterative solver
            76 MiB given to the printing process from OS
             0 MiB allocation reported by mallinfo(arena+hblkhd)
        166734 MiB available memory on the node where the printing process lives
------------------
     ethr =  1.00E-05,  avg # of iterations =  2.0

     total cpu time spent up to now is        4.5 secs

     total energy              =    -487.44692662 Ry
     estimated scf accuracy    <       0.00025099 Ry

     total magnetization       =     0.00 Bohr mag/cell
     absolute magnetization    =     0.00 Bohr mag/cell

     iteration #  4     ecut=    70.00 Ry     beta= 0.70
     Davidson diagonalization with overlap

---- Real-time Memory Report at c_bands before calling an iterative solver
            77 MiB given to the printing process from OS
             0 MiB allocation reported by mallinfo(arena+hblkhd)
        166722 MiB available memory on the node where the printing process lives
------------------
     ethr =  1.05E-06,  avg # of iterations =  2.3

     total cpu time spent up to now is        5.2 secs

     total energy              =    -487.44695778 Ry
     estimated scf accuracy    <       0.00000494 Ry

     total magnetization       =     0.00 Bohr mag/cell
     absolute magnetization    =     0.00 Bohr mag/cell

     iteration #  5     ecut=    70.00 Ry     beta= 0.70
     Davidson diagonalization with overlap

---- Real-time Memory Report at c_bands before calling an iterative solver
            78 MiB given to the printing process from OS
             0 MiB allocation reported by mallinfo(arena+hblkhd)
        166714 MiB available memory on the node where the printing process lives
------------------
     ethr =  2.06E-08,  avg # of iterations =  4.0
 
     Magnetic moment per site  (integrated on atomic sphere of radius R)
     atom   1 (R=0.413)  charge= 10.7233  magn=  0.0000
     atom   2 (R=0.413)  charge= 10.7233  magn=  0.0000

     total cpu time spent up to now is        6.3 secs

     End of self-consistent calculation

 ------ SPIN UP ------------


          k = 0.0000 0.0000 0.0000 (  2017 PWs)   bands (ev):

     0.7650   2.7104   3.4355   3.6384   3.6384   3.6965   3.6965   3.9933
     3.9933   4.2349   4.2349   7.6815   8.5394  25.7911  28.2369  28.2369

     occupation numbers 
     1.0000   1.0000   1.0000   1.0000   1.0000   1.0000   1.0000   1.0000
     1.0000   1.0000   1.0000   1.0000   1.0000   0.0000   0.0000   0.0000

          k = 0.0000 0.0000 0.0789 (  2005 PWs)   bands (ev):

     0.8953   2.6985   3.4349   3.6354   3.6354   3.6895   3.6895   4.0111
     4.0111   4.2272   4.2272   6.2974  10.2039  23.7174  28.3663  28.3663

     occupation numbers 
     1.0000   1.0000   1.0000   1.0000   1.0000   1.0000   1.0000   1.0000
     1.0000   1.0000   1.0000   1.0000   1.0000   0.0000   0.0000   0.0000

          k = 0.0000 0.0000 0.1579 (  2010 PWs)   bands (ev):

     1.2736   2.6314   3.4480   3.6320   3.6320   3.6716   3.6716   4.0563
     4.0563   4.2035   4.2035   4.8882  12.4816  20.7006  28.7404  28.7405

     occupation numbers 
     1.0000   1.0000   1.0000   1.0000   1.0000   1.0000   1.0000   1.0000
     1.0000   1.0000   1.0000   1.0000   0.0000   0.0000   0.0000   0.0000

          k = 0.0000 0.0000 0.2368 (  2034 PWs)   bands (ev):

     1.8381   2.3783   3.5416   3.6365   3.6365   3.6512   3.6512   3.9327
     4.1120   4.1120   4.1640   4.1640  15.0119  17.7633  29.2979  29.2979

     occupation numbers 
     1.0000   1.0000   1.0000   1.0000   1.0000   1.0000   1.0000   1.0000
     1.0000   1.0000   1.0000   1.0000   0.0000   0.0000   0.0000   0.0000

          k = 0.0000 0.0825 0.0000 (  2005 PWs)   bands (ev):

     0.9143   2.7732   3.4474   3.6267   3.6734   3.6813   3.7295   3.9618
     3.9786   4.1503   4.2375   7.9227   8.6184  25.8216  25.9479  26.9861

     occupation numbers 
     1.0000   1.0000   1.0000   1.0000   1.0000   1.0000   1.0000   1.0000
     1.0000   1.0000   1.0000   1.0000   1.0000   0.0000   0.0000   0.0000

          k = 0.0000 0.0825 0.0789 (  2007 PWs)   bands (ev):

     1.0438   2.7654   3.4465   3.6203   3.6697   3.6724   3.7222   3.9847
     3.9980   4.1345   4.2290   6.4852  10.3414  23.8475  25.9710  27.1228

     occupation numbers 
     1.0000   1.0000   1.0000   1.0000   1.0000   1.0000   1.0000   1.0000
     1.0000   1.0000   1.0000   1.0000   1.0000   0.0000   0.0000   0.0000

          k = 0.0000 0.0825 0.1579 (  2019 PWs)   bands (ev):

     1.4187   2.7129   3.4542   3.6123   3.6501   3.6652   3.7041   4.0321
     4.0464   4.0796   4.2033   5.1036  12.6223  20.8345  26.3578  27.5284

     occupation numbers 
     1.0000   1.0000   1.0000   1.0000   1.0000   1.0000   1.0000   1.0000
     1.0000   1.0000   1.0000   1.0000   0.0000   0.0000   0.0000   0.0000

          k = 0.0000 0.0825 0.2368 (  2017 PWs)   bands (ev):

     1.9744   2.4899   3.5209   3.6185   3.6242   3.6690   3.6836   3.8161
     4.1055   4.1395   4.1608   4.3293  15.1512  17.9002  26.9957  27.8730

     occupation numbers 
     1.0000   1.0000   1.0000   1.0000   1.0000   1.0000   1.0000   1.0000
     1.0000   1.0000   1.0000   1.0000   0.0000   0.0000   0.0000   0.0000

          k = 0.0000 0.1650 0.0000 (  2007 PWs)   bands (ev):

     1.3525   2.9324   3.4617   3.6040   3.6732   3.7729   3.8229   3.8337
     3.9401   3.9994   4.2424   8.5803   8.8723  22.4910  25.3439  26.3483

     occupation numbers 
     1.0000   1.0000   1.0000   1.0000   1.0000   1.0000   1.0000   1.0000
     1.0000   1.0000   1.0000   1.0000   1.0000   0.0000   0.0000   0.0000

          k = 0.0000 0.1650 0.0789 (  2003 PWs)   bands (ev):

     1.4779   2.9346   3.4643   3.5879   3.6483   3.7659   3.8145   3.8550
     3.9655   4.0015   4.2321   6.9756  10.7608  22.6043  24.2752  25.4890

     occupation numbers 
     1.0000   1.0000   1.0000   1.0000   1.0000   1.0000   1.0000   1.0000
     1.0000   1.0000   1.0000   1.0000   1.0000   0.0000   0.0000   0.0000

          k = 0.0000 0.1650 0.1579 (  2016 PWs)   bands (ev):

     1.8380   2.9196   3.4667   3.5612   3.6029   3.7570   3.7953   3.8268
     4.0232   4.0603   4.2014   5.5733  13.0437  21.2059  23.0706  25.7449

     occupation numbers 
     1.0000   1.0000   1.0000   1.0000   1.0000   1.0000   1.0000   1.0000
     1.0000   1.0000   1.0000   1.0000   0.0000   0.0000   0.0000   0.0000

          k = 0.0000 0.1650 0.2368 (  2015 PWs)   bands (ev):

     2.3544   2.7812   3.4721   3.5249   3.5973   3.6970   3.7595   3.7742
     4.0902   4.1525   4.2283   4.6420  15.5656  18.3027  23.7039  24.6048

     occupation numbers 
     1.0000   1.0000   1.0000   1.0000   1.0000   1.0000   1.0000   1.0000
     1.0000   1.0000   1.0000   1.0000   0.0000   0.0000   0.0000   0.0000

          k = 0.0000 0.2474 0.0000 (  2006 PWs)   bands (ev):

     2.0283   3.0786   3.4882   3.5717   3.6126   3.7883   3.8888   3.8926
     3.9205   3.9609   4.2451   9.3473   9.5479  19.2890  23.8897  25.1786

     occupation numbers 
     1.0000   1.0000   1.0000   1.0000   1.0000   1.0000   1.0000   1.0000
     1.0000   1.0000   1.0000   1.0000   1.0000   0.0000   0.0000   0.0000

          k = 0.0000 0.2474 0.0789 (  2003 PWs)   bands (ev):

     2.1377   3.0897   3.4883   3.5419   3.6053   3.7796   3.8745   3.9407
     3.9417   3.9661   4.2331   7.6925  11.4717  19.4174  23.9579  24.0410

     occupation numbers 
     1.0000   1.0000   1.0000   1.0000   1.0000   1.0000   1.0000   1.0000
     1.0000   1.0000   1.0000   1.0000   0.0000   0.0000   0.0000   0.0000

          k = 0.0000 0.2474 0.1579 (  2006 PWs)   bands (ev):

     2.4372   3.1088   3.4665   3.4751   3.6081   3.7542   3.8687   3.9271
     4.0179   4.0944   4.1985   6.2385  13.7407  19.7765  21.9420  22.5978

     occupation numbers 
     1.0000   1.0000   1.0000   1.0000   1.0000   1.0000   1.0000   1.0000
     1.0000   1.0000   1.0000   1.0000   0.0000   0.0000   0.0000   0.0000

          k = 0.0000 0.2474 0.2368 (  2018 PWs)   bands (ev):

     2.8131   3.0615   3.4088   3.4252   3.6498   3.7079   3.8796   3.9019
     4.0828   4.1461   4.4350   5.1314  16.2377  18.8949  20.6015  21.4537

     occupation numbers 
     1.0000   1.0000   1.0000   1.0000   1.0000   1.0000   1.0000   1.0000
     1.0000   1.0000   1.0000   1.0000   0.0000   0.0000   0.0000   0.0000

          k = 0.0000 0.3299 0.0000 (  2018 PWs)   bands (ev):

     2.7026   3.0821   3.4042   3.5828   3.6808   3.7994   3.8357   4.0896
     4.1189   4.1422   4.2444  10.0984  10.7590  16.3097  22.2518  22.6959

     occupation numbers 
     1.0000   1.0000   1.0000   1.0000   1.0000   1.0000   1.0000   1.0000
     1.0000   1.0000   1.0000   1.0000   1.0000   0.0000   0.0000   0.0000

          k = 0.0000 0.3299 0.0789 (  1999 PWs)   bands (ev):

     2.7481   3.0934   3.4040   3.5340   3.6494   3.8502   3.9431   4.0929
     4.1099   4.1570   4.2339   8.6402  12.4664  16.4404  21.0340  22.8521

     occupation numbers 
     1.0000   1.0000   1.0000   1.0000   1.0000   1.0000   1.0000   1.0000
     1.0000   1.0000   1.0000   1.0000   0.0000   0.0000   0.0000   0.0000

          k = 0.0000 0.3299 0.1579 (  1995 PWs)   bands (ev):

     2.8586   3.1138   3.3799   3.4158   3.7395   3.8909   4.0128   4.0683
     4.1167   4.2073   4.4124   7.1587  14.6862  16.8263  19.6843  22.6655

     occupation numbers 
     1.0000   1.0000   1.0000   1.0000   1.0000   1.0000   1.0000   1.0000
     1.0000   1.0000   1.0000   1.0000   0.0000   0.0000   0.0000   0.0000

          k = 0.0000 0.3299 0.2368 (  2007 PWs)   bands (ev):

     2.9862   3.0888   3.3360   3.3576   3.8546   3.9497   3.9522   4.0139
     4.1424   4.1742   5.0253   5.9461  17.0155  17.4208  18.6716  20.0152

     occupation numbers 
     1.0000   1.0000   1.0000   1.0000   1.0000   1.0000   1.0000   1.0000
     1.0000   1.0000   1.0000   1.0000   0.0000   0.0000   0.0000   0.0000

          k = 0.0000 0.4124 0.0000 (  2008 PWs)   bands (ev):

     2.9318   3.0262   3.2486   3.6826   3.7199   3.7904   3.9095   4.2414
     4.2455   4.2677   5.1359  11.1071  12.1738  13.6506  19.5285  20.5424

     occupation numbers 
     1.0000   1.0000   1.0000   1.0000   1.0000   1.0000   1.0000   1.0000
     1.0000   1.0000   1.0000   1.0000   0.0000   0.0000   0.0000   0.0000

          k = 0.0000 0.4124 0.0789 (  2012 PWs)   bands (ev):

     2.9238   3.0224   3.2776   3.5491   3.7561   3.8100   4.0411   4.2056
     4.2482   4.2788   5.2245   9.8275  13.5401  13.9057  18.3861  21.9644

     occupation numbers 
     1.0000   1.0000   1.0000   1.0000   1.0000   1.0000   1.0000   1.0000
     1.0000   1.0000   1.0000   1.0000   0.0000   0.0000   0.0000   0.0000

          k = 0.0000 0.4124 0.1579 (  2011 PWs)   bands (ev):

     2.9225   3.0301   3.2958   3.3775   3.8655   3.8795   4.1340   4.1545
     4.2556   4.2820   5.5534   8.3673  14.1130  15.6191  17.3066  22.4369

     occupation numbers 
     1.0000   1.0000   1.0000   1.0000   1.0000   1.0000   1.0000   1.0000
     1.0000   1.0000   1.0000   1.0000   0.0000   0.0000   0.0000   0.0000

          k = 0.0000 0.4124 0.2368 (  2003 PWs)   bands (ev):

     2.9588   3.0139   3.2768   3.2882   3.9479   4.0301   4.0430   4.1399
     4.2659   4.2760   6.1965   7.1445  14.7480  15.5620  18.6179  21.0380

     occupation numbers 
     1.0000   1.0000   1.0000   1.0000   1.0000   1.0000   1.0000   1.0000
     1.0000   1.0000   1.0000   1.0000   0.0000   0.0000   0.0000   0.0000

          k = 0.0000 0.4949 0.0000 (  2014 PWs)   bands (ev):

     2.9162   2.9973   3.1547   3.6657   3.7588   3.7600   4.0473   4.2385
     4.3536   4.3763   6.6914  10.7639  12.9378  13.7220  17.1067  18.3258

     occupation numbers 
     1.0000   1.0000   1.0000   1.0000   1.0000   1.0000   1.0000   1.0000
     1.0000   1.0000   1.0000   1.0000   0.0000   0.0000   0.0000   0.0000

          k = 0.0000 0.4949 0.0789 (  2015 PWs)   bands (ev):

     2.9187   2.9576   3.2027   3.5379   3.7818   3.8145   4.1418   4.2113
     4.3556   4.3767   6.7973  10.5732  12.0286  14.7587  16.4616  19.5894

     occupation numbers 
     1.0000   1.0000   1.0000   1.0000   1.0000   1.0000   1.0000   1.0000
     1.0000   1.0000   1.0000   1.0000   0.0000   0.0000   0.0000   0.0000

          k = 0.0000 0.4949 0.1579 (  2002 PWs)   bands (ev):

     2.8977   2.9575   3.2375   3.3535   3.8437   3.9529   4.1392   4.2436
     4.3602   4.3757   7.1361   9.6772  11.8922  14.2250  17.7733  21.3676

     occupation numbers 
     1.0000   1.0000   1.0000   1.0000   1.0000   1.0000   1.0000   1.0000
     1.0000   1.0000   1.0000   1.0000   0.0000   0.0000   0.0000   0.0000

          k = 0.0000 0.4949 0.2368 (  2005 PWs)   bands (ev):

     2.9116   2.9511   3.2307   3.2445   3.9353   4.0404   4.1203   4.2359
     4.3661   4.3718   7.7407   8.6105  12.3951  13.2092  19.9584  21.8776

     occupation numbers 
     1.0000   1.0000   1.0000   1.0000   1.0000   1.0000   1.0000   1.0000
     1.0000   1.0000   1.0000   1.0000   0.0000   0.0000   0.0000   0.0000

          k = 0.0000-0.5774 0.0000 (  2022 PWs)   bands (ev):

     2.8978   2.9864   3.1236   3.6465   3.7493   3.7861   4.0918   4.2373
     4.3920   4.4164   8.2981   8.9675  14.0662  14.8008  15.5370  17.0238

     occupation numbers 
     1.0000   1.0000   1.0000   1.0000   1.0000   1.0000   1.0000   1.0000
     1.0000   1.0000   1.0000   1.0000   0.0000   0.0000   0.0000   0.0000

          k = 0.0000-0.5774 0.0789 (  2022 PWs)   bands (ev):

     2.9085   2.9315   3.1778   3.5297   3.7718   3.8353   4.1788   4.2108
     4.3939   4.4154   8.4107   9.0285  13.3550  13.5104  17.1072  17.9598

     occupation numbers 
     1.0000   1.0000   1.0000   1.0000   1.0000   1.0000   1.0000   1.0000
     1.0000   1.0000   1.0000   1.0000   0.0000   0.0000   0.0000   0.0000

          k = 0.0000-0.5774 0.1579 (  2024 PWs)   bands (ev):

     2.8843   2.9300   3.2170   3.3444   3.8356   3.9752   4.1386   4.2756
     4.3982   4.4125   8.7335   9.1962  12.2298  12.2501  19.1930  19.7508

     occupation numbers 
     1.0000   1.0000   1.0000   1.0000   1.0000   1.0000   1.0000   1.0000
     1.0000   1.0000   1.0000   1.0000   0.0000   0.0000   0.0000   0.0000

          k = 0.0000-0.5774 0.2368 (  2016 PWs)   bands (ev):

     2.8925   2.9280   3.2132   3.2301   3.9299   4.0379   4.1474   4.2664
     4.4032   4.4082   9.1620   9.3510  11.4281  11.4453  21.2238  21.5009

     occupation numbers 
     1.0000   1.0000   1.0000   1.0000   1.0000   1.0000   1.0000   1.0000
     1.0000   1.0000   1.0000   1.0000   0.0000   0.0000   0.0000   0.0000

          k = 0.0714 0.1237 0.0000 (  1991 PWs)   bands (ev):

     1.2086   2.8862   3.4590   3.6152   3.6509   3.7452   3.8003   3.9062
     3.9153   4.0505   4.2381   8.3700   8.7851  24.1147  24.3165  26.2370

     occupation numbers 
     1.0000   1.0000   1.0000   1.0000   1.0000   1.0000   1.0000   1.0000
     1.0000   1.0000   1.0000   1.0000   1.0000   0.0000   0.0000   0.0000

          k = 0.0714 0.1237 0.0789 (  2006 PWs)   bands (ev):

     1.3356   2.8855   3.4605   3.5982   3.6381   3.7392   3.7918   3.9148
     3.9510   4.0427   4.2289   6.8207  10.6202  23.9969  24.2496  24.6015

     occupation numbers 
     1.0000   1.0000   1.0000   1.0000   1.0000   1.0000   1.0000   1.0000
     1.0000   1.0000   1.0000   1.0000   1.0000   0.0000   0.0000   0.0000

          k = 0.0714 0.1237 0.1579 (  2020 PWs)   bands (ev):

     1.7019   2.8594   3.4641   3.5753   3.6044   3.7311   3.7729   3.8791
     4.0407   4.0506   4.2018   5.4302  12.9035  21.0927  24.6518  24.8886

     occupation numbers 
     1.0000   1.0000   1.0000   1.0000   1.0000   1.0000   1.0000   1.0000
     1.0000   1.0000   1.0000   1.0000   0.0000   0.0000   0.0000   0.0000

          k = 0.0714 0.1237 0.2368 (  2023 PWs)   bands (ev):

     2.2345   2.6941   3.4866   3.5541   3.5915   3.7026   3.7489   3.7528
     4.0986   4.1470   4.2018   4.5469  15.4283  18.1706  25.3142  25.5260

     occupation numbers 
     1.0000   1.0000   1.0000   1.0000   1.0000   1.0000   1.0000   1.0000
     1.0000   1.0000   1.0000   1.0000   0.0000   0.0000   0.0000   0.0000

          k = 0.0714 0.2062 0.0000 (  2006 PWs)   bands (ev):

     1.7723   3.0564   3.4485   3.5901   3.6718   3.7093   3.8496   3.8788
     3.9420   3.9772   4.2366   9.1516   9.1755  20.9485  22.7901  26.4733

     occupation numbers 
     1.0000   1.0000   1.0000   1.0000   1.0000   1.0000   1.0000   1.0000
     1.0000   1.0000   1.0000   1.0000   1.0000   0.0000   0.0000   0.0000

          k = 0.0714 0.2062 0.0789 (  2005 PWs)   bands (ev):

     1.8908   3.0660   3.4565   3.5633   3.6185   3.7321   3.8592   3.9013
     3.9362   3.9992   4.2274   7.4154  11.1873  21.0749  22.9101  24.6498

     occupation numbers 
     1.0000   1.0000   1.0000   1.0000   1.0000   1.0000   1.0000   1.0000
     1.0000   1.0000   1.0000   1.0000   1.0000   0.0000   0.0000   0.0000

          k = 0.0714 0.2062 0.1579 (  2007 PWs)   bands (ev):

     2.2249   3.0794   3.4734   3.5024   3.5496   3.7129   3.8423   3.9087
     4.0278   4.0618   4.2042   5.9807  13.4642  21.2558  21.8464  23.3840

     occupation numbers 
     1.0000   1.0000   1.0000   1.0000   1.0000   1.0000   1.0000   1.0000
     1.0000   1.0000   1.0000   1.0000   0.0000   0.0000   0.0000   0.0000

          k = 0.0714 0.2062 0.2368 (  2017 PWs)   bands (ev):

     2.6783   3.0080   3.4371   3.4471   3.5581   3.6349   3.8551   3.8811
     4.0921   4.1409   4.3480   4.9351  15.9746  18.6894  22.1878  23.0885

     occupation numbers 
     1.0000   1.0000   1.0000   1.0000   1.0000   1.0000   1.0000   1.0000
     1.0000   1.0000   1.0000   1.0000   0.0000   0.0000   0.0000   0.0000

          k = 0.0714 0.2887 0.0000 (  2010 PWs)   bands (ev):

     2.4931   3.1396   3.4948   3.5059   3.5707   3.7811   3.8198   3.9055
     4.0447   4.1727   4.2336   9.7728  10.2573  17.8608  21.5835  23.7921

     occupation numbers 
     1.0000   1.0000   1.0000   1.0000   1.0000   1.0000   1.0000   1.0000
     1.0000   1.0000   1.0000   1.0000   1.0000   0.0000   0.0000   0.0000

          k = 0.0714 0.2887 0.0789 (  2004 PWs)   bands (ev):

     2.5752   3.1539   3.4640   3.5247   3.5409   3.7901   3.8705   3.9127
     4.0636   4.1487   4.2460   8.2429  12.0457  17.9915  21.7183  22.5608

     occupation numbers 
     1.0000   1.0000   1.0000   1.0000   1.0000   1.0000   1.0000   1.0000
     1.0000   1.0000   1.0000   1.0000   0.0000   0.0000   0.0000   0.0000

          k = 0.0714 0.2887 0.1579 (  2006 PWs)   bands (ev):

     2.7817   3.1853   3.3994   3.4625   3.5954   3.7635   3.8955   4.0542
     4.0693   4.1472   4.3198   6.7708  14.2933  18.3733  21.1989  21.9940

     occupation numbers 
     1.0000   1.0000   1.0000   1.0000   1.0000   1.0000   1.0000   1.0000
     1.0000   1.0000   1.0000   1.0000   0.0000   0.0000   0.0000   0.0000

          k = 0.0714 0.2887 0.2368 (  2012 PWs)   bands (ev):

     3.0081   3.1619   3.3593   3.4043   3.6587   3.7171   3.9349   3.9990
     4.1343   4.1648   4.7571   5.5952  16.7511  18.8016  19.7894  20.0717

     occupation numbers 
     1.0000   1.0000   1.0000   1.0000   1.0000   1.0000   1.0000   1.0000
     1.0000   1.0000   1.0000   1.0000   0.0000   0.0000   0.0000   0.0000

          k = 0.0714 0.3712 0.0000 (  2016 PWs)   bands (ev):

     2.9476   3.0921   3.3202   3.6374   3.7199   3.7358   3.8329   4.0619
     4.2038   4.2290   4.7439  10.6872  11.5666  15.0204  20.6379  20.9586

     occupation numbers 
     1.0000   1.0000   1.0000   1.0000   1.0000   1.0000   1.0000   1.0000
     1.0000   1.0000   1.0000   1.0000   0.0000   0.0000   0.0000   0.0000

          k = 0.0714 0.3712 0.0789 (  2007 PWs)   bands (ev):

     2.9494   3.1010   3.3420   3.5274   3.6821   3.8334   3.9448   4.0549
     4.1951   4.2214   4.8082   9.3220  13.1679  15.1520  19.7647  20.7793

     occupation numbers 
     1.0000   1.0000   1.0000   1.0000   1.0000   1.0000   1.0000   1.0000
     1.0000   1.0000   1.0000   1.0000   0.0000   0.0000   0.0000   0.0000

          k = 0.0714 0.3712 0.1579 (  2005 PWs)   bands (ev):

     2.9720   3.1201   3.3441   3.3931   3.7589   3.8778   4.0164   4.1182
     4.1407   4.2427   5.0830   7.8480  15.3017  15.5571  18.4584  21.1860

     occupation numbers 
     1.0000   1.0000   1.0000   1.0000   1.0000   1.0000   1.0000   1.0000
     1.0000   1.0000   1.0000   1.0000   0.0000   0.0000   0.0000   0.0000

          k = 0.0714 0.3712 0.2368 (  2007 PWs)   bands (ev):

     3.0290   3.1000   3.3092   3.3376   3.8717   3.9304   3.9749   4.0262
     4.2215   4.2520   5.6922   6.6271  16.1600  16.8123  18.2548  20.5616

     occupation numbers 
     1.0000   1.0000   1.0000   1.0000   1.0000   1.0000   1.0000   1.0000
     1.0000   1.0000   1.0000   1.0000   0.0000   0.0000   0.0000   0.0000

          k = 0.0714 0.4536 0.0000 (  2012 PWs)   bands (ev):

     2.9792   3.0544   3.2018   3.6748   3.7296   3.7729   3.9389   4.2242
     4.2502   4.3208   6.0163  11.5643  12.8111  13.0605  18.3725  19.9822

     occupation numbers 
     1.0000   1.0000   1.0000   1.0000   1.0000   1.0000   1.0000   1.0000
     1.0000   1.0000   1.0000   0.0000   0.0000   0.0000   0.0000   0.0000

          k = 0.0714 0.4536 0.0789 (  2007 PWs)   bands (ev):

     2.9746   3.0255   3.2517   3.5369   3.7497   3.8190   4.0538   4.1942
     4.2489   4.3258   6.1190  10.5701  12.6501  14.4900  17.3285  20.1279

     occupation numbers 
     1.0000   1.0000   1.0000   1.0000   1.0000   1.0000   1.0000   1.0000
     1.0000   1.0000   1.0000   1.0000   0.0000   0.0000   0.0000   0.0000

          k = 0.0714 0.4536 0.1579 (  2007 PWs)   bands (ev):

     2.9547   3.0323   3.2865   3.3639   3.8033   3.9343   4.1192   4.1712
     4.2476   4.3351   6.4580   9.1851  12.9959  15.3403  17.2589  20.5540

     occupation numbers 
     1.0000   1.0000   1.0000   1.0000   1.0000   1.0000   1.0000   1.0000
     1.0000   1.0000   1.0000   1.0000   0.0000   0.0000   0.0000   0.0000

          k = 0.0714 0.4536 0.2368 (  2011 PWs)   bands (ev):

     2.9750   3.0226   3.2668   3.2769   3.9028   4.0147   4.0621   4.1525
     4.2928   4.3284   7.0816   7.9991  13.6138  14.4605  19.3414  21.1474

     occupation numbers 
     1.0000   1.0000   1.0000   1.0000   1.0000   1.0000   1.0000   1.0000
     1.0000   1.0000   1.0000   1.0000   0.0000   0.0000   0.0000   0.0000

          k = 0.0714 0.5361 0.0000 (  2014 PWs)   bands (ev):

     2.9429   3.0355   3.1427   3.6514   3.7385   3.7818   4.0402   4.2212
     4.3489   4.3751   7.7278   9.8553  13.7293  14.5641  16.1806  17.5272

     occupation numbers 
     1.0000   1.0000   1.0000   1.0000   1.0000   1.0000   1.0000   1.0000
     1.0000   1.0000   1.0000   1.0000   0.0000   0.0000   0.0000   0.0000

          k = 0.0714 0.5361 0.0789 (  2012 PWs)   bands (ev):

     2.9524   2.9769   3.2063   3.5331   3.7369   3.8493   4.1328   4.1932
     4.3464   4.3748   7.8360   9.9010  12.6798  14.4234  16.7378  18.6812

     occupation numbers 
     1.0000   1.0000   1.0000   1.0000   1.0000   1.0000   1.0000   1.0000
     1.0000   1.0000   1.0000   1.0000   0.0000   0.0000   0.0000   0.0000

          k = 0.0714 0.5361 0.1579 (  2008 PWs)   bands (ev):

     2.9264   2.9798   3.2491   3.3526   3.7894   3.9877   4.1165   4.2462
     4.3353   4.3716   8.1666   9.8948  11.6782  13.2912  18.6470  20.2252

     occupation numbers 
     1.0000   1.0000   1.0000   1.0000   1.0000   1.0000   1.0000   1.0000
     1.0000   1.0000   1.0000   1.0000   0.0000   0.0000   0.0000   0.0000

          k = 0.0714 0.5361 0.2368 (  2011 PWs)   bands (ev):

     2.9376   2.9775   3.2399   3.2465   3.8907   4.0083   4.1449   4.2555
     4.3361   4.3585   8.7178   9.4146  11.6114  12.2745  20.7271  20.9306

     occupation numbers 
     1.0000   1.0000   1.0000   1.0000   1.0000   1.0000   1.0000   1.0000
     1.0000   1.0000   1.0000   1.0000   0.0000   0.0000   0.0000   0.0000

          k = 0.1429 0.2474 0.0000 (  2001 PWs)   bands (ev):

     2.4103   3.2089   3.3920   3.5422   3.5811   3.7001   3.7545   3.9456
     4.0393   4.1899   4.2207   9.6699  10.0866  19.5059  19.8066  25.5174

     occupation numbers 
     1.0000   1.0000   1.0000   1.0000   1.0000   1.0000   1.0000   1.0000
     1.0000   1.0000   1.0000   1.0000   1.0000   0.0000   0.0000   0.0000

          k = 0.1429 0.2474 0.0789 (  2009 PWs)   bands (ev):

     2.5054   3.2259   3.4018   3.4944   3.6085   3.6218   3.8677   3.9167
     4.0705   4.1442   4.2542   8.1127  11.9062  19.6432  19.9305  24.1860

     occupation numbers 
     1.0000   1.0000   1.0000   1.0000   1.0000   1.0000   1.0000   1.0000
     1.0000   1.0000   1.0000   1.0000   0.0000   0.0000   0.0000   0.0000

          k = 0.1429 0.2474 0.1579 (  2010 PWs)   bands (ev):

     2.7551   3.2726   3.4101   3.4326   3.5319   3.6108   3.8947   4.0474
     4.0809   4.1172   4.3323   6.6476  14.1614  20.0524  20.2551  22.3870

     occupation numbers 
     1.0000   1.0000   1.0000   1.0000   1.0000   1.0000   1.0000   1.0000
     1.0000   1.0000   1.0000   1.0000   0.0000   0.0000   0.0000   0.0000

          k = 0.1429 0.2474 0.2368 (  2014 PWs)   bands (ev):

     3.0482   3.2619   3.3600   3.4396   3.4899   3.5592   3.9260   3.9930
     4.1522   4.1578   4.7017   5.4936  16.6407  19.2529  20.7264  21.1904

     occupation numbers 
     1.0000   1.0000   1.0000   1.0000   1.0000   1.0000   1.0000   1.0000
     1.0000   1.0000   1.0000   1.0000   0.0000   0.0000   0.0000   0.0000

          k = 0.1429 0.3299 0.0000 (  2011 PWs)   bands (ev):

     3.0222   3.2288   3.3836   3.4562   3.6074   3.6864   3.8182   3.8841
     4.1966   4.2044   4.6862  10.4789  11.2580  16.6841  18.6262  22.6403

     occupation numbers 
     1.0000   1.0000   1.0000   1.0000   1.0000   1.0000   1.0000   1.0000
     1.0000   1.0000   1.0000   1.0000   0.6540   0.0000   0.0000   0.0000

          k = 0.1429 0.3299 0.0789 (  2005 PWs)   bands (ev):

     3.0428   3.2447   3.3694   3.4608   3.5691   3.7341   3.8660   3.8939
     4.1729   4.2134   4.7392   9.0749  12.9092  16.8173  18.7602  21.4092

     occupation numbers 
     1.0000   1.0000   1.0000   1.0000   1.0000   1.0000   1.0000   1.0000
     1.0000   1.0000   1.0000   1.0000   0.0000   0.0000   0.0000   0.0000

          k = 0.1429 0.3299 0.1579 (  2004 PWs)   bands (ev):

     3.0937   3.2923   3.3096   3.4821   3.5556   3.7173   3.8706   4.0815
     4.0967   4.2437   4.9602   7.6039  15.1127  17.2108  19.1512  20.0526

     occupation numbers 
     1.0000   1.0000   1.0000   1.0000   1.0000   1.0000   1.0000   1.0000
     1.0000   1.0000   1.0000   1.0000   0.0000   0.0000   0.0000   0.0000

          k = 0.1429 0.3299 0.2368 (  2002 PWs)   bands (ev):

     3.1599   3.2342   3.3636   3.4373   3.6074   3.6679   3.9144   3.9987
     4.2187   4.2570   5.5025   6.4002  17.4354  17.8250  18.9996  19.6343

     occupation numbers 
     1.0000   1.0000   1.0000   1.0000   1.0000   1.0000   1.0000   1.0000
     1.0000   1.0000   1.0000   1.0000   0.0000   0.0000   0.0000   0.0000

          k = 0.1429 0.4124 0.0000 (  2005 PWs)   bands (ev):

     3.1365   3.1860   3.2637   3.6469   3.6838   3.7275   3.8074   4.0071
     4.1910   4.3035   5.7047  11.5680  12.6500  14.0196  17.8497  19.9310

     occupation numbers 
     1.0000   1.0000   1.0000   1.0000   1.0000   1.0000   1.0000   1.0000
     1.0000   1.0000   1.0000   0.0000   0.0000   0.0000   0.0000   0.0000

          k = 0.1429 0.4124 0.0789 (  2012 PWs)   bands (ev):

     3.1196   3.1651   3.3284   3.5002   3.6745   3.8185   3.9068   4.0032
     4.1609   4.3135   5.8015  10.3021  13.9965  14.2871  17.9872  18.7685

     occupation numbers 
     1.0000   1.0000   1.0000   1.0000   1.0000   1.0000   1.0000   1.0000
     1.0000   1.0000   1.0000   1.0000   0.0000   0.0000   0.0000   0.0000

          k = 0.1429 0.4124 0.1579 (  2006 PWs)   bands (ev):

     3.0890   3.1924   3.3317   3.4074   3.6971   3.8571   3.9637   4.0766
     4.1231   4.3299   6.1258   8.8568  14.5088  16.0828  17.6449  18.3930

     occupation numbers 
     1.0000   1.0000   1.0000   1.0000   1.0000   1.0000   1.0000   1.0000
     1.0000   1.0000   1.0000   1.0000   0.0000   0.0000   0.0000   0.0000

          k = 0.1429 0.4124 0.2368 (  2002 PWs)   bands (ev):

     3.1076   3.1676   3.3138   3.3684   3.7898   3.8774   3.9355   3.9838
     4.2573   4.3214   6.7378   7.6551  15.1525  15.9888  18.8662  19.0327

     occupation numbers 
     1.0000   1.0000   1.0000   1.0000   1.0000   1.0000   1.0000   1.0000
     1.0000   1.0000   1.0000   1.0000   0.0000   0.0000   0.0000   0.0000

          k = 0.1429 0.4949 0.0000 (  2006 PWs)   bands (ev):

     3.0723   3.1691   3.1914   3.6393   3.7345   3.7683   3.8823   4.1821
     4.1838   4.3380   7.2308  11.2646  13.3277  14.1965  17.3705  17.5062

     occupation numbers 
     1.0000   1.0000   1.0000   1.0000   1.0000   1.0000   1.0000   1.0000
     1.0000   1.0000   1.0000   0.0992   0.0000   0.0000   0.0000   0.0000

          k = 0.1429 0.4949 0.0789 (  2013 PWs)   bands (ev):

     3.0768   3.0957   3.2886   3.5239   3.6867   3.8457   3.9920   4.1511
     4.1778   4.3426   7.3431  11.1323  12.3709  15.2538  16.8038  17.5131

     occupation numbers 
     1.0000   1.0000   1.0000   1.0000   1.0000   1.0000   1.0000   1.0000
     1.0000   1.0000   1.0000   1.0000   0.0000   0.0000   0.0000   0.0000

          k = 0.1429 0.4949 0.1579 (  2006 PWs)   bands (ev):

     3.0406   3.1191   3.3410   3.3664   3.6985   3.9529   4.0594   4.1303
     4.1692   4.3464   7.6922  10.2482  12.2379  14.6654  17.9258  18.1268

     occupation numbers 
     1.0000   1.0000   1.0000   1.0000   1.0000   1.0000   1.0000   1.0000
     1.0000   1.0000   1.0000   1.0000   0.0000   0.0000   0.0000   0.0000

          k = 0.1429 0.4949 0.2368 (  2011 PWs)   bands (ev):

     3.0574   3.1126   3.2883   3.3212   3.8001   3.9324   4.0515   4.1129
     4.2567   4.3239   8.3004   9.1709  12.7763  13.6180  18.5920  19.3952

     occupation numbers 
     1.0000   1.0000   1.0000   1.0000   1.0000   1.0000   1.0000   1.0000
     1.0000   1.0000   1.0000   1.0000   0.0000   0.0000   0.0000   0.0000

          k = 0.1429 0.5774 0.0000 (  2014 PWs)   bands (ev):

     3.0482   3.1568   3.1675   3.6517   3.6933   3.7956   3.9360   4.1789
     4.2852   4.3077   8.9059   9.3628  14.5630  15.3122  15.8715  17.2125

     occupation numbers 
     1.0000   1.0000   1.0000   1.0000   1.0000   1.0000   1.0000   1.0000
     1.0000   1.0000   1.0000   1.0000   0.0000   0.0000   0.0000   0.0000

          k = 0.1429 0.5774 0.0789 (  2012 PWs)   bands (ev):

     3.0618   3.0666   3.2723   3.5372   3.6634   3.8714   4.0257   4.1476
     4.2826   4.3079   9.0281   9.4423  13.8178  13.9292  17.3520  17.5235

     occupation numbers 
     1.0000   1.0000   1.0000   1.0000   1.0000   1.0000   1.0000   1.0000
     1.0000   1.0000   1.0000   1.0000   0.0000   0.0000   0.0000   0.0000

          k = 0.1429 0.5774 0.1579 (  2013 PWs)   bands (ev):

     3.0221   3.0926   3.3282   3.3682   3.6837   4.0062   4.0526   4.1413
     4.2748   4.3016   9.3757   9.6714  12.6217  12.6487  17.7682  19.6214

     occupation numbers 
     1.0000   1.0000   1.0000   1.0000   1.0000   1.0000   1.0000   1.0000
     1.0000   1.0000   1.0000   1.0000   0.0000   0.0000   0.0000   0.0000

          k = 0.1429 0.5774 0.2368 (  2015 PWs)   bands (ev):

     3.0390   3.0915   3.2809   3.3050   3.7907   3.9278   4.1367   4.1906
     4.2636   4.2735   9.8304   9.9464  11.7576  11.7687  18.4411  19.3262

     occupation numbers 
     1.0000   1.0000   1.0000   1.0000   1.0000   1.0000   1.0000   1.0000
     1.0000   1.0000   1.0000   1.0000   0.0000   0.0000   0.0000   0.0000

          k = 0.2143 0.3712 0.0000 (  2001 PWs)   bands (ev):

     3.2673   3.2963   3.3362   3.4914   3.6242   3.6687   3.8290   3.8729
     4.1718   4.3006   5.6263  11.4982  12.5115  15.6380  15.9650  21.6823

     occupation numbers 
     1.0000   1.0000   1.0000   1.0000   1.0000   1.0000   1.0000   1.0000
     1.0000   1.0000   1.0000   0.0000   0.0000   0.0000   0.0000   0.0000

          k = 0.2143 0.3712 0.0789 (  2007 PWs)   bands (ev):

     3.2570   3.2791   3.3888   3.3963   3.6533   3.7158   3.8232   3.9300
     4.1414   4.3123   5.7200  10.1988  14.0415  15.7745  16.0979  20.3557

     occupation numbers 
     1.0000   1.0000   1.0000   1.0000   1.0000   1.0000   1.0000   1.0000
     1.0000   1.0000   1.0000   1.0000   0.0000   0.0000   0.0000   0.0000

          k = 0.2143 0.3712 0.1579 (  1999 PWs)   bands (ev):

     3.2233   3.2625   3.3508   3.4778   3.6127   3.7283   3.8282   4.0548
     4.1109   4.3306   6.0353   8.7479  16.1145  16.2087  16.4887  18.9523

     occupation numbers 
     1.0000   1.0000   1.0000   1.0000   1.0000   1.0000   1.0000   1.0000
     1.0000   1.0000   1.0000   1.0000   0.0000   0.0000   0.0000   0.0000

          k = 0.2143 0.3712 0.2368 (  2006 PWs)   bands (ev):

     3.2089   3.2194   3.4121   3.4822   3.6242   3.6862   3.8716   3.9568
     4.2553   4.3229   6.6369   7.5478  16.8491  17.1018  17.6383  17.7779

     occupation numbers 
     1.0000   1.0000   1.0000   1.0000   1.0000   1.0000   1.0000   1.0000
     1.0000   1.0000   1.0000   1.0000   0.0000   0.0000   0.0000   0.0000

          k = 0.2143 0.4536 0.0000 (  2014 PWs)   bands (ev):

     3.2396   3.2452   3.3277   3.6026   3.6700   3.7536   3.7551   3.9957
     4.1463   4.3261   7.0029  12.5920  13.4732  13.9788  15.1990  19.1786

     occupation numbers 
     1.0000   1.0000   1.0000   1.0000   1.0000   1.0000   1.0000   1.0000
     1.0000   1.0000   1.0000   0.0000   0.0000   0.0000   0.0000   0.0000

          k = 0.2143 0.4536 0.0789 (  2007 PWs)   bands (ev):

     3.2048   3.2614   3.3810   3.4803   3.6649   3.7890   3.8324   4.0164
     4.1145   4.3344   7.1168  11.5561  13.4023  15.3079  15.4058  18.0588

     occupation numbers 
     1.0000   1.0000   1.0000   1.0000   1.0000   1.0000   1.0000   1.0000
     1.0000   1.0000   1.0000   0.0000   0.0000   0.0000   0.0000   0.0000

          k = 0.2143 0.4536 0.1579 (  2009 PWs)   bands (ev):

     3.1766   3.3059   3.3307   3.4829   3.6140   3.8222   3.8833   4.0299
     4.1266   4.3443   7.4717  10.1691  13.7737  15.7333  16.2605  17.6824

     occupation numbers 
     1.0000   1.0000   1.0000   1.0000   1.0000   1.0000   1.0000   1.0000
     1.0000   1.0000   1.0000   1.0000   0.0000   0.0000   0.0000   0.0000

          k = 0.2143 0.4536 0.2368 (  2000 PWs)   bands (ev):

     3.1861   3.2380   3.3749   3.4515   3.6846   3.7916   3.8964   3.9450
     4.2521   4.3252   8.0940   8.9970  14.4161  15.2946  16.3979  17.2626

     occupation numbers 
     1.0000   1.0000   1.0000   1.0000   1.0000   1.0000   1.0000   1.0000
     1.0000   1.0000   1.0000   1.0000   0.0000   0.0000   0.0000   0.0000

          k = 0.2143 0.5361 0.0000 (  2007 PWs)   bands (ev):

     3.2111   3.2124   3.3160   3.6228   3.6783   3.7567   3.8038   4.1327
     4.1399   4.2774   8.7327  10.7769  14.5713  14.9040  15.5196  16.9503

     occupation numbers 
     1.0000   1.0000   1.0000   1.0000   1.0000   1.0000   1.0000   1.0000
     1.0000   1.0000   1.0000   1.0000   0.0000   0.0000   0.0000   0.0000

          k = 0.2143 0.5361 0.0789 (  2009 PWs)   bands (ev):

     3.1764   3.2265   3.3808   3.5252   3.6154   3.8359   3.8708   4.0998
     4.1449   4.2844   8.8516  10.8670  13.4942  14.9964  15.3680  17.4452

     occupation numbers 
     1.0000   1.0000   1.0000   1.0000   1.0000   1.0000   1.0000   1.0000
     1.0000   1.0000   1.0000   1.0000   0.0000   0.0000   0.0000   0.0000

          k = 0.2143 0.5361 0.1579 (  2012 PWs)   bands (ev):

     3.1518   3.2672   3.3806   3.4684   3.5699   3.8921   3.9541   4.0305
     4.1718   4.2939   9.2090  11.0166  12.3587  14.1327  15.4300  18.0270

     occupation numbers 
     1.0000   1.0000   1.0000   1.0000   1.0000   1.0000   1.0000   1.0000
     1.0000   1.0000   1.0000   1.0000   0.0000   0.0000   0.0000   0.0000

          k = 0.2143 0.5361 0.2368 (  2015 PWs)   bands (ev):

     3.1748   3.2461   3.3482   3.4202   3.6770   3.8174   3.9897   4.0121
     4.2310   4.2805   9.8001  10.5640  12.2975  13.0564  16.0926  16.9923

     occupation numbers 
     1.0000   1.0000   1.0000   1.0000   1.0000   1.0000   1.0000   1.0000
     1.0000   1.0000   1.0000   1.0000   0.0000   0.0000   0.0000   0.0000

          k = 0.2857 0.4949 0.0000 (  2003 PWs)   bands (ev):

     3.2379   3.3390   3.3966   3.5938   3.6314   3.6860   3.8060   4.0471
     4.1120   4.2706   8.6127  12.4904  12.8583  14.5724  15.5059  18.5453

     occupation numbers 
     1.0000   1.0000   1.0000   1.0000   1.0000   1.0000   1.0000   1.0000
     1.0000   1.0000   1.0000   0.0000   0.0000   0.0000   0.0000   0.0000

          k = 0.2857 0.4949 0.0789 (  2011 PWs)   bands (ev):

     3.2389   3.3462   3.4234   3.4883   3.6509   3.7255   3.8233   4.0718
     4.0787   4.2799   8.7342  12.4581  12.9967  13.5387  16.5211  17.3449

     occupation numbers 
     1.0000   1.0000   1.0000   1.0000   1.0000   1.0000   1.0000   1.0000
     1.0000   1.0000   1.0000   0.0000   0.0000   0.0000   0.0000   0.0000

          k = 0.2857 0.4949 0.1579 (  2016 PWs)   bands (ev):

     3.2443   3.3431   3.4188   3.4947   3.5869   3.7683   3.8496   3.9968
     4.1458   4.2935   9.1026  11.6798  13.3169  13.4051  15.9350  16.0192

     occupation numbers 
     1.0000   1.0000   1.0000   1.0000   1.0000   1.0000   1.0000   1.0000
     1.0000   1.0000   1.0000   0.0000   0.0000   0.0000   0.0000   0.0000

          k = 0.2857 0.4949 0.2368 (  2005 PWs)   bands (ev):

     3.2599   3.2941   3.4466   3.5015   3.6193   3.7230   3.8767   3.9189
     4.2310   4.2833   9.7252  10.6011  13.8700  14.0517  14.8003  14.9923

     occupation numbers 
     1.0000   1.0000   1.0000   1.0000   1.0000   1.0000   1.0000   1.0000
     1.0000   1.0000   1.0000   1.0000   0.0000   0.0000   0.0000   0.0000

          k = 0.2857 0.5774 0.0000 (  2013 PWs)   bands (ev):

     3.2407   3.3729   3.4233   3.6034   3.6149   3.6353   3.8332   4.0993
     4.1249   4.1908  10.4932  10.5259  12.5579  15.9701  16.7783  16.9649

     occupation numbers 
     1.0000   1.0000   1.0000   1.0000   1.0000   1.0000   1.0000   1.0000
     1.0000   1.0000   1.0000   1.0000   0.0000   0.0000   0.0000   0.0000

          k = 0.2857 0.5774 0.0789 (  2004 PWs)   bands (ev):

     3.2529   3.3773   3.4198   3.5327   3.6143   3.6892   3.8444   4.0653
     4.1411   4.2051  10.6269  10.6328  12.6809  15.1695  15.2206  17.1029

     occupation numbers 
     1.0000   1.0000   1.0000   1.0000   1.0000   1.0000   1.0000   1.0000
     1.0000   1.0000   1.0000   1.0000   0.0000   0.0000   0.0000   0.0000

          k = 0.2857 0.5774 0.1579 (  2009 PWs)   bands (ev):

     3.2753   3.3745   3.4341   3.4686   3.6135   3.7210   3.8638   3.9830
     4.1830   4.2333  10.9519  11.0104  12.9878  13.9360  13.9360  15.8612

     occupation numbers 
     1.0000   1.0000   1.0000   1.0000   1.0000   1.0000   1.0000   1.0000
     1.0000   1.0000   1.0000   1.0000   0.0000   0.0000   0.0000   0.0000

          k = 0.2857 0.5774 0.2368 (  2005 PWs)   bands (ev):

     3.2977   3.3349   3.4630   3.4633   3.6382   3.6986   3.8791   3.9085
     4.2271   4.2464  11.4360  11.5273  12.7038  12.9037  13.8999  14.7511

     occupation numbers 
     1.0000   1.0000   1.0000   1.0000   1.0000   1.0000   1.0000   1.0000
     1.0000   1.0000   0.0000   0.0000   0.0000   0.0000   0.0000   0.0000

 ------ SPIN DOWN ----------


          k = 0.0000 0.0000 0.0000 (  2017 PWs)   bands (ev):

     0.7650   2.7103   3.4354   3.6384   3.6384   3.6965   3.6965   3.9933
     3.9933   4.2349   4.2349   7.6816   8.5394  25.7911  28.2369  28.2370

     occupation numbers 
     1.0000   1.0000   1.0000   1.0000   1.0000   1.0000   1.0000   1.0000
     1.0000   1.0000   1.0000   1.0000   1.0000   0.0000   0.0000   0.0000

          k = 0.0000 0.0000 0.0789 (  2005 PWs)   bands (ev):

     0.8954   2.6985   3.4349   3.6354   3.6354   3.6895   3.6895   4.0111
     4.0111   4.2272   4.2272   6.2975  10.2039  23.7174  28.3663  28.3664

     occupation numbers 
     1.0000   1.0000   1.0000   1.0000   1.0000   1.0000   1.0000   1.0000
     1.0000   1.0000   1.0000   1.0000   1.0000   0.0000   0.0000   0.0000

          k = 0.0000 0.0000 0.1579 (  2010 PWs)   bands (ev):

     1.2736   2.6314   3.4480   3.6320   3.6320   3.6717   3.6717   4.0563
     4.0563   4.2035   4.2035   4.8883  12.4817  20.7006  28.7404  28.7405

     occupation numbers 
     1.0000   1.0000   1.0000   1.0000   1.0000   1.0000   1.0000   1.0000
     1.0000   1.0000   1.0000   1.0000   0.0000   0.0000   0.0000   0.0000

          k = 0.0000 0.0000 0.2368 (  2034 PWs)   bands (ev):

     1.8381   2.3783   3.5416   3.6365   3.6365   3.6512   3.6512   3.9327
     4.1120   4.1120   4.1640   4.1640  15.0119  17.7633  29.2979  29.2980

     occupation numbers 
     1.0000   1.0000   1.0000   1.0000   1.0000   1.0000   1.0000   1.0000
     1.0000   1.0000   1.0000   1.0000   0.0000   0.0000   0.0000   0.0000

          k = 0.0000 0.0825 0.0000 (  2005 PWs)   bands (ev):

     0.9144   2.7732   3.4474   3.6267   3.6734   3.6813   3.7295   3.9618
     3.9786   4.1503   4.2375   7.9228   8.6184  25.8216  25.9479  26.9861

     occupation numbers 
     1.0000   1.0000   1.0000   1.0000   1.0000   1.0000   1.0000   1.0000
     1.0000   1.0000   1.0000   1.0000   1.0000   0.0000   0.0000   0.0000

          k = 0.0000 0.0825 0.0789 (  2007 PWs)   bands (ev):

     1.0438   2.7654   3.4465   3.6203   3.6697   3.6724   3.7222   3.9847
     3.9980   4.1345   4.2290   6.4852  10.3415  23.8476  25.9710  27.1228

     occupation numbers 
     1.0000   1.0000   1.0000   1.0000   1.0000   1.0000   1.0000   1.0000
     1.0000   1.0000   1.0000   1.0000   1.0000   0.0000   0.0000   0.0000

          k = 0.0000 0.0825 0.1579 (  2019 PWs)   bands (ev):

     1.4188   2.7129   3.4542   3.6123   3.6501   3.6652   3.7041   4.0321
     4.0464   4.0796   4.2033   5.1037  12.6223  20.8345  26.3579  27.5284

     occupation numbers 
     1.0000   1.0000   1.0000   1.0000   1.0000   1.0000   1.0000   1.0000
     1.0000   1.0000   1.0000   1.0000   0.0000   0.0000   0.0000   0.0000

          k = 0.0000 0.0825 0.2368 (  2017 PWs)   bands (ev):

     1.9744   2.4899   3.5209   3.6185   3.6242   3.6690   3.6836   3.8161
     4.1055   4.1395   4.1608   4.3293  15.1512  17.9003  26.9957  27.8730

     occupation numbers 
     1.0000   1.0000   1.0000   1.0000   1.0000   1.0000   1.0000   1.0000
     1.0000   1.0000   1.0000   1.0000   0.0000   0.0000   0.0000   0.0000

          k = 0.0000 0.1650 0.0000 (  2007 PWs)   bands (ev):

     1.3525   2.9324   3.4617   3.6040   3.6732   3.7729   3.8229   3.8337
     3.9401   3.9994   4.2424   8.5804   8.8723  22.4911  25.3439  26.3483

     occupation numbers 
     1.0000   1.0000   1.0000   1.0000   1.0000   1.0000   1.0000   1.0000
     1.0000   1.0000   1.0000   1.0000   1.0000   0.0000   0.0000   0.0000

          k = 0.0000 0.1650 0.0789 (  2003 PWs)   bands (ev):

     1.4779   2.9346   3.4643   3.5879   3.6483   3.7659   3.8145   3.8550
     3.9655   4.0015   4.2321   6.9756  10.7608  22.6044  24.2752  25.4891

     occupation numbers 
     1.0000   1.0000   1.0000   1.0000   1.0000   1.0000   1.0000   1.0000
     1.0000   1.0000   1.0000   1.0000   1.0000   0.0000   0.0000   0.0000

          k = 0.0000 0.1650 0.1579 (  2016 PWs)   bands (ev):

     1.8380   2.9196   3.4667   3.5612   3.6029   3.7571   3.7953   3.8268
[...]
     1.0000   1.0000   1.0000   1.0000   1.0000   0.0000   0.0000   0.0000

          k = 0.1429 0.2474 0.0789 (  2009 PWs)   bands (ev):

     2.5054   3.2259   3.4018   3.4944   3.6085   3.6218   3.8677   3.9167
     4.0705   4.1442   4.2542   8.1128  11.9062  19.6432  19.9305  24.1860

     occupation numbers 
     1.0000   1.0000   1.0000   1.0000   1.0000   1.0000   1.0000   1.0000
     1.0000   1.0000   1.0000   1.0000   0.0000   0.0000   0.0000   0.0000

          k = 0.1429 0.2474 0.1579 (  2010 PWs)   bands (ev):

     2.7552   3.2726   3.4101   3.4326   3.5319   3.6108   3.8947   4.0474
     4.0809   4.1172   4.3323   6.6477  14.1614  20.0525  20.2552  22.3871

     occupation numbers 
     1.0000   1.0000   1.0000   1.0000   1.0000   1.0000   1.0000   1.0000
     1.0000   1.0000   1.0000   1.0000   0.0000   0.0000   0.0000   0.0000

          k = 0.1429 0.2474 0.2368 (  2014 PWs)   bands (ev):

     3.0482   3.2619   3.3600   3.4396   3.4899   3.5592   3.9260   3.9930
     4.1522   4.1578   4.7017   5.4936  16.6407  19.2529  20.7264  21.1904

     occupation numbers 
     1.0000   1.0000   1.0000   1.0000   1.0000   1.0000   1.0000   1.0000
     1.0000   1.0000   1.0000   1.0000   0.0000   0.0000   0.0000   0.0000

          k = 0.1429 0.3299 0.0000 (  2011 PWs)   bands (ev):

     3.0222   3.2288   3.3836   3.4562   3.6074   3.6864   3.8182   3.8841
     4.1966   4.2044   4.6862  10.4789  11.2581  16.6841  18.6263  22.6403

     occupation numbers 
     1.0000   1.0000   1.0000   1.0000   1.0000   1.0000   1.0000   1.0000
     1.0000   1.0000   1.0000   1.0000   0.6483   0.0000   0.0000   0.0000

          k = 0.1429 0.3299 0.0789 (  2005 PWs)   bands (ev):

     3.0428   3.2447   3.3694   3.4608   3.5691   3.7341   3.8660   3.8939
     4.1729   4.2134   4.7392   9.0749  12.9092  16.8173  18.7602  21.4092

     occupation numbers 
     1.0000   1.0000   1.0000   1.0000   1.0000   1.0000   1.0000   1.0000
     1.0000   1.0000   1.0000   1.0000   0.0000   0.0000   0.0000   0.0000

          k = 0.1429 0.3299 0.1579 (  2004 PWs)   bands (ev):

     3.0937   3.2923   3.3096   3.4821   3.5556   3.7173   3.8706   4.0815
     4.0967   4.2438   4.9602   7.6040  15.1128  17.2108  19.1512  20.0527

     occupation numbers 
     1.0000   1.0000   1.0000   1.0000   1.0000   1.0000   1.0000   1.0000
     1.0000   1.0000   1.0000   1.0000   0.0000   0.0000   0.0000   0.0000

          k = 0.1429 0.3299 0.2368 (  2002 PWs)   bands (ev):

     3.1599   3.2342   3.3636   3.4373   3.6074   3.6679   3.9144   3.9987
     4.2187   4.2570   5.5025   6.4002  17.4355  17.8250  18.9997  19.6343

     occupation numbers 
     1.0000   1.0000   1.0000   1.0000   1.0000   1.0000   1.0000   1.0000
     1.0000   1.0000   1.0000   1.0000   0.0000   0.0000   0.0000   0.0000

          k = 0.1429 0.4124 0.0000 (  2005 PWs)   bands (ev):

     3.1365   3.1860   3.2638   3.6469   3.6838   3.7276   3.8074   4.0071
     4.1910   4.3035   5.7048  11.5680  12.6501  14.0196  17.8497  19.9310

     occupation numbers 
     1.0000   1.0000   1.0000   1.0000   1.0000   1.0000   1.0000   1.0000
     1.0000   1.0000   1.0000   0.0000   0.0000   0.0000   0.0000   0.0000

          k = 0.1429 0.4124 0.0789 (  2012 PWs)   bands (ev):

     3.1196   3.1651   3.3284   3.5002   3.6745   3.8185   3.9068   4.0032
     4.1609   4.3135   5.8015  10.3021  13.9965  14.2871  17.9873  18.7685

     occupation numbers 
     1.0000   1.0000   1.0000   1.0000   1.0000   1.0000   1.0000   1.0000
     1.0000   1.0000   1.0000   1.0000   0.0000   0.0000   0.0000   0.0000

          k = 0.1429 0.4124 0.1579 (  2006 PWs)   bands (ev):

     3.0890   3.1925   3.3318   3.4075   3.6971   3.8571   3.9637   4.0766
     4.1231   4.3299   6.1258   8.8569  14.5089  16.0828  17.6449  18.3930

     occupation numbers 
     1.0000   1.0000   1.0000   1.0000   1.0000   1.0000   1.0000   1.0000
     1.0000   1.0000   1.0000   1.0000   0.0000   0.0000   0.0000   0.0000

          k = 0.1429 0.4124 0.2368 (  2002 PWs)   bands (ev):

     3.1076   3.1676   3.3138   3.3684   3.7898   3.8774   3.9355   3.9838
     4.2573   4.3214   6.7378   7.6552  15.1525  15.9888  18.8663  19.0327

     occupation numbers 
     1.0000   1.0000   1.0000   1.0000   1.0000   1.0000   1.0000   1.0000
     1.0000   1.0000   1.0000   1.0000   0.0000   0.0000   0.0000   0.0000

          k = 0.1429 0.4949 0.0000 (  2006 PWs)   bands (ev):

     3.0723   3.1692   3.1914   3.6393   3.7345   3.7683   3.8823   4.1821
     4.1838   4.3380   7.2308  11.2646  13.3277  14.1965  17.3705  17.5062

     occupation numbers 
     1.0000   1.0000   1.0000   1.0000   1.0000   1.0000   1.0000   1.0000
     1.0000   1.0000   1.0000   0.0984   0.0000   0.0000   0.0000   0.0000

          k = 0.1429 0.4949 0.0789 (  2013 PWs)   bands (ev):

     3.0768   3.0957   3.2886   3.5239   3.6867   3.8457   3.9920   4.1511
     4.1778   4.3426   7.3431  11.1324  12.3709  15.2538  16.8038  17.5131

     occupation numbers 
     1.0000   1.0000   1.0000   1.0000   1.0000   1.0000   1.0000   1.0000
     1.0000   1.0000   1.0000   1.0000   0.0000   0.0000   0.0000   0.0000

          k = 0.1429 0.4949 0.1579 (  2006 PWs)   bands (ev):

     3.0406   3.1191   3.3410   3.3664   3.6985   3.9529   4.0594   4.1303
     4.1692   4.3464   7.6923  10.2482  12.2380  14.6654  17.9258  18.1268

     occupation numbers 
     1.0000   1.0000   1.0000   1.0000   1.0000   1.0000   1.0000   1.0000
     1.0000   1.0000   1.0000   1.0000   0.0000   0.0000   0.0000   0.0000

          k = 0.1429 0.4949 0.2368 (  2011 PWs)   bands (ev):

     3.0574   3.1126   3.2883   3.3212   3.8001   3.9324   4.0515   4.1129
     4.2567   4.3239   8.3005   9.1709  12.7763  13.6181  18.5921  19.3952

     occupation numbers 
     1.0000   1.0000   1.0000   1.0000   1.0000   1.0000   1.0000   1.0000
     1.0000   1.0000   1.0000   1.0000   0.0000   0.0000   0.0000   0.0000

          k = 0.1429 0.5774 0.0000 (  2014 PWs)   bands (ev):

     3.0482   3.1568   3.1675   3.6518   3.6933   3.7956   3.9360   4.1789
     4.2852   4.3077   8.9059   9.3628  14.5630  15.3122  15.8715  17.2125

     occupation numbers 
     1.0000   1.0000   1.0000   1.0000   1.0000   1.0000   1.0000   1.0000
     1.0000   1.0000   1.0000   1.0000   0.0000   0.0000   0.0000   0.0000

          k = 0.1429 0.5774 0.0789 (  2012 PWs)   bands (ev):

     3.0618   3.0666   3.2723   3.5372   3.6634   3.8714   4.0257   4.1476
     4.2826   4.3079   9.0281   9.4423  13.8178  13.9293  17.3521  17.5235

     occupation numbers 
     1.0000   1.0000   1.0000   1.0000   1.0000   1.0000   1.0000   1.0000
     1.0000   1.0000   1.0000   1.0000   0.0000   0.0000   0.0000   0.0000

          k = 0.1429 0.5774 0.1579 (  2013 PWs)   bands (ev):

     3.0221   3.0926   3.3282   3.3682   3.6837   4.0062   4.0526   4.1413
     4.2748   4.3015   9.3757   9.6714  12.6217  12.6487  17.7683  19.6215

     occupation numbers 
     1.0000   1.0000   1.0000   1.0000   1.0000   1.0000   1.0000   1.0000
     1.0000   1.0000   1.0000   1.0000   0.0000   0.0000   0.0000   0.0000

          k = 0.1429 0.5774 0.2368 (  2015 PWs)   bands (ev):

     3.0390   3.0915   3.2809   3.3050   3.7907   3.9278   4.1367   4.1907
     4.2636   4.2735   9.8304   9.9464  11.7577  11.7687  18.4411  19.3262

     occupation numbers 
     1.0000   1.0000   1.0000   1.0000   1.0000   1.0000   1.0000   1.0000
     1.0000   1.0000   1.0000   1.0000   0.0000   0.0000   0.0000   0.0000

          k = 0.2143 0.3712 0.0000 (  2001 PWs)   bands (ev):

     3.2673   3.2963   3.3362   3.4915   3.6242   3.6687   3.8290   3.8729
     4.1718   4.3006   5.6263  11.4983  12.5115  15.6381  15.9650  21.6823

     occupation numbers 
     1.0000   1.0000   1.0000   1.0000   1.0000   1.0000   1.0000   1.0000
     1.0000   1.0000   1.0000   0.0000   0.0000   0.0000   0.0000   0.0000

          k = 0.2143 0.3712 0.0789 (  2007 PWs)   bands (ev):

     3.2570   3.2791   3.3888   3.3963   3.6533   3.7158   3.8233   3.9300
     4.1414   4.3123   5.7201  10.1988  14.0415  15.7746  16.0979  20.3558

     occupation numbers 
     1.0000   1.0000   1.0000   1.0000   1.0000   1.0000   1.0000   1.0000
     1.0000   1.0000   1.0000   1.0000   0.0000   0.0000   0.0000   0.0000

          k = 0.2143 0.3712 0.1579 (  1999 PWs)   bands (ev):

     3.2233   3.2626   3.3508   3.4778   3.6127   3.7283   3.8282   4.0548
     4.1109   4.3307   6.0353   8.7479  16.1145  16.2087  16.4887  18.9524

     occupation numbers 
     1.0000   1.0000   1.0000   1.0000   1.0000   1.0000   1.0000   1.0000
     1.0000   1.0000   1.0000   1.0000   0.0000   0.0000   0.0000   0.0000

          k = 0.2143 0.3712 0.2368 (  2006 PWs)   bands (ev):

     3.2089   3.2195   3.4121   3.4823   3.6242   3.6862   3.8716   3.9568
     4.2553   4.3229   6.6369   7.5478  16.8491  17.1019  17.6383  17.7779

     occupation numbers 
     1.0000   1.0000   1.0000   1.0000   1.0000   1.0000   1.0000   1.0000
     1.0000   1.0000   1.0000   1.0000   0.0000   0.0000   0.0000   0.0000

          k = 0.2143 0.4536 0.0000 (  2014 PWs)   bands (ev):

     3.2396   3.2453   3.3277   3.6026   3.6700   3.7536   3.7551   3.9957
     4.1463   4.3262   7.0030  12.5920  13.4733  13.9788  15.1991  19.1786

     occupation numbers 
     1.0000   1.0000   1.0000   1.0000   1.0000   1.0000   1.0000   1.0000
     1.0000   1.0000   1.0000   0.0000   0.0000   0.0000   0.0000   0.0000

          k = 0.2143 0.4536 0.0789 (  2007 PWs)   bands (ev):

     3.2048   3.2614   3.3810   3.4803   3.6649   3.7890   3.8324   4.0164
     4.1145   4.3344   7.1168  11.5561  13.4024  15.3079  15.4059  18.0588

     occupation numbers 
     1.0000   1.0000   1.0000   1.0000   1.0000   1.0000   1.0000   1.0000
     1.0000   1.0000   1.0000   0.0000   0.0000   0.0000   0.0000   0.0000

          k = 0.2143 0.4536 0.1579 (  2009 PWs)   bands (ev):

     3.1766   3.3059   3.3307   3.4829   3.6140   3.8222   3.8833   4.0299
     4.1266   4.3443   7.4717  10.1691  13.7737  15.7334  16.2606  17.6825

     occupation numbers 
     1.0000   1.0000   1.0000   1.0000   1.0000   1.0000   1.0000   1.0000
     1.0000   1.0000   1.0000   1.0000   0.0000   0.0000   0.0000   0.0000

          k = 0.2143 0.4536 0.2368 (  2000 PWs)   bands (ev):

     3.1861   3.2380   3.3749   3.4515   3.6846   3.7916   3.8964   3.9450
     4.2521   4.3252   8.0940   8.9970  14.4162  15.2947  16.3979  17.2626

     occupation numbers 
     1.0000   1.0000   1.0000   1.0000   1.0000   1.0000   1.0000   1.0000
     1.0000   1.0000   1.0000   1.0000   0.0000   0.0000   0.0000   0.0000

          k = 0.2143 0.5361 0.0000 (  2007 PWs)   bands (ev):

     3.2111   3.2124   3.3160   3.6228   3.6783   3.7567   3.8038   4.1327
     4.1399   4.2774   8.7327  10.7769  14.5713  14.9040  15.5197  16.9503

     occupation numbers 
     1.0000   1.0000   1.0000   1.0000   1.0000   1.0000   1.0000   1.0000
     1.0000   1.0000   1.0000   1.0000   0.0000   0.0000   0.0000   0.0000

          k = 0.2143 0.5361 0.0789 (  2009 PWs)   bands (ev):

     3.1764   3.2265   3.3808   3.5252   3.6154   3.8359   3.8708   4.0998
     4.1449   4.2844   8.8516  10.8670  13.4943  14.9964  15.3680  17.4453

     occupation numbers 
     1.0000   1.0000   1.0000   1.0000   1.0000   1.0000   1.0000   1.0000
     1.0000   1.0000   1.0000   1.0000   0.0000   0.0000   0.0000   0.0000

          k = 0.2143 0.5361 0.1579 (  2012 PWs)   bands (ev):

     3.1518   3.2672   3.3806   3.4684   3.5699   3.8921   3.9541   4.0305
     4.1718   4.2939   9.2090  11.0166  12.3587  14.1327  15.4300  18.0270

     occupation numbers 
     1.0000   1.0000   1.0000   1.0000   1.0000   1.0000   1.0000   1.0000
     1.0000   1.0000   1.0000   1.0000   0.0000   0.0000   0.0000   0.0000

          k = 0.2143 0.5361 0.2368 (  2015 PWs)   bands (ev):

     3.1748   3.2461   3.3482   3.4202   3.6770   3.8174   3.9897   4.0121
     4.2310   4.2805   9.8001  10.5640  12.2975  13.0564  16.0927  16.9923

     occupation numbers 
     1.0000   1.0000   1.0000   1.0000   1.0000   1.0000   1.0000   1.0000
     1.0000   1.0000   1.0000   1.0000   0.0000   0.0000   0.0000   0.0000

          k = 0.2857 0.4949 0.0000 (  2003 PWs)   bands (ev):

     3.2379   3.3390   3.3966   3.5938   3.6314   3.6860   3.8060   4.0471
     4.1120   4.2706   8.6127  12.4904  12.8583  14.5724  15.5059  18.5453

     occupation numbers 
     1.0000   1.0000   1.0000   1.0000   1.0000   1.0000   1.0000   1.0000
     1.0000   1.0000   1.0000   0.0000   0.0000   0.0000   0.0000   0.0000

          k = 0.2857 0.4949 0.0789 (  2011 PWs)   bands (ev):

     3.2389   3.3462   3.4234   3.4883   3.6509   3.7255   3.8234   4.0718
     4.0787   4.2799   8.7343  12.4581  12.9968  13.5387  16.5212  17.3450

     occupation numbers 
     1.0000   1.0000   1.0000   1.0000   1.0000   1.0000   1.0000   1.0000
     1.0000   1.0000   1.0000   0.0000   0.0000   0.0000   0.0000   0.0000

          k = 0.2857 0.4949 0.1579 (  2016 PWs)   bands (ev):

     3.2443   3.3431   3.4188   3.4947   3.5869   3.7683   3.8496   3.9968
     4.1458   4.2935   9.1026  11.6799  13.3169  13.4051  15.9350  16.0192

     occupation numbers 
     1.0000   1.0000   1.0000   1.0000   1.0000   1.0000   1.0000   1.0000
     1.0000   1.0000   1.0000   0.0000   0.0000   0.0000   0.0000   0.0000

          k = 0.2857 0.4949 0.2368 (  2005 PWs)   bands (ev):

     3.2599   3.2941   3.4466   3.5015   3.6193   3.7230   3.8767   3.9189
     4.2310   4.2833   9.7252  10.6011  13.8700  14.0517  14.8003  14.9924

     occupation numbers 
     1.0000   1.0000   1.0000   1.0000   1.0000   1.0000   1.0000   1.0000
     1.0000   1.0000   1.0000   1.0000   0.0000   0.0000   0.0000   0.0000

          k = 0.2857 0.5774 0.0000 (  2013 PWs)   bands (ev):

     3.2407   3.3729   3.4233   3.6034   3.6149   3.6353   3.8332   4.0993
     4.1249   4.1908  10.4933  10.5259  12.5580  15.9701  16.7784  16.9650

     occupation numbers 
     1.0000   1.0000   1.0000   1.0000   1.0000   1.0000   1.0000   1.0000
     1.0000   1.0000   1.0000   1.0000   0.0000   0.0000   0.0000   0.0000

          k = 0.2857 0.5774 0.0789 (  2004 PWs)   bands (ev):

     3.2529   3.3773   3.4198   3.5327   3.6143   3.6892   3.8444   4.0653
     4.1411   4.2051  10.6269  10.6328  12.6809  15.1696  15.2206  17.1030

     occupation numbers 
     1.0000   1.0000   1.0000   1.0000   1.0000   1.0000   1.0000   1.0000
     1.0000   1.0000   1.0000   1.0000   0.0000   0.0000   0.0000   0.0000

          k = 0.2857 0.5774 0.1579 (  2009 PWs)   bands (ev):

     3.2753   3.3745   3.4341   3.4686   3.6135   3.7211   3.8638   3.9830
     4.1830   4.2333  10.9519  11.0104  12.9879  13.9361  13.9361  15.8612

     occupation numbers 
     1.0000   1.0000   1.0000   1.0000   1.0000   1.0000   1.0000   1.0000
     1.0000   1.0000   1.0000   1.0000   0.0000   0.0000   0.0000   0.0000

          k = 0.2857 0.5774 0.2368 (  2005 PWs)   bands (ev):

     3.2977   3.3349   3.4630   3.4634   3.6382   3.6986   3.8791   3.9085
     4.2271   4.2464  11.4360  11.5273  12.7038  12.9038  13.8999  14.7511

     occupation numbers 
     1.0000   1.0000   1.0000   1.0000   1.0000   1.0000   1.0000   1.0000
     1.0000   1.0000   0.0000   0.0000   0.0000   0.0000   0.0000   0.0000

     the Fermi energy is    11.2604 ev

!    total energy              =    -487.44696057 Ry
     total all-electron energy =     -7184.241006 Ry
     estimated scf accuracy    <       0.00000276 Ry
     smearing contrib. (-TS)   =      -0.00000191 Ry
     internal energy E=F+TS    =    -487.44695865 Ry

     The total energy is F=E-TS. E is the sum of the following terms:
     one-electron contribution =    -115.09929376 Ry
     hartree contribution      =      90.89281852 Ry
     xc contribution           =     -94.36468615 Ry
     ewald contribution        =    -178.00474559 Ry
     one-center paw contrib.   =    -190.87105167 Ry
      -> PAW hartree energy AE =     121.92760450 Ry
      -> PAW hartree energy PS =    -121.30367614 Ry
      -> PAW xc energy AE      =    -143.07103514 Ry
      -> PAW xc energy PS      =      47.01158095 Ry
      -> total E_H with PAW    =      91.51674688 Ry
      -> total E_XC with PAW   =    -190.42414034 Ry

     total magnetization       =     0.00 Bohr mag/cell
     absolute magnetization    =     0.00 Bohr mag/cell

     convergence has been achieved in   5 iterations

     Writing all to output data dir ./out/Zn.save/
 
     init_run     :      0.39s CPU      0.44s WALL (       1 calls)
     electrons    :      5.25s CPU      5.73s WALL (       1 calls)

     Called by init_run:
     wfcinit      :      0.24s CPU      0.26s WALL (       1 calls)
     wfcinit:atom :      0.00s CPU      0.00s WALL (      96 calls)
     wfcinit:wfcr :      0.23s CPU      0.24s WALL (      96 calls)
     potinit      :      0.10s CPU      0.13s WALL (       1 calls)
     hinit0       :      0.04s CPU      0.04s WALL (       1 calls)

     Called by electrons:
     c_bands      :      4.14s CPU      4.47s WALL (       6 calls)
     sum_band     :      0.63s CPU      0.67s WALL (       6 calls)
     v_of_rho     :      0.02s CPU      0.02s WALL (       6 calls)
     v_h          :      0.00s CPU      0.00s WALL (       6 calls)
     v_xc         :      0.02s CPU      0.02s WALL (       6 calls)
     newd         :      0.01s CPU      0.01s WALL (       6 calls)
     PAW_pot      :      0.53s CPU      0.66s WALL (       6 calls)
     mix_rho      :      0.00s CPU      0.00s WALL (       6 calls)

     Called by c_bands:
     init_us_2    :      0.04s CPU      0.05s WALL (    1248 calls)
     init_us_2:cp :      0.04s CPU      0.04s WALL (    1248 calls)
     cegterg      :      3.86s CPU      4.06s WALL (     576 calls)

     Called by sum_band:
     sum_band:wei :      0.01s CPU      0.01s WALL (       6 calls)
     sum_band:loo :      0.60s CPU      0.62s WALL (       6 calls)
     sum_band:buf :      0.00s CPU      0.00s WALL (     576 calls)
     sum_band:ini :      0.02s CPU      0.02s WALL (     576 calls)
     sum_band:cal :      0.05s CPU      0.05s WALL (     576 calls)
     sum_band:bec :      0.00s CPU      0.00s WALL (     576 calls)
     addusdens    :      0.02s CPU      0.02s WALL (       6 calls)
                                        0.00s GPU  (       6 calls)
     addusd:skk   :      0.00s CPU      0.00s WALL (       6 calls)
                                        0.00s GPU  (       6 calls)

     Called by *egterg:
     cdiaghg      :      0.67s CPU      0.70s WALL (    2409 calls)
     cegterg:over :      0.10s CPU      0.10s WALL (    1929 calls)
     cegterg:upda :      0.02s CPU      0.03s WALL (    1929 calls)
     cegterg:last :      0.04s CPU      0.04s WALL (    1308 calls)
     h_psi        :      3.10s CPU      3.26s WALL (    2601 calls)
     s_psi        :      0.05s CPU      0.06s WALL (    2601 calls)
     g_psi        :      0.01s CPU      0.01s WALL (    1929 calls)

     Called by h_psi:
     h_psi:calbec :      0.14s CPU      0.15s WALL (    2601 calls)
     vloc_psi     :      2.89s CPU      3.03s WALL (    2601 calls)
     add_vuspsi   :      0.06s CPU      0.06s WALL (    2601 calls)

     General routines
     calbec       :      0.18s CPU      0.19s WALL (    3177 calls)
     fft          :      0.01s CPU      0.01s WALL (     126 calls)
     ffts         :      0.00s CPU      0.00s WALL (      12 calls)
     fftw         :      3.16s CPU      3.31s WALL (   63862 calls)
 
     Parallel routines

     PAW routines
     PAW_pot      :      0.53s CPU      0.66s WALL (       6 calls)
     PAW_symme    :      0.01s CPU      0.01s WALL (      12 calls)
 
     PWSCF        :      5.86s CPU      6.69s WALL

 
   This run was terminated on:   4: 3:29  13Mar2024            

=------------------------------------------------------------------------------=
   JOB DONE.
=------------------------------------------------------------------------------=
