
     Program PWSCF v.7.2 starts on 13Mar2024 at  4: 5:12 

     This program is part of the open-source Quantum ESPRESSO suite
     for quantum simulation of materials; please cite
         "P. Giannozzi et al., J. Phys.:Condens. Matter 21 395502 (2009);
         "P. Giannozzi et al., J. Phys.:Condens. Matter 29 465901 (2017);
         "P. Giannozzi et al., J. Chem. Phys. 152 154105 (2020);
          URL http://www.quantum-espresso.org", 
     in publications or presentations arising from this work. More details at
     http://www.quantum-espresso.org/quote

     Parallel version (MPI), running on    28 processors

     MPI processes distributed on     1 nodes
     167778 MiB available memory on the printing compute node when the environment starts
 
     Waiting for input...
     Reading input from standard input

     Current dimensions of program PWSCF are:
     Max number of different atomic species (ntypx) = 10
     Max number of k-points (npk) = 120000
     Max angular momentum in pseudopotentials (lmaxx) =  4
     file Zn.pbe-dnl-kjpaw_psl.1.0.0.UPF: wavefunction(s)  4S 3D renormalized
 
     K-points division:     npool     =       2
     R & G space division:  proc/nbgrp/npool/nimage =      14
     Subspace diagonalization in iterative solution of the eigenvalue problem:
     a serial algorithm will be used

 
     Parallelization info
     --------------------
     sticks:   dense  smooth     PW     G-vecs:    dense   smooth      PW
     Min          35      35     10                 1169     1169     192
     Max          36      36     11                 1178     1178     199
     Sum         499     499    151                16435    16435    2757
 
     Using Slab Decomposition
 


     bravais-lattice index     =            4
     lattice parameter (alat)  =       5.1000  a.u.
     unit-cell volume          =     207.9312 (a.u.)^3
     number of atoms/cell      =            2
     number of atomic types    =            1
     number of electrons       =        24.00
     number of Kohn-Sham states=           16
     kinetic-energy cutoff     =      70.0000  Ry
     charge density cutoff     =     280.0000  Ry
     scf convergence threshold =      4.0E-06
     mixing beta               =       0.7000
     number of iterations used =            8  plain     mixing
     Exchange-correlation= SLA  PW   PBX  PBC
                           (   1   4   3   4   0   0   0)

     celldm(1)=   5.100000  celldm(2)=   0.000000  celldm(3)=   1.810000
     celldm(4)=   0.000000  celldm(5)=   0.000000  celldm(6)=   0.000000

     crystal axes: (cart. coord. in units of alat)
               a(1) = (   1.000000   0.000000   0.000000 )  
               a(2) = (  -0.500000   0.866025   0.000000 )  
               a(3) = (   0.000000   0.000000   1.810000 )  

     reciprocal axes: (cart. coord. in units 2 pi/alat)
               b(1) = (  1.000000  0.577350  0.000000 )  
               b(2) = (  0.000000  1.154701  0.000000 )  
               b(3) = (  0.000000  0.000000  0.552486 )  


     PseudoPot. # 1 for Zn read from file:
     /truba/home/amuhaymin/ZnS/pseudo/QE/Zn.pbe-dnl-kjpaw_psl.1.0.0.UPF
     MD5 check sum: c608214d9520ac179f507641260889e3
     Pseudo is Projector augmented-wave + core cor, Zval = 12.0
     Generated using &quot;atomic&quot; code by A. Dal Corso  v.6.2.2
     Shape of augmentation charge: PSQ
     Using radial grid of 1201 points,  6 beta functions with: 
                l(1) =   0
                l(2) =   0
                l(3) =   1
                l(4) =   1
                l(5) =   2
                l(6) =   2
     Q(r) pseudized with 0 coefficients 


     atomic species   valence    mass     pseudopotential
        Zn            12.00    65.38000     Zn( 1.00)

     Starting magnetic structure 
     atomic species   magnetization
        Zn           0.000

     24 Sym. Ops., with inversion, found (12 have fractional translation)


                                    s                        frac. trans.

      isym =  1     identity                                     

 cryst.   s( 1) = (     1          0          0      )
                  (     0          1          0      )
                  (     0          0          1      )

 cart.    s( 1) = (  1.0000000  0.0000000  0.0000000 )
                  (  0.0000000  1.0000000  0.0000000 )
                  (  0.0000000  0.0000000  1.0000000 )


      isym =  2     180 deg rotation - cart. axis [0,0,1]        

 cryst.   s( 2) = (    -1          0          0      )    f =(  0.0000000 )
                  (     0         -1          0      )       (  0.0000000 )
                  (     0          0          1      )       ( -0.5000000 )

 cart.    s( 2) = ( -1.0000000  0.0000000  0.0000000 )    f =(  0.0000000 )
                  (  0.0000000 -1.0000000  0.0000000 )       (  0.0000000 )
                  (  0.0000000  0.0000000  1.0000000 )       ( -0.9050000 )


      isym =  3     180 deg rotation - cart. axis [0,1,0]        

 cryst.   s( 3) = (    -1          0          0      )    f =(  0.0000000 )
                  (     1          1          0      )       (  0.0000000 )
                  (     0          0         -1      )       (  0.5000000 )

 cart.    s( 3) = ( -1.0000000  0.0000000  0.0000000 )    f =(  0.0000000 )
                  (  0.0000000  1.0000000  0.0000000 )       (  0.0000000 )
                  (  0.0000000  0.0000000 -1.0000000 )       (  0.9050000 )


      isym =  4     180 deg rotation - cart. axis [1,0,0]        

 cryst.   s( 4) = (     1          0          0      )
                  (    -1         -1          0      )
                  (     0          0         -1      )

 cart.    s( 4) = (  1.0000000  0.0000000  0.0000000 )
                  (  0.0000000 -1.0000000  0.0000000 )
                  (  0.0000000  0.0000000 -1.0000000 )


      isym =  5      60 deg rotation - cryst. axis [0,0,1]       

 cryst.   s( 5) = (     1          1          0      )    f =(  0.0000000 )
                  (    -1          0          0      )       ( -0.0000000 )
                  (     0          0          1      )       ( -0.5000000 )

 cart.    s( 5) = (  0.5000000 -0.8660254  0.0000000 )    f =(  0.0000000 )
                  (  0.8660254  0.5000000  0.0000000 )       ( -0.0000000 )
                  (  0.0000000  0.0000000  1.0000000 )       ( -0.9050000 )


      isym =  6      60 deg rotation - cryst. axis [0,0,-1]      

 cryst.   s( 6) = (     0         -1          0      )    f =(  0.0000000 )
                  (     1          1          0      )       ( -0.0000000 )
                  (     0          0          1      )       ( -0.5000000 )

 cart.    s( 6) = (  0.5000000  0.8660254  0.0000000 )    f =(  0.0000000 )
                  ( -0.8660254  0.5000000  0.0000000 )       ( -0.0000000 )
                  (  0.0000000  0.0000000  1.0000000 )       ( -0.9050000 )


      isym =  7     120 deg rotation - cryst. axis [0,0,1]       

 cryst.   s( 7) = (     0          1          0      )
                  (    -1         -1          0      )
                  (     0          0          1      )

 cart.    s( 7) = ( -0.5000000 -0.8660254  0.0000000 )
                  (  0.8660254 -0.5000000  0.0000000 )
                  (  0.0000000  0.0000000  1.0000000 )


      isym =  8     120 deg rotation - cryst. axis [0,0,-1]      

 cryst.   s( 8) = (    -1         -1          0      )
                  (     1          0          0      )
                  (     0          0          1      )

 cart.    s( 8) = ( -0.5000000  0.8660254  0.0000000 )
                  ( -0.8660254 -0.5000000  0.0000000 )
                  (  0.0000000  0.0000000  1.0000000 )


      isym =  9     180 deg rotation - cryst. axis [1,-1,0]      

 cryst.   s( 9) = (     0         -1          0      )    f =(  0.0000000 )
                  (    -1          0          0      )       (  0.0000000 )
                  (     0          0         -1      )       (  0.5000000 )

 cart.    s( 9) = (  0.5000000 -0.8660254  0.0000000 )    f =(  0.0000000 )
                  ( -0.8660254 -0.5000000  0.0000000 )       (  0.0000000 )
                  (  0.0000000  0.0000000 -1.0000000 )       (  0.9050000 )


      isym = 10     180 deg rotation - cryst. axis [2,1,0]       

 cryst.   s(10) = (     1          1          0      )    f =(  0.0000000 )
                  (     0         -1          0      )       ( -0.0000000 )
                  (     0          0         -1      )       (  0.5000000 )

 cart.    s(10) = (  0.5000000  0.8660254  0.0000000 )    f =(  0.0000000 )
                  (  0.8660254 -0.5000000  0.0000000 )       ( -0.0000000 )
                  (  0.0000000  0.0000000 -1.0000000 )       (  0.9050000 )


      isym = 11     180 deg rotation - cryst. axis [0,1,0]       

 cryst.   s(11) = (    -1         -1          0      )
                  (     0          1          0      )
                  (     0          0         -1      )

 cart.    s(11) = ( -0.5000000 -0.8660254  0.0000000 )
                  ( -0.8660254  0.5000000  0.0000000 )
                  (  0.0000000  0.0000000 -1.0000000 )


      isym = 12     180 deg rotation - cryst. axis [1,1,0]       

 cryst.   s(12) = (     0          1          0      )
                  (     1          0          0      )
                  (     0          0         -1      )

 cart.    s(12) = ( -0.5000000  0.8660254  0.0000000 )
                  (  0.8660254  0.5000000  0.0000000 )
                  (  0.0000000  0.0000000 -1.0000000 )


      isym = 13     inversion                                    

 cryst.   s(13) = (    -1          0          0      )
                  (     0         -1          0      )
                  (     0          0         -1      )

 cart.    s(13) = ( -1.0000000  0.0000000  0.0000000 )
                  (  0.0000000 -1.0000000  0.0000000 )
                  (  0.0000000  0.0000000 -1.0000000 )


      isym = 14     inv. 180 deg rotation - cart. axis [0,0,1]   

 cryst.   s(14) = (     1          0          0      )    f =(  0.0000000 )
                  (     0          1          0      )       (  0.0000000 )
                  (     0          0         -1      )       (  0.5000000 )

 cart.    s(14) = (  1.0000000  0.0000000  0.0000000 )    f =(  0.0000000 )
                  (  0.0000000  1.0000000  0.0000000 )       (  0.0000000 )
                  (  0.0000000  0.0000000 -1.0000000 )       (  0.9050000 )


      isym = 15     inv. 180 deg rotation - cart. axis [0,1,0]   

 cryst.   s(15) = (     1          0          0      )    f =(  0.0000000 )
                  (    -1         -1          0      )       (  0.0000000 )
                  (     0          0          1      )       ( -0.5000000 )

 cart.    s(15) = (  1.0000000  0.0000000  0.0000000 )    f =(  0.0000000 )
                  (  0.0000000 -1.0000000  0.0000000 )       (  0.0000000 )
                  (  0.0000000  0.0000000  1.0000000 )       ( -0.9050000 )


      isym = 16     inv. 180 deg rotation - cart. axis [1,0,0]   

 cryst.   s(16) = (    -1          0          0      )
                  (     1          1          0      )
                  (     0          0          1      )

 cart.    s(16) = ( -1.0000000  0.0000000  0.0000000 )
                  (  0.0000000  1.0000000  0.0000000 )
                  (  0.0000000  0.0000000  1.0000000 )


      isym = 17     inv.  60 deg rotation - cryst. axis [0,0,1]  

 cryst.   s(17) = (    -1         -1          0      )    f =(  0.0000000 )
                  (     1          0          0      )       (  0.0000000 )
                  (     0          0         -1      )       (  0.5000000 )

 cart.    s(17) = ( -0.5000000  0.8660254  0.0000000 )    f =(  0.0000000 )
                  ( -0.8660254 -0.5000000  0.0000000 )       (  0.0000000 )
                  (  0.0000000  0.0000000 -1.0000000 )       (  0.9050000 )


      isym = 18     inv.  60 deg rotation - cryst. axis [0,0,-1] 

 cryst.   s(18) = (     0          1          0      )    f =(  0.0000000 )
                  (    -1         -1          0      )       ( -0.0000000 )
                  (     0          0         -1      )       (  0.5000000 )

 cart.    s(18) = ( -0.5000000 -0.8660254  0.0000000 )    f =(  0.0000000 )
                  (  0.8660254 -0.5000000  0.0000000 )       ( -0.0000000 )
                  (  0.0000000  0.0000000 -1.0000000 )       (  0.9050000 )


      isym = 19     inv. 120 deg rotation - cryst. axis [0,0,1]  

 cryst.   s(19) = (     0         -1          0      )
                  (     1          1          0      )
                  (     0          0         -1      )

 cart.    s(19) = (  0.5000000  0.8660254  0.0000000 )
                  ( -0.8660254  0.5000000  0.0000000 )
                  (  0.0000000  0.0000000 -1.0000000 )


      isym = 20     inv. 120 deg rotation - cryst. axis [0,0,-1] 

 cryst.   s(20) = (     1          1          0      )
                  (    -1          0          0      )
                  (     0          0         -1      )

 cart.    s(20) = (  0.5000000 -0.8660254  0.0000000 )
                  (  0.8660254  0.5000000  0.0000000 )
                  (  0.0000000  0.0000000 -1.0000000 )


      isym = 21     inv. 180 deg rotation - cryst. axis [1,-1,0] 

 cryst.   s(21) = (     0          1          0      )    f =(  0.0000000 )
                  (     1          0          0      )       ( -0.0000000 )
                  (     0          0          1      )       ( -0.5000000 )

 cart.    s(21) = ( -0.5000000  0.8660254  0.0000000 )    f =(  0.0000000 )
                  (  0.8660254  0.5000000  0.0000000 )       ( -0.0000000 )
                  (  0.0000000  0.0000000  1.0000000 )       ( -0.9050000 )


      isym = 22     inv. 180 deg rotation - cryst. axis [2,1,0]  

 cryst.   s(22) = (    -1         -1          0      )    f =(  0.0000000 )
                  (     0          1          0      )       ( -0.0000000 )
                  (     0          0          1      )       ( -0.5000000 )

 cart.    s(22) = ( -0.5000000 -0.8660254  0.0000000 )    f =(  0.0000000 )
                  ( -0.8660254  0.5000000  0.0000000 )       ( -0.0000000 )
                  (  0.0000000  0.0000000  1.0000000 )       ( -0.9050000 )


      isym = 23     inv. 180 deg rotation - cryst. axis [0,1,0]  

 cryst.   s(23) = (     1          1          0      )
                  (     0         -1          0      )
                  (     0          0          1      )

 cart.    s(23) = (  0.5000000  0.8660254  0.0000000 )
                  (  0.8660254 -0.5000000  0.0000000 )
                  (  0.0000000  0.0000000  1.0000000 )


      isym = 24     inv. 180 deg rotation - cryst. axis [1,1,0]  

 cryst.   s(24) = (     0         -1          0      )
                  (    -1          0          0      )
                  (     0          0          1      )

 cart.    s(24) = (  0.5000000 -0.8660254  0.0000000 )
                  ( -0.8660254 -0.5000000  0.0000000 )
                  (  0.0000000  0.0000000  1.0000000 )


     point group D_6h(6/mmm)
     there are 12 classes
     the character table:

       E     2C6   2C3   C2    3C2'  3C2'' i     2S3   2S6   s_h   3s_d  3s_v 
A_1g   1.00  1.00  1.00  1.00  1.00  1.00  1.00  1.00  1.00  1.00  1.00  1.00
A_2g   1.00  1.00  1.00  1.00 -1.00 -1.00  1.00  1.00  1.00  1.00 -1.00 -1.00
B_1g   1.00 -1.00  1.00 -1.00  1.00 -1.00  1.00 -1.00  1.00 -1.00  1.00 -1.00
B_2g   1.00 -1.00  1.00 -1.00 -1.00  1.00  1.00 -1.00  1.00 -1.00 -1.00  1.00
E_1g   2.00  1.00 -1.00 -2.00  0.00  0.00  2.00  1.00 -1.00 -2.00  0.00  0.00
E_2g   2.00 -1.00 -1.00  2.00  0.00  0.00  2.00 -1.00 -1.00  2.00  0.00  0.00
A_1u   1.00  1.00  1.00  1.00  1.00  1.00 -1.00 -1.00 -1.00 -1.00 -1.00 -1.00
A_2u   1.00  1.00  1.00  1.00 -1.00 -1.00 -1.00 -1.00 -1.00 -1.00  1.00  1.00
B_1u   1.00 -1.00  1.00 -1.00  1.00 -1.00 -1.00  1.00 -1.00  1.00 -1.00  1.00
B_2u   1.00 -1.00  1.00 -1.00 -1.00  1.00 -1.00  1.00 -1.00  1.00  1.00 -1.00
E_1u   2.00  1.00 -1.00 -2.00  0.00  0.00 -2.00 -1.00  1.00  2.00  0.00  0.00
E_2u   2.00 -1.00 -1.00  2.00  0.00  0.00 -2.00  1.00  1.00 -2.00  0.00  0.00

     the symmetry operations in each class and the name of the first element:

     E        1
          identity                                               
     2C6      5    6
           60 deg rotation - cryst. axis [0,0,1]                 
     2C3      7    8
          120 deg rotation - cryst. axis [0,0,1]                 
     C2       2
          180 deg rotation - cart. axis [0,0,1]                  
     3C2'     4   12   11
          180 deg rotation - cart. axis [1,0,0]                  
     3C2''    3    9   10
          180 deg rotation - cart. axis [0,1,0]                  
     i       13
          inversion                                              
     2S3     17   18
          inv.  60 deg rotation - cryst. axis [0,0,1]            
     2S6     19   20
          inv. 120 deg rotation - cryst. axis [0,0,1]            
     s_h     14
          inv. 180 deg rotation - cart. axis [0,0,1]             
     3s_d    16   24   23
          inv. 180 deg rotation - cart. axis [1,0,0]             
     3s_v    15   21   22
          inv. 180 deg rotation - cart. axis [0,1,0]             

   Cartesian axes

     site n.     atom                  positions (alat units)
         1           Zn  tau(   1) = (  -0.0000000   0.5773503   0.4525000  )
         2           Zn  tau(   2) = (   0.5000000   0.2886751   1.3575000  )

   Crystallographic axes

     site n.     atom                  positions (cryst. coord.)
         1           Zn  tau(   1) = (  0.3333333  0.6666667  0.2500000  )
         2           Zn  tau(   2) = (  0.6666667  0.3333333  0.7500000  )

     number of k points=    96  Marzari-Vanderbilt smearing, width (Ry)=  0.0005
                       cart. coord. in units 2pi/alat
        k(    1) = (   0.0000000   0.0000000   0.0000000), wk =   0.0007289
        k(    2) = (   0.0000000   0.0000000   0.0789266), wk =   0.0014577
        k(    3) = (   0.0000000   0.0000000   0.1578532), wk =   0.0014577
        k(    4) = (   0.0000000   0.0000000   0.2367798), wk =   0.0014577
        k(    5) = (   0.0000000   0.0824786   0.0000000), wk =   0.0043732
        k(    6) = (   0.0000000   0.0824786   0.0789266), wk =   0.0087464
        k(    7) = (   0.0000000   0.0824786   0.1578532), wk =   0.0087464
        k(    8) = (   0.0000000   0.0824786   0.2367798), wk =   0.0087464
        k(    9) = (   0.0000000   0.1649572   0.0000000), wk =   0.0043732
        k(   10) = (   0.0000000   0.1649572   0.0789266), wk =   0.0087464
        k(   11) = (   0.0000000   0.1649572   0.1578532), wk =   0.0087464
        k(   12) = (   0.0000000   0.1649572   0.2367798), wk =   0.0087464
        k(   13) = (   0.0000000   0.2474358   0.0000000), wk =   0.0043732
        k(   14) = (   0.0000000   0.2474358   0.0789266), wk =   0.0087464
        k(   15) = (   0.0000000   0.2474358   0.1578532), wk =   0.0087464
        k(   16) = (   0.0000000   0.2474358   0.2367798), wk =   0.0087464
        k(   17) = (   0.0000000   0.3299144   0.0000000), wk =   0.0043732
        k(   18) = (   0.0000000   0.3299144   0.0789266), wk =   0.0087464
        k(   19) = (   0.0000000   0.3299144   0.1578532), wk =   0.0087464
        k(   20) = (   0.0000000   0.3299144   0.2367798), wk =   0.0087464
        k(   21) = (   0.0000000   0.4123930   0.0000000), wk =   0.0043732
        k(   22) = (   0.0000000   0.4123930   0.0789266), wk =   0.0087464
        k(   23) = (   0.0000000   0.4123930   0.1578532), wk =   0.0087464
        k(   24) = (   0.0000000   0.4123930   0.2367798), wk =   0.0087464
        k(   25) = (   0.0000000   0.4948717   0.0000000), wk =   0.0043732
        k(   26) = (   0.0000000   0.4948717   0.0789266), wk =   0.0087464
        k(   27) = (   0.0000000   0.4948717   0.1578532), wk =   0.0087464
        k(   28) = (   0.0000000   0.4948717   0.2367798), wk =   0.0087464
        k(   29) = (   0.0000000  -0.5773503   0.0000000), wk =   0.0021866
        k(   30) = (   0.0000000  -0.5773503   0.0789266), wk =   0.0043732
        k(   31) = (   0.0000000  -0.5773503   0.1578532), wk =   0.0043732
        k(   32) = (   0.0000000  -0.5773503   0.2367798), wk =   0.0043732
        k(   33) = (   0.0714286   0.1237179   0.0000000), wk =   0.0043732
        k(   34) = (   0.0714286   0.1237179   0.0789266), wk =   0.0087464
        k(   35) = (   0.0714286   0.1237179   0.1578532), wk =   0.0087464
        k(   36) = (   0.0714286   0.1237179   0.2367798), wk =   0.0087464
        k(   37) = (   0.0714286   0.2061965   0.0000000), wk =   0.0087464
        k(   38) = (   0.0714286   0.2061965   0.0789266), wk =   0.0174927
        k(   39) = (   0.0714286   0.2061965   0.1578532), wk =   0.0174927
        k(   40) = (   0.0714286   0.2061965   0.2367798), wk =   0.0174927
        k(   41) = (   0.0714286   0.2886751   0.0000000), wk =   0.0087464
        k(   42) = (   0.0714286   0.2886751   0.0789266), wk =   0.0174927
        k(   43) = (   0.0714286   0.2886751   0.1578532), wk =   0.0174927
        k(   44) = (   0.0714286   0.2886751   0.2367798), wk =   0.0174927
        k(   45) = (   0.0714286   0.3711537   0.0000000), wk =   0.0087464
        k(   46) = (   0.0714286   0.3711537   0.0789266), wk =   0.0174927
        k(   47) = (   0.0714286   0.3711537   0.1578532), wk =   0.0174927
        k(   48) = (   0.0714286   0.3711537   0.2367798), wk =   0.0174927
        k(   49) = (   0.0714286   0.4536324   0.0000000), wk =   0.0087464
        k(   50) = (   0.0714286   0.4536324   0.0789266), wk =   0.0174927
        k(   51) = (   0.0714286   0.4536324   0.1578532), wk =   0.0174927
        k(   52) = (   0.0714286   0.4536324   0.2367798), wk =   0.0174927
        k(   53) = (   0.0714286   0.5361110   0.0000000), wk =   0.0087464
        k(   54) = (   0.0714286   0.5361110   0.0789266), wk =   0.0174927
        k(   55) = (   0.0714286   0.5361110   0.1578532), wk =   0.0174927
        k(   56) = (   0.0714286   0.5361110   0.2367798), wk =   0.0174927
        k(   57) = (   0.1428571   0.2474358   0.0000000), wk =   0.0043732
        k(   58) = (   0.1428571   0.2474358   0.0789266), wk =   0.0087464
        k(   59) = (   0.1428571   0.2474358   0.1578532), wk =   0.0087464
        k(   60) = (   0.1428571   0.2474358   0.2367798), wk =   0.0087464
        k(   61) = (   0.1428571   0.3299144   0.0000000), wk =   0.0087464
        k(   62) = (   0.1428571   0.3299144   0.0789266), wk =   0.0174927
        k(   63) = (   0.1428571   0.3299144   0.1578532), wk =   0.0174927
        k(   64) = (   0.1428571   0.3299144   0.2367798), wk =   0.0174927
        k(   65) = (   0.1428571   0.4123930   0.0000000), wk =   0.0087464
        k(   66) = (   0.1428571   0.4123930   0.0789266), wk =   0.0174927
        k(   67) = (   0.1428571   0.4123930   0.1578532), wk =   0.0174927
        k(   68) = (   0.1428571   0.4123930   0.2367798), wk =   0.0174927
        k(   69) = (   0.1428571   0.4948717   0.0000000), wk =   0.0087464
        k(   70) = (   0.1428571   0.4948717   0.0789266), wk =   0.0174927
        k(   71) = (   0.1428571   0.4948717   0.1578532), wk =   0.0174927
        k(   72) = (   0.1428571   0.4948717   0.2367798), wk =   0.0174927
        k(   73) = (   0.1428571   0.5773503   0.0000000), wk =   0.0043732
        k(   74) = (   0.1428571   0.5773503   0.0789266), wk =   0.0087464
        k(   75) = (   0.1428571   0.5773503   0.1578532), wk =   0.0087464
        k(   76) = (   0.1428571   0.5773503   0.2367798), wk =   0.0087464
        k(   77) = (   0.2142857   0.3711537   0.0000000), wk =   0.0043732
        k(   78) = (   0.2142857   0.3711537   0.0789266), wk =   0.0087464
        k(   79) = (   0.2142857   0.3711537   0.1578532), wk =   0.0087464
        k(   80) = (   0.2142857   0.3711537   0.2367798), wk =   0.0087464
        k(   81) = (   0.2142857   0.4536324   0.0000000), wk =   0.0087464
        k(   82) = (   0.2142857   0.4536324   0.0789266), wk =   0.0174927
        k(   83) = (   0.2142857   0.4536324   0.1578532), wk =   0.0174927
        k(   84) = (   0.2142857   0.4536324   0.2367798), wk =   0.0174927
        k(   85) = (   0.2142857   0.5361110   0.0000000), wk =   0.0087464
        k(   86) = (   0.2142857   0.5361110   0.0789266), wk =   0.0174927
        k(   87) = (   0.2142857   0.5361110   0.1578532), wk =   0.0174927
        k(   88) = (   0.2142857   0.5361110   0.2367798), wk =   0.0174927
        k(   89) = (   0.2857143   0.4948717   0.0000000), wk =   0.0043732
        k(   90) = (   0.2857143   0.4948717   0.0789266), wk =   0.0087464
        k(   91) = (   0.2857143   0.4948717   0.1578532), wk =   0.0087464
        k(   92) = (   0.2857143   0.4948717   0.2367798), wk =   0.0087464
        k(   93) = (   0.2857143   0.5773503   0.0000000), wk =   0.0043732
        k(   94) = (   0.2857143   0.5773503   0.0789266), wk =   0.0087464
        k(   95) = (   0.2857143   0.5773503   0.1578532), wk =   0.0087464
        k(   96) = (   0.2857143   0.5773503   0.2367798), wk =   0.0087464

                       cryst. coord.
        k(    1) = (   0.0000000   0.0000000   0.0000000), wk =   0.0007289
        k(    2) = (   0.0000000   0.0000000   0.1428571), wk =   0.0014577
        k(    3) = (   0.0000000   0.0000000   0.2857143), wk =   0.0014577
        k(    4) = (   0.0000000   0.0000000   0.4285714), wk =   0.0014577
        k(    5) = (   0.0000000   0.0714286   0.0000000), wk =   0.0043732
        k(    6) = (   0.0000000   0.0714286   0.1428571), wk =   0.0087464
        k(    7) = (   0.0000000   0.0714286   0.2857143), wk =   0.0087464
        k(    8) = (   0.0000000   0.0714286   0.4285714), wk =   0.0087464
        k(    9) = (   0.0000000   0.1428571   0.0000000), wk =   0.0043732
        k(   10) = (   0.0000000   0.1428571   0.1428571), wk =   0.0087464
        k(   11) = (   0.0000000   0.1428571   0.2857143), wk =   0.0087464
        k(   12) = (   0.0000000   0.1428571   0.4285714), wk =   0.0087464
        k(   13) = (   0.0000000   0.2142857   0.0000000), wk =   0.0043732
        k(   14) = (   0.0000000   0.2142857   0.1428571), wk =   0.0087464
        k(   15) = (   0.0000000   0.2142857   0.2857143), wk =   0.0087464
        k(   16) = (   0.0000000   0.2142857   0.4285714), wk =   0.0087464
        k(   17) = (   0.0000000   0.2857143   0.0000000), wk =   0.0043732
        k(   18) = (   0.0000000   0.2857143   0.1428571), wk =   0.0087464
        k(   19) = (   0.0000000   0.2857143   0.2857143), wk =   0.0087464
        k(   20) = (   0.0000000   0.2857143   0.4285714), wk =   0.0087464
        k(   21) = (   0.0000000   0.3571429   0.0000000), wk =   0.0043732
        k(   22) = (   0.0000000   0.3571429   0.1428571), wk =   0.0087464
        k(   23) = (   0.0000000   0.3571429   0.2857143), wk =   0.0087464
        k(   24) = (   0.0000000   0.3571429   0.4285714), wk =   0.0087464
        k(   25) = (   0.0000000   0.4285714   0.0000000), wk =   0.0043732
        k(   26) = (   0.0000000   0.4285714   0.1428571), wk =   0.0087464
        k(   27) = (   0.0000000   0.4285714   0.2857143), wk =   0.0087464
        k(   28) = (   0.0000000   0.4285714   0.4285714), wk =   0.0087464
        k(   29) = (   0.0000000  -0.5000000   0.0000000), wk =   0.0021866
        k(   30) = (   0.0000000  -0.5000000   0.1428571), wk =   0.0043732
        k(   31) = (   0.0000000  -0.5000000   0.2857143), wk =   0.0043732
        k(   32) = (   0.0000000  -0.5000000   0.4285714), wk =   0.0043732
        k(   33) = (   0.0714286   0.0714286   0.0000000), wk =   0.0043732
        k(   34) = (   0.0714286   0.0714286   0.1428571), wk =   0.0087464
        k(   35) = (   0.0714286   0.0714286   0.2857143), wk =   0.0087464
        k(   36) = (   0.0714286   0.0714286   0.4285714), wk =   0.0087464
        k(   37) = (   0.0714286   0.1428571   0.0000000), wk =   0.0087464
        k(   38) = (   0.0714286   0.1428571   0.1428571), wk =   0.0174927
        k(   39) = (   0.0714286   0.1428571   0.2857143), wk =   0.0174927
        k(   40) = (   0.0714286   0.1428571   0.4285714), wk =   0.0174927
        k(   41) = (   0.0714286   0.2142857   0.0000000), wk =   0.0087464
        k(   42) = (   0.0714286   0.2142857   0.1428571), wk =   0.0174927
        k(   43) = (   0.0714286   0.2142857   0.2857143), wk =   0.0174927
        k(   44) = (   0.0714286   0.2142857   0.4285714), wk =   0.0174927
        k(   45) = (   0.0714286   0.2857143   0.0000000), wk =   0.0087464
        k(   46) = (   0.0714286   0.2857143   0.1428571), wk =   0.0174927
        k(   47) = (   0.0714286   0.2857143   0.2857143), wk =   0.0174927
        k(   48) = (   0.0714286   0.2857143   0.4285714), wk =   0.0174927
        k(   49) = (   0.0714286   0.3571429   0.0000000), wk =   0.0087464
        k(   50) = (   0.0714286   0.3571429   0.1428571), wk =   0.0174927
        k(   51) = (   0.0714286   0.3571429   0.2857143), wk =   0.0174927
        k(   52) = (   0.0714286   0.3571429   0.4285714), wk =   0.0174927
        k(   53) = (   0.0714286   0.4285714   0.0000000), wk =   0.0087464
        k(   54) = (   0.0714286   0.4285714   0.1428571), wk =   0.0174927
        k(   55) = (   0.0714286   0.4285714   0.2857143), wk =   0.0174927
        k(   56) = (   0.0714286   0.4285714   0.4285714), wk =   0.0174927
        k(   57) = (   0.1428571   0.1428571   0.0000000), wk =   0.0043732
        k(   58) = (   0.1428571   0.1428571   0.1428571), wk =   0.0087464
        k(   59) = (   0.1428571   0.1428571   0.2857143), wk =   0.0087464
        k(   60) = (   0.1428571   0.1428571   0.4285714), wk =   0.0087464
        k(   61) = (   0.1428571   0.2142857   0.0000000), wk =   0.0087464
        k(   62) = (   0.1428571   0.2142857   0.1428571), wk =   0.0174927
        k(   63) = (   0.1428571   0.2142857   0.2857143), wk =   0.0174927
        k(   64) = (   0.1428571   0.2142857   0.4285714), wk =   0.0174927
        k(   65) = (   0.1428571   0.2857143   0.0000000), wk =   0.0087464
        k(   66) = (   0.1428571   0.2857143   0.1428571), wk =   0.0174927
        k(   67) = (   0.1428571   0.2857143   0.2857143), wk =   0.0174927
        k(   68) = (   0.1428571   0.2857143   0.4285714), wk =   0.0174927
        k(   69) = (   0.1428571   0.3571429   0.0000000), wk =   0.0087464
        k(   70) = (   0.1428571   0.3571429   0.1428571), wk =   0.0174927
        k(   71) = (   0.1428571   0.3571429   0.2857143), wk =   0.0174927
        k(   72) = (   0.1428571   0.3571429   0.4285714), wk =   0.0174927
        k(   73) = (   0.1428571   0.4285714   0.0000000), wk =   0.0043732
        k(   74) = (   0.1428571   0.4285714   0.1428571), wk =   0.0087464
        k(   75) = (   0.1428571   0.4285714   0.2857143), wk =   0.0087464
        k(   76) = (   0.1428571   0.4285714   0.4285714), wk =   0.0087464
        k(   77) = (   0.2142857   0.2142857   0.0000000), wk =   0.0043732
        k(   78) = (   0.2142857   0.2142857   0.1428571), wk =   0.0087464
        k(   79) = (   0.2142857   0.2142857   0.2857143), wk =   0.0087464
        k(   80) = (   0.2142857   0.2142857   0.4285714), wk =   0.0087464
        k(   81) = (   0.2142857   0.2857143   0.0000000), wk =   0.0087464
        k(   82) = (   0.2142857   0.2857143   0.1428571), wk =   0.0174927
        k(   83) = (   0.2142857   0.2857143   0.2857143), wk =   0.0174927
        k(   84) = (   0.2142857   0.2857143   0.4285714), wk =   0.0174927
        k(   85) = (   0.2142857   0.3571429   0.0000000), wk =   0.0087464
        k(   86) = (   0.2142857   0.3571429   0.1428571), wk =   0.0174927
        k(   87) = (   0.2142857   0.3571429   0.2857143), wk =   0.0174927
        k(   88) = (   0.2142857   0.3571429   0.4285714), wk =   0.0174927
        k(   89) = (   0.2857143   0.2857143   0.0000000), wk =   0.0043732
        k(   90) = (   0.2857143   0.2857143   0.1428571), wk =   0.0087464
        k(   91) = (   0.2857143   0.2857143   0.2857143), wk =   0.0087464
        k(   92) = (   0.2857143   0.2857143   0.4285714), wk =   0.0087464
        k(   93) = (   0.2857143   0.3571429   0.0000000), wk =   0.0043732
        k(   94) = (   0.2857143   0.3571429   0.1428571), wk =   0.0087464
        k(   95) = (   0.2857143   0.3571429   0.2857143), wk =   0.0087464
        k(   96) = (   0.2857143   0.3571429   0.4285714), wk =   0.0087464

     Dense  grid:    16435 G-vectors     FFT dimensions: (  27,  27,  50)

     Dynamical RAM for                 wfc:       0.04 MB

     Dynamical RAM for     wfc (w. buffer):       3.46 MB

     Dynamical RAM for           str. fact:       0.02 MB

     Dynamical RAM for           local pot:       0.00 MB

     Dynamical RAM for          nlocal pot:       0.08 MB

     Dynamical RAM for                qrad:       1.34 MB

     Dynamical RAM for          rho,v,vnew:       0.24 MB

     Dynamical RAM for               rhoin:       0.08 MB

     Dynamical RAM for            rho*nmix:       0.58 MB

     Dynamical RAM for           G-vectors:       0.08 MB

     Dynamical RAM for          h,s,v(r/c):       0.05 MB

     Dynamical RAM for          <psi|beta>:       0.01 MB

     Dynamical RAM for                 psi:       0.07 MB

     Dynamical RAM for                hpsi:       0.07 MB

     Dynamical RAM for                spsi:       0.07 MB

     Dynamical RAM for      wfcinit/wfcrot:       0.09 MB

     Dynamical RAM for           addusdens:       1.72 MB

     Estimated static dynamical RAM per process >       5.47 MB

     Estimated max dynamical RAM per process >       7.76 MB

     Estimated total dynamical RAM >     209.19 MB

     Check: negative core charge=   -0.000003
     Generating pointlists ...
     new r_m :   0.4125 (alat units)  2.1038 (a.u.) for type    1

     Initial potential from superposition of free atoms

     starting charge      23.9926, renormalised to      24.0000
     Starting wfcs are   18 randomized atomic wfcs
     Checking if some PAW data can be deallocated... 

     total cpu time spent up to now is        0.6 secs

     Self-consistent Calculation

     iteration #  1     ecut=    70.00 Ry     beta= 0.70
     Davidson diagonalization with overlap

---- Real-time Memory Report at c_bands before calling an iterative solver
            58 MiB given to the printing process from OS
             0 MiB allocation reported by mallinfo(arena+hblkhd)
        166886 MiB available memory on the node where the printing process lives
------------------
     ethr =  1.00E-02,  avg # of iterations =  3.2

     Threshold (ethr) on eigenvalues was too large:
     Diagonalizing with lowered threshold

     Davidson diagonalization with overlap

---- Real-time Memory Report at c_bands before calling an iterative solver
            58 MiB given to the printing process from OS
             0 MiB allocation reported by mallinfo(arena+hblkhd)
        166836 MiB available memory on the node where the printing process lives
------------------
     ethr =  2.29E-05,  avg # of iterations =  6.4

     total cpu time spent up to now is        2.6 secs

     total energy              =    -487.44525372 Ry
     estimated scf accuracy    <       0.00507967 Ry

     total magnetization       =     0.00 Bohr mag/cell
     absolute magnetization    =     0.00 Bohr mag/cell

     iteration #  2     ecut=    70.00 Ry     beta= 0.70
     Davidson diagonalization with overlap

---- Real-time Memory Report at c_bands before calling an iterative solver
            74 MiB given to the printing process from OS
             0 MiB allocation reported by mallinfo(arena+hblkhd)
        166768 MiB available memory on the node where the printing process lives
------------------
     ethr =  2.12E-05,  avg # of iterations =  2.0

     total cpu time spent up to now is        3.6 secs

     total energy              =    -487.44574339 Ry
     estimated scf accuracy    <       0.00340542 Ry

     total magnetization       =     0.00 Bohr mag/cell
     absolute magnetization    =     0.00 Bohr mag/cell

     iteration #  3     ecut=    70.00 Ry     beta= 0.70
     Davidson diagonalization with overlap

---- Real-time Memory Report at c_bands before calling an iterative solver
            75 MiB given to the printing process from OS
             0 MiB allocation reported by mallinfo(arena+hblkhd)
        166750 MiB available memory on the node where the printing process lives
------------------
     ethr =  1.42E-05,  avg # of iterations =  2.0

     total cpu time spent up to now is        4.5 secs

     total energy              =    -487.44658737 Ry
     estimated scf accuracy    <       0.00019009 Ry

     total magnetization       =     0.00 Bohr mag/cell
     absolute magnetization    =     0.00 Bohr mag/cell

     iteration #  4     ecut=    70.00 Ry     beta= 0.70
     Davidson diagonalization with overlap

---- Real-time Memory Report at c_bands before calling an iterative solver
            76 MiB given to the printing process from OS
             0 MiB allocation reported by mallinfo(arena+hblkhd)
        166735 MiB available memory on the node where the printing process lives
------------------
     ethr =  7.92E-07,  avg # of iterations =  2.2

     total cpu time spent up to now is        5.3 secs

     total energy              =    -487.44660462 Ry
     estimated scf accuracy    <       0.00000685 Ry

     total magnetization       =     0.00 Bohr mag/cell
     absolute magnetization    =     0.00 Bohr mag/cell

     iteration #  5     ecut=    70.00 Ry     beta= 0.70
     Davidson diagonalization with overlap

---- Real-time Memory Report at c_bands before calling an iterative solver
            77 MiB given to the printing process from OS
             0 MiB allocation reported by mallinfo(arena+hblkhd)
        166727 MiB available memory on the node where the printing process lives
------------------
     ethr =  2.86E-08,  avg # of iterations =  2.7
 
     Magnetic moment per site  (integrated on atomic sphere of radius R)
     atom   1 (R=0.413)  charge= 10.7408  magn=  0.0000
     atom   2 (R=0.413)  charge= 10.7408  magn=  0.0000

     total cpu time spent up to now is        6.2 secs

     End of self-consistent calculation

 ------ SPIN UP ------------


          k = 0.0000 0.0000 0.0000 (  2029 PWs)   bands (ev):

     0.5985   2.4608   3.1467   3.3442   3.3442   3.3996   3.3996   3.6806
     3.6806   3.9120   3.9120   7.4407   8.1619  25.2081  27.5827  27.5828

     occupation numbers 
     1.0000   1.0000   1.0000   1.0000   1.0000   1.0000   1.0000   1.0000
     1.0000   1.0000   1.0000   1.0000   1.0000   0.0000   0.0000   0.0000

          k = 0.0000 0.0000 0.0789 (  2047 PWs)   bands (ev):

     0.7266   2.4508   3.1466   3.3413   3.3413   3.3928   3.3928   3.6978
     3.6978   3.9046   3.9046   6.0267   9.8503  23.1713  27.7090  27.7091

     occupation numbers 
     1.0000   1.0000   1.0000   1.0000   1.0000   1.0000   1.0000   1.0000
     1.0000   1.0000   1.0000   1.0000   1.0000   0.0000   0.0000   0.0000

          k = 0.0000 0.0000 0.1579 (  2047 PWs)   bands (ev):

     1.0979   2.3925   3.1611   3.3380   3.3380   3.3758   3.3758   3.7410
     3.7410   3.8819   3.8819   4.6254  12.0994  20.1996  28.0739  28.0741

     occupation numbers 
     1.0000   1.0000   1.0000   1.0000   1.0000   1.0000   1.0000   1.0000
     1.0000   1.0000   1.0000   1.0000   0.0000   0.0000   0.0000   0.0000

          k = 0.0000 0.0000 0.2368 (  2064 PWs)   bands (ev):

     1.6492   2.1636   3.2586   3.3422   3.3422   3.3562   3.3562   3.6624
     3.7943   3.7943   3.8441   3.8441  14.5935  17.3049  28.6176  28.6176

     occupation numbers 
     1.0000   1.0000   1.0000   1.0000   1.0000   1.0000   1.0000   1.0000
     1.0000   1.0000   1.0000   1.0000   0.0000   0.0000   0.0000   0.0000

          k = 0.0000 0.0825 0.0000 (  2047 PWs)   bands (ev):

     0.7454   2.5211   3.1584   3.3330   3.3778   3.3852   3.4312   3.6508
     3.6667   3.8336   3.9145   7.6729   8.2415  25.2343  25.3593  26.3694

     occupation numbers 
     1.0000   1.0000   1.0000   1.0000   1.0000   1.0000   1.0000   1.0000
     1.0000   1.0000   1.0000   1.0000   1.0000   0.0000   0.0000   0.0000

          k = 0.0000 0.0825 0.0789 (  2040 PWs)   bands (ev):

     0.8726   2.5149   3.1578   3.3270   3.3743   3.3767   3.4242   3.6728
     3.6853   3.8190   3.9063   6.2054   9.9876  23.2987  25.3808  26.5034

     occupation numbers 
     1.0000   1.0000   1.0000   1.0000   1.0000   1.0000   1.0000   1.0000
     1.0000   1.0000   1.0000   1.0000   1.0000   0.0000   0.0000   0.0000

          k = 0.0000 0.0825 0.1579 (  2052 PWs)   bands (ev):

     1.2407   2.4705   3.1668   3.3193   3.3555   3.3698   3.4069   3.7211
     3.7317   3.7684   3.8817   4.8271  12.2386  20.3313  25.7618  26.9007

     occupation numbers 
     1.0000   1.0000   1.0000   1.0000   1.0000   1.0000   1.0000   1.0000
     1.0000   1.0000   1.0000   1.0000   0.0000   0.0000   0.0000   0.0000

          k = 0.0000 0.0825 0.2368 (  2066 PWs)   bands (ev):

     1.7827   2.2711   3.2370   3.3258   3.3315   3.3734   3.3873   3.5331
     3.7882   3.8228   3.8411   4.0219  14.7310  17.4399  26.3898  27.2528

     occupation numbers 
     1.0000   1.0000   1.0000   1.0000   1.0000   1.0000   1.0000   1.0000
     1.0000   1.0000   1.0000   1.0000   0.0000   0.0000   0.0000   0.0000

          k = 0.0000 0.1650 0.0000 (  2040 PWs)   bands (ev):

     1.1763   2.6733   3.1732   3.3114   3.3774   3.4733   3.5208   3.5313
     3.6299   3.6904   3.9191   8.3103   8.4967  21.9576  24.7616  25.7401

     occupation numbers 
     1.0000   1.0000   1.0000   1.0000   1.0000   1.0000   1.0000   1.0000
     1.0000   1.0000   1.0000   1.0000   1.0000   0.0000   0.0000   0.0000

          k = 0.0000 0.1650 0.0789 (  2050 PWs)   bands (ev):

     1.2994   2.6765   3.1756   3.2961   3.3542   3.4664   3.5127   3.5532
     3.6544   3.6918   3.9092   6.6787  10.4051  22.0696  23.7161  24.9040

     occupation numbers 
     1.0000   1.0000   1.0000   1.0000   1.0000   1.0000   1.0000   1.0000
     1.0000   1.0000   1.0000   1.0000   1.0000   0.0000   0.0000   0.0000

          k = 0.0000 0.1650 0.1579 (  2054 PWs)   bands (ev):

     1.6524   2.6670   3.1782   3.2711   3.3124   3.4578   3.4944   3.5312
     3.7097   3.7475   3.8800   5.2846  12.6554  20.6971  22.5276  25.1618

     occupation numbers 
     1.0000   1.0000   1.0000   1.0000   1.0000   1.0000   1.0000   1.0000
     1.0000   1.0000   1.0000   1.0000   0.0000   0.0000   0.0000   0.0000

          k = 0.0000 0.1650 0.2368 (  2063 PWs)   bands (ev):

     2.1536   2.5497   3.1869   3.2395   3.3076   3.4085   3.4600   3.4742
     3.7737   3.8332   3.9148   4.3407  15.1401  17.8369  23.1517  24.0391

     occupation numbers 
     1.0000   1.0000   1.0000   1.0000   1.0000   1.0000   1.0000   1.0000
     1.0000   1.0000   1.0000   1.0000   0.0000   0.0000   0.0000   0.0000

          k = 0.0000 0.2474 0.0000 (  2056 PWs)   bands (ev):

     1.8391   2.8119   3.2005   3.2831   3.3230   3.4889   3.5809   3.5871
     3.6147   3.6531   3.9216   8.9729   9.2546  18.8019  23.3359  24.5725

     occupation numbers 
     1.0000   1.0000   1.0000   1.0000   1.0000   1.0000   1.0000   1.0000
     1.0000   1.0000   1.0000   1.0000   1.0000   0.0000   0.0000   0.0000

          k = 0.0000 0.2474 0.0789 (  2051 PWs)   bands (ev):

     1.9457   2.8230   3.2000   3.2546   3.3178   3.4816   3.5686   3.6335
     3.6343   3.6573   3.9102   7.3801  11.1108  18.9285  23.3954  23.4842

     occupation numbers 
     1.0000   1.0000   1.0000   1.0000   1.0000   1.0000   1.0000   1.0000
     1.0000   1.0000   1.0000   1.0000   0.0000   0.0000   0.0000   0.0000

          k = 0.0000 0.2474 0.1579 (  2048 PWs)   bands (ev):

     2.2354   2.8443   3.1784   3.1924   3.3225   3.4592   3.5638   3.6207
     3.7057   3.7858   3.8773   5.9432  13.3446  19.2832  21.4190  22.0591

     occupation numbers 
     1.0000   1.0000   1.0000   1.0000   1.0000   1.0000   1.0000   1.0000
     1.0000   1.0000   1.0000   1.0000   0.0000   0.0000   0.0000   0.0000

          k = 0.0000 0.2474 0.2368 (  2054 PWs)   bands (ev):

     2.5898   2.8102   3.1270   3.1416   3.3625   3.4169   3.5747   3.5964
     3.7674   3.8275   4.1328   4.8391  15.8040  18.4221  20.0923  20.9326

     occupation numbers 
     1.0000   1.0000   1.0000   1.0000   1.0000   1.0000   1.0000   1.0000
     1.0000   1.0000   1.0000   1.0000   0.0000   0.0000   0.0000   0.0000

          k = 0.0000 0.3299 0.0000 (  2056 PWs)   bands (ev):

     2.4829   2.8143   3.1241   3.2917   3.3951   3.4978   3.5303   3.7767
     3.8046   3.8496   3.9209   9.7239  10.4418  15.8634  21.6843  22.1656

     occupation numbers 
     1.0000   1.0000   1.0000   1.0000   1.0000   1.0000   1.0000   1.0000
     1.0000   1.0000   1.0000   1.0000   1.0000   0.0000   0.0000   0.0000

          k = 0.0000 0.3299 0.0789 (  2069 PWs)   bands (ev):

     2.5236   2.8254   3.1239   3.2493   3.3565   3.5443   3.6371   3.7798
     3.7957   3.8733   3.9112   8.3147  12.0961  15.9923  20.5114  22.3185

     occupation numbers 
     1.0000   1.0000   1.0000   1.0000   1.0000   1.0000   1.0000   1.0000
     1.0000   1.0000   1.0000   1.0000   0.0000   0.0000   0.0000   0.0000

          k = 0.0000 0.3299 0.1579 (  2057 PWs)   bands (ev):

     2.6218   2.8467   3.1022   3.1321   3.4447   3.5835   3.7034   3.7553
     3.8021   3.8865   4.1375   6.8571  14.2801  16.3730  19.1848  22.1304

     occupation numbers 
     1.0000   1.0000   1.0000   1.0000   1.0000   1.0000   1.0000   1.0000
     1.0000   1.0000   1.0000   1.0000   0.0000   0.0000   0.0000   0.0000

          k = 0.0000 0.3299 0.2368 (  2053 PWs)   bands (ev):

     2.7361   2.8279   3.0573   3.0755   3.5557   3.6402   3.6485   3.7022
     3.8262   3.8559   4.7482   5.6606  16.5756  16.9610  18.1856  19.5215

     occupation numbers 
     1.0000   1.0000   1.0000   1.0000   1.0000   1.0000   1.0000   1.0000
     1.0000   1.0000   1.0000   1.0000   0.0000   0.0000   0.0000   0.0000

          k = 0.0000 0.4124 0.0000 (  2064 PWs)   bands (ev):

     2.6788   2.7634   2.9745   3.3872   3.4218   3.4870   3.6100   3.9180
     3.9258   3.9471   4.8618  10.7384  11.8321  13.2305  18.9986  20.0756

     occupation numbers 
     1.0000   1.0000   1.0000   1.0000   1.0000   1.0000   1.0000   1.0000
     1.0000   1.0000   1.0000   1.0000   0.0000   0.0000   0.0000   0.0000

          k = 0.0000 0.4124 0.0789 (  2058 PWs)   bands (ev):

     2.6714   2.7582   3.0021   3.2618   3.4569   3.5058   3.7311   3.8845
     3.9284   3.9570   4.9539   9.4922  13.1668  13.4800  17.8977  21.4487

     occupation numbers 
     1.0000   1.0000   1.0000   1.0000   1.0000   1.0000   1.0000   1.0000
     1.0000   1.0000   1.0000   1.0000   0.0000   0.0000   0.0000   0.0000

          k = 0.0000 0.4124 0.1579 (  2055 PWs)   bands (ev):

     2.6688   2.7658   3.0185   3.0968   3.5590   3.5760   3.8160   3.8360
     3.9355   3.9602   5.2853   8.0572  13.6982  15.2024  16.8345  21.9112

     occupation numbers 
     1.0000   1.0000   1.0000   1.0000   1.0000   1.0000   1.0000   1.0000
     1.0000   1.0000   1.0000   1.0000   0.0000   0.0000   0.0000   0.0000

          k = 0.0000 0.4124 0.2368 (  2056 PWs)   bands (ev):

     2.7020   2.7529   2.9996   3.0089   3.6379   3.7195   3.7289   3.8229
     3.9452   3.9547   5.9211   6.8543  14.3237  15.1299  18.1437  20.5305

     occupation numbers 
     1.0000   1.0000   1.0000   1.0000   1.0000   1.0000   1.0000   1.0000
     1.0000   1.0000   1.0000   1.0000   0.0000   0.0000   0.0000   0.0000

          k = 0.0000 0.4949 0.0000 (  2068 PWs)   bands (ev):

     2.6560   2.7372   2.8840   3.3702   3.4580   3.4592   3.7389   3.9152
     4.0293   4.0510   6.4078  10.4287  12.5071  13.3556  16.6067  17.8921

     occupation numbers 
     1.0000   1.0000   1.0000   1.0000   1.0000   1.0000   1.0000   1.0000
     1.0000   1.0000   1.0000   1.0000   0.0000   0.0000   0.0000   0.0000

          k = 0.0000 0.4949 0.0789 (  2065 PWs)   bands (ev):

     2.6598   2.6972   2.9296   3.2496   3.4789   3.5126   3.8265   3.8893
     4.0312   4.0514   6.5144  10.2548  11.6171  14.3589  15.9928  19.1143

     occupation numbers 
     1.0000   1.0000   1.0000   1.0000   1.0000   1.0000   1.0000   1.0000
     1.0000   1.0000   1.0000   1.0000   0.0000   0.0000   0.0000   0.0000

          k = 0.0000 0.4949 0.1579 (  2066 PWs)   bands (ev):

     2.6413   2.6960   2.9616   3.0733   3.5381   3.6452   3.8206   3.9211
     4.0356   4.0504   6.8531   9.3702  11.4884  13.8116  17.3086  20.8606

     occupation numbers 
     1.0000   1.0000   1.0000   1.0000   1.0000   1.0000   1.0000   1.0000
     1.0000   1.0000   1.0000   1.0000   0.0000   0.0000   0.0000   0.0000

          k = 0.0000 0.4949 0.2368 (  2062 PWs)   bands (ev):

     2.6544   2.6915   2.9542   2.9675   3.6257   3.7262   3.8043   3.9134
     4.0412   4.0466   7.4529   8.3133  11.9939  12.8031  19.4667  21.3579

     occupation numbers 
     1.0000   1.0000   1.0000   1.0000   1.0000   1.0000   1.0000   1.0000
     1.0000   1.0000   1.0000   1.0000   0.0000   0.0000   0.0000   0.0000

          k = 0.0000-0.5774 0.0000 (  2074 PWs)   bands (ev):

     2.6376   2.7263   2.8540   3.3518   3.4478   3.4849   3.7808   3.9140
     4.0661   4.0894   8.0178   8.6244  13.6540  14.4177  15.0361  16.6095

     occupation numbers 
     1.0000   1.0000   1.0000   1.0000   1.0000   1.0000   1.0000   1.0000
     1.0000   1.0000   1.0000   1.0000   0.0000   0.0000   0.0000   0.0000

          k = 0.0000-0.5774 0.0789 (  2072 PWs)   bands (ev):

     2.6481   2.6732   2.9055   3.2414   3.4693   3.5325   3.8616   3.8888
     4.0679   4.0884   8.1315   8.6892  12.9556  13.0978  16.6291  17.5270

     occupation numbers 
     1.0000   1.0000   1.0000   1.0000   1.0000   1.0000   1.0000   1.0000
     1.0000   1.0000   1.0000   1.0000   0.0000   0.0000   0.0000   0.0000

          k = 0.0000-0.5774 0.1579 (  2060 PWs)   bands (ev):

     2.6277   2.6695   2.9416   3.0644   3.5303   3.6664   3.8199   3.9516
     4.0719   4.0857   8.4570   8.8704  11.8397  11.8418  18.6912  19.2884

     occupation numbers 
     1.0000   1.0000   1.0000   1.0000   1.0000   1.0000   1.0000   1.0000
     1.0000   1.0000   1.0000   1.0000   0.0000   0.0000   0.0000   0.0000

          k = 0.0000-0.5774 0.2368 (  2040 PWs)   bands (ev):

     2.6355   2.6689   2.9371   2.9537   3.6205   3.7237   3.8300   3.9424
     4.0768   4.0816   8.8866   9.0544  11.0277  11.0349  20.6997  21.0024

     occupation numbers 
     1.0000   1.0000   1.0000   1.0000   1.0000   1.0000   1.0000   1.0000
     1.0000   1.0000   1.0000   1.0000   0.0000   0.0000   0.0000   0.0000

          k = 0.0714 0.1237 0.0000 (  2045 PWs)   bands (ev):

     1.0348   2.6292   3.1701   3.3215   3.3564   3.4467   3.4993   3.5999
     3.6063   3.7388   3.9150   8.1059   8.4091  23.5423  23.7716  25.6359

     occupation numbers 
     1.0000   1.0000   1.0000   1.0000   1.0000   1.0000   1.0000   1.0000
     1.0000   1.0000   1.0000   1.0000   1.0000   0.0000   0.0000   0.0000

          k = 0.0714 0.1237 0.0789 (  2040 PWs)   bands (ev):

     1.1596   2.6297   3.1716   3.3055   3.3443   3.4408   3.4911   3.6095
     3.6407   3.7310   3.9062   6.5285  10.2652  23.4474  23.6749  24.0488

     occupation numbers 
     1.0000   1.0000   1.0000   1.0000   1.0000   1.0000   1.0000   1.0000
     1.0000   1.0000   1.0000   1.0000   1.0000   0.0000   0.0000   0.0000

          k = 0.0714 0.1237 0.1579 (  2052 PWs)   bands (ev):

     1.5189   2.6100   3.1759   3.2841   3.3128   3.4330   3.4731   3.5811
     3.7274   3.7367   3.8804   5.1440  12.5167  20.5856  24.0705  24.3356

     occupation numbers 
     1.0000   1.0000   1.0000   1.0000   1.0000   1.0000   1.0000   1.0000
     1.0000   1.0000   1.0000   1.0000   0.0000   0.0000   0.0000   0.0000

          k = 0.0714 0.1237 0.2368 (  2058 PWs)   bands (ev):

     2.0369   2.4669   3.2016   3.2670   3.3005   3.4114   3.4541   3.4544
     3.7818   3.8283   3.8866   4.2438  15.0045  17.7065  24.7223  24.9647

     occupation numbers 
     1.0000   1.0000   1.0000   1.0000   1.0000   1.0000   1.0000   1.0000
     1.0000   1.0000   1.0000   1.0000   0.0000   0.0000   0.0000   0.0000

          k = 0.0714 0.2062 0.0000 (  2043 PWs)   bands (ev):

     1.5888   2.7915   3.1621   3.2983   3.3752   3.4152   3.5441   3.5747
     3.6361   3.6671   3.9135   8.7768   8.8905  20.4367  22.2561  25.8494

     occupation numbers 
     1.0000   1.0000   1.0000   1.0000   1.0000   1.0000   1.0000   1.0000
     1.0000   1.0000   1.0000   1.0000   1.0000   0.0000   0.0000   0.0000

          k = 0.0714 0.2062 0.0789 (  2048 PWs)   bands (ev):

     1.7049   2.8015   3.1696   3.2728   3.3260   3.4370   3.5554   3.5949
     3.6295   3.6883   3.9049   7.1081  10.8287  20.5614  22.3738  24.0819

     occupation numbers 
     1.0000   1.0000   1.0000   1.0000   1.0000   1.0000   1.0000   1.0000
     1.0000   1.0000   1.0000   1.0000   1.0000   0.0000   0.0000   0.0000

          k = 0.0714 0.2062 0.1579 (  2054 PWs)   bands (ev):

     2.0310   2.8180   3.1848   3.2163   3.2625   3.4202   3.5390   3.6042
     3.7153   3.7500   3.8838   5.6872  13.0711  20.7454  21.3200  22.8416

     occupation numbers 
     1.0000   1.0000   1.0000   1.0000   1.0000   1.0000   1.0000   1.0000
     1.0000   1.0000   1.0000   1.0000   0.0000   0.0000   0.0000   0.0000

          k = 0.0714 0.2062 0.2368 (  2062 PWs)   bands (ev):

     2.4662   2.7641   3.1528   3.1640   3.2701   3.3451   3.5518   3.5773
     3.7761   3.8224   4.0399   4.6390  15.5439  18.2185  21.6559  22.5433

     occupation numbers 
     1.0000   1.0000   1.0000   1.0000   1.0000   1.0000   1.0000   1.0000
     1.0000   1.0000   1.0000   1.0000   0.0000   0.0000   0.0000   0.0000

          k = 0.0714 0.2887 0.0000 (  2059 PWs)   bands (ev):

     2.2901   2.8696   3.2109   3.2201   3.2829   3.4791   3.5186   3.5981
     3.7336   3.8636   3.9106   9.3979   9.9494  17.3935  21.0680  23.2034

     occupation numbers 
     1.0000   1.0000   1.0000   1.0000   1.0000   1.0000   1.0000   1.0000
     1.0000   1.0000   1.0000   1.0000   1.0000   0.0000   0.0000   0.0000

          k = 0.0714 0.2887 0.0789 (  2053 PWs)   bands (ev):

     2.3679   2.8835   3.1825   3.2361   3.2545   3.4936   3.5643   3.6060
     3.7513   3.8375   3.9276   7.9218  11.6792  17.5224  21.2002  22.0173

     occupation numbers 
     1.0000   1.0000   1.0000   1.0000   1.0000   1.0000   1.0000   1.0000
     1.0000   1.0000   1.0000   1.0000   0.0000   0.0000   0.0000   0.0000

          k = 0.0714 0.2887 0.1579 (  2052 PWs)   bands (ev):

     2.5605   2.9156   3.1218   3.1749   3.3087   3.4688   3.5884   3.7408
     3.7579   3.8322   4.0166   6.4712  13.8908  17.8991  20.6785  21.4694

     occupation numbers 
     1.0000   1.0000   1.0000   1.0000   1.0000   1.0000   1.0000   1.0000
     1.0000   1.0000   1.0000   1.0000   0.0000   0.0000   0.0000   0.0000

          k = 0.0714 0.2887 0.2368 (  2059 PWs)   bands (ev):

     2.7659   2.9016   3.0795   3.1205   3.3700   3.4253   3.6263   3.6884
     3.8178   3.8463   4.4685   5.3069  16.3115  18.3279  19.2928  19.5694

     occupation numbers 
     1.0000   1.0000   1.0000   1.0000   1.0000   1.0000   1.0000   1.0000
     1.0000   1.0000   1.0000   1.0000   0.0000   0.0000   0.0000   0.0000

          k = 0.0714 0.3712 0.0000 (  2054 PWs)   bands (ev):

     2.7040   2.8250   3.0434   3.3439   3.4210   3.4485   3.5284   3.7534
     3.8858   3.9062   4.4540  10.3115  11.2349  14.5900  20.1350  20.4132

     occupation numbers 
     1.0000   1.0000   1.0000   1.0000   1.0000   1.0000   1.0000   1.0000
     1.0000   1.0000   1.0000   1.0000   0.0000   0.0000   0.0000   0.0000

          k = 0.0714 0.3712 0.0789 (  2057 PWs)   bands (ev):

     2.7034   2.8331   3.0651   3.2418   3.3870   3.5287   3.6405   3.7479
     3.8750   3.9016   4.5232   8.9886  12.7909  14.7195  19.2584  20.2779

     occupation numbers 
     1.0000   1.0000   1.0000   1.0000   1.0000   1.0000   1.0000   1.0000
     1.0000   1.0000   1.0000   1.0000   0.0000   0.0000   0.0000   0.0000

          k = 0.0714 0.3712 0.1579 (  2054 PWs)   bands (ev):

     2.7205   2.8523   3.0683   3.1097   3.4616   3.5716   3.7069   3.8012
     3.8274   3.9221   4.8072   7.5399  14.8975  15.1126  17.9739  20.6765

     occupation numbers 
     1.0000   1.0000   1.0000   1.0000   1.0000   1.0000   1.0000   1.0000
     1.0000   1.0000   1.0000   1.0000   0.0000   0.0000   0.0000   0.0000

          k = 0.0714 0.3712 0.2368 (  2057 PWs)   bands (ev):

     2.7716   2.8367   3.0309   3.0565   3.5703   3.6232   3.6677   3.7131
     3.9017   3.9305   5.4149   6.3378  15.7176  16.3688  17.7798  20.0601

     occupation numbers 
     1.0000   1.0000   1.0000   1.0000   1.0000   1.0000   1.0000   1.0000
     1.0000   1.0000   1.0000   1.0000   0.0000   0.0000   0.0000   0.0000

          k = 0.0714 0.4536 0.0000 (  2059 PWs)   bands (ev):

     2.7177   2.7928   2.9293   3.3784   3.4315   3.4707   3.6378   3.9016
     3.9314   3.9977   5.7339  11.2199  12.3756  12.7042  17.8578  19.4960

     occupation numbers 
     1.0000   1.0000   1.0000   1.0000   1.0000   1.0000   1.0000   1.0000
     1.0000   1.0000   1.0000   0.0000   0.0000   0.0000   0.0000   0.0000

          k = 0.0714 0.4536 0.0789 (  2064 PWs)   bands (ev):

     2.7155   2.7619   2.9773   3.2491   3.4496   3.5159   3.7440   3.8732
     3.9303   4.0023   5.8379  10.2349  12.2471  14.0908  16.8515  19.6374

     occupation numbers 
     1.0000   1.0000   1.0000   1.0000   1.0000   1.0000   1.0000   1.0000
     1.0000   1.0000   1.0000   1.0000   0.0000   0.0000   0.0000   0.0000

          k = 0.0714 0.4536 0.1579 (  2061 PWs)   bands (ev):

     2.6969   2.7678   3.0094   3.0834   3.5006   3.6273   3.8016   3.8523
     3.9300   4.0107   6.1773   8.8688  12.5912  14.9190  16.7960  20.0557

     occupation numbers 
     1.0000   1.0000   1.0000   1.0000   1.0000   1.0000   1.0000   1.0000
     1.0000   1.0000   1.0000   1.0000   0.0000   0.0000   0.0000   0.0000

          k = 0.0714 0.4536 0.2368 (  2053 PWs)   bands (ev):

     2.7159   2.7606   2.9896   2.9980   3.5953   3.7020   3.7497   3.8357
     3.9710   4.0042   6.7953   7.7002  13.2029  14.0409  18.8580  20.6361

     occupation numbers 
     1.0000   1.0000   1.0000   1.0000   1.0000   1.0000   1.0000   1.0000
     1.0000   1.0000   1.0000   1.0000   0.0000   0.0000   0.0000   0.0000

          k = 0.0714 0.5361 0.0000 (  2068 PWs)   bands (ev):

     2.6811   2.7736   2.8722   3.3565   3.4376   3.4809   3.7328   3.8987
     4.0247   4.0498   7.4325   9.5204  13.3049  14.1842  15.6864  17.1054

     occupation numbers 
     1.0000   1.0000   1.0000   1.0000   1.0000   1.0000   1.0000   1.0000
     1.0000   1.0000   1.0000   1.0000   0.0000   0.0000   0.0000   0.0000

          k = 0.0714 0.5361 0.0789 (  2073 PWs)   bands (ev):

     2.6908   2.7163   2.9330   3.2448   3.4366   3.5454   3.8189   3.8721
     4.0224   4.0495   7.5411   9.5726  12.2762  14.0127  16.2748  18.2235

     occupation numbers 
     1.0000   1.0000   1.0000   1.0000   1.0000   1.0000   1.0000   1.0000
     1.0000   1.0000   1.0000   1.0000   0.0000   0.0000   0.0000   0.0000

          k = 0.0714 0.5361 0.1579 (  2066 PWs)   bands (ev):

     2.6682   2.7174   2.9726   3.0722   3.4869   3.6781   3.7989   3.9246
     4.0122   4.0463   7.8716   9.5889  11.2710  12.8859  18.1685  19.7313

     occupation numbers 
     1.0000   1.0000   1.0000   1.0000   1.0000   1.0000   1.0000   1.0000
     1.0000   1.0000   1.0000   1.0000   0.0000   0.0000   0.0000   0.0000

          k = 0.0714 0.5361 0.2368 (  2055 PWs)   bands (ev):

     2.6789   2.7166   2.9629   2.9693   3.5836   3.6957   3.8278   3.9323
     4.0134   4.0340   8.4219   9.1188  11.2069  11.8746  20.2125  20.4343

     occupation numbers 
     1.0000   1.0000   1.0000   1.0000   1.0000   1.0000   1.0000   1.0000
     1.0000   1.0000   1.0000   1.0000   0.0000   0.0000   0.0000   0.0000

          k = 0.1429 0.2474 0.0000 (  2067 PWs)   bands (ev):

     2.2126   2.9368   3.1099   3.2567   3.2906   3.4008   3.4531   3.6366
     3.7284   3.8801   3.8983   9.2947   9.7820  19.0013  19.3308  24.8919

     occupation numbers 
     1.0000   1.0000   1.0000   1.0000   1.0000   1.0000   1.0000   1.0000
     1.0000   1.0000   1.0000   1.0000   1.0000   0.0000   0.0000   0.0000

          k = 0.1429 0.2474 0.0789 (  2058 PWs)   bands (ev):

     2.3042   2.9531   3.1191   3.2116   3.3174   3.3265   3.5625   3.6092
     3.7578   3.8306   3.9376   7.7932  11.5409  19.1363  19.4529  23.6040

     occupation numbers 
     1.0000   1.0000   1.0000   1.0000   1.0000   1.0000   1.0000   1.0000
     1.0000   1.0000   1.0000   1.0000   0.0000   0.0000   0.0000   0.0000

          k = 0.1429 0.2474 0.1579 (  2049 PWs)   bands (ev):

     2.5420   2.9986   3.1341   3.1486   3.2414   3.3201   3.5878   3.7341
     3.7697   3.8020   4.0246   6.3483  13.7601  19.5388  19.7729  21.8559

     occupation numbers 
     1.0000   1.0000   1.0000   1.0000   1.0000   1.0000   1.0000   1.0000
     1.0000   1.0000   1.0000   1.0000   0.0000   0.0000   0.0000   0.0000

          k = 0.1429 0.2474 0.2368 (  2057 PWs)   bands (ev):

     2.8130   3.0047   3.0781   3.1547   3.2029   3.2706   3.6179   3.6826
     3.8348   3.8393   4.4081   5.2033  16.2017  18.7762  20.2016  20.6883

     occupation numbers 
     1.0000   1.0000   1.0000   1.0000   1.0000   1.0000   1.0000   1.0000
     1.0000   1.0000   1.0000   1.0000   0.0000   0.0000   0.0000   0.0000

          k = 0.1429 0.3299 0.0000 (  2057 PWs)   bands (ev):

     2.7905   2.9546   3.1045   3.1783   3.3169   3.3884   3.5148   3.5778
     3.8786   3.8827   4.3833  10.1006  10.9314  16.2322  18.1552  22.0682

     occupation numbers 
     1.0000   1.0000   1.0000   1.0000   1.0000   1.0000   1.0000   1.0000
     1.0000   1.0000   1.0000   1.0000   0.0032   0.0000   0.0000   0.0000

          k = 0.1429 0.3299 0.0789 (  2060 PWs)   bands (ev):

     2.8053   2.9699   3.0940   3.1785   3.2781   3.4408   3.5603   3.5876
     3.8529   3.8944   4.4395   8.7423  12.5328  16.3635  18.2868  20.8806

     occupation numbers 
     1.0000   1.0000   1.0000   1.0000   1.0000   1.0000   1.0000   1.0000
     1.0000   1.0000   1.0000   1.0000   0.0000   0.0000   0.0000   0.0000

          k = 0.1429 0.3299 0.1579 (  2055 PWs)   bands (ev):

     2.8439   3.0159   3.0366   3.1975   3.2679   3.4248   3.5648   3.7688
     3.7803   3.9229   4.6707   7.2958  14.7005  16.7515  18.6708  19.5474

     occupation numbers 
     1.0000   1.0000   1.0000   1.0000   1.0000   1.0000   1.0000   1.0000
     1.0000   1.0000   1.0000   1.0000   0.0000   0.0000   0.0000   0.0000

          k = 0.1429 0.3299 0.2368 (  2049 PWs)   bands (ev):

     2.8992   2.9659   3.0839   3.1541   3.3199   3.3778   3.6063   3.6868
     3.8981   3.9349   5.2183   6.1085  16.9891  17.3591  18.5063  19.1461

     occupation numbers 
     1.0000   1.0000   1.0000   1.0000   1.0000   1.0000   1.0000   1.0000
     1.0000   1.0000   1.0000   1.0000   0.0000   0.0000   0.0000   0.0000

          k = 0.1429 0.4124 0.0000 (  2057 PWs)   bands (ev):

     2.8680   2.9222   2.9888   3.3511   3.3889   3.4413   3.5045   3.6984
     3.8699   3.9805   5.4139  11.1897  12.2997  13.5979  17.3900  19.3977

     occupation numbers 
     1.0000   1.0000   1.0000   1.0000   1.0000   1.0000   1.0000   1.0000
     1.0000   1.0000   1.0000   0.0000   0.0000   0.0000   0.0000   0.0000

          k = 0.1429 0.4124 0.0789 (  2052 PWs)   bands (ev):

     2.8559   2.8950   3.0537   3.2145   3.3795   3.5153   3.6090   3.6933
     3.8413   3.9899   5.5123   9.9573  13.6122  13.8617  17.5249  18.2766

     occupation numbers 
     1.0000   1.0000   1.0000   1.0000   1.0000   1.0000   1.0000   1.0000
     1.0000   1.0000   1.0000   1.0000   0.0000   0.0000   0.0000   0.0000

          k = 0.1429 0.4124 0.1579 (  2050 PWs)   bands (ev):

     2.8259   2.9215   3.0562   3.1242   3.4014   3.5537   3.6597   3.7613
     3.8082   4.0050   5.8388   8.5364  14.0890  15.6595  17.1683  17.9255

     occupation numbers 
     1.0000   1.0000   1.0000   1.0000   1.0000   1.0000   1.0000   1.0000
     1.0000   1.0000   1.0000   1.0000   0.0000   0.0000   0.0000   0.0000

          k = 0.1429 0.4124 0.2368 (  2057 PWs)   bands (ev):

     2.8429   2.9002   3.0347   3.0870   3.4911   3.5756   3.6293   3.6728
     3.9355   3.9964   6.4472   7.3529  14.7231  15.5504  18.3834  18.5594

     occupation numbers 
     1.0000   1.0000   1.0000   1.0000   1.0000   1.0000   1.0000   1.0000
     1.0000   1.0000   1.0000   1.0000   0.0000   0.0000   0.0000   0.0000

          k = 0.1429 0.4949 0.0000 (  2069 PWs)   bands (ev):

     2.8056   2.9026   2.9188   3.3443   3.4347   3.4683   3.5852   3.8613
     3.8672   4.0134   6.9316  10.9176  12.8951  13.8214  16.9190  17.0041

     occupation numbers 
     1.0000   1.0000   1.0000   1.0000   1.0000   1.0000   1.0000   1.0000
     1.0000   1.0000   1.0000   0.7507   0.0000   0.0000   0.0000   0.0000

          k = 0.1429 0.4949 0.0789 (  2062 PWs)   bands (ev):

     2.8113   2.8289   3.0132   3.2362   3.3893   3.5422   3.6875   3.8319
     3.8613   4.0176   7.0439  10.8012  11.9570  14.8458  16.3336  17.0591

     occupation numbers 
     1.0000   1.0000   1.0000   1.0000   1.0000   1.0000   1.0000   1.0000
     1.0000   1.0000   1.0000   1.0000   0.0000   0.0000   0.0000   0.0000

          k = 0.1429 0.4949 0.1579 (  2055 PWs)   bands (ev):

     2.7774   2.8512   3.0624   3.0849   3.4011   3.6457   3.7454   3.8189
     3.8506   4.0206   7.3918   9.9258  11.8335  14.2460  17.4598  17.6639

     occupation numbers 
     1.0000   1.0000   1.0000   1.0000   1.0000   1.0000   1.0000   1.0000
     1.0000   1.0000   1.0000   1.0000   0.0000   0.0000   0.0000   0.0000

          k = 0.1429 0.4949 0.2368 (  2053 PWs)   bands (ev):

     2.7936   2.8467   3.0095   3.0413   3.4983   3.6244   3.7406   3.8003
     3.9350   3.9988   7.9953   8.8572  12.3732  13.2082  18.1187  18.9099

     occupation numbers 
     1.0000   1.0000   1.0000   1.0000   1.0000   1.0000   1.0000   1.0000
     1.0000   1.0000   1.0000   1.0000   0.0000   0.0000   0.0000   0.0000

          k = 0.1429 0.5774 0.0000 (  2062 PWs)   bands (ev):

     2.7825   2.8900   2.8955   3.3569   3.3948   3.4942   3.6353   3.8583
     3.9641   3.9840   8.6085   9.0122  14.1441  14.9191  15.3717  16.7629

     occupation numbers 
     1.0000   1.0000   1.0000   1.0000   1.0000   1.0000   1.0000   1.0000
     1.0000   1.0000   1.0000   1.0000   0.0000   0.0000   0.0000   0.0000

          k = 0.1429 0.5774 0.0789 (  2069 PWs)   bands (ev):

     2.7956   2.8017   2.9971   3.2488   3.3667   3.5667   3.7193   3.8285
     3.9616   3.9839   8.7307   9.0940  13.4135  13.5103  16.8980  17.0458

     occupation numbers 
     1.0000   1.0000   1.0000   1.0000   1.0000   1.0000   1.0000   1.0000
     1.0000   1.0000   1.0000   1.0000   0.0000   0.0000   0.0000   0.0000

          k = 0.1429 0.5774 0.1579 (  2063 PWs)   bands (ev):

     2.7592   2.8259   3.0489   3.0871   3.3868   3.6961   3.7389   3.8281
     3.9538   3.9768   9.0788   9.3319  12.2106  12.2569  17.3088  19.1190

     occupation numbers 
     1.0000   1.0000   1.0000   1.0000   1.0000   1.0000   1.0000   1.0000
     1.0000   1.0000   1.0000   1.0000   0.0000   0.0000   0.0000   0.0000

          k = 0.1429 0.5774 0.2368 (  2052 PWs)   bands (ev):

     2.7756   2.8262   3.0022   3.0255   3.4891   3.6197   3.8219   3.8760
     3.9420   3.9488   9.5350   9.6302  11.3461  11.3696  17.9704  18.8413

     occupation numbers 
     1.0000   1.0000   1.0000   1.0000   1.0000   1.0000   1.0000   1.0000
     1.0000   1.0000   1.0000   1.0000   0.0000   0.0000   0.0000   0.0000

          k = 0.2143 0.3712 0.0000 (  2051 PWs)   bands (ev):

     2.9956   3.0201   3.0580   3.2282   3.3291   3.3749   3.5253   3.5661
     3.8515   3.9776   5.3309  11.1132  12.1632  15.1857  15.5460  21.1395

     occupation numbers 
     1.0000   1.0000   1.0000   1.0000   1.0000   1.0000   1.0000   1.0000
     1.0000   1.0000   1.0000   0.0000   0.0000   0.0000   0.0000   0.0000

          k = 0.2143 0.3712 0.0789 (  2050 PWs)   bands (ev):

     2.9822   3.0078   3.1163   3.1168   3.3598   3.4265   3.5202   3.6212
     3.8226   3.9885   5.4264   9.8521  13.6522  15.3199  15.6769  19.8347

     occupation numbers 
     1.0000   1.0000   1.0000   1.0000   1.0000   1.0000   1.0000   1.0000
     1.0000   1.0000   1.0000   1.0000   0.0000   0.0000   0.0000   0.0000

          k = 0.2143 0.3712 0.1579 (  2045 PWs)   bands (ev):

     2.9503   2.9942   3.0725   3.1953   3.3208   3.4369   3.5251   3.7405
     3.7957   4.0055   5.7444   8.4260  15.6973  15.7430  16.0618  18.4515

     occupation numbers 
     1.0000   1.0000   1.0000   1.0000   1.0000   1.0000   1.0000   1.0000
     1.0000   1.0000   1.0000   1.0000   0.0000   0.0000   0.0000   0.0000

          k = 0.2143 0.3712 0.2368 (  2042 PWs)   bands (ev):

     2.9375   2.9496   3.1309   3.1984   3.3346   3.3957   3.5660   3.6467
     3.9332   3.9976   6.3437   7.2439  16.3802  16.6666  17.1980  17.2945

     occupation numbers 
     1.0000   1.0000   1.0000   1.0000   1.0000   1.0000   1.0000   1.0000
     1.0000   1.0000   1.0000   1.0000   0.0000   0.0000   0.0000   0.0000

          k = 0.2143 0.4536 0.0000 (  2052 PWs)   bands (ev):

     2.9648   2.9719   3.0534   3.3088   3.3863   3.4536   3.4585   3.6848
     3.8272   4.0016   6.7003  12.2280  13.0361  13.6066  14.7760  18.6570

     occupation numbers 
     1.0000   1.0000   1.0000   1.0000   1.0000   1.0000   1.0000   1.0000
     1.0000   1.0000   1.0000   0.0000   0.0000   0.0000   0.0000   0.0000

          k = 0.2143 0.4536 0.0789 (  2052 PWs)   bands (ev):

     2.9326   2.9873   3.1037   3.1958   3.3703   3.4908   3.5360   3.7036
     3.7969   4.0093   6.8140  11.2001  12.9922  14.8970  14.9824  17.5737

     occupation numbers 
     1.0000   1.0000   1.0000   1.0000   1.0000   1.0000   1.0000   1.0000
     1.0000   1.0000   1.0000   0.0000   0.0000   0.0000   0.0000   0.0000

          k = 0.2143 0.4536 0.1579 (  2050 PWs)   bands (ev):

     2.9061   3.0300   3.0538   3.1989   3.3211   3.5233   3.5827   3.7165
     3.8096   4.0182   7.1673   9.8319  13.3613  15.3055  15.8234  17.2175

     occupation numbers 
     1.0000   1.0000   1.0000   1.0000   1.0000   1.0000   1.0000   1.0000
     1.0000   1.0000   1.0000   1.0000   0.0000   0.0000   0.0000   0.0000

          k = 0.2143 0.4536 0.2368 (  2058 PWs)   bands (ev):

     2.9153   2.9651   3.0949   3.1679   3.3904   3.4947   3.5920   3.6369
     3.9296   3.9995   7.7840   8.6759  13.9962  14.8650  15.9558  16.8083

     occupation numbers 
     1.0000   1.0000   1.0000   1.0000   1.0000   1.0000   1.0000   1.0000
     1.0000   1.0000   1.0000   1.0000   0.0000   0.0000   0.0000   0.0000

          k = 0.2143 0.5361 0.0000 (  2057 PWs)   bands (ev):

     2.9381   2.9393   3.0429   3.3284   3.3818   3.4651   3.5036   3.8142
     3.8238   3.9546   8.4118  10.4257  14.1530  14.4755  15.1223  16.4493

     occupation numbers 
     1.0000   1.0000   1.0000   1.0000   1.0000   1.0000   1.0000   1.0000
     1.0000   1.0000   1.0000   1.0000   0.0000   0.0000   0.0000   0.0000

          k = 0.2143 0.5361 0.0789 (  2061 PWs)   bands (ev):

     2.9052   2.9541   3.1029   3.2377   3.3217   3.5368   3.5698   3.7828
     3.8281   3.9609   8.5299  10.5187  13.0866  14.5833  14.9354  16.9794

     occupation numbers 
     1.0000   1.0000   1.0000   1.0000   1.0000   1.0000   1.0000   1.0000
     1.0000   1.0000   1.0000   1.0000   0.0000   0.0000   0.0000   0.0000

          k = 0.2143 0.5361 0.1579 (  2061 PWs)   bands (ev):

     2.8822   2.9934   3.0996   3.1846   3.2787   3.5911   3.6486   3.7185
     3.8525   3.9693   8.8849  10.6844  11.9504  13.7210  15.0005  17.5617

     occupation numbers 
     1.0000   1.0000   1.0000   1.0000   1.0000   1.0000   1.0000   1.0000
     1.0000   1.0000   1.0000   1.0000   0.0000   0.0000   0.0000   0.0000

          k = 0.2143 0.5361 0.2368 (  2064 PWs)   bands (ev):

     2.9044   2.9733   3.0680   3.1371   3.3822   3.5168   3.6827   3.7047
     3.9084   3.9559   9.4728  10.2369  11.8930  12.6532  15.6544  16.5408

     occupation numbers 
     1.0000   1.0000   1.0000   1.0000   1.0000   1.0000   1.0000   1.0000
     1.0000   1.0000   1.0000   1.0000   0.0000   0.0000   0.0000   0.0000

          k = 0.2857 0.4949 0.0000 (  2053 PWs)   bands (ev):

     2.9623   3.0635   3.1173   3.3008   3.3484   3.3893   3.5066   3.7330
     3.7944   3.9480   8.2899  12.1105  12.4878  14.1240  15.1086  18.0465

     occupation numbers 
     1.0000   1.0000   1.0000   1.0000   1.0000   1.0000   1.0000   1.0000
     1.0000   1.0000   1.0000   0.0000   0.0000   0.0000   0.0000   0.0000

          k = 0.2857 0.4949 0.0789 (  2052 PWs)   bands (ev):

     2.9639   3.0697   3.1420   3.2043   3.3566   3.4346   3.5230   3.7562
     3.7627   3.9566   8.4104  12.0964  12.6242  13.1033  16.0998  16.8673

     occupation numbers 
     1.0000   1.0000   1.0000   1.0000   1.0000   1.0000   1.0000   1.0000
     1.0000   1.0000   1.0000   0.0000   0.0000   0.0000   0.0000   0.0000

          k = 0.2857 0.4949 0.1579 (  2061 PWs)   bands (ev):

     2.9696   3.0638   3.1399   3.2083   3.2977   3.4750   3.5481   3.6851
     3.8267   3.9689   8.7756  11.3322  12.8844  13.0272  15.4761  15.5986

     occupation numbers 
     1.0000   1.0000   1.0000   1.0000   1.0000   1.0000   1.0000   1.0000
     1.0000   1.0000   1.0000   0.0000   0.0000   0.0000   0.0000   0.0000

          k = 0.2857 0.4949 0.2368 (  2054 PWs)   bands (ev):

     2.9843   3.0166   3.1655   3.2157   3.3294   3.4296   3.5738   3.6126
     3.9083   3.9586   9.3924  10.2599  13.4429  13.6688  14.3507  14.5823

     occupation numbers 
     1.0000   1.0000   1.0000   1.0000   1.0000   1.0000   1.0000   1.0000
     1.0000   1.0000   1.0000   1.0000   0.0000   0.0000   0.0000   0.0000

          k = 0.2857 0.5774 0.0000 (  2061 PWs)   bands (ev):

     2.9645   3.0955   3.1451   3.3190   3.3212   3.3411   3.5330   3.7822
     3.8081   3.8708  10.1597  10.1603  12.1830  15.5378  16.3584  16.4495

     occupation numbers 
     1.0000   1.0000   1.0000   1.0000   1.0000   1.0000   1.0000   1.0000
     1.0000   1.0000   1.0000   1.0000   0.0000   0.0000   0.0000   0.0000

          k = 0.2857 0.5774 0.0789 (  2062 PWs)   bands (ev):

     2.9769   3.0988   3.1394   3.2477   3.3226   3.3972   3.5437   3.7499
     3.8231   3.8842  10.2670  10.2922  12.3067  14.7508  14.7731  16.6483

     occupation numbers 
     1.0000   1.0000   1.0000   1.0000   1.0000   1.0000   1.0000   1.0000
     1.0000   1.0000   1.0000   1.0000   0.0000   0.0000   0.0000   0.0000

          k = 0.2857 0.5774 0.1579 (  2064 PWs)   bands (ev):

     2.9992   3.0932   3.1499   3.1878   3.3246   3.4287   3.5625   3.6719
     3.8624   3.9105  10.5882  10.6724  12.6227  13.4880  13.5327  15.4246

     occupation numbers 
     1.0000   1.0000   1.0000   1.0000   1.0000   1.0000   1.0000   1.0000
     1.0000   1.0000   1.0000   1.0000   0.0000   0.0000   0.0000   0.0000

          k = 0.2857 0.5774 0.2368 (  2054 PWs)   bands (ev):

     3.0199   3.0544   3.1792   3.1820   3.3486   3.4066   3.5767   3.6027
     3.9042   3.9226  11.0823  11.1912  12.3049  12.5049  13.4775  14.3285

     occupation numbers 
     1.0000   1.0000   1.0000   1.0000   1.0000   1.0000   1.0000   1.0000
     1.0000   1.0000   0.0000   0.0000   0.0000   0.0000   0.0000   0.0000

 ------ SPIN DOWN ----------


          k = 0.0000 0.0000 0.0000 (  2029 PWs)   bands (ev):

     0.5986   2.4608   3.1467   3.3442   3.3442   3.3996   3.3996   3.6806
     3.6806   3.9120   3.9120   7.4408   8.1620  25.2082  27.5827  27.5828

     occupation numbers 
     1.0000   1.0000   1.0000   1.0000   1.0000   1.0000   1.0000   1.0000
     1.0000   1.0000   1.0000   1.0000   1.0000   0.0000   0.0000   0.0000

          k = 0.0000 0.0000 0.0789 (  2047 PWs)   bands (ev):

     0.7266   2.4509   3.1466   3.3413   3.3413   3.3929   3.3929   3.6978
     3.6978   3.9046   3.9046   6.0268   9.8504  23.1714  27.7091  27.7091

     occupation numbers 
     1.0000   1.0000   1.0000   1.0000   1.0000   1.0000   1.0000   1.0000
     1.0000   1.0000   1.0000   1.0000   1.0000   0.0000   0.0000   0.0000

          k = 0.0000 0.0000 0.1579 (  2047 PWs)   bands (ev):

     1.0980   2.3926   3.1611   3.3380   3.3380   3.3758   3.3758   3.7410
     3.7410   3.8819   3.8819   4.6255  12.0995  20.1997  28.0740  28.0741

     occupation numbers 
     1.0000   1.0000   1.0000   1.0000   1.0000   1.0000   1.0000   1.0000
     1.0000   1.0000   1.0000   1.0000   0.0000   0.0000   0.0000   0.0000

          k = 0.0000 0.0000 0.2368 (  2064 PWs)   bands (ev):

     1.6492   2.1636   3.2586   3.3422   3.3422   3.3563   3.3563   3.6624
     3.7943   3.7943   3.8441   3.8441  14.5936  17.3050  28.6177  28.6177

     occupation numbers 
     1.0000   1.0000   1.0000   1.0000   1.0000   1.0000   1.0000   1.0000
     1.0000   1.0000   1.0000   1.0000   0.0000   0.0000   0.0000   0.0000

          k = 0.0000 0.0825 0.0000 (  2047 PWs)   bands (ev):

     0.7455   2.5211   3.1584   3.3331   3.3778   3.3852   3.4312   3.6508
     3.6667   3.8336   3.9145   7.6730   8.2415  25.2344  25.3594  26.3695

     occupation numbers 
     1.0000   1.0000   1.0000   1.0000   1.0000   1.0000   1.0000   1.0000
     1.0000   1.0000   1.0000   1.0000   1.0000   0.0000   0.0000   0.0000

          k = 0.0000 0.0825 0.0789 (  2040 PWs)   bands (ev):

     0.8727   2.5149   3.1578   3.3270   3.3743   3.3767   3.4243   3.6728
     3.6853   3.8191   3.9063   6.2055   9.9876  23.2988  25.3809  26.5034

     occupation numbers 
     1.0000   1.0000   1.0000   1.0000   1.0000   1.0000   1.0000   1.0000
     1.0000   1.0000   1.0000   1.0000   1.0000   0.0000   0.0000   0.0000

          k = 0.0000 0.0825 0.1579 (  2052 PWs)   bands (ev):

     1.2407   2.4705   3.1668   3.3193   3.3555   3.3698   3.4069   3.7211
     3.7317   3.7684   3.8817   4.8272  12.2386  20.3314  25.7619  26.9008

     occupation numbers 
     1.0000   1.0000   1.0000   1.0000   1.0000   1.0000   1.0000   1.0000
     1.0000   1.0000   1.0000   1.0000   0.0000   0.0000   0.0000   0.0000

          k = 0.0000 0.0825 0.2368 (  2066 PWs)   bands (ev):

     1.7828   2.2711   3.2370   3.3258   3.3315   3.3734   3.3873   3.5331
     3.7882   3.8228   3.8411   4.0220  14.7311  17.4400  26.3898  27.2528

     occupation numbers 
     1.0000   1.0000   1.0000   1.0000   1.0000   1.0000   1.0000   1.0000
     1.0000   1.0000   1.0000   1.0000   0.0000   0.0000   0.0000   0.0000

          k = 0.0000 0.1650 0.0000 (  2040 PWs)   bands (ev):

     1.1764   2.6733   3.1732   3.3115   3.3774   3.4733   3.5208   3.5313
     3.6299   3.6904   3.9191   8.3104   8.4968  21.9576  24.7617  25.7402

     occupation numbers 
     1.0000   1.0000   1.0000   1.0000   1.0000   1.0000   1.0000   1.0000
     1.0000   1.0000   1.0000   1.0000   1.0000   0.0000   0.0000   0.0000

          k = 0.0000 0.1650 0.0789 (  2050 PWs)   bands (ev):

     1.2995   2.6765   3.1756   3.2961   3.3543   3.4664   3.5127   3.5532
     3.6544   3.6918   3.9092   6.6788  10.4051  22.0696  23.7161  24.9040

     occupation numbers 
     1.0000   1.0000   1.0000   1.0000   1.0000   1.0000   1.0000   1.0000
     1.0000   1.0000   1.0000   1.0000   1.0000   0.0000   0.0000   0.0000

          k = 0.0000 0.1650 0.1579 (  2054 PWs)   bands (ev):

     1.6525   2.6670   3.1783   3.2711   3.3125   3.4578   3.4944   3.5312
[...]
     1.0000   1.0000   1.0000   1.0000   1.0000   0.0000   0.0000   0.0000

          k = 0.1429 0.2474 0.0789 (  2058 PWs)   bands (ev):

     2.3043   2.9531   3.1191   3.2116   3.3174   3.3265   3.5625   3.6092
     3.7578   3.8306   3.9376   7.7932  11.5409  19.1364  19.4530  23.6040

     occupation numbers 
     1.0000   1.0000   1.0000   1.0000   1.0000   1.0000   1.0000   1.0000
     1.0000   1.0000   1.0000   1.0000   0.0000   0.0000   0.0000   0.0000

          k = 0.1429 0.2474 0.1579 (  2049 PWs)   bands (ev):

     2.5420   2.9986   3.1341   3.1486   3.2414   3.3201   3.5878   3.7341
     3.7697   3.8020   4.0246   6.3484  13.7601  19.5389  19.7730  21.8560

     occupation numbers 
     1.0000   1.0000   1.0000   1.0000   1.0000   1.0000   1.0000   1.0000
     1.0000   1.0000   1.0000   1.0000   0.0000   0.0000   0.0000   0.0000

          k = 0.1429 0.2474 0.2368 (  2057 PWs)   bands (ev):

     2.8130   3.0047   3.0781   3.1548   3.2029   3.2706   3.6179   3.6826
     3.8348   3.8393   4.4082   5.2034  16.2018  18.7763  20.2016  20.6883

     occupation numbers 
     1.0000   1.0000   1.0000   1.0000   1.0000   1.0000   1.0000   1.0000
     1.0000   1.0000   1.0000   1.0000   0.0000   0.0000   0.0000   0.0000

          k = 0.1429 0.3299 0.0000 (  2057 PWs)   bands (ev):

     2.7906   2.9547   3.1045   3.1784   3.3169   3.3884   3.5148   3.5778
     3.8786   3.8827   4.3833  10.1006  10.9315  16.2323  18.1552  22.0683

     occupation numbers 
     1.0000   1.0000   1.0000   1.0000   1.0000   1.0000   1.0000   1.0000
     1.0000   1.0000   1.0000   1.0000   0.0030   0.0000   0.0000   0.0000

          k = 0.1429 0.3299 0.0789 (  2060 PWs)   bands (ev):

     2.8053   2.9699   3.0940   3.1785   3.2781   3.4408   3.5603   3.5876
     3.8529   3.8944   4.4396   8.7424  12.5329  16.3635  18.2869  20.8807

     occupation numbers 
     1.0000   1.0000   1.0000   1.0000   1.0000   1.0000   1.0000   1.0000
     1.0000   1.0000   1.0000   1.0000   0.0000   0.0000   0.0000   0.0000

          k = 0.1429 0.3299 0.1579 (  2055 PWs)   bands (ev):

     2.8439   3.0159   3.0366   3.1976   3.2679   3.4248   3.5648   3.7688
     3.7803   3.9229   4.6708   7.2958  14.7005  16.7516  18.6709  19.5475

     occupation numbers 
     1.0000   1.0000   1.0000   1.0000   1.0000   1.0000   1.0000   1.0000
     1.0000   1.0000   1.0000   1.0000   0.0000   0.0000   0.0000   0.0000

          k = 0.1429 0.3299 0.2368 (  2049 PWs)   bands (ev):

     2.8992   2.9659   3.0840   3.1541   3.3199   3.3778   3.6063   3.6868
     3.8981   3.9350   5.2184   6.1085  16.9891  17.3592  18.5064  19.1461

     occupation numbers 
     1.0000   1.0000   1.0000   1.0000   1.0000   1.0000   1.0000   1.0000
     1.0000   1.0000   1.0000   1.0000   0.0000   0.0000   0.0000   0.0000

          k = 0.1429 0.4124 0.0000 (  2057 PWs)   bands (ev):

     2.8680   2.9223   2.9888   3.3511   3.3890   3.4414   3.5045   3.6984
     3.8699   3.9805   5.4139  11.1897  12.2998  13.5980  17.3900  19.3978

     occupation numbers 
     1.0000   1.0000   1.0000   1.0000   1.0000   1.0000   1.0000   1.0000
     1.0000   1.0000   1.0000   0.0000   0.0000   0.0000   0.0000   0.0000

          k = 0.1429 0.4124 0.0789 (  2052 PWs)   bands (ev):

     2.8559   2.8950   3.0537   3.2145   3.3795   3.5153   3.6090   3.6933
     3.8413   3.9899   5.5124   9.9573  13.6123  13.8618  17.5249  18.2767

     occupation numbers 
     1.0000   1.0000   1.0000   1.0000   1.0000   1.0000   1.0000   1.0000
     1.0000   1.0000   1.0000   1.0000   0.0000   0.0000   0.0000   0.0000

          k = 0.1429 0.4124 0.1579 (  2050 PWs)   bands (ev):

     2.8259   2.9215   3.0562   3.1242   3.4014   3.5537   3.6597   3.7613
     3.8082   4.0050   5.8388   8.5364  14.0891  15.6596  17.1684  17.9256

     occupation numbers 
     1.0000   1.0000   1.0000   1.0000   1.0000   1.0000   1.0000   1.0000
     1.0000   1.0000   1.0000   1.0000   0.0000   0.0000   0.0000   0.0000

          k = 0.1429 0.4124 0.2368 (  2057 PWs)   bands (ev):

     2.8429   2.9002   3.0348   3.0870   3.4911   3.5756   3.6293   3.6729
     3.9355   3.9964   6.4472   7.3530  14.7232  15.5505  18.3835  18.5595

     occupation numbers 
     1.0000   1.0000   1.0000   1.0000   1.0000   1.0000   1.0000   1.0000
     1.0000   1.0000   1.0000   1.0000   0.0000   0.0000   0.0000   0.0000

          k = 0.1429 0.4949 0.0000 (  2069 PWs)   bands (ev):

     2.8056   2.9027   2.9188   3.3443   3.4347   3.4683   3.5853   3.8613
     3.8672   4.0135   6.9317  10.9177  12.8951  13.8215  16.9191  17.0041

     occupation numbers 
     1.0000   1.0000   1.0000   1.0000   1.0000   1.0000   1.0000   1.0000
     1.0000   1.0000   1.0000   0.7430   0.0000   0.0000   0.0000   0.0000

          k = 0.1429 0.4949 0.0789 (  2062 PWs)   bands (ev):

     2.8113   2.8289   3.0133   3.2362   3.3893   3.5422   3.6875   3.8319
     3.8613   4.0176   7.0439  10.8013  11.9571  14.8459  16.3336  17.0592

     occupation numbers 
     1.0000   1.0000   1.0000   1.0000   1.0000   1.0000   1.0000   1.0000
     1.0000   1.0000   1.0000   1.0000   0.0000   0.0000   0.0000   0.0000

          k = 0.1429 0.4949 0.1579 (  2055 PWs)   bands (ev):

     2.7774   2.8512   3.0624   3.0849   3.4011   3.6457   3.7454   3.8189
     3.8506   4.0206   7.3918   9.9259  11.8335  14.2461  17.4599  17.6640

     occupation numbers 
     1.0000   1.0000   1.0000   1.0000   1.0000   1.0000   1.0000   1.0000
     1.0000   1.0000   1.0000   1.0000   0.0000   0.0000   0.0000   0.0000

          k = 0.1429 0.4949 0.2368 (  2053 PWs)   bands (ev):

     2.7936   2.8467   3.0095   3.0413   3.4983   3.6245   3.7406   3.8003
     3.9350   3.9988   7.9954   8.8573  12.3733  13.2083  18.1187  18.9100

     occupation numbers 
     1.0000   1.0000   1.0000   1.0000   1.0000   1.0000   1.0000   1.0000
     1.0000   1.0000   1.0000   1.0000   0.0000   0.0000   0.0000   0.0000

          k = 0.1429 0.5774 0.0000 (  2062 PWs)   bands (ev):

     2.7825   2.8901   2.8955   3.3569   3.3948   3.4942   3.6353   3.8583
     3.9641   3.9840   8.6085   9.0123  14.1441  14.9192  15.3718  16.7630

     occupation numbers 
     1.0000   1.0000   1.0000   1.0000   1.0000   1.0000   1.0000   1.0000
     1.0000   1.0000   1.0000   1.0000   0.0000   0.0000   0.0000   0.0000

          k = 0.1429 0.5774 0.0789 (  2069 PWs)   bands (ev):

     2.7956   2.8017   2.9971   3.2488   3.3667   3.5667   3.7193   3.8285
     3.9616   3.9839   8.7307   9.0941  13.4136  13.5104  16.8981  17.0458

     occupation numbers 
     1.0000   1.0000   1.0000   1.0000   1.0000   1.0000   1.0000   1.0000
     1.0000   1.0000   1.0000   1.0000   0.0000   0.0000   0.0000   0.0000

          k = 0.1429 0.5774 0.1579 (  2063 PWs)   bands (ev):

     2.7592   2.8259   3.0489   3.0872   3.3868   3.6961   3.7389   3.8281
     3.9539   3.9768   9.0789   9.3320  12.2106  12.2570  17.3089  19.1206

     occupation numbers 
     1.0000   1.0000   1.0000   1.0000   1.0000   1.0000   1.0000   1.0000
     1.0000   1.0000   1.0000   1.0000   0.0000   0.0000   0.0000   0.0000

          k = 0.1429 0.5774 0.2368 (  2052 PWs)   bands (ev):

     2.7756   2.8262   3.0022   3.0255   3.4891   3.6197   3.8220   3.8761
     3.9420   3.9488   9.5350   9.6303  11.3462  11.3697  17.9705  18.8413

     occupation numbers 
     1.0000   1.0000   1.0000   1.0000   1.0000   1.0000   1.0000   1.0000
     1.0000   1.0000   1.0000   1.0000   0.0000   0.0000   0.0000   0.0000

          k = 0.2143 0.3712 0.0000 (  2051 PWs)   bands (ev):

     2.9957   3.0201   3.0580   3.2282   3.3291   3.3749   3.5253   3.5661
     3.8515   3.9776   5.3310  11.1133  12.1633  15.1858  15.5461  21.1396

     occupation numbers 
     1.0000   1.0000   1.0000   1.0000   1.0000   1.0000   1.0000   1.0000
     1.0000   1.0000   1.0000   0.0000   0.0000   0.0000   0.0000   0.0000

          k = 0.2143 0.3712 0.0789 (  2050 PWs)   bands (ev):

     2.9822   3.0078   3.1163   3.1168   3.3598   3.4265   3.5202   3.6212
     3.8226   3.9885   5.4264   9.8521  13.6522  15.3199  15.6770  19.8348

     occupation numbers 
     1.0000   1.0000   1.0000   1.0000   1.0000   1.0000   1.0000   1.0000
     1.0000   1.0000   1.0000   1.0000   0.0000   0.0000   0.0000   0.0000

          k = 0.2143 0.3712 0.1579 (  2045 PWs)   bands (ev):

     2.9503   2.9943   3.0725   3.1953   3.3208   3.4369   3.5251   3.7405
     3.7957   4.0055   5.7445   8.4261  15.6974  15.7431  16.0619  18.4516

     occupation numbers 
     1.0000   1.0000   1.0000   1.0000   1.0000   1.0000   1.0000   1.0000
     1.0000   1.0000   1.0000   1.0000   0.0000   0.0000   0.0000   0.0000

          k = 0.2143 0.3712 0.2368 (  2042 PWs)   bands (ev):

     2.9375   2.9496   3.1310   3.1984   3.3346   3.3957   3.5660   3.6467
     3.9332   3.9976   6.3437   7.2440  16.3803  16.6666  17.1981  17.2946

     occupation numbers 
     1.0000   1.0000   1.0000   1.0000   1.0000   1.0000   1.0000   1.0000
     1.0000   1.0000   1.0000   1.0000   0.0000   0.0000   0.0000   0.0000

          k = 0.2143 0.4536 0.0000 (  2052 PWs)   bands (ev):

     2.9648   2.9719   3.0535   3.3088   3.3863   3.4536   3.4585   3.6848
     3.8272   4.0017   6.7004  12.2281  13.0361  13.6066  14.7760  18.6571

     occupation numbers 
     1.0000   1.0000   1.0000   1.0000   1.0000   1.0000   1.0000   1.0000
     1.0000   1.0000   1.0000   0.0000   0.0000   0.0000   0.0000   0.0000

          k = 0.2143 0.4536 0.0789 (  2052 PWs)   bands (ev):

     2.9326   2.9873   3.1037   3.1958   3.3703   3.4908   3.5361   3.7036
     3.7969   4.0093   6.8141  11.2002  12.9923  14.8970  14.9825  17.5738

     occupation numbers 
     1.0000   1.0000   1.0000   1.0000   1.0000   1.0000   1.0000   1.0000
     1.0000   1.0000   1.0000   0.0000   0.0000   0.0000   0.0000   0.0000

          k = 0.2143 0.4536 0.1579 (  2050 PWs)   bands (ev):

     2.9061   3.0300   3.0538   3.1989   3.3211   3.5233   3.5827   3.7165
     3.8096   4.0182   7.1673   9.8320  13.3614  15.3056  15.8235  17.2175

     occupation numbers 
     1.0000   1.0000   1.0000   1.0000   1.0000   1.0000   1.0000   1.0000
     1.0000   1.0000   1.0000   1.0000   0.0000   0.0000   0.0000   0.0000

          k = 0.2143 0.4536 0.2368 (  2058 PWs)   bands (ev):

     2.9153   2.9651   3.0949   3.1680   3.3904   3.4947   3.5920   3.6369
     3.9296   3.9995   7.7840   8.6760  13.9963  14.8651  15.9559  16.8084

     occupation numbers 
     1.0000   1.0000   1.0000   1.0000   1.0000   1.0000   1.0000   1.0000
     1.0000   1.0000   1.0000   1.0000   0.0000   0.0000   0.0000   0.0000

          k = 0.2143 0.5361 0.0000 (  2057 PWs)   bands (ev):

     2.9382   2.9393   3.0429   3.3284   3.3818   3.4652   3.5036   3.8142
     3.8238   3.9546   8.4119  10.4257  14.1530  14.4756  15.1224  16.4494

     occupation numbers 
     1.0000   1.0000   1.0000   1.0000   1.0000   1.0000   1.0000   1.0000
     1.0000   1.0000   1.0000   1.0000   0.0000   0.0000   0.0000   0.0000

          k = 0.2143 0.5361 0.0789 (  2061 PWs)   bands (ev):

     2.9052   2.9541   3.1029   3.2377   3.3217   3.5368   3.5698   3.7828
     3.8281   3.9609   8.5300  10.5188  13.0867  14.5833  14.9355  16.9795

     occupation numbers 
     1.0000   1.0000   1.0000   1.0000   1.0000   1.0000   1.0000   1.0000
     1.0000   1.0000   1.0000   1.0000   0.0000   0.0000   0.0000   0.0000

          k = 0.2143 0.5361 0.1579 (  2061 PWs)   bands (ev):

     2.8822   2.9934   3.0996   3.1846   3.2787   3.5911   3.6486   3.7185
     3.8525   3.9693   8.8850  10.6845  11.9505  13.7211  15.0005  17.5617

     occupation numbers 
     1.0000   1.0000   1.0000   1.0000   1.0000   1.0000   1.0000   1.0000
     1.0000   1.0000   1.0000   1.0000   0.0000   0.0000   0.0000   0.0000

          k = 0.2143 0.5361 0.2368 (  2064 PWs)   bands (ev):

     2.9044   2.9734   3.0680   3.1371   3.3822   3.5169   3.6827   3.7047
     3.9084   3.9559   9.4729  10.2370  11.8930  12.6533  15.6545  16.5409

     occupation numbers 
     1.0000   1.0000   1.0000   1.0000   1.0000   1.0000   1.0000   1.0000
     1.0000   1.0000   1.0000   1.0000   0.0000   0.0000   0.0000   0.0000

          k = 0.2857 0.4949 0.0000 (  2053 PWs)   bands (ev):

     2.9623   3.0635   3.1173   3.3008   3.3485   3.3893   3.5066   3.7330
     3.7944   3.9480   8.2899  12.1106  12.4878  14.1240  15.1087  18.0465

     occupation numbers 
     1.0000   1.0000   1.0000   1.0000   1.0000   1.0000   1.0000   1.0000
     1.0000   1.0000   1.0000   0.0000   0.0000   0.0000   0.0000   0.0000

          k = 0.2857 0.4949 0.0789 (  2052 PWs)   bands (ev):

     2.9639   3.0697   3.1421   3.2043   3.3566   3.4346   3.5231   3.7562
     3.7627   3.9566   8.4105  12.0965  12.6243  13.1033  16.0999  16.8674

     occupation numbers 
     1.0000   1.0000   1.0000   1.0000   1.0000   1.0000   1.0000   1.0000
     1.0000   1.0000   1.0000   0.0000   0.0000   0.0000   0.0000   0.0000

          k = 0.2857 0.4949 0.1579 (  2061 PWs)   bands (ev):

     2.9696   3.0638   3.1399   3.2083   3.2977   3.4750   3.5482   3.6851
     3.8267   3.9689   8.7757  11.3322  12.8845  13.0273  15.4762  15.5986

     occupation numbers 
     1.0000   1.0000   1.0000   1.0000   1.0000   1.0000   1.0000   1.0000
     1.0000   1.0000   1.0000   0.0000   0.0000   0.0000   0.0000   0.0000

          k = 0.2857 0.4949 0.2368 (  2054 PWs)   bands (ev):

     2.9843   3.0166   3.1655   3.2157   3.3294   3.4296   3.5738   3.6126
     3.9084   3.9586   9.3925  10.2600  13.4429  13.6688  14.3508  14.5823

     occupation numbers 
     1.0000   1.0000   1.0000   1.0000   1.0000   1.0000   1.0000   1.0000
     1.0000   1.0000   1.0000   1.0000   0.0000   0.0000   0.0000   0.0000

          k = 0.2857 0.5774 0.0000 (  2061 PWs)   bands (ev):

     2.9645   3.0955   3.1451   3.3190   3.3212   3.3411   3.5330   3.7822
     3.8081   3.8708  10.1597  10.1604  12.1831  15.5378  16.3585  16.4495

     occupation numbers 
     1.0000   1.0000   1.0000   1.0000   1.0000   1.0000   1.0000   1.0000
     1.0000   1.0000   1.0000   1.0000   0.0000   0.0000   0.0000   0.0000

          k = 0.2857 0.5774 0.0789 (  2062 PWs)   bands (ev):

     2.9769   3.0989   3.1395   3.2477   3.3226   3.3972   3.5437   3.7499
     3.8231   3.8842  10.2671  10.2923  12.3067  14.7508  14.7732  16.6483

     occupation numbers 
     1.0000   1.0000   1.0000   1.0000   1.0000   1.0000   1.0000   1.0000
     1.0000   1.0000   1.0000   1.0000   0.0000   0.0000   0.0000   0.0000

          k = 0.2857 0.5774 0.1579 (  2064 PWs)   bands (ev):

     2.9992   3.0932   3.1500   3.1879   3.3246   3.4287   3.5625   3.6719
     3.8624   3.9105  10.5883  10.6725  12.6228  13.4881  13.5328  15.4247

     occupation numbers 
     1.0000   1.0000   1.0000   1.0000   1.0000   1.0000   1.0000   1.0000
     1.0000   1.0000   1.0000   1.0000   0.0000   0.0000   0.0000   0.0000

          k = 0.2857 0.5774 0.2368 (  2054 PWs)   bands (ev):

     3.0199   3.0545   3.1792   3.1820   3.3486   3.4066   3.5767   3.6027
     3.9042   3.9226  11.0824  11.1913  12.3050  12.5050  13.4776  14.3285

     occupation numbers 
     1.0000   1.0000   1.0000   1.0000   1.0000   1.0000   1.0000   1.0000
     1.0000   1.0000   0.0000   0.0000   0.0000   0.0000   0.0000   0.0000

     the Fermi energy is    10.9209 ev

!    total energy              =    -487.44660745 Ry
     total all-electron energy =     -7184.240653 Ry
     estimated scf accuracy    <       0.00000187 Ry
     smearing contrib. (-TS)   =      -0.00000083 Ry
     internal energy E=F+TS    =    -487.44660663 Ry

     The total energy is F=E-TS. E is the sum of the following terms:
     one-electron contribution =    -117.38419748 Ry
     hartree contribution      =      91.76271361 Ry
     xc contribution           =     -94.34827210 Ry
     ewald contribution        =    -176.60862994 Ry
     one-center paw contrib.   =    -190.86822072 Ry
      -> PAW hartree energy AE =     121.56523193 Ry
      -> PAW hartree energy PS =    -120.94006107 Ry
      -> PAW xc energy AE      =    -143.04751382 Ry
      -> PAW xc energy PS      =      46.98823260 Ry
      -> total E_H with PAW    =      92.38788447 Ry
      -> total E_XC with PAW   =    -190.40755332 Ry

     total magnetization       =     0.00 Bohr mag/cell
     absolute magnetization    =     0.00 Bohr mag/cell

     convergence has been achieved in   5 iterations

     Writing all to output data dir ./out/Zn.save/
 
     init_run     :      0.40s CPU      0.44s WALL (       1 calls)
     electrons    :      5.12s CPU      5.62s WALL (       1 calls)

     Called by init_run:
     wfcinit      :      0.25s CPU      0.26s WALL (       1 calls)
     wfcinit:atom :      0.00s CPU      0.00s WALL (      96 calls)
     wfcinit:wfcr :      0.24s CPU      0.24s WALL (      96 calls)
     potinit      :      0.09s CPU      0.13s WALL (       1 calls)
     hinit0       :      0.04s CPU      0.04s WALL (       1 calls)

     Called by electrons:
     c_bands      :      4.00s CPU      4.36s WALL (       6 calls)
     sum_band     :      0.64s CPU      0.67s WALL (       6 calls)
     v_of_rho     :      0.02s CPU      0.02s WALL (       6 calls)
     v_h          :      0.00s CPU      0.00s WALL (       6 calls)
     v_xc         :      0.02s CPU      0.02s WALL (       6 calls)
     newd         :      0.01s CPU      0.01s WALL (       6 calls)
     PAW_pot      :      0.53s CPU      0.66s WALL (       6 calls)
     mix_rho      :      0.00s CPU      0.00s WALL (       6 calls)

     Called by c_bands:
     init_us_2    :      0.05s CPU      0.05s WALL (    1248 calls)
     init_us_2:cp :      0.04s CPU      0.05s WALL (    1248 calls)
     cegterg      :      3.71s CPU      3.93s WALL (     576 calls)

     Called by sum_band:
     sum_band:wei :      0.01s CPU      0.01s WALL (       6 calls)
     sum_band:loo :      0.60s CPU      0.63s WALL (       6 calls)
     sum_band:buf :      0.00s CPU      0.00s WALL (     576 calls)
     sum_band:ini :      0.02s CPU      0.02s WALL (     576 calls)
     sum_band:cal :      0.04s CPU      0.05s WALL (     576 calls)
     sum_band:bec :      0.00s CPU      0.00s WALL (     576 calls)
     addusdens    :      0.02s CPU      0.02s WALL (       6 calls)
                                        0.00s GPU  (       6 calls)
     addusd:skk   :      0.00s CPU      0.00s WALL (       6 calls)
                                        0.00s GPU  (       6 calls)

     Called by *egterg:
     cdiaghg      :      0.63s CPU      0.66s WALL (    2266 calls)
     cegterg:over :      0.09s CPU      0.09s WALL (    1786 calls)
     cegterg:upda :      0.02s CPU      0.03s WALL (    1786 calls)
     cegterg:last :      0.04s CPU      0.04s WALL (    1252 calls)
     h_psi        :      3.01s CPU      3.19s WALL (    2458 calls)
     s_psi        :      0.06s CPU      0.06s WALL (    2458 calls)
     g_psi        :      0.01s CPU      0.01s WALL (    1786 calls)

     Called by h_psi:
     h_psi:calbec :      0.14s CPU      0.15s WALL (    2458 calls)
     vloc_psi     :      2.79s CPU      2.96s WALL (    2458 calls)
     add_vuspsi   :      0.06s CPU      0.06s WALL (    2458 calls)

     General routines
     calbec       :      0.18s CPU      0.19s WALL (    3034 calls)
     fft          :      0.01s CPU      0.01s WALL (     126 calls)
     ffts         :      0.00s CPU      0.00s WALL (      12 calls)
     fftw         :      3.06s CPU      3.24s WALL (   62986 calls)
 
     Parallel routines

     PAW routines
     PAW_pot      :      0.53s CPU      0.66s WALL (       6 calls)
     PAW_symme    :      0.01s CPU      0.01s WALL (      12 calls)
 
     PWSCF        :      5.78s CPU      6.70s WALL

 
   This run was terminated on:   4: 5:19  13Mar2024            

=------------------------------------------------------------------------------=
   JOB DONE.
=------------------------------------------------------------------------------=
