
     Program PWSCF v.7.2 starts on  1Jul2024 at  4:22:53 

     This program is part of the open-source Quantum ESPRESSO suite
     for quantum simulation of materials; please cite
         "P. Giannozzi et al., J. Phys.:Condens. Matter 21 395502 (2009);
         "P. Giannozzi et al., J. Phys.:Condens. Matter 29 465901 (2017);
         "P. Giannozzi et al., J. Chem. Phys. 152 154105 (2020);
          URL http://www.quantum-espresso.org", 
     in publications or presentations arising from this work. More details at
     http://www.quantum-espresso.org/quote

     Parallel version (MPI), running on  1120 processors

     MPI processes distributed on    10 nodes
     228785 MiB available memory on the printing compute node when the environment starts
 
     Waiting for input...
     Reading input from standard input

     Current dimensions of program PWSCF are:
     Max number of different atomic species (ntypx) = 10
     Max number of k-points (npk) =  40000
     Max angular momentum in pseudopotentials (lmaxx) =  4
     file S.pbe-n-kjpaw_psl.1.0.0.UPF: wavefunction(s)  3S 3P renormalized
     file Zn.pbe-dnl-kjpaw_psl.1.0.0.UPF: wavefunction(s)  4S 3D renormalized
     Found identity + (  0.0000  0.2500  0.2500) symmetry
     This is a supercell, fractional translations are disabled
 
     K-points division:     npool     =      10
     R & G space division:  proc/nbgrp/npool/nimage =     112
     Subspace diagonalization in iterative solution of the eigenvalue problem:
     one sub-group per band group will be used
     scalapack distributed-memory algorithm (size of sub-group:  3*  3 procs)

 
     Parallelization info
     --------------------
     sticks:   dense  smooth     PW     G-vecs:    dense   smooth      PW
     Min         126     126     33                11287    11287    1523
     Max         128     128     34                11292    11292    1528
     Sum       14137   14137   3721              1264415  1264415  170709
 
     Using Slab Decomposition
 


     bravais-lattice index     =            1
     lattice parameter (alat)  =      20.5686  a.u.
     unit-cell volume          =    8701.8437 (a.u.)^3
     number of atoms/cell      =           64
     number of atomic types    =            2
     number of electrons       =       576.00
     number of Kohn-Sham states=          345
     kinetic-energy cutoff     =     105.0000  Ry
     charge density cutoff     =     420.0000  Ry
     scf convergence threshold =      1.0E-06
     mixing beta               =       0.7000
     number of iterations used =            8  plain     mixing
     Exchange-correlation= SLA  PW   PBX  PBC
                           (   1   4   3   4   0   0   0)
     Hubbard projectors: ortho-atomic
     Hubbard parameters of DFT+U (Dudarev formulation) in eV:
     U(S-3p) =  0.0000
     U(Zn-3d) =  1.0000

     Internal variables: lda_plus_u = T, lda_plus_u_kind = 0

     celldm(1)=  20.568554  celldm(2)=   0.000000  celldm(3)=   0.000000
     celldm(4)=   0.000000  celldm(5)=   0.000000  celldm(6)=   0.000000

     crystal axes: (cart. coord. in units of alat)
               a(1) = (   1.000000   0.000000   0.000000 )  
               a(2) = (   0.000000   1.000000   0.000000 )  
               a(3) = (   0.000000   0.000000   1.000000 )  

     reciprocal axes: (cart. coord. in units 2 pi/alat)
               b(1) = (  1.000000  0.000000  0.000000 )  
               b(2) = (  0.000000  1.000000  0.000000 )  
               b(3) = (  0.000000  0.000000  1.000000 )  


     PseudoPot. # 1 for S  read from file:
     /arf/home/amuhaymin/pseudo/S.pbe-n-kjpaw_psl.1.0.0.UPF
     MD5 check sum: fb45dfebcf3e72a4e1bd4a866ec2e262
     Pseudo is Projector augmented-wave + core cor, Zval =  6.0
     Generated using &quot;atomic&quot; code by A. Dal Corso  v.6.3
     Shape of augmentation charge: PSQ
     Using radial grid of 1151 points,  6 beta functions with: 
                l(1) =   0
                l(2) =   0
                l(3) =   1
                l(4) =   1
                l(5) =   2
                l(6) =   2
     Q(r) pseudized with 0 coefficients 


     PseudoPot. # 2 for Zn read from file:
     /arf/home/amuhaymin/pseudo/Zn.pbe-dnl-kjpaw_psl.1.0.0.UPF
     MD5 check sum: c608214d9520ac179f507641260889e3
     Pseudo is Projector augmented-wave + core cor, Zval = 12.0
     Generated using &quot;atomic&quot; code by A. Dal Corso  v.6.2.2
     Shape of augmentation charge: PSQ
     Using radial grid of 1201 points,  6 beta functions with: 
                l(1) =   0
                l(2) =   0
                l(3) =   1
                l(4) =   1
                l(5) =   2
                l(6) =   2
     Q(r) pseudized with 0 coefficients 


     atomic species   valence    mass     pseudopotential
        S              6.00    32.06500     S ( 1.00)
        Zn            12.00    65.38000     Zn( 1.00)

     24 Sym. Ops. (no inversion) found


                                    s                        frac. trans.

      isym =  1     identity                                     

 cryst.   s( 1) = (     1          0          0      )
                  (     0          1          0      )
                  (     0          0          1      )

 cart.    s( 1) = (  1.0000000  0.0000000  0.0000000 )
                  (  0.0000000  1.0000000  0.0000000 )
                  (  0.0000000  0.0000000  1.0000000 )


      isym =  2     180 deg rotation - cart. axis [0,0,1]        

 cryst.   s( 2) = (    -1          0          0      )
                  (     0         -1          0      )
                  (     0          0          1      )

 cart.    s( 2) = ( -1.0000000  0.0000000  0.0000000 )
                  (  0.0000000 -1.0000000  0.0000000 )
                  (  0.0000000  0.0000000  1.0000000 )


      isym =  3     180 deg rotation - cart. axis [0,1,0]        

 cryst.   s( 3) = (    -1          0          0      )
                  (     0          1          0      )
                  (     0          0         -1      )

 cart.    s( 3) = ( -1.0000000  0.0000000  0.0000000 )
                  (  0.0000000  1.0000000  0.0000000 )
                  (  0.0000000  0.0000000 -1.0000000 )


      isym =  4     180 deg rotation - cart. axis [1,0,0]        

 cryst.   s( 4) = (     1          0          0      )
                  (     0         -1          0      )
                  (     0          0         -1      )

 cart.    s( 4) = (  1.0000000  0.0000000  0.0000000 )
                  (  0.0000000 -1.0000000  0.0000000 )
                  (  0.0000000  0.0000000 -1.0000000 )


      isym =  5     120 deg rotation - cart. axis [-1,-1,-1]     

 cryst.   s( 5) = (     0          0          1      )
                  (     1          0          0      )
                  (     0          1          0      )

 cart.    s( 5) = (  0.0000000  1.0000000  0.0000000 )
                  (  0.0000000  0.0000000  1.0000000 )
                  (  1.0000000  0.0000000  0.0000000 )


      isym =  6     120 deg rotation - cart. axis [-1,1,1]       

 cryst.   s( 6) = (     0          0         -1      )
                  (    -1          0          0      )
                  (     0          1          0      )

 cart.    s( 6) = (  0.0000000 -1.0000000  0.0000000 )
                  (  0.0000000  0.0000000  1.0000000 )
                  ( -1.0000000  0.0000000  0.0000000 )


      isym =  7     120 deg rotation - cart. axis [1,1,-1]       

 cryst.   s( 7) = (     0          0         -1      )
                  (     1          0          0      )
                  (     0         -1          0      )

 cart.    s( 7) = (  0.0000000  1.0000000  0.0000000 )
                  (  0.0000000  0.0000000 -1.0000000 )
                  ( -1.0000000  0.0000000  0.0000000 )


      isym =  8     120 deg rotation - cart. axis [1,-1,1]       

 cryst.   s( 8) = (     0          0          1      )
                  (    -1          0          0      )
                  (     0         -1          0      )

 cart.    s( 8) = (  0.0000000 -1.0000000  0.0000000 )
                  (  0.0000000  0.0000000 -1.0000000 )
                  (  1.0000000  0.0000000  0.0000000 )


      isym =  9     120 deg rotation - cart. axis [1,1,1]        

 cryst.   s( 9) = (     0          1          0      )
                  (     0          0          1      )
                  (     1          0          0      )

 cart.    s( 9) = (  0.0000000  0.0000000  1.0000000 )
                  (  1.0000000  0.0000000  0.0000000 )
                  (  0.0000000  1.0000000  0.0000000 )


      isym = 10     120 deg rotation - cart. axis [-1,1,-1]      

 cryst.   s(10) = (     0         -1          0      )
                  (     0          0         -1      )
                  (     1          0          0      )

 cart.    s(10) = (  0.0000000  0.0000000  1.0000000 )
                  ( -1.0000000  0.0000000  0.0000000 )
                  (  0.0000000 -1.0000000  0.0000000 )


      isym = 11     120 deg rotation - cart. axis [1,-1,-1]      

 cryst.   s(11) = (     0         -1          0      )
                  (     0          0          1      )
                  (    -1          0          0      )

 cart.    s(11) = (  0.0000000  0.0000000 -1.0000000 )
                  ( -1.0000000  0.0000000  0.0000000 )
                  (  0.0000000  1.0000000  0.0000000 )


      isym = 12     120 deg rotation - cart. axis [-1,-1,1]      

 cryst.   s(12) = (     0          1          0      )
                  (     0          0         -1      )
                  (    -1          0          0      )

 cart.    s(12) = (  0.0000000  0.0000000 -1.0000000 )
                  (  1.0000000  0.0000000  0.0000000 )
                  (  0.0000000 -1.0000000  0.0000000 )


      isym = 13     inv. 180 deg rotation - cart. axis [1,1,0]   

 cryst.   s(13) = (     0         -1          0      )
                  (    -1          0          0      )
                  (     0          0          1      )

 cart.    s(13) = (  0.0000000 -1.0000000  0.0000000 )
                  ( -1.0000000  0.0000000  0.0000000 )
                  (  0.0000000  0.0000000  1.0000000 )


      isym = 14     inv. 180 deg rotation - cart. axis [1,-1,0]  

 cryst.   s(14) = (     0          1          0      )
                  (     1          0          0      )
                  (     0          0          1      )

 cart.    s(14) = (  0.0000000  1.0000000  0.0000000 )
                  (  1.0000000  0.0000000  0.0000000 )
                  (  0.0000000  0.0000000  1.0000000 )


      isym = 15     inv.  90 deg rotation - cart. axis [0,0,-1]  

 cryst.   s(15) = (     0          1          0      )
                  (    -1          0          0      )
                  (     0          0         -1      )

 cart.    s(15) = (  0.0000000 -1.0000000  0.0000000 )
                  (  1.0000000  0.0000000  0.0000000 )
                  (  0.0000000  0.0000000 -1.0000000 )


      isym = 16     inv.  90 deg rotation - cart. axis [0,0,1]   

 cryst.   s(16) = (     0         -1          0      )
                  (     1          0          0      )
                  (     0          0         -1      )

 cart.    s(16) = (  0.0000000  1.0000000  0.0000000 )
                  ( -1.0000000  0.0000000  0.0000000 )
                  (  0.0000000  0.0000000 -1.0000000 )


      isym = 17     inv. 180 deg rotation - cart. axis [1,0,1]   

 cryst.   s(17) = (     0          0         -1      )
                  (     0          1          0      )
                  (    -1          0          0      )

 cart.    s(17) = (  0.0000000  0.0000000 -1.0000000 )
                  (  0.0000000  1.0000000  0.0000000 )
                  ( -1.0000000  0.0000000  0.0000000 )


      isym = 18     inv. 180 deg rotation - cart. axis [-1,0,1]  

 cryst.   s(18) = (     0          0          1      )
                  (     0          1          0      )
                  (     1          0          0      )

 cart.    s(18) = (  0.0000000  0.0000000  1.0000000 )
                  (  0.0000000  1.0000000  0.0000000 )
                  (  1.0000000  0.0000000  0.0000000 )


      isym = 19     inv.  90 deg rotation - cart. axis [0,1,0]   

 cryst.   s(19) = (     0          0          1      )
                  (     0         -1          0      )
                  (    -1          0          0      )

 cart.    s(19) = (  0.0000000  0.0000000 -1.0000000 )
                  (  0.0000000 -1.0000000  0.0000000 )
                  (  1.0000000  0.0000000  0.0000000 )


      isym = 20     inv.  90 deg rotation - cart. axis [0,-1,0]  

 cryst.   s(20) = (     0          0         -1      )
                  (     0         -1          0      )
                  (     1          0          0      )

 cart.    s(20) = (  0.0000000  0.0000000  1.0000000 )
                  (  0.0000000 -1.0000000  0.0000000 )
                  ( -1.0000000  0.0000000  0.0000000 )


      isym = 21     inv. 180 deg rotation - cart. axis [0,1,1]   

 cryst.   s(21) = (     1          0          0      )
                  (     0          0         -1      )
                  (     0         -1          0      )

 cart.    s(21) = (  1.0000000  0.0000000  0.0000000 )
                  (  0.0000000  0.0000000 -1.0000000 )
                  (  0.0000000 -1.0000000  0.0000000 )


      isym = 22     inv. 180 deg rotation - cart. axis [0,1,-1]  

 cryst.   s(22) = (     1          0          0      )
                  (     0          0          1      )
                  (     0          1          0      )

 cart.    s(22) = (  1.0000000  0.0000000  0.0000000 )
                  (  0.0000000  0.0000000  1.0000000 )
                  (  0.0000000  1.0000000  0.0000000 )


      isym = 23     inv.  90 deg rotation - cart. axis [-1,0,0]  

 cryst.   s(23) = (    -1          0          0      )
                  (     0          0          1      )
                  (     0         -1          0      )

 cart.    s(23) = ( -1.0000000  0.0000000  0.0000000 )
                  (  0.0000000  0.0000000 -1.0000000 )
                  (  0.0000000  1.0000000  0.0000000 )


      isym = 24     inv.  90 deg rotation - cart. axis [1,0,0]   

 cryst.   s(24) = (    -1          0          0      )
                  (     0          0         -1      )
                  (     0          1          0      )

 cart.    s(24) = ( -1.0000000  0.0000000  0.0000000 )
                  (  0.0000000  0.0000000  1.0000000 )
                  (  0.0000000 -1.0000000  0.0000000 )


     point group T_d (-43m) 
     there are  5 classes
     the character table:

       E     8C3   3C2   6S4   6s_d 
A_1    1.00  1.00  1.00  1.00  1.00
A_2    1.00  1.00  1.00 -1.00 -1.00
E      2.00 -1.00  2.00  0.00  0.00
T_1    3.00  0.00 -1.00  1.00 -1.00
T_2    3.00  0.00 -1.00 -1.00  1.00

     the symmetry operations in each class and the name of the first element:

     E        1
          identity                                               
     8C3      5    7    8    6   12    9   10   11
          120 deg rotation - cart. axis [-1,-1,-1]               
     3C2      2    3    4
          180 deg rotation - cart. axis [0,0,1]                  
     6S4     15   16   20   19   23   24
          inv.  90 deg rotation - cart. axis [0,0,-1]            
     6s_d    13   14   17   18   21   22
          inv. 180 deg rotation - cart. axis [1,1,0]             

   Cartesian axes

     site n.     atom                  positions (alat units)
         1           Zn  tau(   1) = (   0.0000000   0.0000000   0.0000000  )
         2           Zn  tau(   2) = (   0.0000000   0.2500000   0.2500000  )
         3           Zn  tau(   3) = (   0.2500000   0.0000000   0.2500000  )
         4           Zn  tau(   4) = (   0.2500000   0.2500000   0.0000000  )
         5           S   tau(   5) = (   0.1250000   0.3750000   0.3750000  )
         6           S   tau(   6) = (   0.1250000   0.1250000   0.1250000  )
         7           S   tau(   7) = (   0.3750000   0.3750000   0.1250000  )
         8           S   tau(   8) = (   0.3750000   0.1250000   0.3750000  )
         9           Zn  tau(   9) = (   0.0000000   0.0000000   0.5000000  )
        10           Zn  tau(  10) = (   0.0000000   0.2500000   0.7500000  )
        11           Zn  tau(  11) = (   0.2500000   0.0000000   0.7500000  )
        12           Zn  tau(  12) = (   0.2500000   0.2500000   0.5000000  )
        13           S   tau(  13) = (   0.1250000   0.3750000   0.8750000  )
        14           S   tau(  14) = (   0.1250000   0.1250000   0.6250000  )
        15           S   tau(  15) = (   0.3750000   0.3750000   0.6250000  )
        16           S   tau(  16) = (   0.3750000   0.1250000   0.8750000  )
        17           Zn  tau(  17) = (   0.0000000   0.5000000   0.0000000  )
        18           Zn  tau(  18) = (   0.0000000   0.7500000   0.2500000  )
        19           Zn  tau(  19) = (   0.2500000   0.5000000   0.2500000  )
        20           Zn  tau(  20) = (   0.2500000   0.7500000   0.0000000  )
        21           S   tau(  21) = (   0.1250000   0.8750000   0.3750000  )
        22           S   tau(  22) = (   0.1250000   0.6250000   0.1250000  )
        23           S   tau(  23) = (   0.3750000   0.8750000   0.1250000  )
        24           S   tau(  24) = (   0.3750000   0.6250000   0.3750000  )
        25           Zn  tau(  25) = (   0.0000000   0.5000000   0.5000000  )
        26           Zn  tau(  26) = (   0.0000000   0.7500000   0.7500000  )
        27           Zn  tau(  27) = (   0.2500000   0.5000000   0.7500000  )
        28           Zn  tau(  28) = (   0.2500000   0.7500000   0.5000000  )
        29           S   tau(  29) = (   0.1250000   0.8750000   0.8750000  )
        30           S   tau(  30) = (   0.1250000   0.6250000   0.6250000  )
        31           S   tau(  31) = (   0.3750000   0.8750000   0.6250000  )
        32           S   tau(  32) = (   0.3750000   0.6250000   0.8750000  )
        33           Zn  tau(  33) = (   0.5000000   0.0000000   0.0000000  )
        34           Zn  tau(  34) = (   0.5000000   0.2500000   0.2500000  )
        35           Zn  tau(  35) = (   0.7500000   0.0000000   0.2500000  )
        36           Zn  tau(  36) = (   0.7500000   0.2500000   0.0000000  )
        37           S   tau(  37) = (   0.6250000   0.3750000   0.3750000  )
        38           S   tau(  38) = (   0.6250000   0.1250000   0.1250000  )
        39           S   tau(  39) = (   0.8750000   0.3750000   0.1250000  )
        40           S   tau(  40) = (   0.8750000   0.1250000   0.3750000  )
        41           Zn  tau(  41) = (   0.5000000   0.0000000   0.5000000  )
        42           Zn  tau(  42) = (   0.5000000   0.2500000   0.7500000  )
        43           Zn  tau(  43) = (   0.7500000   0.0000000   0.7500000  )
        44           Zn  tau(  44) = (   0.7500000   0.2500000   0.5000000  )
        45           S   tau(  45) = (   0.6250000   0.3750000   0.8750000  )
        46           S   tau(  46) = (   0.6250000   0.1250000   0.6250000  )
        47           S   tau(  47) = (   0.8750000   0.3750000   0.6250000  )
        48           S   tau(  48) = (   0.8750000   0.1250000   0.8750000  )
        49           Zn  tau(  49) = (   0.5000000   0.5000000   0.0000000  )
        50           Zn  tau(  50) = (   0.5000000   0.7500000   0.2500000  )
        51           Zn  tau(  51) = (   0.7500000   0.5000000   0.2500000  )
        52           Zn  tau(  52) = (   0.7500000   0.7500000   0.0000000  )
        53           S   tau(  53) = (   0.6250000   0.8750000   0.3750000  )
        54           S   tau(  54) = (   0.6250000   0.6250000   0.1250000  )
        55           S   tau(  55) = (   0.8750000   0.8750000   0.1250000  )
        56           S   tau(  56) = (   0.8750000   0.6250000   0.3750000  )
        57           Zn  tau(  57) = (   0.5000000   0.5000000   0.5000000  )
        58           Zn  tau(  58) = (   0.5000000   0.7500000   0.7500000  )
        59           Zn  tau(  59) = (   0.7500000   0.5000000   0.7500000  )
        60           Zn  tau(  60) = (   0.7500000   0.7500000   0.5000000  )
        61           S   tau(  61) = (   0.6250000   0.8750000   0.8750000  )
        62           S   tau(  62) = (   0.6250000   0.6250000   0.6250000  )
        63           S   tau(  63) = (   0.8750000   0.8750000   0.6250000  )
        64           S   tau(  64) = (   0.8750000   0.6250000   0.8750000  )

   Crystallographic axes

     site n.     atom                  positions (cryst. coord.)
         1           Zn  tau(   1) = (  0.0000000  0.0000000  0.0000000  )
         2           Zn  tau(   2) = (  0.0000000  0.2500000  0.2500000  )
         3           Zn  tau(   3) = (  0.2500000  0.0000000  0.2500000  )
         4           Zn  tau(   4) = (  0.2500000  0.2500000  0.0000000  )
         5           S   tau(   5) = (  0.1250000  0.3750000  0.3750000  )
         6           S   tau(   6) = (  0.1250000  0.1250000  0.1250000  )
         7           S   tau(   7) = (  0.3750000  0.3750000  0.1250000  )
         8           S   tau(   8) = (  0.3750000  0.1250000  0.3750000  )
         9           Zn  tau(   9) = (  0.0000000  0.0000000  0.5000000  )
        10           Zn  tau(  10) = (  0.0000000  0.2500000  0.7500000  )
        11           Zn  tau(  11) = (  0.2500000  0.0000000  0.7500000  )
        12           Zn  tau(  12) = (  0.2500000  0.2500000  0.5000000  )
        13           S   tau(  13) = (  0.1250000  0.3750000  0.8750000  )
        14           S   tau(  14) = (  0.1250000  0.1250000  0.6250000  )
        15           S   tau(  15) = (  0.3750000  0.3750000  0.6250000  )
        16           S   tau(  16) = (  0.3750000  0.1250000  0.8750000  )
        17           Zn  tau(  17) = (  0.0000000  0.5000000  0.0000000  )
        18           Zn  tau(  18) = (  0.0000000  0.7500000  0.2500000  )
        19           Zn  tau(  19) = (  0.2500000  0.5000000  0.2500000  )
        20           Zn  tau(  20) = (  0.2500000  0.7500000  0.0000000  )
        21           S   tau(  21) = (  0.1250000  0.8750000  0.3750000  )
        22           S   tau(  22) = (  0.1250000  0.6250000  0.1250000  )
        23           S   tau(  23) = (  0.3750000  0.8750000  0.1250000  )
        24           S   tau(  24) = (  0.3750000  0.6250000  0.3750000  )
        25           Zn  tau(  25) = (  0.0000000  0.5000000  0.5000000  )
        26           Zn  tau(  26) = (  0.0000000  0.7500000  0.7500000  )
        27           Zn  tau(  27) = (  0.2500000  0.5000000  0.7500000  )
        28           Zn  tau(  28) = (  0.2500000  0.7500000  0.5000000  )
        29           S   tau(  29) = (  0.1250000  0.8750000  0.8750000  )
        30           S   tau(  30) = (  0.1250000  0.6250000  0.6250000  )
        31           S   tau(  31) = (  0.3750000  0.8750000  0.6250000  )
        32           S   tau(  32) = (  0.3750000  0.6250000  0.8750000  )
        33           Zn  tau(  33) = (  0.5000000  0.0000000  0.0000000  )
        34           Zn  tau(  34) = (  0.5000000  0.2500000  0.2500000  )
        35           Zn  tau(  35) = (  0.7500000  0.0000000  0.2500000  )
        36           Zn  tau(  36) = (  0.7500000  0.2500000  0.0000000  )
        37           S   tau(  37) = (  0.6250000  0.3750000  0.3750000  )
        38           S   tau(  38) = (  0.6250000  0.1250000  0.1250000  )
        39           S   tau(  39) = (  0.8750000  0.3750000  0.1250000  )
        40           S   tau(  40) = (  0.8750000  0.1250000  0.3750000  )
        41           Zn  tau(  41) = (  0.5000000  0.0000000  0.5000000  )
        42           Zn  tau(  42) = (  0.5000000  0.2500000  0.7500000  )
        43           Zn  tau(  43) = (  0.7500000  0.0000000  0.7500000  )
        44           Zn  tau(  44) = (  0.7500000  0.2500000  0.5000000  )
        45           S   tau(  45) = (  0.6250000  0.3750000  0.8750000  )
        46           S   tau(  46) = (  0.6250000  0.1250000  0.6250000  )
        47           S   tau(  47) = (  0.8750000  0.3750000  0.6250000  )
        48           S   tau(  48) = (  0.8750000  0.1250000  0.8750000  )
        49           Zn  tau(  49) = (  0.5000000  0.5000000  0.0000000  )
        50           Zn  tau(  50) = (  0.5000000  0.7500000  0.2500000  )
        51           Zn  tau(  51) = (  0.7500000  0.5000000  0.2500000  )
        52           Zn  tau(  52) = (  0.7500000  0.7500000  0.0000000  )
        53           S   tau(  53) = (  0.6250000  0.8750000  0.3750000  )
        54           S   tau(  54) = (  0.6250000  0.6250000  0.1250000  )
        55           S   tau(  55) = (  0.8750000  0.8750000  0.1250000  )
        56           S   tau(  56) = (  0.8750000  0.6250000  0.3750000  )
        57           Zn  tau(  57) = (  0.5000000  0.5000000  0.5000000  )
        58           Zn  tau(  58) = (  0.5000000  0.7500000  0.7500000  )
        59           Zn  tau(  59) = (  0.7500000  0.5000000  0.7500000  )
        60           Zn  tau(  60) = (  0.7500000  0.7500000  0.5000000  )
        61           S   tau(  61) = (  0.6250000  0.8750000  0.8750000  )
        62           S   tau(  62) = (  0.6250000  0.6250000  0.6250000  )
        63           S   tau(  63) = (  0.8750000  0.8750000  0.6250000  )
        64           S   tau(  64) = (  0.8750000  0.6250000  0.8750000  )

     number of k points=    10
                       cart. coord. in units 2pi/alat
        k(    1) = (   0.0000000   0.0000000   0.0000000), wk =   0.0312500
        k(    2) = (   0.0000000   0.0000000   0.2500000), wk =   0.1875000
        k(    3) = (   0.0000000   0.0000000  -0.5000000), wk =   0.0937500
        k(    4) = (   0.0000000   0.2500000   0.2500000), wk =   0.3750000
        k(    5) = (   0.0000000   0.2500000  -0.5000000), wk =   0.3750000
        k(    6) = (   0.0000000  -0.5000000  -0.5000000), wk =   0.0937500
        k(    7) = (   0.2500000   0.2500000   0.2500000), wk =   0.2500000
        k(    8) = (   0.2500000   0.2500000  -0.5000000), wk =   0.3750000
        k(    9) = (   0.2500000  -0.5000000  -0.5000000), wk =   0.1875000
        k(   10) = (  -0.5000000  -0.5000000  -0.5000000), wk =   0.0312500

                       cryst. coord.
        k(    1) = (   0.0000000   0.0000000   0.0000000), wk =   0.0312500
        k(    2) = (   0.0000000   0.0000000   0.2500000), wk =   0.1875000
        k(    3) = (   0.0000000   0.0000000  -0.5000000), wk =   0.0937500
        k(    4) = (   0.0000000   0.2500000   0.2500000), wk =   0.3750000
        k(    5) = (   0.0000000   0.2500000  -0.5000000), wk =   0.3750000
        k(    6) = (   0.0000000  -0.5000000  -0.5000000), wk =   0.0937500
        k(    7) = (   0.2500000   0.2500000   0.2500000), wk =   0.2500000
        k(    8) = (   0.2500000   0.2500000  -0.5000000), wk =   0.3750000
        k(    9) = (   0.2500000  -0.5000000  -0.5000000), wk =   0.1875000
        k(   10) = (  -0.5000000  -0.5000000  -0.5000000), wk =   0.0312500

     Dense  grid:  1264415 G-vectors     FFT dimensions: ( 135, 135, 135)

     Dynamical RAM for                 wfc:       7.43 MB

     Dynamical RAM for     wfc (w. buffer):       7.43 MB

     Dynamical RAM for             U proj.:       5.51 MB

     Dynamical RAM for  U proj. (w. buff.):       5.51 MB

     Dynamical RAM for           str. fact:       0.34 MB

     Dynamical RAM for           local pot:       0.00 MB

     Dynamical RAM for          nlocal pot:      24.80 MB

     Dynamical RAM for                qrad:       3.29 MB

     Dynamical RAM for          rho,v,vnew:       1.35 MB

     Dynamical RAM for               rhoin:       0.45 MB

     Dynamical RAM for            rho*nmix:       2.76 MB

     Dynamical RAM for           G-vectors:       0.73 MB

     Dynamical RAM for          h,s,v(r/c):       2.42 MB

     Dynamical RAM for          <psi|beta>:       6.06 MB

     Dynamical RAM for                 psi:      14.86 MB

     Dynamical RAM for                hpsi:      14.86 MB

     Dynamical RAM for                spsi:      14.86 MB

     Dynamical RAM for      wfcinit/wfcrot:      21.88 MB

     Dynamical RAM for           addusdens:       3.91 MB

     Estimated static dynamical RAM per process >      45.82 MB

     Estimated max dynamical RAM per process >     101.63 MB

     Estimated total dynamical RAM >     108.44 GB

     Initial potential from superposition of free atoms

     starting charge     575.8798, renormalised to     576.0000

     HUBBARD ENERGY =    0.3422  (Ry)

     STARTING HUBBARD OCCUPATIONS:

     =================== HUBBARD OCCUPATIONS ===================
     ------------------------ ATOM    1 ------------------------
     Tr[ns(  1)] =   9.70000
     eigenvalues:
       0.970  0.970  0.970  0.970  0.970
     eigenvectors (columns):
       1.000  0.000  0.000  0.000  0.000
       0.000  1.000  0.000  0.000  0.000
       0.000  0.000  1.000  0.000  0.000
       0.000  0.000  0.000  1.000  0.000
       0.000  0.000  0.000  0.000  1.000
     occupation matrix ns (before diag.):
       0.970  0.000  0.000  0.000  0.000
       0.000  0.970  0.000  0.000  0.000
       0.000  0.000  0.970  0.000  0.000
       0.000  0.000  0.000  0.970  0.000
       0.000  0.000  0.000  0.000  0.970
     ------------------------ ATOM    2 ------------------------
     Tr[ns(  2)] =   9.70000
     eigenvalues:
       0.970  0.970  0.970  0.970  0.970
     eigenvectors (columns):
       1.000  0.000  0.000  0.000  0.000
       0.000  1.000  0.000  0.000  0.000
       0.000  0.000  1.000  0.000  0.000
       0.000  0.000  0.000  1.000  0.000
       0.000  0.000  0.000  0.000  1.000
     occupation matrix ns (before diag.):
       0.970  0.000  0.000  0.000  0.000
       0.000  0.970  0.000  0.000  0.000
       0.000  0.000  0.970  0.000  0.000
       0.000  0.000  0.000  0.970  0.000
       0.000  0.000  0.000  0.000  0.970
     ------------------------ ATOM    3 ------------------------
     Tr[ns(  3)] =   9.70000
     eigenvalues:
       0.970  0.970  0.970  0.970  0.970
     eigenvectors (columns):
       1.000  0.000  0.000  0.000  0.000
       0.000  1.000  0.000  0.000  0.000
       0.000  0.000  1.000  0.000  0.000
       0.000  0.000  0.000  1.000  0.000
       0.000  0.000  0.000  0.000  1.000
     occupation matrix ns (before diag.):
       0.970  0.000  0.000  0.000  0.000
       0.000  0.970  0.000  0.000  0.000
       0.000  0.000  0.970  0.000  0.000
       0.000  0.000  0.000  0.970  0.000
       0.000  0.000  0.000  0.000  0.970
     ------------------------ ATOM    4 ------------------------
     Tr[ns(  4)] =   9.70000
     eigenvalues:
       0.970  0.970  0.970  0.970  0.970
     eigenvectors (columns):
       1.000  0.000  0.000  0.000  0.000
       0.000  1.000  0.000  0.000  0.000
       0.000  0.000  1.000  0.000  0.000
       0.000  0.000  0.000  1.000  0.000
       0.000  0.000  0.000  0.000  1.000
     occupation matrix ns (before diag.):
       0.970  0.000  0.000  0.000  0.000
       0.000  0.970  0.000  0.000  0.000
       0.000  0.000  0.970  0.000  0.000
       0.000  0.000  0.000  0.970  0.000
       0.000  0.000  0.000  0.000  0.970
     ------------------------ ATOM    5 ------------------------
     Tr[ns(  5)] =   4.00000
     eigenvalues:
       0.667  0.667  0.667
     eigenvectors (columns):
       1.000  0.000  0.000
       0.000  1.000  0.000
       0.000  0.000  1.000
     occupation matrix ns (before diag.):
       0.667  0.000  0.000
       0.000  0.667  0.000
       0.000  0.000  0.667
     ------------------------ ATOM    6 ------------------------
     Tr[ns(  6)] =   4.00000
     eigenvalues:
       0.667  0.667  0.667
     eigenvectors (columns):
       1.000  0.000  0.000
       0.000  1.000  0.000
       0.000  0.000  1.000
     occupation matrix ns (before diag.):
       0.667  0.000  0.000
       0.000  0.667  0.000
       0.000  0.000  0.667
     ------------------------ ATOM    7 ------------------------
     Tr[ns(  7)] =   4.00000
     eigenvalues:
       0.667  0.667  0.667
     eigenvectors (columns):
       1.000  0.000  0.000
       0.000  1.000  0.000
       0.000  0.000  1.000
     occupation matrix ns (before diag.):
       0.667  0.000  0.000
       0.000  0.667  0.000
       0.000  0.000  0.667
     ------------------------ ATOM    8 ------------------------
     Tr[ns(  8)] =   4.00000
     eigenvalues:
       0.667  0.667  0.667
     eigenvectors (columns):
       1.000  0.000  0.000
       0.000  1.000  0.000
       0.000  0.000  1.000
     occupation matrix ns (before diag.):
       0.667  0.000  0.000
       0.000  0.667  0.000
       0.000  0.000  0.667
     ------------------------ ATOM    9 ------------------------
     Tr[ns(  9)] =   9.70000
     eigenvalues:
       0.970  0.970  0.970  0.970  0.970
     eigenvectors (columns):
       1.000  0.000  0.000  0.000  0.000
       0.000  1.000  0.000  0.000  0.000
       0.000  0.000  1.000  0.000  0.000
       0.000  0.000  0.000  1.000  0.000
       0.000  0.000  0.000  0.000  1.000
     occupation matrix ns (before diag.):
       0.970  0.000  0.000  0.000  0.000
       0.000  0.970  0.000  0.000  0.000
       0.000  0.000  0.970  0.000  0.000
       0.000  0.000  0.000  0.970  0.000
       0.000  0.000  0.000  0.000  0.970
     ------------------------ ATOM   10 ------------------------
     Tr[ns( 10)] =   9.70000
     eigenvalues:
       0.970  0.970  0.970  0.970  0.970
     eigenvectors (columns):
       1.000  0.000  0.000  0.000  0.000
       0.000  1.000  0.000  0.000  0.000
       0.000  0.000  1.000  0.000  0.000
       0.000  0.000  0.000  1.000  0.000
       0.000  0.000  0.000  0.000  1.000
     occupation matrix ns (before diag.):
       0.970  0.000  0.000  0.000  0.000
       0.000  0.970  0.000  0.000  0.000
       0.000  0.000  0.970  0.000  0.000
       0.000  0.000  0.000  0.970  0.000
       0.000  0.000  0.000  0.000  0.970
     ------------------------ ATOM   11 ------------------------
     Tr[ns( 11)] =   9.70000
     eigenvalues:
       0.970  0.970  0.970  0.970  0.970
     eigenvectors (columns):
       1.000  0.000  0.000  0.000  0.000
       0.000  1.000  0.000  0.000  0.000
       0.000  0.000  1.000  0.000  0.000
       0.000  0.000  0.000  1.000  0.000
       0.000  0.000  0.000  0.000  1.000
     occupation matrix ns (before diag.):
       0.970  0.000  0.000  0.000  0.000
       0.000  0.970  0.000  0.000  0.000
       0.000  0.000  0.970  0.000  0.000
       0.000  0.000  0.000  0.970  0.000
       0.000  0.000  0.000  0.000  0.970
     ------------------------ ATOM   12 ------------------------
     Tr[ns( 12)] =   9.70000
     eigenvalues:
       0.970  0.970  0.970  0.970  0.970
     eigenvectors (columns):
       1.000  0.000  0.000  0.000  0.000
       0.000  1.000  0.000  0.000  0.000
       0.000  0.000  1.000  0.000  0.000
       0.000  0.000  0.000  1.000  0.000
       0.000  0.000  0.000  0.000  1.000
     occupation matrix ns (before diag.):
       0.970  0.000  0.000  0.000  0.000
       0.000  0.970  0.000  0.000  0.000
       0.000  0.000  0.970  0.000  0.000
       0.000  0.000  0.000  0.970  0.000
       0.000  0.000  0.000  0.000  0.970
     ------------------------ ATOM   13 ------------------------
     Tr[ns( 13)] =   4.00000
     eigenvalues:
       0.667  0.667  0.667
     eigenvectors (columns):
       1.000  0.000  0.000
       0.000  1.000  0.000
       0.000  0.000  1.000
     occupation matrix ns (before diag.):
       0.667  0.000  0.000
       0.000  0.667  0.000
       0.000  0.000  0.667
     ------------------------ ATOM   14 ------------------------
     Tr[ns( 14)] =   4.00000
     eigenvalues:
       0.667  0.667  0.667
     eigenvectors (columns):
       1.000  0.000  0.000
       0.000  1.000  0.000
       0.000  0.000  1.000
     occupation matrix ns (before diag.):
       0.667  0.000  0.000
       0.000  0.667  0.000
       0.000  0.000  0.667
     ------------------------ ATOM   15 ------------------------
     Tr[ns( 15)] =   4.00000
     eigenvalues:
       0.667  0.667  0.667
     eigenvectors (columns):
       1.000  0.000  0.000
       0.000  1.000  0.000
       0.000  0.000  1.000
     occupation matrix ns (before diag.):
       0.667  0.000  0.000
       0.000  0.667  0.000
       0.000  0.000  0.667
     ------------------------ ATOM   16 ------------------------
     Tr[ns( 16)] =   4.00000
     eigenvalues:
       0.667  0.667  0.667
     eigenvectors (columns):
       1.000  0.000  0.000
       0.000  1.000  0.000
       0.000  0.000  1.000
     occupation matrix ns (before diag.):
       0.667  0.000  0.000
       0.000  0.667  0.000
       0.000  0.000  0.667
     ------------------------ ATOM   17 ------------------------
     Tr[ns( 17)] =   9.70000
     eigenvalues:
       0.970  0.970  0.970  0.970  0.970
     eigenvectors (columns):
       1.000  0.000  0.000  0.000  0.000
       0.000  1.000  0.000  0.000  0.000
       0.000  0.000  1.000  0.000  0.000
       0.000  0.000  0.000  1.000  0.000
       0.000  0.000  0.000  0.000  1.000
     occupation matrix ns (before diag.):
       0.970  0.000  0.000  0.000  0.000
       0.000  0.970  0.000  0.000  0.000
       0.000  0.000  0.970  0.000  0.000
       0.000  0.000  0.000  0.970  0.000
       0.000  0.000  0.000  0.000  0.970
     ------------------------ ATOM   18 ------------------------
     Tr[ns( 18)] =   9.70000
     eigenvalues:
       0.970  0.970  0.970  0.970  0.970
     eigenvectors (columns):
       1.000  0.000  0.000  0.000  0.000
       0.000  1.000  0.000  0.000  0.000
       0.000  0.000  1.000  0.000  0.000
       0.000  0.000  0.000  1.000  0.000
       0.000  0.000  0.000  0.000  1.000
     occupation matrix ns (before diag.):
       0.970  0.000  0.000  0.000  0.000
       0.000  0.970  0.000  0.000  0.000
       0.000  0.000  0.970  0.000  0.000
       0.000  0.000  0.000  0.970  0.000
       0.000  0.000  0.000  0.000  0.970
     ------------------------ ATOM   19 ------------------------
     Tr[ns( 19)] =   9.70000
     eigenvalues:
       0.970  0.970  0.970  0.970  0.970
     eigenvectors (columns):
       1.000  0.000  0.000  0.000  0.000
       0.000  1.000  0.000  0.000  0.000
       0.000  0.000  1.000  0.000  0.000
       0.000  0.000  0.000  1.000  0.000
       0.000  0.000  0.000  0.000  1.000
     occupation matrix ns (before diag.):
       0.970  0.000  0.000  0.000  0.000
       0.000  0.970  0.000  0.000  0.000
       0.000  0.000  0.970  0.000  0.000
       0.000  0.000  0.000  0.970  0.000
       0.000  0.000  0.000  0.000  0.970
     ------------------------ ATOM   20 ------------------------
     Tr[ns( 20)] =   9.70000
     eigenvalues:
       0.970  0.970  0.970  0.970  0.970
     eigenvectors (columns):
       1.000  0.000  0.000  0.000  0.000
       0.000  1.000  0.000  0.000  0.000
       0.000  0.000  1.000  0.000  0.000
       0.000  0.000  0.000  1.000  0.000
       0.000  0.000  0.000  0.000  1.000
     occupation matrix ns (before diag.):
       0.970  0.000  0.000  0.000  0.000
       0.000  0.970  0.000  0.000  0.000
       0.000  0.000  0.970  0.000  0.000
       0.000  0.000  0.000  0.970  0.000
       0.000  0.000  0.000  0.000  0.970
     ------------------------ ATOM   21 ------------------------
     Tr[ns( 21)] =   4.00000
     eigenvalues:
       0.667  0.667  0.667
     eigenvectors (columns):
       1.000  0.000  0.000
       0.000  1.000  0.000
       0.000  0.000  1.000
     occupation matrix ns (before diag.):
       0.667  0.000  0.000
       0.000  0.667  0.000
       0.000  0.000  0.667
     ------------------------ ATOM   22 ------------------------
     Tr[ns( 22)] =   4.00000
     eigenvalues:
       0.667  0.667  0.667
     eigenvectors (columns):
       1.000  0.000  0.000
       0.000  1.000  0.000
       0.000  0.000  1.000
     occupation matrix ns (before diag.):
       0.667  0.000  0.000
       0.000  0.667  0.000
       0.000  0.000  0.667
     ------------------------ ATOM   23 ------------------------
     Tr[ns( 23)] =   4.00000
     eigenvalues:
       0.667  0.667  0.667
     eigenvectors (columns):
       1.000  0.000  0.000
       0.000  1.000  0.000
       0.000  0.000  1.000
     occupation matrix ns (before diag.):
       0.667  0.000  0.000
       0.000  0.667  0.000
       0.000  0.000  0.667
     ------------------------ ATOM   24 ------------------------
     Tr[ns( 24)] =   4.00000
     eigenvalues:
       0.667  0.667  0.667
     eigenvectors (columns):
       1.000  0.000  0.000
       0.000  1.000  0.000
       0.000  0.000  1.000
     occupation matrix ns (before diag.):
       0.667  0.000  0.000
       0.000  0.667  0.000
       0.000  0.000  0.667
     ------------------------ ATOM   25 ------------------------
     Tr[ns( 25)] =   9.70000
     eigenvalues:
       0.970  0.970  0.970  0.970  0.970
     eigenvectors (columns):
       1.000  0.000  0.000  0.000  0.000
       0.000  1.000  0.000  0.000  0.000
       0.000  0.000  1.000  0.000  0.000
       0.000  0.000  0.000  1.000  0.000
       0.000  0.000  0.000  0.000  1.000
     occupation matrix ns (before diag.):
       0.970  0.000  0.000  0.000  0.000
       0.000  0.970  0.000  0.000  0.000
       0.000  0.000  0.970  0.000  0.000
       0.000  0.000  0.000  0.970  0.000
       0.000  0.000  0.000  0.000  0.970
     ------------------------ ATOM   26 ------------------------
     Tr[ns( 26)] =   9.70000
     eigenvalues:
       0.970  0.970  0.970  0.970  0.970
     eigenvectors (columns):
       1.000  0.000  0.000  0.000  0.000
       0.000  1.000  0.000  0.000  0.000
       0.000  0.000  1.000  0.000  0.000
       0.000  0.000  0.000  1.000  0.000
       0.000  0.000  0.000  0.000  1.000
     occupation matrix ns (before diag.):
       0.970  0.000  0.000  0.000  0.000
       0.000  0.970  0.000  0.000  0.000
       0.000  0.000  0.970  0.000  0.000
       0.000  0.000  0.000  0.970  0.000
       0.000  0.000  0.000  0.000  0.970
     ------------------------ ATOM   27 ------------------------
     Tr[ns( 27)] =   9.70000
     eigenvalues:
       0.970  0.970  0.970  0.970  0.970
     eigenvectors (columns):
       1.000  0.000  0.000  0.000  0.000
       0.000  1.000  0.000  0.000  0.000
       0.000  0.000  1.000  0.000  0.000
       0.000  0.000  0.000  1.000  0.000
       0.000  0.000  0.000  0.000  1.000
     occupation matrix ns (before diag.):
       0.970  0.000  0.000  0.000  0.000
       0.000  0.970  0.000  0.000  0.000
       0.000  0.000  0.970  0.000  0.000
       0.000  0.000  0.000  0.970  0.000
       0.000  0.000  0.000  0.000  0.970
     ------------------------ ATOM   28 ------------------------
     Tr[ns( 28)] =   9.70000
     eigenvalues:
       0.970  0.970  0.970  0.970  0.970
     eigenvectors (columns):
       1.000  0.000  0.000  0.000  0.000
       0.000  1.000  0.000  0.000  0.000
       0.000  0.000  1.000  0.000  0.000
       0.000  0.000  0.000  1.000  0.000
       0.000  0.000  0.000  0.000  1.000
     occupation matrix ns (before diag.):
       0.970  0.000  0.000  0.000  0.000
       0.000  0.970  0.000  0.000  0.000
       0.000  0.000  0.970  0.000  0.000
       0.000  0.000  0.000  0.970  0.000
       0.000  0.000  0.000  0.000  0.970
     ------------------------ ATOM   29 ------------------------
     Tr[ns( 29)] =   4.00000
     eigenvalues:
       0.667  0.667  0.667
     eigenvectors (columns):
       1.000  0.000  0.000
       0.000  1.000  0.000
       0.000  0.000  1.000
     occupation matrix ns (before diag.):
       0.667  0.000  0.000
       0.000  0.667  0.000
       0.000  0.000  0.667
     ------------------------ ATOM   30 ------------------------
     Tr[ns( 30)] =   4.00000
     eigenvalues:
       0.667  0.667  0.667
     eigenvectors (columns):
       1.000  0.000  0.000
       0.000  1.000  0.000
       0.000  0.000  1.000
     occupation matrix ns (before diag.):
       0.667  0.000  0.000
       0.000  0.667  0.000
       0.000  0.000  0.667
     ------------------------ ATOM   31 ------------------------
     Tr[ns( 31)] =   4.00000
     eigenvalues:
       0.667  0.667  0.667
     eigenvectors (columns):
       1.000  0.000  0.000
       0.000  1.000  0.000
       0.000  0.000  1.000
     occupation matrix ns (before diag.):
       0.667  0.000  0.000
       0.000  0.667  0.000
       0.000  0.000  0.667
     ------------------------ ATOM   32 ------------------------
     Tr[ns( 32)] =   4.00000
     eigenvalues:
       0.667  0.667  0.667
     eigenvectors (columns):
       1.000  0.000  0.000
       0.000  1.000  0.000
       0.000  0.000  1.000
     occupation matrix ns (before diag.):
       0.667  0.000  0.000
       0.000  0.667  0.000
       0.000  0.000  0.667
     ------------------------ ATOM   33 ------------------------
     Tr[ns( 33)] =   9.70000
     eigenvalues:
       0.970  0.970  0.970  0.970  0.970
     eigenvectors (columns):
       1.000  0.000  0.000  0.000  0.000
       0.000  1.000  0.000  0.000  0.000
       0.000  0.000  1.000  0.000  0.000
       0.000  0.000  0.000  1.000  0.000
       0.000  0.000  0.000  0.000  1.000
     occupation matrix ns (before diag.):
       0.970  0.000  0.000  0.000  0.000
       0.000  0.970  0.000  0.000  0.000
       0.000  0.000  0.970  0.000  0.000
       0.000  0.000  0.000  0.970  0.000
       0.000  0.000  0.000  0.000  0.970
     ------------------------ ATOM   34 ------------------------
     Tr[ns( 34)] =   9.70000
     eigenvalues:
       0.970  0.970  0.970  0.970  0.970
     eigenvectors (columns):
       1.000  0.000  0.000  0.000  0.000
       0.000  1.000  0.000  0.000  0.000
       0.000  0.000  1.000  0.000  0.000
       0.000  0.000  0.000  1.000  0.000
       0.000  0.000  0.000  0.000  1.000
     occupation matrix ns (before diag.):
       0.970  0.000  0.000  0.000  0.000
       0.000  0.970  0.000  0.000  0.000
       0.000  0.000  0.970  0.000  0.000
       0.000  0.000  0.000  0.970  0.000
       0.000  0.000  0.000  0.000  0.970
     ------------------------ ATOM   35 ------------------------
     Tr[ns( 35)] =   9.70000
     eigenvalues:
       0.970  0.970  0.970  0.970  0.970
     eigenvectors (columns):
       1.000  0.000  0.000  0.000  0.000
       0.000  1.000  0.000  0.000  0.000
       0.000  0.000  1.000  0.000  0.000
       0.000  0.000  0.000  1.000  0.000
       0.000  0.000  0.000  0.000  1.000
     occupation matrix ns (before diag.):
       0.970  0.000  0.000  0.000  0.000
       0.000  0.970  0.000  0.000  0.000
       0.000  0.000  0.970  0.000  0.000
       0.000  0.000  0.000  0.970  0.000
       0.000  0.000  0.000  0.000  0.970
     ------------------------ ATOM   36 ------------------------
     Tr[ns( 36)] =   9.70000
     eigenvalues:
       0.970  0.970  0.970  0.970  0.970
     eigenvectors (columns):
       1.000  0.000  0.000  0.000  0.000
       0.000  1.000  0.000  0.000  0.000
       0.000  0.000  1.000  0.000  0.000
       0.000  0.000  0.000  1.000  0.000
       0.000  0.000  0.000  0.000  1.000
     occupation matrix ns (before diag.):
       0.970  0.000  0.000  0.000  0.000
       0.000  0.970  0.000  0.000  0.000
       0.000  0.000  0.970  0.000  0.000
       0.000  0.000  0.000  0.970  0.000
       0.000  0.000  0.000  0.000  0.970
     ------------------------ ATOM   37 ------------------------
     Tr[ns( 37)] =   4.00000
     eigenvalues:
       0.667  0.667  0.667
     eigenvectors (columns):
       1.000  0.000  0.000
       0.000  1.000  0.000
       0.000  0.000  1.000
     occupation matrix ns (before diag.):
       0.667  0.000  0.000
       0.000  0.667  0.000
       0.000  0.000  0.667
     ------------------------ ATOM   38 ------------------------
     Tr[ns( 38)] =   4.00000
     eigenvalues:
       0.667  0.667  0.667
     eigenvectors (columns):
       1.000  0.000  0.000
       0.000  1.000  0.000
       0.000  0.000  1.000
     occupation matrix ns (before diag.):
       0.667  0.000  0.000
       0.000  0.667  0.000
       0.000  0.000  0.667
     ------------------------ ATOM   39 ------------------------
     Tr[ns( 39)] =   4.00000
     eigenvalues:
       0.667  0.667  0.667
     eigenvectors (columns):
       1.000  0.000  0.000
       0.000  1.000  0.000
       0.000  0.000  1.000
     occupation matrix ns (before diag.):
       0.667  0.000  0.000
       0.000  0.667  0.000
       0.000  0.000  0.667
     ------------------------ ATOM   40 ------------------------
     Tr[ns( 40)] =   4.00000
     eigenvalues:
       0.667  0.667  0.667
     eigenvectors (columns):
       1.000  0.000  0.000
       0.000  1.000  0.000
       0.000  0.000  1.000
     occupation matrix ns (before diag.):
       0.667  0.000  0.000
       0.000  0.667  0.000
       0.000  0.000  0.667
     ------------------------ ATOM   41 ------------------------
     Tr[ns( 41)] =   9.70000
     eigenvalues:
       0.970  0.970  0.970  0.970  0.970
     eigenvectors (columns):
       1.000  0.000  0.000  0.000  0.000
       0.000  1.000  0.000  0.000  0.000
       0.000  0.000  1.000  0.000  0.000
       0.000  0.000  0.000  1.000  0.000
       0.000  0.000  0.000  0.000  1.000
     occupation matrix ns (before diag.):
       0.970  0.000  0.000  0.000  0.000
       0.000  0.970  0.000  0.000  0.000
       0.000  0.000  0.970  0.000  0.000
       0.000  0.000  0.000  0.970  0.000
       0.000  0.000  0.000  0.000  0.970
     ------------------------ ATOM   42 ------------------------
     Tr[ns( 42)] =   9.70000
     eigenvalues:
       0.970  0.970  0.970  0.970  0.970
     eigenvectors (columns):
       1.000  0.000  0.000  0.000  0.000
       0.000  1.000  0.000  0.000  0.000
       0.000  0.000  1.000  0.000  0.000
       0.000  0.000  0.000  1.000  0.000
       0.000  0.000  0.000  0.000  1.000
     occupation matrix ns (before diag.):
       0.970  0.000  0.000  0.000  0.000
       0.000  0.970  0.000  0.000  0.000
       0.000  0.000  0.970  0.000  0.000
       0.000  0.000  0.000  0.970  0.000
       0.000  0.000  0.000  0.000  0.970
     ------------------------ ATOM   43 ------------------------
     Tr[ns( 43)] =   9.70000
     eigenvalues:
       0.970  0.970  0.970  0.970  0.970
     eigenvectors (columns):
       1.000  0.000  0.000  0.000  0.000
       0.000  1.000  0.000  0.000  0.000
       0.000  0.000  1.000  0.000  0.000
       0.000  0.000  0.000  1.000  0.000
       0.000  0.000  0.000  0.000  1.000
     occupation matrix ns (before diag.):
       0.970  0.000  0.000  0.000  0.000
       0.000  0.970  0.000  0.000  0.000
       0.000  0.000  0.970  0.000  0.000
       0.000  0.000  0.000  0.970  0.000
       0.000  0.000  0.000  0.000  0.970
     ------------------------ ATOM   44 ------------------------
     Tr[ns( 44)] =   9.70000
     eigenvalues:
       0.970  0.970  0.970  0.970  0.970
     eigenvectors (columns):
       1.000  0.000  0.000  0.000  0.000
       0.000  1.000  0.000  0.000  0.000
       0.000  0.000  1.000  0.000  0.000
       0.000  0.000  0.000  1.000  0.000
       0.000  0.000  0.000  0.000  1.000
     occupation matrix ns (before diag.):
       0.970  0.000  0.000  0.000  0.000
       0.000  0.970  0.000  0.000  0.000
       0.000  0.000  0.970  0.000  0.000
       0.000  0.000  0.000  0.970  0.000
       0.000  0.000  0.000  0.000  0.970
     ------------------------ ATOM   45 ------------------------
     Tr[ns( 45)] =   4.00000
     eigenvalues:
       0.667  0.667  0.667
     eigenvectors (columns):
       1.000  0.000  0.000
       0.000  1.000  0.000
       0.000  0.000  1.000
     occupation matrix ns (before diag.):
       0.667  0.000  0.000
       0.000  0.667  0.000
       0.000  0.000  0.667
     ------------------------ ATOM   46 ------------------------
     Tr[ns( 46)] =   4.00000
     eigenvalues:
       0.667  0.667  0.667
     eigenvectors (columns):
       1.000  0.000  0.000
       0.000  1.000  0.000
       0.000  0.000  1.000
     occupation matrix ns (before diag.):
       0.667  0.000  0.000
       0.000  0.667  0.000
       0.000  0.000  0.667
     ------------------------ ATOM   47 ------------------------
     Tr[ns( 47)] =   4.00000
     eigenvalues:
       0.667  0.667  0.667
     eigenvectors (columns):
       1.000  0.000  0.000
       0.000  1.000  0.000
       0.000  0.000  1.000
     occupation matrix ns (before diag.):
       0.667  0.000  0.000
       0.000  0.667  0.000
       0.000  0.000  0.667
     ------------------------ ATOM   48 ------------------------
     Tr[ns( 48)] =   4.00000
     eigenvalues:
       0.667  0.667  0.667
     eigenvectors (columns):
       1.000  0.000  0.000
       0.000  1.000  0.000
       0.000  0.000  1.000
     occupation matrix ns (before diag.):
       0.667  0.000  0.000
       0.000  0.667  0.000
       0.000  0.000  0.667
     ------------------------ ATOM   49 ------------------------
     Tr[ns( 49)] =   9.70000
     eigenvalues:
       0.970  0.970  0.970  0.970  0.970
     eigenvectors (columns):
       1.000  0.000  0.000  0.000  0.000
       0.000  1.000  0.000  0.000  0.000
       0.000  0.000  1.000  0.000  0.000
       0.000  0.000  0.000  1.000  0.000
       0.000  0.000  0.000  0.000  1.000
     occupation matrix ns (before diag.):
       0.970  0.000  0.000  0.000  0.000
       0.000  0.970  0.000  0.000  0.000
       0.000  0.000  0.970  0.000  0.000
       0.000  0.000  0.000  0.970  0.000
       0.000  0.000  0.000  0.000  0.970
     ------------------------ ATOM   50 ------------------------
     Tr[ns( 50)] =   9.70000
     eigenvalues:
       0.970  0.970  0.970  0.970  0.970
     eigenvectors (columns):
       1.000  0.000  0.000  0.000  0.000
       0.000  1.000  0.000  0.000  0.000
       0.000  0.000  1.000  0.000  0.000
       0.000  0.000  0.000  1.000  0.000
       0.000  0.000  0.000  0.000  1.000
     occupation matrix ns (before diag.):
       0.970  0.000  0.000  0.000  0.000
       0.000  0.970  0.000  0.000  0.000
       0.000  0.000  0.970  0.000  0.000
       0.000  0.000  0.000  0.970  0.000
       0.000  0.000  0.000  0.000  0.970
     ------------------------ ATOM   51 ------------------------
     Tr[ns( 51)] =   9.70000
     eigenvalues:
       0.970  0.970  0.970  0.970  0.970
     eigenvectors (columns):
       1.000  0.000  0.000  0.000  0.000
       0.000  1.000  0.000  0.000  0.000
       0.000  0.000  1.000  0.000  0.000
       0.000  0.000  0.000  1.000  0.000
       0.000  0.000  0.000  0.000  1.000
     occupation matrix ns (before diag.):
       0.970  0.000  0.000  0.000  0.000
       0.000  0.970  0.000  0.000  0.000
       0.000  0.000  0.970  0.000  0.000
       0.000  0.000  0.000  0.970  0.000
       0.000  0.000  0.000  0.000  0.970
     ------------------------ ATOM   52 ------------------------
     Tr[ns( 52)] =   9.70000
     eigenvalues:
       0.970  0.970  0.970  0.970  0.970
     eigenvectors (columns):
       1.000  0.000  0.000  0.000  0.000
       0.000  1.000  0.000  0.000  0.000
       0.000  0.000  1.000  0.000  0.000
       0.000  0.000  0.000  1.000  0.000
       0.000  0.000  0.000  0.000  1.000
     occupation matrix ns (before diag.):
       0.970  0.000  0.000  0.000  0.000
       0.000  0.970  0.000  0.000  0.000
       0.000  0.000  0.970  0.000  0.000
       0.000  0.000  0.000  0.970  0.000
       0.000  0.000  0.000  0.000  0.970
     ------------------------ ATOM   53 ------------------------
     Tr[ns( 53)] =   4.00000
     eigenvalues:
       0.667  0.667  0.667
     eigenvectors (columns):
       1.000  0.000  0.000
       0.000  1.000  0.000
       0.000  0.000  1.000
     occupation matrix ns (before diag.):
       0.667  0.000  0.000
       0.000  0.667  0.000
       0.000  0.000  0.667
     ------------------------ ATOM   54 ------------------------
     Tr[ns( 54)] =   4.00000
     eigenvalues:
       0.667  0.667  0.667
     eigenvectors (columns):
       1.000  0.000  0.000
       0.000  1.000  0.000
       0.000  0.000  1.000
     occupation matrix ns (before diag.):
       0.667  0.000  0.000
       0.000  0.667  0.000
       0.000  0.000  0.667
     ------------------------ ATOM   55 ------------------------
     Tr[ns( 55)] =   4.00000
     eigenvalues:
       0.667  0.667  0.667
     eigenvectors (columns):
       1.000  0.000  0.000
       0.000  1.000  0.000
       0.000  0.000  1.000
     occupation matrix ns (before diag.):
       0.667  0.000  0.000
       0.000  0.667  0.000
       0.000  0.000  0.667
     ------------------------ ATOM   56 ------------------------
     Tr[ns( 56)] =   4.00000
     eigenvalues:
       0.667  0.667  0.667
     eigenvectors (columns):
       1.000  0.000  0.000
       0.000  1.000  0.000
       0.000  0.000  1.000
     occupation matrix ns (before diag.):
       0.667  0.000  0.000
       0.000  0.667  0.000
       0.000  0.000  0.667
     ------------------------ ATOM   57 ------------------------
     Tr[ns( 57)] =   9.70000
     eigenvalues:
       0.970  0.970  0.970  0.970  0.970
     eigenvectors (columns):
       1.000  0.000  0.000  0.000  0.000
       0.000  1.000  0.000  0.000  0.000
       0.000  0.000  1.000  0.000  0.000
       0.000  0.000  0.000  1.000  0.000
       0.000  0.000  0.000  0.000  1.000
     occupation matrix ns (before diag.):
       0.970  0.000  0.000  0.000  0.000
       0.000  0.970  0.000  0.000  0.000
       0.000  0.000  0.970  0.000  0.000
       0.000  0.000  0.000  0.970  0.000
       0.000  0.000  0.000  0.000  0.970
     ------------------------ ATOM   58 ------------------------
     Tr[ns( 58)] =   9.70000
     eigenvalues:
       0.970  0.970  0.970  0.970  0.970
     eigenvectors (columns):
       1.000  0.000  0.000  0.000  0.000
       0.000  1.000  0.000  0.000  0.000
       0.000  0.000  1.000  0.000  0.000
       0.000  0.000  0.000  1.000  0.000
       0.000  0.000  0.000  0.000  1.000
     occupation matrix ns (before diag.):
       0.970  0.000  0.000  0.000  0.000
       0.000  0.970  0.000  0.000  0.000
       0.000  0.000  0.970  0.000  0.000
       0.000  0.000  0.000  0.970  0.000
       0.000  0.000  0.000  0.000  0.970
     ------------------------ ATOM   59 ------------------------
     Tr[ns( 59)] =   9.70000
     eigenvalues:
       0.970  0.970  0.970  0.970  0.970
     eigenvectors (columns):
       1.000  0.000  0.000  0.000  0.000
       0.000  1.000  0.000  0.000  0.000
       0.000  0.000  1.000  0.000  0.000
       0.000  0.000  0.000  1.000  0.000
       0.000  0.000  0.000  0.000  1.000
     occupation matrix ns (before diag.):
       0.970  0.000  0.000  0.000  0.000
       0.000  0.970  0.000  0.000  0.000
       0.000  0.000  0.970  0.000  0.000
       0.000  0.000  0.000  0.970  0.000
       0.000  0.000  0.000  0.000  0.970
     ------------------------ ATOM   60 ------------------------
     Tr[ns( 60)] =   9.70000
     eigenvalues:
       0.970  0.970  0.970  0.970  0.970
     eigenvectors (columns):
       1.000  0.000  0.000  0.000  0.000
       0.000  1.000  0.000  0.000  0.000
       0.000  0.000  1.000  0.000  0.000
       0.000  0.000  0.000  1.000  0.000
       0.000  0.000  0.000  0.000  1.000
     occupation matrix ns (before diag.):
       0.970  0.000  0.000  0.000  0.000
       0.000  0.970  0.000  0.000  0.000
       0.000  0.000  0.970  0.000  0.000
       0.000  0.000  0.000  0.970  0.000
       0.000  0.000  0.000  0.000  0.970
     ------------------------ ATOM   61 ------------------------
     Tr[ns( 61)] =   4.00000
     eigenvalues:
       0.667  0.667  0.667
     eigenvectors (columns):
       1.000  0.000  0.000
       0.000  1.000  0.000
       0.000  0.000  1.000
     occupation matrix ns (before diag.):
       0.667  0.000  0.000
       0.000  0.667  0.000
       0.000  0.000  0.667
     ------------------------ ATOM   62 ------------------------
     Tr[ns( 62)] =   4.00000
     eigenvalues:
       0.667  0.667  0.667
     eigenvectors (columns):
       1.000  0.000  0.000
       0.000  1.000  0.000
       0.000  0.000  1.000
     occupation matrix ns (before diag.):
       0.667  0.000  0.000
       0.000  0.667  0.000
       0.000  0.000  0.667
     ------------------------ ATOM   63 ------------------------
     Tr[ns( 63)] =   4.00000
     eigenvalues:
       0.667  0.667  0.667
     eigenvectors (columns):
       1.000  0.000  0.000
       0.000  1.000  0.000
       0.000  0.000  1.000
     occupation matrix ns (before diag.):
       0.667  0.000  0.000
       0.000  0.667  0.000
       0.000  0.000  0.667
     ------------------------ ATOM   64 ------------------------
     Tr[ns( 64)] =   4.00000
     eigenvalues:
       0.667  0.667  0.667
     eigenvectors (columns):
       1.000  0.000  0.000
       0.000  1.000  0.000
       0.000  0.000  1.000
     occupation matrix ns (before diag.):
       0.667  0.000  0.000
       0.000  0.667  0.000
       0.000  0.000  0.667

     Number of occupied Hubbard levels =  438.4000

     Atomic wfc used for Hubbard projectors are orthogonalized

     Starting wfcs are  416 randomized atomic wfcs
     Checking if some PAW data can be deallocated... 
       PAW data deallocated on  560 nodes for type:  1
       PAW data deallocated on  560 nodes for type:  2

     total cpu time spent up to now is       21.1 secs

     Self-consistent Calculation

     iteration #  1     ecut=   105.00 Ry     beta= 0.70
     Davidson diagonalization with overlap

---- Real-time Memory Report at c_bands before calling an iterative solver
           449 MiB given to the printing process from OS
             0 MiB allocation reported by mallinfo(arena+hblkhd)
        214025 MiB available memory on the node where the printing process lives
------------------
     ethr =  1.00E-02,  avg # of iterations =  4.6

     =================== HUBBARD OCCUPATIONS ===================
     ------------------------ ATOM    1 ------------------------
     Tr[ns(  1)] =   9.97129
     eigenvalues:
       0.996  0.996  0.996  0.998  0.998
     eigenvectors (columns):
       0.000  0.000 -0.000 -0.093 -0.996
       0.362 -0.077 -0.929  0.000  0.000
       0.621 -0.724  0.302  0.000  0.000
      -0.000 -0.000  0.000  0.996 -0.093
      -0.695 -0.686 -0.214 -0.000 -0.000
     occupation matrix ns (before diag.):
       0.998 -0.000 -0.000  0.000  0.000
      -0.000  0.996 -0.000  0.000  0.000
      -0.000 -0.000  0.996  0.000  0.000
       0.000  0.000  0.000  0.998 -0.000
       0.000  0.000  0.000 -0.000  0.996
     ------------------------ ATOM    2 ------------------------
     Tr[ns(  2)] =   9.97143
     eigenvalues:
       0.996  0.996  0.996  0.998  0.998
     eigenvectors (columns):
      -0.000 -0.001  0.000 -0.866 -0.500
      -0.103 -0.707 -0.700  0.001 -0.000
       0.989  0.000 -0.146  0.000 -0.000
       0.000 -0.000 -0.000 -0.500  0.866
       0.103 -0.707  0.700  0.001  0.000
     occupation matrix ns (before diag.):
       0.998 -0.000  0.000 -0.000 -0.000
      -0.000  0.996  0.000 -0.000 -0.000
       0.000  0.000  0.996 -0.000 -0.000
      -0.000 -0.000 -0.000  0.998 -0.000
      -0.000 -0.000 -0.000 -0.000  0.996
     ------------------------ ATOM    3 ------------------------
     Tr[ns(  3)] =   9.97143
     eigenvalues:
       0.996  0.996  0.996  0.998  0.998
     eigenvectors (columns):
      -0.000  0.001 -0.000 -0.866 -0.500
       0.989 -0.000  0.146  0.000 -0.000
      -0.103  0.707  0.700  0.001 -0.000
      -0.000 -0.000 -0.000  0.500 -0.866
       0.103  0.707 -0.700  0.001  0.000
     occupation matrix ns (before diag.):
       0.998  0.000 -0.000  0.000 -0.000
       0.000  0.996  0.000  0.000 -0.000
      -0.000  0.000  0.996  0.000 -0.000
       0.000  0.000  0.000  0.998  0.000
      -0.000 -0.000 -0.000  0.000  0.996
     ------------------------ ATOM    4 ------------------------
     Tr[ns(  4)] =   9.97143
     eigenvalues:
       0.996  0.996  0.996  0.998  0.998
     eigenvectors (columns):
      -0.000 -0.000 -0.000 -0.000 -1.000
       0.103 -0.707 -0.700 -0.001  0.000
       0.103  0.707 -0.700  0.001  0.000
       0.000 -0.001  0.000  1.000 -0.000
       0.989 -0.000  0.146 -0.000 -0.000
     occupation matrix ns (before diag.):
       0.998 -0.000 -0.000  0.000  0.000
      -0.000  0.996  0.000 -0.000 -0.000
      -0.000  0.000  0.996  0.000 -0.000
       0.000 -0.000  0.000  0.998 -0.000
       0.000 -0.000 -0.000 -0.000  0.996
     ------------------------ ATOM    5 ------------------------
     Tr[ns(  5)] =   4.68231
     eigenvalues:
       0.780  0.780  0.780
     eigenvectors (columns):
       0.707  0.207 -0.676
       0.000 -0.956 -0.293
       0.707 -0.207  0.676
     occupation matrix ns (before diag.):
       0.780  0.000 -0.000
       0.000  0.780 -0.000
      -0.000 -0.000  0.780
     ------------------------ ATOM    6 ------------------------
     Tr[ns(  6)] =   4.68313
     eigenvalues:
       0.781  0.781  0.781
     eigenvectors (columns):
      -0.577 -0.779  0.246
       0.577 -0.602 -0.552
       0.577 -0.177  0.797
     occupation matrix ns (before diag.):
       0.781  0.000  0.000
       0.000  0.781 -0.000
       0.000 -0.000  0.781
     ------------------------ ATOM    7 ------------------------
     Tr[ns(  7)] =   4.68231
     eigenvalues:
       0.780  0.780  0.780
     eigenvectors (columns):
       0.000  0.956  0.293
       0.707 -0.207  0.676
      -0.707 -0.207  0.676
     occupation matrix ns (before diag.):
       0.780  0.000  0.000
       0.000  0.780  0.000
       0.000  0.000  0.780
     ------------------------ ATOM    8 ------------------------
     Tr[ns(  8)] =   4.68231
     eigenvalues:
       0.780  0.780  0.780
     eigenvectors (columns):
       0.707 -0.207  0.676
       0.707  0.207 -0.676
       0.000  0.956  0.293
     occupation matrix ns (before diag.):
       0.780 -0.000  0.000
      -0.000  0.780 -0.000
       0.000 -0.000  0.780
     ------------------------ ATOM    9 ------------------------
     Tr[ns(  9)] =   9.97138
     eigenvalues:
       0.996  0.996  0.996  0.998  0.998
     eigenvectors (columns):
      -0.000  0.000 -0.000 -1.000  0.000
      -0.000  0.383 -0.924  0.000  0.000
      -0.000  0.924  0.383  0.000  0.000
       0.000 -0.000  0.000  0.000  1.000
       1.000  0.000 -0.000 -0.000 -0.000
     occupation matrix ns (before diag.):
       0.998 -0.000 -0.000  0.000  0.000
      -0.000  0.996 -0.000  0.000  0.000
      -0.000 -0.000  0.996  0.000  0.000
       0.000  0.000  0.000  0.998 -0.000
       0.000  0.000  0.000 -0.000  0.996
     ------------------------ ATOM   10 ------------------------
     Tr[ns( 10)] =   9.97143
     eigenvalues:
       0.996  0.996  0.996  0.998  0.998
     eigenvectors (columns):
      -0.000 -0.001  0.000 -0.866 -0.500
      -0.103 -0.707 -0.700  0.001 -0.000
      -0.989  0.000  0.146  0.000  0.000
       0.000 -0.000 -0.000 -0.500  0.866
      -0.103  0.707 -0.700 -0.001 -0.000
     occupation matrix ns (before diag.):
       0.998 -0.000 -0.000 -0.000  0.000
      -0.000  0.996 -0.000 -0.000  0.000
      -0.000 -0.000  0.996  0.000 -0.000
      -0.000 -0.000  0.000  0.998  0.000
       0.000  0.000 -0.000  0.000  0.996
     ------------------------ ATOM   11 ------------------------
     Tr[ns( 11)] =   9.97143
     eigenvalues:
       0.996  0.996  0.996  0.998  0.998
     eigenvectors (columns):
      -0.000 -0.001  0.000 -0.866 -0.500
      -0.989  0.000  0.146  0.000  0.000
      -0.103 -0.707 -0.700  0.001 -0.000
      -0.000  0.000  0.000  0.500 -0.866
      -0.103  0.707 -0.700 -0.001 -0.000
     occupation matrix ns (before diag.):
       0.998 -0.000 -0.000  0.000  0.000
      -0.000  0.996 -0.000 -0.000 -0.000
      -0.000 -0.000  0.996  0.000  0.000
       0.000 -0.000  0.000  0.998 -0.000
       0.000 -0.000  0.000 -0.000  0.996
     ------------------------ ATOM   12 ------------------------
     Tr[ns( 12)] =   9.97139
     eigenvalues:
       0.996  0.996  0.996  0.998  0.998
     eigenvectors (columns):
      -0.001 -0.003  0.000 -0.000  1.000
      -0.497  0.503 -0.707  0.001  0.001
      -0.497  0.503  0.707 -0.001  0.001
       0.000  0.000  0.002  1.000  0.000
       0.712  0.703 -0.000 -0.000  0.003
     occupation matrix ns (before diag.):
       0.998  0.000  0.000  0.000  0.000
       0.000  0.996 -0.000  0.000  0.000
       0.000 -0.000  0.996 -0.000  0.000
       0.000  0.000 -0.000  0.998 -0.000
       0.000  0.000  0.000 -0.000  0.996
     ------------------------ ATOM   13 ------------------------
     Tr[ns( 13)] =   4.68284
     eigenvalues:
       0.780  0.780  0.780
     eigenvectors (columns):
       0.236  0.666 -0.707
       0.236  0.666  0.707
       0.943 -0.334  0.000
     occupation matrix ns (before diag.):
       0.780 -0.000 -0.000
      -0.000  0.780 -0.000
      -0.000 -0.000  0.780
     ------------------------ ATOM   14 ------------------------
     Tr[ns( 14)] =   4.68284
     eigenvalues:
       0.780  0.780  0.780
     eigenvectors (columns):
       0.943 -0.334  0.000
       0.236  0.666 -0.707
       0.236  0.666  0.707
     occupation matrix ns (before diag.):
       0.780 -0.000 -0.000
      -0.000  0.780 -0.000
      -0.000 -0.000  0.780
     ------------------------ ATOM   15 ------------------------
     Tr[ns( 15)] =   4.68177
     eigenvalues:
       0.780  0.780  0.780
     eigenvectors (columns):
       0.461  0.674  0.577
       0.353 -0.736  0.577
      -0.814  0.062  0.577
     occupation matrix ns (before diag.):
       0.780  0.000  0.000
       0.000  0.780  0.000
       0.000  0.000  0.780
     ------------------------ ATOM   16 ------------------------
     Tr[ns( 16)] =   4.68284
     eigenvalues:
       0.780  0.780  0.780
     eigenvectors (columns):
      -0.236 -0.666  0.707
      -0.943  0.334 -0.000
      -0.236 -0.666 -0.707
     occupation matrix ns (before diag.):
       0.780 -0.000 -0.000
      -0.000  0.780 -0.000
      -0.000 -0.000  0.780
     ------------------------ ATOM   17 ------------------------
     Tr[ns( 17)] =   9.97138
     eigenvalues:
       0.996  0.996  0.996  0.998  0.998
     eigenvectors (columns):
       0.000 -0.000 -0.000 -0.500  0.866
       1.000  0.000  0.000 -0.000 -0.000
       0.000 -0.632  0.775 -0.000 -0.000
      -0.000  0.000  0.000 -0.866 -0.500
      -0.000  0.775  0.632  0.000  0.000
     occupation matrix ns (before diag.):
       0.998 -0.000 -0.000 -0.000  0.000
      -0.000  0.996 -0.000  0.000  0.000
      -0.000 -0.000  0.996  0.000  0.000
      -0.000  0.000  0.000  0.998 -0.000
       0.000  0.000  0.000 -0.000  0.996
     ------------------------ ATOM   18 ------------------------
     Tr[ns( 18)] =   9.97143
     eigenvalues:
       0.996  0.996  0.996  0.998  0.998
     eigenvectors (columns):
      -0.000  0.001 -0.000 -0.866 -0.500
       0.103 -0.707 -0.700 -0.001  0.000
      -0.989  0.000 -0.146  0.000  0.000
       0.000  0.000  0.000 -0.500  0.866
       0.103  0.707 -0.700  0.001  0.000
     occupation matrix ns (before diag.):
       0.998  0.000 -0.000 -0.000 -0.000
       0.000  0.996  0.000  0.000  0.000
      -0.000  0.000  0.996  0.000  0.000
      -0.000  0.000  0.000  0.998 -0.000
      -0.000  0.000  0.000 -0.000  0.996
     ------------------------ ATOM   19 ------------------------
     Tr[ns( 19)] =   9.97139
     eigenvalues:
       0.996  0.996  0.996  0.998  0.998
     eigenvectors (columns):
      -0.000 -0.001 -0.002  0.866  0.500
       0.712  0.703 -0.000 -0.000  0.003
       0.497 -0.503  0.707  0.001 -0.001
      -0.001 -0.003  0.001 -0.500  0.866
      -0.497  0.503  0.707  0.001  0.001
     occupation matrix ns (before diag.):
       0.998  0.000  0.000  0.000  0.000
       0.000  0.996 -0.000  0.000  0.000
       0.000 -0.000  0.996 -0.000  0.000
       0.000  0.000 -0.000  0.998  0.000
       0.000  0.000  0.000  0.000  0.996
     ------------------------ ATOM   20 ------------------------
     Tr[ns( 20)] =   9.97143
     eigenvalues:
       0.996  0.996  0.996  0.998  0.998
     eigenvectors (columns):
       0.000 -0.000  0.000 -0.000 -1.000
       0.103 -0.707 -0.700 -0.001 -0.000
      -0.103 -0.707  0.700 -0.001  0.000
       0.000  0.001  0.000 -1.000  0.000
       0.989 -0.000  0.146  0.000  0.000
     occupation matrix ns (before diag.):
       0.998  0.000 -0.000  0.000 -0.000
       0.000  0.996 -0.000  0.000 -0.000
      -0.000 -0.000  0.996  0.000  0.000
       0.000  0.000  0.000  0.998 -0.000
      -0.000 -0.000  0.000 -0.000  0.996
     ------------------------ ATOM   21 ------------------------
     Tr[ns( 21)] =   4.68284
     eigenvalues:
       0.780  0.780  0.780
     eigenvectors (columns):
       0.943 -0.334  0.000
      -0.236 -0.666 -0.707
       0.236  0.666 -0.707
     occupation matrix ns (before diag.):
       0.780  0.000 -0.000
       0.000  0.780  0.000
      -0.000  0.000  0.780
     ------------------------ ATOM   22 ------------------------
     Tr[ns( 22)] =   4.68284
     eigenvalues:
       0.780  0.780  0.780
     eigenvectors (columns):
       0.236 -0.666 -0.707
      -0.236  0.666 -0.707
       0.943  0.334  0.000
     occupation matrix ns (before diag.):
       0.780  0.000 -0.000
       0.000  0.780  0.000
      -0.000  0.000  0.780
     ------------------------ ATOM   23 ------------------------
     Tr[ns( 23)] =   4.68284
     eigenvalues:
       0.780  0.780  0.780
     eigenvectors (columns):
      -0.236 -0.666 -0.707
       0.943 -0.334 -0.000
      -0.236 -0.666  0.707
     occupation matrix ns (before diag.):
       0.780  0.000 -0.000
       0.000  0.780  0.000
      -0.000  0.000  0.780
     ------------------------ ATOM   24 ------------------------
     Tr[ns( 24)] =   4.68177
     eigenvalues:
       0.780  0.780  0.780
     eigenvectors (columns):
       0.418  0.702  0.577
       0.816 -0.011 -0.577
       0.399 -0.713  0.577
     occupation matrix ns (before diag.):
       0.780 -0.000  0.000
      -0.000  0.780 -0.000
       0.000 -0.000  0.780
     ------------------------ ATOM   25 ------------------------
     Tr[ns( 25)] =   9.97146
     eigenvalues:
       0.996  0.996  0.996  0.998  0.998
     eigenvectors (columns):
      -0.000 -0.000 -0.000  0.500 -0.866
      -0.346 -0.938  0.000 -0.000  0.000
      -0.000 -0.000 -1.000 -0.000  0.000
       0.000  0.000  0.000 -0.866 -0.500
       0.938 -0.346 -0.000  0.000  0.000
     occupation matrix ns (before diag.):
       0.998 -0.000 -0.000  0.000  0.000
      -0.000  0.996 -0.000  0.000  0.000
      -0.000 -0.000  0.996  0.000  0.000
       0.000  0.000  0.000  0.998 -0.000
       0.000  0.000  0.000 -0.000  0.996
     ------------------------ ATOM   26 ------------------------
     Tr[ns( 26)] =   9.97143
     eigenvalues:
       0.996  0.996  0.996  0.998  0.998
     eigenvectors (columns):
      -0.000  0.001 -0.000 -0.866 -0.500
       0.103 -0.707 -0.700 -0.001  0.000
       0.989 -0.000  0.146  0.000 -0.000
       0.000  0.000  0.000 -0.500  0.866
      -0.103 -0.707  0.700 -0.001 -0.000
     occupation matrix ns (before diag.):
       0.998  0.000  0.000 -0.000  0.000
       0.000  0.996 -0.000  0.000 -0.000
       0.000 -0.000  0.996 -0.000  0.000
      -0.000  0.000 -0.000  0.998  0.000
       0.000 -0.000  0.000  0.000  0.996
     ------------------------ ATOM   27 ------------------------
     Tr[ns( 27)] =   9.97139
     eigenvalues:
       0.996  0.996  0.996  0.998  0.998
     eigenvectors (columns):
      -0.000 -0.001 -0.002  0.866  0.500
      -0.712 -0.703 -0.000 -0.000 -0.003
       0.497 -0.503  0.707  0.001 -0.001
      -0.001 -0.003  0.001 -0.500  0.866
       0.497 -0.503 -0.707 -0.001 -0.001
     occupation matrix ns (before diag.):
       0.998 -0.000  0.000  0.000 -0.000
      -0.000  0.996  0.000 -0.000  0.000
       0.000  0.000  0.996 -0.000 -0.000
       0.000 -0.000 -0.000  0.998 -0.000
      -0.000  0.000 -0.000 -0.000  0.996
     ------------------------ ATOM   28 ------------------------
     Tr[ns( 28)] =   9.97139
     eigenvalues:
       0.996  0.996  0.996  0.998  0.998
     eigenvectors (columns):
      -0.001 -0.003  0.000  0.000  1.000
       0.497 -0.503  0.707 -0.001 -0.001
      -0.497  0.503  0.707 -0.001  0.001
      -0.000  0.000  0.002  1.000 -0.000
      -0.712 -0.703  0.000 -0.000 -0.003
     occupation matrix ns (before diag.):
       0.998 -0.000  0.000  0.000 -0.000
      -0.000  0.996  0.000 -0.000  0.000
       0.000  0.000  0.996 -0.000 -0.000
       0.000 -0.000 -0.000  0.998 -0.000
      -0.000  0.000 -0.000 -0.000  0.996
     ------------------------ ATOM   29 ------------------------
     Tr[ns( 29)] =   4.68313
     eigenvalues:
       0.781  0.781  0.781
     eigenvectors (columns):
       0.577  0.303 -0.758
       0.577  0.505  0.642
      -0.577  0.808 -0.116
     occupation matrix ns (before diag.):
       0.781 -0.000  0.000
      -0.000  0.781  0.000
       0.000  0.000  0.781
     ------------------------ ATOM   30 ------------------------
     Tr[ns( 30)] =   4.68231
     eigenvalues:
       0.780  0.780  0.780
     eigenvectors (columns):
      -0.707  0.207 -0.676
      -0.000  0.956  0.293
      -0.707 -0.207  0.676
     occupation matrix ns (before diag.):
       0.780 -0.000 -0.000
      -0.000  0.780  0.000
      -0.000  0.000  0.780
     ------------------------ ATOM   31 ------------------------
     Tr[ns( 31)] =   4.68231
     eigenvalues:
       0.780  0.780  0.780
     eigenvectors (columns):
       0.707  0.207  0.676
      -0.707  0.207  0.676
      -0.000 -0.956  0.293
     occupation matrix ns (before diag.):
       0.780  0.000  0.000
       0.000  0.780  0.000
       0.000  0.000  0.780
     ------------------------ ATOM   32 ------------------------
     Tr[ns( 32)] =   4.68231
     eigenvalues:
       0.780  0.780  0.780
     eigenvectors (columns):
       0.000  0.956  0.293
       0.707  0.207 -0.676
       0.707 -0.207  0.676
     occupation matrix ns (before diag.):
       0.780 -0.000  0.000
      -0.000  0.780 -0.000
       0.000 -0.000  0.780
     ------------------------ ATOM   33 ------------------------
     Tr[ns( 33)] =   9.97138
     eigenvalues:
       0.996  0.996  0.996  0.998  0.998
     eigenvectors (columns):
      -0.000 -0.000 -0.000  0.500 -0.866
      -0.000 -0.381 -0.924 -0.000  0.000
      -1.000  0.000  0.000 -0.000  0.000
       0.000  0.000  0.000 -0.866 -0.500
       0.000  0.924 -0.381  0.000  0.000
     occupation matrix ns (before diag.):
       0.998 -0.000 -0.000  0.000  0.000
      -0.000  0.996 -0.000  0.000  0.000
      -0.000 -0.000  0.996  0.000  0.000
       0.000  0.000  0.000  0.998 -0.000
       0.000  0.000  0.000 -0.000  0.996
     ------------------------ ATOM   34 ------------------------
     Tr[ns( 34)] =   9.97139
     eigenvalues:
       0.996  0.996  0.996  0.998  0.998
     eigenvectors (columns):
      -0.000 -0.001 -0.002  0.866  0.500
       0.497 -0.503  0.707  0.001 -0.001
       0.712  0.703 -0.000 -0.000  0.003
       0.001  0.003 -0.001  0.500 -0.866
      -0.497  0.503  0.707  0.001  0.001
     occupation matrix ns (before diag.):
       0.998  0.000  0.000 -0.000  0.000
       0.000  0.996 -0.000  0.000  0.000
       0.000 -0.000  0.996 -0.000  0.000
      -0.000  0.000 -0.000  0.998 -0.000
       0.000  0.000  0.000 -0.000  0.996
     ------------------------ ATOM   35 ------------------------
     Tr[ns( 35)] =   9.97143
     eigenvalues:
       0.996  0.996  0.996  0.998  0.998
     eigenvectors (columns):
      -0.000 -0.001  0.000 -0.866 -0.500
      -0.989 -0.000  0.146  0.000  0.000
       0.103  0.707  0.700 -0.001  0.000
      -0.000  0.000  0.000  0.500 -0.866
       0.103 -0.707  0.700  0.001  0.000
     occupation matrix ns (before diag.):
       0.998 -0.000  0.000  0.000 -0.000
      -0.000  0.996  0.000 -0.000  0.000
       0.000  0.000  0.996 -0.000  0.000
       0.000 -0.000 -0.000  0.998  0.000
      -0.000  0.000  0.000  0.000  0.996
     ------------------------ ATOM   36 ------------------------
     Tr[ns( 36)] =   9.97143
     eigenvalues:
[...]
     1.0000   1.0000   1.0000   1.0000   1.0000   1.0000   1.0000   1.0000
     1.0000   1.0000   1.0000   1.0000   1.0000   1.0000   1.0000   1.0000
     1.0000   1.0000   1.0000   1.0000   1.0000   1.0000   1.0000   1.0000
     1.0000   1.0000   1.0000   1.0000   1.0000   1.0000   1.0000   1.0000
     1.0000   1.0000   1.0000   1.0000   1.0000   1.0000   1.0000   1.0000
     1.0000   1.0000   1.0000   1.0000   1.0000   1.0000   1.0000   1.0000
     1.0000   1.0000   1.0000   1.0000   1.0000   1.0000   1.0000   1.0000
     1.0000   1.0000   1.0000   1.0000   1.0000   1.0000   1.0000   1.0000
     1.0000   1.0000   1.0000   1.0000   1.0000   1.0000   1.0000   1.0000
     1.0000   1.0000   1.0000   1.0000   1.0000   1.0000   1.0000   1.0000
     1.0000   1.0000   1.0000   1.0000   1.0000   1.0000   1.0000   1.0000
     1.0000   1.0000   1.0000   1.0000   1.0000   1.0000   1.0000   1.0000
     1.0000   1.0000   1.0000   1.0000   1.0000   1.0000   1.0000   1.0000
     1.0000   1.0000   1.0000   1.0000   1.0000   1.0000   1.0000   1.0000
     1.0000   1.0000   1.0000   1.0000   1.0000   1.0000   1.0000   1.0000
     1.0000   1.0000   1.0000   1.0000   1.0000   1.0000   1.0000   1.0000
     1.0000   1.0000   1.0000   1.0000   1.0000   1.0000   1.0000   1.0000
     1.0000   1.0000   1.0000   1.0000   1.0000   1.0000   1.0000   1.0000
     0.0000   0.0000   0.0000   0.0000   0.0000   0.0000   0.0000   0.0000
     0.0000   0.0000   0.0000   0.0000   0.0000   0.0000   0.0000   0.0000
     0.0000   0.0000   0.0000   0.0000   0.0000   0.0000   0.0000   0.0000
     0.0000   0.0000   0.0000   0.0000   0.0000   0.0000   0.0000   0.0000
     0.0000   0.0000   0.0000   0.0000   0.0000   0.0000   0.0000   0.0000
     0.0000   0.0000   0.0000   0.0000   0.0000   0.0000   0.0000   0.0000
     0.0000   0.0000   0.0000   0.0000   0.0000   0.0000   0.0000   0.0000
     0.0000

          k = 0.2500-0.5000-0.5000 (158052 PWs)   bands (ev):

    -7.1478  -7.1478  -7.1478  -7.1478  -6.9266  -6.9266  -6.9265  -6.9265
    -6.5973  -6.5972  -6.5972  -6.5972  -6.4574  -6.4574  -6.4573  -6.4573
    -6.4573  -6.4573  -6.4573  -6.4573  -6.4465  -6.4465  -6.4465  -6.4465
    -6.4465  -6.4465  -6.4464  -6.4464  -6.3530  -6.3530  -6.3530  -6.3530
    -1.0412  -1.0412  -1.0412  -1.0412  -1.0334  -1.0334  -1.0334  -1.0334
    -1.0189  -1.0188  -1.0188  -1.0188  -1.0116  -1.0115  -1.0115  -1.0115
    -0.9953  -0.9953  -0.9952  -0.9952  -0.9880  -0.9880  -0.9880  -0.9880
    -0.9879  -0.9879  -0.9879  -0.9879  -0.9878  -0.9878  -0.9878  -0.9878
    -0.9756  -0.9755  -0.9755  -0.9755  -0.9660  -0.9660  -0.9660  -0.9660
    -0.9659  -0.9659  -0.9659  -0.9659  -0.9408  -0.9408  -0.9407  -0.9407
    -0.9185  -0.9185  -0.9185  -0.9184  -0.8972  -0.8972  -0.8972  -0.8972
    -0.8971  -0.8971  -0.8971  -0.8971  -0.8645  -0.8644  -0.8644  -0.8644
    -0.8643  -0.8643  -0.8643  -0.8642  -0.8383  -0.8383  -0.8383  -0.8382
    -0.7968  -0.7968  -0.7968  -0.7968  -0.7916  -0.7916  -0.7916  -0.7915
    -0.7915  -0.7915  -0.7915  -0.7915  -0.7401  -0.7401  -0.7401  -0.7401
    -0.7108  -0.7108  -0.7107  -0.7107  -0.7107  -0.7107  -0.7107  -0.7107
    -0.6532  -0.6530  -0.6530  -0.6530  -0.6470  -0.6468  -0.6468  -0.6468
    -0.6345  -0.6344  -0.6344  -0.6344  -0.6257  -0.6256  -0.6256  -0.6256
    -0.6141  -0.6140  -0.6139  -0.6139  -0.6139  -0.6139  -0.6139  -0.6138
    -0.6057  -0.6056  -0.6056  -0.6056  -0.6024  -0.6023  -0.6023  -0.6023
    -0.5972  -0.5972  -0.5971  -0.5971  -0.5971  -0.5971  -0.5971  -0.5970
    -0.5705  -0.5704  -0.5704  -0.5704  -0.4952  -0.4952  -0.4952  -0.4952
    -0.4951  -0.4951  -0.4951  -0.4951  -0.3842  -0.3842  -0.3842  -0.3842
    -0.3842  -0.3842  -0.3842  -0.3841  -0.3285  -0.3285  -0.3285  -0.3284
     0.8583   0.8583   0.8583   0.8583   0.8583   0.8583   0.8583   0.8583
     1.0016   1.0016   1.0017   1.0017   1.3395   1.3395   1.3395   1.3395
     1.3496   1.3496   1.3496   1.3496   1.3496   1.3497   1.3497   1.3497
     2.1680   2.1680   2.1680   2.1680   2.6970   2.6970   2.6970   2.6970
     3.1974   3.1974   3.1974   3.1974   3.1974   3.1974   3.1974   3.1974
     3.2125   3.2125   3.2125   3.2125   3.2125   3.2126   3.2126   3.2126
     3.2394   3.2394   3.2394   3.2394   3.7908   3.7908   3.7908   3.7908
     3.7908   3.7908   3.7908   3.7908   3.7981   3.7981   3.7982   3.7982
     3.8258   3.8258   3.8258   3.8258   4.0798   4.0798   4.0798   4.0799
     4.0799   4.0799   4.0799   4.0799   4.2070   4.2070   4.2071   4.2071
     4.7898   4.7898   4.7898   4.7898   4.8815   4.8815   4.8815   4.8815
     4.8870   4.8871   4.8871   4.8871   5.2447   5.2447   5.2447   5.2447
     9.0408   9.0408   9.0409   9.0409   9.1507   9.1507   9.1507   9.1507
     9.7354   9.7354   9.7354   9.7354   9.8603   9.8603   9.8604   9.8604
     9.9106   9.9106   9.9106   9.9106   9.9106   9.9106   9.9106   9.9106
    10.0990  10.0991  10.0991  10.0991  10.0991  10.0991  10.0991  10.0991
    10.9173  10.9173  10.9173  10.9173  10.9173  10.9173  10.9173  10.9173
    11.4521  11.4521  11.4522  11.4522  11.5308  11.5308  11.5308  11.5308
    11.6435  11.6435  11.6435  11.6435  11.6435  11.6436  11.6436  11.6436
    11.8846

     occupation numbers 
     1.0000   1.0000   1.0000   1.0000   1.0000   1.0000   1.0000   1.0000
     1.0000   1.0000   1.0000   1.0000   1.0000   1.0000   1.0000   1.0000
     1.0000   1.0000   1.0000   1.0000   1.0000   1.0000   1.0000   1.0000
     1.0000   1.0000   1.0000   1.0000   1.0000   1.0000   1.0000   1.0000
     1.0000   1.0000   1.0000   1.0000   1.0000   1.0000   1.0000   1.0000
     1.0000   1.0000   1.0000   1.0000   1.0000   1.0000   1.0000   1.0000
     1.0000   1.0000   1.0000   1.0000   1.0000   1.0000   1.0000   1.0000
     1.0000   1.0000   1.0000   1.0000   1.0000   1.0000   1.0000   1.0000
     1.0000   1.0000   1.0000   1.0000   1.0000   1.0000   1.0000   1.0000
     1.0000   1.0000   1.0000   1.0000   1.0000   1.0000   1.0000   1.0000
     1.0000   1.0000   1.0000   1.0000   1.0000   1.0000   1.0000   1.0000
     1.0000   1.0000   1.0000   1.0000   1.0000   1.0000   1.0000   1.0000
     1.0000   1.0000   1.0000   1.0000   1.0000   1.0000   1.0000   1.0000
     1.0000   1.0000   1.0000   1.0000   1.0000   1.0000   1.0000   1.0000
     1.0000   1.0000   1.0000   1.0000   1.0000   1.0000   1.0000   1.0000
     1.0000   1.0000   1.0000   1.0000   1.0000   1.0000   1.0000   1.0000
     1.0000   1.0000   1.0000   1.0000   1.0000   1.0000   1.0000   1.0000
     1.0000   1.0000   1.0000   1.0000   1.0000   1.0000   1.0000   1.0000
     1.0000   1.0000   1.0000   1.0000   1.0000   1.0000   1.0000   1.0000
     1.0000   1.0000   1.0000   1.0000   1.0000   1.0000   1.0000   1.0000
     1.0000   1.0000   1.0000   1.0000   1.0000   1.0000   1.0000   1.0000
     1.0000   1.0000   1.0000   1.0000   1.0000   1.0000   1.0000   1.0000
     1.0000   1.0000   1.0000   1.0000   1.0000   1.0000   1.0000   1.0000
     1.0000   1.0000   1.0000   1.0000   1.0000   1.0000   1.0000   1.0000
     1.0000   1.0000   1.0000   1.0000   1.0000   1.0000   1.0000   1.0000
     1.0000   1.0000   1.0000   1.0000   1.0000   1.0000   1.0000   1.0000
     1.0000   1.0000   1.0000   1.0000   1.0000   1.0000   1.0000   1.0000
     1.0000   1.0000   1.0000   1.0000   1.0000   1.0000   1.0000   1.0000
     1.0000   1.0000   1.0000   1.0000   1.0000   1.0000   1.0000   1.0000
     1.0000   1.0000   1.0000   1.0000   1.0000   1.0000   1.0000   1.0000
     1.0000   1.0000   1.0000   1.0000   1.0000   1.0000   1.0000   1.0000
     1.0000   1.0000   1.0000   1.0000   1.0000   1.0000   1.0000   1.0000
     1.0000   1.0000   1.0000   1.0000   1.0000   1.0000   1.0000   1.0000
     1.0000   1.0000   1.0000   1.0000   1.0000   1.0000   1.0000   1.0000
     1.0000   1.0000   1.0000   1.0000   1.0000   1.0000   1.0000   1.0000
     1.0000   1.0000   1.0000   1.0000   1.0000   1.0000   1.0000   1.0000
     0.0000   0.0000   0.0000   0.0000   0.0000   0.0000   0.0000   0.0000
     0.0000   0.0000   0.0000   0.0000   0.0000   0.0000   0.0000   0.0000
     0.0000   0.0000   0.0000   0.0000   0.0000   0.0000   0.0000   0.0000
     0.0000   0.0000   0.0000   0.0000   0.0000   0.0000   0.0000   0.0000
     0.0000   0.0000   0.0000   0.0000   0.0000   0.0000   0.0000   0.0000
     0.0000   0.0000   0.0000   0.0000   0.0000   0.0000   0.0000   0.0000
     0.0000   0.0000   0.0000   0.0000   0.0000   0.0000   0.0000   0.0000
     0.0000

          k =-0.5000-0.5000-0.5000 (158408 PWs)   bands (ev):

    -7.0604  -7.0604  -7.0603  -7.0603  -7.0603  -7.0603  -7.0603  -7.0603
    -6.4520  -6.4520  -6.4520  -6.4520  -6.4520  -6.4520  -6.4519  -6.4519
    -6.4519  -6.4519  -6.4519  -6.4519  -6.4519  -6.4519  -6.4519  -6.4519
    -6.4518  -6.4518  -6.4518  -6.4518  -6.4518  -6.4518  -6.4518  -6.4518
    -1.0196  -1.0196  -1.0196  -1.0195  -1.0195  -1.0195  -1.0195  -1.0195
    -1.0194  -1.0194  -1.0194  -1.0194  -1.0194  -1.0194  -1.0194  -1.0194
    -1.0010  -1.0010  -1.0010  -1.0009  -1.0009  -1.0009  -1.0009  -1.0009
    -0.9788  -0.9788  -0.9787  -0.9787  -0.9787  -0.9786  -0.9786  -0.9786
    -0.9786  -0.9786  -0.9786  -0.9786  -0.9786  -0.9786  -0.9786  -0.9786
    -0.9786  -0.9786  -0.9786  -0.9786  -0.9785  -0.9785  -0.9785  -0.9785
    -0.8745  -0.8745  -0.8745  -0.8743  -0.8743  -0.8743  -0.8743  -0.8743
    -0.8743  -0.8743  -0.8743  -0.8743  -0.8742  -0.8742  -0.8742  -0.8742
    -0.8742  -0.8742  -0.8742  -0.8742  -0.8742  -0.8741  -0.8741  -0.8741
    -0.7624  -0.7624  -0.7624  -0.7624  -0.7624  -0.7623  -0.7622  -0.7622
    -0.7622  -0.7622  -0.7622  -0.7622  -0.7622  -0.7622  -0.7622  -0.7622
    -0.7622  -0.7622  -0.7622  -0.7622  -0.7622  -0.7622  -0.7622  -0.7622
    -0.6414  -0.6414  -0.6412  -0.6412  -0.6412  -0.6412  -0.6412  -0.6412
    -0.6411  -0.6411  -0.6411  -0.6411  -0.6411  -0.6411  -0.6411  -0.6411
    -0.6015  -0.6015  -0.6012  -0.6012  -0.6012  -0.6012  -0.6011  -0.6011
    -0.6011  -0.6011  -0.6011  -0.6011  -0.6011  -0.6011  -0.6011  -0.6011
    -0.6010  -0.6010  -0.6010  -0.6010  -0.6010  -0.6010  -0.6009  -0.6009
    -0.4460  -0.4460  -0.4460  -0.4458  -0.4458  -0.4458  -0.4458  -0.4458
    -0.4458  -0.4458  -0.4458  -0.4458  -0.4458  -0.4458  -0.4458  -0.4458
    -0.4457  -0.4457  -0.4457  -0.4457  -0.4457  -0.4457  -0.4457  -0.4457
     1.1012   1.1013   1.1013   1.1013   1.1013   1.1014   1.1014   1.1014
     1.1014   1.1014   1.1014   1.1014   1.1014   1.1014   1.1014   1.1014
     1.1014   1.1014   1.1014   1.1014   1.1014   1.1014   1.1014   1.1014
     2.7033   2.7033   2.7033   2.7033   2.7033   2.7033   2.7033   2.7033
     3.1840   3.1840   3.1841   3.1841   3.1841   3.1841   3.1841   3.1841
     3.1841   3.1841   3.1841   3.1841   3.1841   3.1841   3.1841   3.1841
     3.1841   3.1841   3.1841   3.1841   3.1841   3.1841   3.1841   3.1841
     3.9760   3.9760   3.9760   3.9760   3.9760   3.9760   3.9760   3.9760
     3.9760   3.9760   3.9760   3.9760   3.9760   3.9760   3.9760   3.9760
     3.9760   3.9761   3.9761   3.9761   3.9761   3.9761   3.9761   3.9761
     5.0573   5.0573   5.0573   5.0573   5.0573   5.0573   5.0574   5.0574
     5.0574   5.0574   5.0574   5.0574   5.0574   5.0574   5.0574   5.0574
     8.9456   8.9457   8.9457   8.9457   8.9457   8.9457   8.9457   8.9457
     9.8571   9.8572   9.8572   9.8572   9.8572   9.8572   9.8572   9.8572
     9.8572   9.8572   9.8572   9.8572   9.8572   9.8572   9.8572   9.8572
     9.8572   9.8572   9.8572   9.8572   9.8572   9.8572   9.8572   9.8572
    11.4641  11.4642  11.4642  11.4642  11.4642  11.4642  11.4642  11.4642
    11.4642  11.4642  11.4642  11.4642  11.4642  11.4642  11.4642  11.4642
    11.4642  11.4642  11.4642  11.4642  11.4642  11.4642  11.4642  11.4642
    12.4123

     occupation numbers 
     1.0000   1.0000   1.0000   1.0000   1.0000   1.0000   1.0000   1.0000
     1.0000   1.0000   1.0000   1.0000   1.0000   1.0000   1.0000   1.0000
     1.0000   1.0000   1.0000   1.0000   1.0000   1.0000   1.0000   1.0000
     1.0000   1.0000   1.0000   1.0000   1.0000   1.0000   1.0000   1.0000
     1.0000   1.0000   1.0000   1.0000   1.0000   1.0000   1.0000   1.0000
     1.0000   1.0000   1.0000   1.0000   1.0000   1.0000   1.0000   1.0000
     1.0000   1.0000   1.0000   1.0000   1.0000   1.0000   1.0000   1.0000
     1.0000   1.0000   1.0000   1.0000   1.0000   1.0000   1.0000   1.0000
     1.0000   1.0000   1.0000   1.0000   1.0000   1.0000   1.0000   1.0000
     1.0000   1.0000   1.0000   1.0000   1.0000   1.0000   1.0000   1.0000
     1.0000   1.0000   1.0000   1.0000   1.0000   1.0000   1.0000   1.0000
     1.0000   1.0000   1.0000   1.0000   1.0000   1.0000   1.0000   1.0000
     1.0000   1.0000   1.0000   1.0000   1.0000   1.0000   1.0000   1.0000
     1.0000   1.0000   1.0000   1.0000   1.0000   1.0000   1.0000   1.0000
     1.0000   1.0000   1.0000   1.0000   1.0000   1.0000   1.0000   1.0000
     1.0000   1.0000   1.0000   1.0000   1.0000   1.0000   1.0000   1.0000
     1.0000   1.0000   1.0000   1.0000   1.0000   1.0000   1.0000   1.0000
     1.0000   1.0000   1.0000   1.0000   1.0000   1.0000   1.0000   1.0000
     1.0000   1.0000   1.0000   1.0000   1.0000   1.0000   1.0000   1.0000
     1.0000   1.0000   1.0000   1.0000   1.0000   1.0000   1.0000   1.0000
     1.0000   1.0000   1.0000   1.0000   1.0000   1.0000   1.0000   1.0000
     1.0000   1.0000   1.0000   1.0000   1.0000   1.0000   1.0000   1.0000
     1.0000   1.0000   1.0000   1.0000   1.0000   1.0000   1.0000   1.0000
     1.0000   1.0000   1.0000   1.0000   1.0000   1.0000   1.0000   1.0000
     1.0000   1.0000   1.0000   1.0000   1.0000   1.0000   1.0000   1.0000
     1.0000   1.0000   1.0000   1.0000   1.0000   1.0000   1.0000   1.0000
     1.0000   1.0000   1.0000   1.0000   1.0000   1.0000   1.0000   1.0000
     1.0000   1.0000   1.0000   1.0000   1.0000   1.0000   1.0000   1.0000
     1.0000   1.0000   1.0000   1.0000   1.0000   1.0000   1.0000   1.0000
     1.0000   1.0000   1.0000   1.0000   1.0000   1.0000   1.0000   1.0000
     1.0000   1.0000   1.0000   1.0000   1.0000   1.0000   1.0000   1.0000
     1.0000   1.0000   1.0000   1.0000   1.0000   1.0000   1.0000   1.0000
     1.0000   1.0000   1.0000   1.0000   1.0000   1.0000   1.0000   1.0000
     1.0000   1.0000   1.0000   1.0000   1.0000   1.0000   1.0000   1.0000
     1.0000   1.0000   1.0000   1.0000   1.0000   1.0000   1.0000   1.0000
     1.0000   1.0000   1.0000   1.0000   1.0000   1.0000   1.0000   1.0000
     0.0000   0.0000   0.0000   0.0000   0.0000   0.0000   0.0000   0.0000
     0.0000   0.0000   0.0000   0.0000   0.0000   0.0000   0.0000   0.0000
     0.0000   0.0000   0.0000   0.0000   0.0000   0.0000   0.0000   0.0000
     0.0000   0.0000   0.0000   0.0000   0.0000   0.0000   0.0000   0.0000
     0.0000   0.0000   0.0000   0.0000   0.0000   0.0000   0.0000   0.0000
     0.0000   0.0000   0.0000   0.0000   0.0000   0.0000   0.0000   0.0000
     0.0000   0.0000   0.0000   0.0000   0.0000   0.0000   0.0000   0.0000
     0.0000

     highest occupied, lowest unoccupied level (ev):     5.5065    7.5569

!    total energy              =   -9924.32583190 Ry
     total all-electron energy =   -140500.266420 Ry
     estimated scf accuracy    <       0.00000075 Ry

     The total energy is the sum of the following terms:
     one-electron contribution =   -2755.00774068 Ry
     hartree contribution      =    1962.47865504 Ry
     xc contribution           =   -1674.94713559 Ry
     ewald contribution        =   -2927.19912172 Ry
     Hubbard energy            =       0.05149930 Ry
     one-center paw contrib.   =   -4529.70198825 Ry
      -> PAW hartree energy AE =     123.35207065 Ry
      -> PAW hartree energy PS =    -122.70933285 Ry
      -> PAW xc energy AE      =    -143.21866437 Ry
      -> PAW xc energy PS      =      47.15693402 Ry
      -> total E_H with PAW    =    1963.12139283 Ry
      -> total E_XC with PAW   =   -1771.00886593 Ry

     convergence has been achieved in   9 iterations

     Writing all to output data dir ./out/ZnS_hub.save/
 
     init_run     :      8.32s CPU      9.06s WALL (       1 calls)
     electrons    :     78.31s CPU     80.96s WALL (       1 calls)

     Called by init_run:
     wfcinit      :      4.23s CPU      4.43s WALL (       1 calls)
     wfcinit:atom :      0.00s CPU      0.00s WALL (       1 calls)
     wfcinit:wfcr :      3.54s CPU      3.59s WALL (       1 calls)
     potinit      :      0.70s CPU      0.91s WALL (       1 calls)
     hinit0       :      1.38s CPU      1.50s WALL (       1 calls)

     Called by electrons:
     c_bands      :     70.30s CPU     70.98s WALL (      10 calls)
     sum_band     :      6.57s CPU      6.67s WALL (      10 calls)
     v_of_rho     :      0.32s CPU      0.46s WALL (      10 calls)
     v_h          :      0.03s CPU      0.04s WALL (      10 calls)
     v_xc         :      0.28s CPU      0.41s WALL (      10 calls)
     newd         :      0.17s CPU      0.20s WALL (      10 calls)
     PAW_pot      :      0.77s CPU      0.79s WALL (      10 calls)
     mix_rho      :      0.06s CPU      0.07s WALL (      10 calls)

     Called by c_bands:
     init_us_2    :      0.35s CPU      0.37s WALL (      22 calls)
     init_us_2:cp :      0.35s CPU      0.37s WALL (      22 calls)
     cegterg      :     33.64s CPU     34.10s WALL (      10 calls)

     Called by sum_band:
     sum_band:wei :      0.00s CPU      0.00s WALL (      10 calls)
     sum_band:loo :      2.62s CPU      2.65s WALL (      10 calls)
     sum_band:buf :      0.00s CPU      0.00s WALL (      10 calls)
     sum_band:ini :      0.17s CPU      0.18s WALL (      10 calls)
     sum_band:cal :      0.85s CPU      0.86s WALL (      10 calls)
     sum_band:bec :      0.04s CPU      0.04s WALL (      10 calls)
     addusdens    :      0.16s CPU      0.17s WALL (      10 calls)
                                        0.00s GPU  (      10 calls)
     addusd:skk   :      0.00s CPU      0.00s WALL (      20 calls)
                                        0.00s GPU  (      20 calls)

     Called by *egterg:
     cdiaghg      :      4.84s CPU      4.88s WALL (      71 calls)
     cegterg:over :      2.17s CPU      2.18s WALL (      62 calls)
     cegterg:upda :      1.66s CPU      1.68s WALL (      62 calls)
     cegterg:last :      2.73s CPU      2.75s WALL (      21 calls)
     cdiaghg:chol :      0.30s CPU      0.30s WALL (      71 calls)
     cdiaghg:inve :      0.45s CPU      0.45s WALL (      71 calls)
     cdiaghg:para :      0.73s CPU      0.74s WALL (     142 calls)
     h_psi        :     21.88s CPU     22.17s WALL (      73 calls)
     s_psi        :      2.92s CPU      2.94s WALL (      74 calls)
     g_psi        :      0.06s CPU      0.06s WALL (      62 calls)

     Called by h_psi:
     h_psi:calbec :      2.68s CPU      2.70s WALL (      73 calls)
     vloc_psi     :     10.58s CPU     10.69s WALL (      73 calls)
     add_vuspsi   :      2.71s CPU      2.75s WALL (      73 calls)
     vhpsi        :      5.81s CPU      5.86s WALL (      73 calls)

     General routines
     calbec       :      4.56s CPU      4.61s WALL (     167 calls)
     fft          :      0.38s CPU      0.70s WALL (     111 calls)
     ffts         :      0.01s CPU      0.02s WALL (      10 calls)
     fftw         :     11.50s CPU     11.62s WALL (   22416 calls)
 
     Parallel routines

     Hubbard U routines
     new_ns       :      0.49s CPU      0.50s WALL (      10 calls)
     vhpsi        :      5.81s CPU      5.86s WALL (      73 calls)

     PAW routines
     PAW_pot      :      0.77s CPU      0.79s WALL (      10 calls)
     PAW_symme    :      0.08s CPU      0.08s WALL (      20 calls)
 
     PWSCF        :   1m39.06s CPU   1m55.80s WALL

 
   This run was terminated on:   4:24:49   1Jul2024            

=------------------------------------------------------------------------------=
   JOB DONE.
=------------------------------------------------------------------------------=
