
     Program PWSCF v.7.2 starts on 16Feb2024 at 10:43:24 

     This program is part of the open-source Quantum ESPRESSO suite
     for quantum simulation of materials; please cite
         "P. Giannozzi et al., J. Phys.:Condens. Matter 21 395502 (2009);
         "P. Giannozzi et al., J. Phys.:Condens. Matter 29 465901 (2017);
         "P. Giannozzi et al., J. Chem. Phys. 152 154105 (2020);
          URL http://www.quantum-espresso.org", 
     in publications or presentations arising from this work. More details at
     http://www.quantum-espresso.org/quote

     Parallel version (MPI), running on    10 processors

     MPI processes distributed on     1 nodes
     979 MiB available memory on the printing compute node when the environment starts

     Waiting for input...
     Reading input from standard input

     Current dimensions of program PWSCF are:
     Max number of different atomic species (ntypx) = 10
     Max number of k-points (npk) =  40000
     Max angular momentum in pseudopotentials (lmaxx) =  4
     file Zn.pbe-dnl-kjpaw_psl.1.0.0.UPF: wavefunction(s)  4S 3D renormalized
     Message from routine setup:
     using ibrav=0 with symmetry is DISCOURAGED, use correct ibrav instead

     R & G space division:  proc/nbgrp/npool/nimage =      10
     Subspace diagonalization in iterative solution of the eigenvalue problem:
     a serial algorithm will be used


     Parallelization info
     --------------------
     sticks:   dense  smooth     PW     G-vecs:    dense   smooth      PW
     Min          47      47     15                 1539     1539     263
     Max          48      48     16                 1543     1543     266
     Sum         475     475    151                15415    15415    2637

     Using Slab Decomposition



     bravais-lattice index     =            0
     lattice parameter (alat)  =       4.9404  a.u.
     unit-cell volume          =     194.6564 (a.u.)^3
     number of atoms/cell      =            2
     number of atomic types    =            1
     number of electrons       =        24.00
     number of Kohn-Sham states=           16
     kinetic-energy cutoff     =      70.0000  Ry
     charge density cutoff     =     280.0000  Ry
     scf convergence threshold =      4.0E-08
     mixing beta               =       0.7000
     number of iterations used =            8  plain     mixing
     Exchange-correlation= SLA  PW   PBX  PBC
                           (   1   4   3   4   0   0   0)

     celldm(1)=   4.940424  celldm(2)=   0.000000  celldm(3)=   0.000000
     celldm(4)=   0.000000  celldm(5)=   0.000000  celldm(6)=   0.000000

     crystal axes: (cart. coord. in units of alat)
               a(1) = (   1.000000   0.000000   0.000000 )  
               a(2) = (  -0.500000   0.866025   0.000000 )  
               a(3) = (   0.000000   0.000000   1.863998 )  

     reciprocal axes: (cart. coord. in units 2 pi/alat)
               b(1) = (  1.000000  0.577350 -0.000000 )  
               b(2) = (  0.000000  1.154701  0.000000 )  
               b(3) = (  0.000000 -0.000000  0.536481 )  


     PseudoPot. # 1 for Zn read from file:
     /home/abdul/git_repo/ZnS_Cu-Vacancy/pseudo/QE/Zn.pbe-dnl-kjpaw_psl.1.0.0.UPF
     MD5 check sum: c608214d9520ac179f507641260889e3
     Pseudo is Projector augmented-wave + core cor, Zval = 12.0
     Generated using &quot;atomic&quot; code by A. Dal Corso  v.6.2.2
     Shape of augmentation charge: PSQ
     Using radial grid of 1201 points,  6 beta functions with: 
                l(1) =   0
                l(2) =   0
                l(3) =   1
                l(4) =   1
                l(5) =   2
                l(6) =   2
     Q(r) pseudized with 0 coefficients 


     atomic species   valence    mass     pseudopotential
        Zn            12.00    65.38000     Zn( 1.00)

     Starting magnetic structure 
     atomic species   magnetization
        Zn           0.001

     24 Sym. Ops., with inversion, found (12 have fractional translation)


                                    s                        frac. trans.

      isym =  1     identity                                     

 cryst.   s( 1) = (     1          0          0      )
                  (     0          1          0      )
                  (     0          0          1      )

 cart.    s( 1) = (  1.0000000  0.0000000  0.0000000 )
                  (  0.0000000  1.0000000  0.0000000 )
                  (  0.0000000  0.0000000  1.0000000 )


      isym =  2     180 deg rotation - cart. axis [0,0,1]        

 cryst.   s( 2) = (    -1          0          0      )    f =(  0.0000000 )
                  (     0         -1          0      )       (  0.0000000 )
                  (     0          0          1      )       ( -0.5000000 )

 cart.    s( 2) = ( -1.0000000  0.0000000  0.0000000 )    f =(  0.0000000 )
                  (  0.0000000 -1.0000000  0.0000000 )       (  0.0000000 )
                  (  0.0000000  0.0000000  1.0000000 )       ( -0.9319989 )


      isym =  3     180 deg rotation - cart. axis [0,1,0]        

 cryst.   s( 3) = (    -1          0          0      )    f =(  0.0000000 )
                  (     1          1          0      )       (  0.0000000 )
                  (     0          0         -1      )       (  0.5000000 )

 cart.    s( 3) = ( -1.0000000  0.0000000  0.0000000 )    f =(  0.0000000 )
                  (  0.0000000  1.0000000  0.0000000 )       (  0.0000000 )
                  (  0.0000000  0.0000000 -1.0000000 )       (  0.9319989 )


      isym =  4     180 deg rotation - cart. axis [1,0,0]        

 cryst.   s( 4) = (     1          0          0      )
                  (    -1         -1          0      )
                  (     0          0         -1      )

 cart.    s( 4) = (  1.0000000  0.0000000  0.0000000 )
                  (  0.0000000 -1.0000000  0.0000000 )
                  (  0.0000000  0.0000000 -1.0000000 )


      isym =  5      60 deg rotation - cryst. axis [0,0,1]       

 cryst.   s( 5) = (     1          1          0      )    f =(  0.0000000 )
                  (    -1          0          0      )       ( -0.0000000 )
                  (     0          0          1      )       ( -0.5000000 )

 cart.    s( 5) = (  0.5000000 -0.8660254  0.0000000 )    f =(  0.0000000 )
                  (  0.8660254  0.5000000  0.0000000 )       ( -0.0000000 )
                  (  0.0000000  0.0000000  1.0000000 )       ( -0.9319989 )


      isym =  6      60 deg rotation - cryst. axis [0,0,-1]      

 cryst.   s( 6) = (     0         -1          0      )    f =(  0.0000000 )
                  (     1          1          0      )       ( -0.0000000 )
                  (     0          0          1      )       ( -0.5000000 )

 cart.    s( 6) = (  0.5000000  0.8660254  0.0000000 )    f =(  0.0000000 )
                  ( -0.8660254  0.5000000  0.0000000 )       ( -0.0000000 )
                  (  0.0000000  0.0000000  1.0000000 )       ( -0.9319989 )


      isym =  7     120 deg rotation - cryst. axis [0,0,1]       

 cryst.   s( 7) = (     0          1          0      )
                  (    -1         -1          0      )
                  (     0          0          1      )

 cart.    s( 7) = ( -0.5000000 -0.8660254  0.0000000 )
                  (  0.8660254 -0.5000000  0.0000000 )
                  (  0.0000000  0.0000000  1.0000000 )


      isym =  8     120 deg rotation - cryst. axis [0,0,-1]      

 cryst.   s( 8) = (    -1         -1          0      )
                  (     1          0          0      )
                  (     0          0          1      )

 cart.    s( 8) = ( -0.5000000  0.8660254  0.0000000 )
                  ( -0.8660254 -0.5000000  0.0000000 )
                  (  0.0000000  0.0000000  1.0000000 )


      isym =  9     180 deg rotation - cryst. axis [1,-1,0]      

 cryst.   s( 9) = (     0         -1          0      )    f =(  0.0000000 )
                  (    -1          0          0      )       (  0.0000000 )
                  (     0          0         -1      )       (  0.5000000 )

 cart.    s( 9) = (  0.5000000 -0.8660254  0.0000000 )    f =(  0.0000000 )
                  ( -0.8660254 -0.5000000  0.0000000 )       (  0.0000000 )
                  (  0.0000000  0.0000000 -1.0000000 )       (  0.9319989 )


      isym = 10     180 deg rotation - cryst. axis [2,1,0]       

 cryst.   s(10) = (     1          1          0      )    f =(  0.0000000 )
                  (     0         -1          0      )       ( -0.0000000 )
                  (     0          0         -1      )       (  0.5000000 )

 cart.    s(10) = (  0.5000000  0.8660254  0.0000000 )    f =(  0.0000000 )
                  (  0.8660254 -0.5000000  0.0000000 )       ( -0.0000000 )
                  (  0.0000000  0.0000000 -1.0000000 )       (  0.9319989 )


      isym = 11     180 deg rotation - cryst. axis [0,1,0]       

 cryst.   s(11) = (    -1         -1          0      )
                  (     0          1          0      )
                  (     0          0         -1      )

 cart.    s(11) = ( -0.5000000 -0.8660254  0.0000000 )
                  ( -0.8660254  0.5000000  0.0000000 )
                  (  0.0000000  0.0000000 -1.0000000 )


      isym = 12     180 deg rotation - cryst. axis [1,1,0]       

 cryst.   s(12) = (     0          1          0      )
                  (     1          0          0      )
                  (     0          0         -1      )

 cart.    s(12) = ( -0.5000000  0.8660254  0.0000000 )
                  (  0.8660254  0.5000000  0.0000000 )
                  (  0.0000000  0.0000000 -1.0000000 )


      isym = 13     inversion                                    

 cryst.   s(13) = (    -1          0          0      )
                  (     0         -1          0      )
                  (     0          0         -1      )

 cart.    s(13) = ( -1.0000000  0.0000000  0.0000000 )
                  (  0.0000000 -1.0000000  0.0000000 )
                  (  0.0000000  0.0000000 -1.0000000 )


      isym = 14     inv. 180 deg rotation - cart. axis [0,0,1]   

 cryst.   s(14) = (     1          0          0      )    f =(  0.0000000 )
                  (     0          1          0      )       (  0.0000000 )
                  (     0          0         -1      )       (  0.5000000 )

 cart.    s(14) = (  1.0000000  0.0000000  0.0000000 )    f =(  0.0000000 )
                  (  0.0000000  1.0000000  0.0000000 )       (  0.0000000 )
                  (  0.0000000  0.0000000 -1.0000000 )       (  0.9319989 )


      isym = 15     inv. 180 deg rotation - cart. axis [0,1,0]   

 cryst.   s(15) = (     1          0          0      )    f =(  0.0000000 )
                  (    -1         -1          0      )       (  0.0000000 )
                  (     0          0          1      )       ( -0.5000000 )

 cart.    s(15) = (  1.0000000  0.0000000  0.0000000 )    f =(  0.0000000 )
                  (  0.0000000 -1.0000000  0.0000000 )       (  0.0000000 )
                  (  0.0000000  0.0000000  1.0000000 )       ( -0.9319989 )


      isym = 16     inv. 180 deg rotation - cart. axis [1,0,0]   

 cryst.   s(16) = (    -1          0          0      )
                  (     1          1          0      )
                  (     0          0          1      )

 cart.    s(16) = ( -1.0000000  0.0000000  0.0000000 )
                  (  0.0000000  1.0000000  0.0000000 )
                  (  0.0000000  0.0000000  1.0000000 )


      isym = 17     inv.  60 deg rotation - cryst. axis [0,0,1]  

 cryst.   s(17) = (    -1         -1          0      )    f =(  0.0000000 )
                  (     1          0          0      )       (  0.0000000 )
                  (     0          0         -1      )       (  0.5000000 )

 cart.    s(17) = ( -0.5000000  0.8660254  0.0000000 )    f =(  0.0000000 )
                  ( -0.8660254 -0.5000000  0.0000000 )       (  0.0000000 )
                  (  0.0000000  0.0000000 -1.0000000 )       (  0.9319989 )


      isym = 18     inv.  60 deg rotation - cryst. axis [0,0,-1] 

 cryst.   s(18) = (     0          1          0      )    f =(  0.0000000 )
                  (    -1         -1          0      )       ( -0.0000000 )
                  (     0          0         -1      )       (  0.5000000 )

 cart.    s(18) = ( -0.5000000 -0.8660254  0.0000000 )    f =(  0.0000000 )
                  (  0.8660254 -0.5000000  0.0000000 )       ( -0.0000000 )
                  (  0.0000000  0.0000000 -1.0000000 )       (  0.9319989 )


      isym = 19     inv. 120 deg rotation - cryst. axis [0,0,1]  

 cryst.   s(19) = (     0         -1          0      )
                  (     1          1          0      )
                  (     0          0         -1      )

 cart.    s(19) = (  0.5000000  0.8660254  0.0000000 )
                  ( -0.8660254  0.5000000  0.0000000 )
                  (  0.0000000  0.0000000 -1.0000000 )


      isym = 20     inv. 120 deg rotation - cryst. axis [0,0,-1] 

 cryst.   s(20) = (     1          1          0      )
                  (    -1          0          0      )
                  (     0          0         -1      )

 cart.    s(20) = (  0.5000000 -0.8660254  0.0000000 )
                  (  0.8660254  0.5000000  0.0000000 )
                  (  0.0000000  0.0000000 -1.0000000 )


      isym = 21     inv. 180 deg rotation - cryst. axis [1,-1,0] 

 cryst.   s(21) = (     0          1          0      )    f =(  0.0000000 )
                  (     1          0          0      )       ( -0.0000000 )
                  (     0          0          1      )       ( -0.5000000 )

 cart.    s(21) = ( -0.5000000  0.8660254  0.0000000 )    f =(  0.0000000 )
                  (  0.8660254  0.5000000  0.0000000 )       ( -0.0000000 )
                  (  0.0000000  0.0000000  1.0000000 )       ( -0.9319989 )


      isym = 22     inv. 180 deg rotation - cryst. axis [2,1,0]  

 cryst.   s(22) = (    -1         -1          0      )    f =(  0.0000000 )
                  (     0          1          0      )       ( -0.0000000 )
                  (     0          0          1      )       ( -0.5000000 )

 cart.    s(22) = ( -0.5000000 -0.8660254  0.0000000 )    f =(  0.0000000 )
                  ( -0.8660254  0.5000000  0.0000000 )       ( -0.0000000 )
                  (  0.0000000  0.0000000  1.0000000 )       ( -0.9319989 )


      isym = 23     inv. 180 deg rotation - cryst. axis [0,1,0]  

 cryst.   s(23) = (     1          1          0      )
                  (     0         -1          0      )
                  (     0          0          1      )

 cart.    s(23) = (  0.5000000  0.8660254  0.0000000 )
                  (  0.8660254 -0.5000000  0.0000000 )
                  (  0.0000000  0.0000000  1.0000000 )


      isym = 24     inv. 180 deg rotation - cryst. axis [1,1,0]  

 cryst.   s(24) = (     0         -1          0      )
                  (    -1          0          0      )
                  (     0          0          1      )

 cart.    s(24) = (  0.5000000 -0.8660254  0.0000000 )
                  ( -0.8660254 -0.5000000  0.0000000 )
                  (  0.0000000  0.0000000  1.0000000 )


   Cartesian axes

     site n.     atom                  positions (alat units)
         1           Zn  tau(   1) = (  -0.0000000   0.5773503   0.4659995  )
         2           Zn  tau(   2) = (   0.5000000   0.2886751   1.3979984  )

   Crystallographic axes

     site n.     atom                  positions (cryst. coord.)
         1           Zn  tau(   1) = (  0.3333333  0.6666667  0.2500000  )
         2           Zn  tau(   2) = (  0.6666667  0.3333333  0.7500000  )

     number of k points=    96  Marzari-Vanderbilt smearing, width (Ry)=  0.0005
                       cart. coord. in units 2pi/alat
        k(    1) = (   0.0000000   0.0000000   0.0000000), wk =   0.0007289
        k(    2) = (   0.0000000   0.0000000   0.0766402), wk =   0.0014577
        k(    3) = (   0.0000000   0.0000000   0.1532804), wk =   0.0014577
        k(    4) = (   0.0000000   0.0000000   0.2299206), wk =   0.0014577
        k(    5) = (   0.0000000   0.0824786   0.0000000), wk =   0.0043732
        k(    6) = (   0.0000000   0.0824786   0.0766402), wk =   0.0087464
        k(    7) = (   0.0000000   0.0824786   0.1532804), wk =   0.0087464
        k(    8) = (   0.0000000   0.0824786   0.2299206), wk =   0.0087464
        k(    9) = (   0.0000000   0.1649572   0.0000000), wk =   0.0043732
        k(   10) = (   0.0000000   0.1649572   0.0766402), wk =   0.0087464
        k(   11) = (   0.0000000   0.1649572   0.1532804), wk =   0.0087464
        k(   12) = (   0.0000000   0.1649572   0.2299206), wk =   0.0087464
        k(   13) = (   0.0000000   0.2474358   0.0000000), wk =   0.0043732
        k(   14) = (   0.0000000   0.2474358   0.0766402), wk =   0.0087464
        k(   15) = (   0.0000000   0.2474358   0.1532804), wk =   0.0087464
        k(   16) = (   0.0000000   0.2474358   0.2299206), wk =   0.0087464
        k(   17) = (   0.0000000   0.3299144   0.0000000), wk =   0.0043732
        k(   18) = (   0.0000000   0.3299144   0.0766402), wk =   0.0087464
        k(   19) = (   0.0000000   0.3299144   0.1532804), wk =   0.0087464
        k(   20) = (   0.0000000   0.3299144   0.2299206), wk =   0.0087464
        k(   21) = (   0.0000000   0.4123930   0.0000000), wk =   0.0043732
        k(   22) = (   0.0000000   0.4123930   0.0766402), wk =   0.0087464
        k(   23) = (   0.0000000   0.4123930   0.1532804), wk =   0.0087464
        k(   24) = (   0.0000000   0.4123930   0.2299206), wk =   0.0087464
        k(   25) = (   0.0000000   0.4948717   0.0000000), wk =   0.0043732
        k(   26) = (   0.0000000   0.4948717   0.0766402), wk =   0.0087464
        k(   27) = (   0.0000000   0.4948717   0.1532804), wk =   0.0087464
        k(   28) = (   0.0000000   0.4948717   0.2299206), wk =   0.0087464
        k(   29) = (   0.0000000  -0.5773503   0.0000000), wk =   0.0021866
        k(   30) = (   0.0000000  -0.5773503   0.0766402), wk =   0.0043732
        k(   31) = (   0.0000000  -0.5773503   0.1532804), wk =   0.0043732
        k(   32) = (   0.0000000  -0.5773503   0.2299206), wk =   0.0043732
        k(   33) = (   0.0714286   0.1237179   0.0000000), wk =   0.0043732
        k(   34) = (   0.0714286   0.1237179   0.0766402), wk =   0.0087464
        k(   35) = (   0.0714286   0.1237179   0.1532804), wk =   0.0087464
        k(   36) = (   0.0714286   0.1237179   0.2299206), wk =   0.0087464
        k(   37) = (   0.0714286   0.2061965   0.0000000), wk =   0.0087464
        k(   38) = (   0.0714286   0.2061965   0.0766402), wk =   0.0174927
        k(   39) = (   0.0714286   0.2061965   0.1532804), wk =   0.0174927
        k(   40) = (   0.0714286   0.2061965   0.2299206), wk =   0.0174927
        k(   41) = (   0.0714286   0.2886751   0.0000000), wk =   0.0087464
        k(   42) = (   0.0714286   0.2886751   0.0766402), wk =   0.0174927
        k(   43) = (   0.0714286   0.2886751   0.1532804), wk =   0.0174927
        k(   44) = (   0.0714286   0.2886751   0.2299206), wk =   0.0174927
        k(   45) = (   0.0714286   0.3711537   0.0000000), wk =   0.0087464
        k(   46) = (   0.0714286   0.3711537   0.0766402), wk =   0.0174927
        k(   47) = (   0.0714286   0.3711537   0.1532804), wk =   0.0174927
        k(   48) = (   0.0714286   0.3711537   0.2299206), wk =   0.0174927
        k(   49) = (   0.0714286   0.4536324   0.0000000), wk =   0.0087464
        k(   50) = (   0.0714286   0.4536324   0.0766402), wk =   0.0174927
        k(   51) = (   0.0714286   0.4536324   0.1532804), wk =   0.0174927
        k(   52) = (   0.0714286   0.4536324   0.2299206), wk =   0.0174927
        k(   53) = (   0.0714286   0.5361110   0.0000000), wk =   0.0087464
        k(   54) = (   0.0714286   0.5361110   0.0766402), wk =   0.0174927
        k(   55) = (   0.0714286   0.5361110   0.1532804), wk =   0.0174927
        k(   56) = (   0.0714286   0.5361110   0.2299206), wk =   0.0174927
        k(   57) = (   0.1428571   0.2474358   0.0000000), wk =   0.0043732
        k(   58) = (   0.1428571   0.2474358   0.0766402), wk =   0.0087464
        k(   59) = (   0.1428571   0.2474358   0.1532804), wk =   0.0087464
        k(   60) = (   0.1428571   0.2474358   0.2299206), wk =   0.0087464
        k(   61) = (   0.1428571   0.3299144   0.0000000), wk =   0.0087464
        k(   62) = (   0.1428571   0.3299144   0.0766402), wk =   0.0174927
        k(   63) = (   0.1428571   0.3299144   0.1532804), wk =   0.0174927
        k(   64) = (   0.1428571   0.3299144   0.2299206), wk =   0.0174927
        k(   65) = (   0.1428571   0.4123930   0.0000000), wk =   0.0087464
        k(   66) = (   0.1428571   0.4123930   0.0766402), wk =   0.0174927
        k(   67) = (   0.1428571   0.4123930   0.1532804), wk =   0.0174927
        k(   68) = (   0.1428571   0.4123930   0.2299206), wk =   0.0174927
        k(   69) = (   0.1428571   0.4948717   0.0000000), wk =   0.0087464
        k(   70) = (   0.1428571   0.4948717   0.0766402), wk =   0.0174927
        k(   71) = (   0.1428571   0.4948717   0.1532804), wk =   0.0174927
        k(   72) = (   0.1428571   0.4948717   0.2299206), wk =   0.0174927
        k(   73) = (   0.1428571   0.5773503   0.0000000), wk =   0.0043732
        k(   74) = (   0.1428571   0.5773503   0.0766402), wk =   0.0087464
        k(   75) = (   0.1428571   0.5773503   0.1532804), wk =   0.0087464
        k(   76) = (   0.1428571   0.5773503   0.2299206), wk =   0.0087464
        k(   77) = (   0.2142857   0.3711537   0.0000000), wk =   0.0043732
        k(   78) = (   0.2142857   0.3711537   0.0766402), wk =   0.0087464
        k(   79) = (   0.2142857   0.3711537   0.1532804), wk =   0.0087464
        k(   80) = (   0.2142857   0.3711537   0.2299206), wk =   0.0087464
        k(   81) = (   0.2142857   0.4536324   0.0000000), wk =   0.0087464
        k(   82) = (   0.2142857   0.4536324   0.0766402), wk =   0.0174927
        k(   83) = (   0.2142857   0.4536324   0.1532804), wk =   0.0174927
        k(   84) = (   0.2142857   0.4536324   0.2299206), wk =   0.0174927
        k(   85) = (   0.2142857   0.5361110   0.0000000), wk =   0.0087464
        k(   86) = (   0.2142857   0.5361110   0.0766402), wk =   0.0174927
        k(   87) = (   0.2142857   0.5361110   0.1532804), wk =   0.0174927
        k(   88) = (   0.2142857   0.5361110   0.2299206), wk =   0.0174927
        k(   89) = (   0.2857143   0.4948717   0.0000000), wk =   0.0043732
        k(   90) = (   0.2857143   0.4948717   0.0766402), wk =   0.0087464
        k(   91) = (   0.2857143   0.4948717   0.1532804), wk =   0.0087464
        k(   92) = (   0.2857143   0.4948717   0.2299206), wk =   0.0087464
        k(   93) = (   0.2857143   0.5773503   0.0000000), wk =   0.0043732
        k(   94) = (   0.2857143   0.5773503   0.0766402), wk =   0.0087464
        k(   95) = (   0.2857143   0.5773503   0.1532804), wk =   0.0087464
        k(   96) = (   0.2857143   0.5773503   0.2299206), wk =   0.0087464

                       cryst. coord.
        k(    1) = (   0.0000000   0.0000000   0.0000000), wk =   0.0007289
        k(    2) = (   0.0000000   0.0000000   0.1428571), wk =   0.0014577
        k(    3) = (   0.0000000   0.0000000   0.2857143), wk =   0.0014577
        k(    4) = (   0.0000000   0.0000000   0.4285714), wk =   0.0014577
        k(    5) = (   0.0000000   0.0714286   0.0000000), wk =   0.0043732
        k(    6) = (   0.0000000   0.0714286   0.1428571), wk =   0.0087464
        k(    7) = (   0.0000000   0.0714286   0.2857143), wk =   0.0087464
        k(    8) = (   0.0000000   0.0714286   0.4285714), wk =   0.0087464
        k(    9) = (   0.0000000   0.1428571   0.0000000), wk =   0.0043732
        k(   10) = (   0.0000000   0.1428571   0.1428571), wk =   0.0087464
        k(   11) = (   0.0000000   0.1428571   0.2857143), wk =   0.0087464
        k(   12) = (   0.0000000   0.1428571   0.4285714), wk =   0.0087464
        k(   13) = (   0.0000000   0.2142857   0.0000000), wk =   0.0043732
        k(   14) = (   0.0000000   0.2142857   0.1428571), wk =   0.0087464
        k(   15) = (   0.0000000   0.2142857   0.2857143), wk =   0.0087464
        k(   16) = (   0.0000000   0.2142857   0.4285714), wk =   0.0087464
        k(   17) = (   0.0000000   0.2857143   0.0000000), wk =   0.0043732
        k(   18) = (   0.0000000   0.2857143   0.1428571), wk =   0.0087464
        k(   19) = (   0.0000000   0.2857143   0.2857143), wk =   0.0087464
        k(   20) = (   0.0000000   0.2857143   0.4285714), wk =   0.0087464
        k(   21) = (   0.0000000   0.3571429   0.0000000), wk =   0.0043732
        k(   22) = (   0.0000000   0.3571429   0.1428571), wk =   0.0087464
        k(   23) = (   0.0000000   0.3571429   0.2857143), wk =   0.0087464
        k(   24) = (   0.0000000   0.3571429   0.4285714), wk =   0.0087464
        k(   25) = (   0.0000000   0.4285714   0.0000000), wk =   0.0043732
        k(   26) = (   0.0000000   0.4285714   0.1428571), wk =   0.0087464
        k(   27) = (   0.0000000   0.4285714   0.2857143), wk =   0.0087464
        k(   28) = (   0.0000000   0.4285714   0.4285714), wk =   0.0087464
        k(   29) = (   0.0000000  -0.5000000   0.0000000), wk =   0.0021866
        k(   30) = (   0.0000000  -0.5000000   0.1428571), wk =   0.0043732
        k(   31) = (   0.0000000  -0.5000000   0.2857143), wk =   0.0043732
        k(   32) = (   0.0000000  -0.5000000   0.4285714), wk =   0.0043732
        k(   33) = (   0.0714286   0.0714286   0.0000000), wk =   0.0043732
        k(   34) = (   0.0714286   0.0714286   0.1428571), wk =   0.0087464
        k(   35) = (   0.0714286   0.0714286   0.2857143), wk =   0.0087464
        k(   36) = (   0.0714286   0.0714286   0.4285714), wk =   0.0087464
        k(   37) = (   0.0714286   0.1428571   0.0000000), wk =   0.0087464
        k(   38) = (   0.0714286   0.1428571   0.1428571), wk =   0.0174927
        k(   39) = (   0.0714286   0.1428571   0.2857143), wk =   0.0174927
        k(   40) = (   0.0714286   0.1428571   0.4285714), wk =   0.0174927
        k(   41) = (   0.0714286   0.2142857   0.0000000), wk =   0.0087464
        k(   42) = (   0.0714286   0.2142857   0.1428571), wk =   0.0174927
        k(   43) = (   0.0714286   0.2142857   0.2857143), wk =   0.0174927
        k(   44) = (   0.0714286   0.2142857   0.4285714), wk =   0.0174927
        k(   45) = (   0.0714286   0.2857143   0.0000000), wk =   0.0087464
        k(   46) = (   0.0714286   0.2857143   0.1428571), wk =   0.0174927
        k(   47) = (   0.0714286   0.2857143   0.2857143), wk =   0.0174927
        k(   48) = (   0.0714286   0.2857143   0.4285714), wk =   0.0174927
        k(   49) = (   0.0714286   0.3571429   0.0000000), wk =   0.0087464
        k(   50) = (   0.0714286   0.3571429   0.1428571), wk =   0.0174927
        k(   51) = (   0.0714286   0.3571429   0.2857143), wk =   0.0174927
        k(   52) = (   0.0714286   0.3571429   0.4285714), wk =   0.0174927
        k(   53) = (   0.0714286   0.4285714   0.0000000), wk =   0.0087464
        k(   54) = (   0.0714286   0.4285714   0.1428571), wk =   0.0174927
        k(   55) = (   0.0714286   0.4285714   0.2857143), wk =   0.0174927
        k(   56) = (   0.0714286   0.4285714   0.4285714), wk =   0.0174927
        k(   57) = (   0.1428571   0.1428571   0.0000000), wk =   0.0043732
        k(   58) = (   0.1428571   0.1428571   0.1428571), wk =   0.0087464
        k(   59) = (   0.1428571   0.1428571   0.2857143), wk =   0.0087464
        k(   60) = (   0.1428571   0.1428571   0.4285714), wk =   0.0087464
        k(   61) = (   0.1428571   0.2142857   0.0000000), wk =   0.0087464
        k(   62) = (   0.1428571   0.2142857   0.1428571), wk =   0.0174927
        k(   63) = (   0.1428571   0.2142857   0.2857143), wk =   0.0174927
        k(   64) = (   0.1428571   0.2142857   0.4285714), wk =   0.0174927
        k(   65) = (   0.1428571   0.2857143   0.0000000), wk =   0.0087464
        k(   66) = (   0.1428571   0.2857143   0.1428571), wk =   0.0174927
        k(   67) = (   0.1428571   0.2857143   0.2857143), wk =   0.0174927
        k(   68) = (   0.1428571   0.2857143   0.4285714), wk =   0.0174927
        k(   69) = (   0.1428571   0.3571429   0.0000000), wk =   0.0087464
        k(   70) = (   0.1428571   0.3571429   0.1428571), wk =   0.0174927
        k(   71) = (   0.1428571   0.3571429   0.2857143), wk =   0.0174927
        k(   72) = (   0.1428571   0.3571429   0.4285714), wk =   0.0174927
        k(   73) = (   0.1428571   0.4285714   0.0000000), wk =   0.0043732
        k(   74) = (   0.1428571   0.4285714   0.1428571), wk =   0.0087464
        k(   75) = (   0.1428571   0.4285714   0.2857143), wk =   0.0087464
        k(   76) = (   0.1428571   0.4285714   0.4285714), wk =   0.0087464
        k(   77) = (   0.2142857   0.2142857   0.0000000), wk =   0.0043732
        k(   78) = (   0.2142857   0.2142857   0.1428571), wk =   0.0087464
        k(   79) = (   0.2142857   0.2142857   0.2857143), wk =   0.0087464
        k(   80) = (   0.2142857   0.2142857   0.4285714), wk =   0.0087464
        k(   81) = (   0.2142857   0.2857143   0.0000000), wk =   0.0087464
        k(   82) = (   0.2142857   0.2857143   0.1428571), wk =   0.0174927
        k(   83) = (   0.2142857   0.2857143   0.2857143), wk =   0.0174927
        k(   84) = (   0.2142857   0.2857143   0.4285714), wk =   0.0174927
        k(   85) = (   0.2142857   0.3571429   0.0000000), wk =   0.0087464
        k(   86) = (   0.2142857   0.3571429   0.1428571), wk =   0.0174927
        k(   87) = (   0.2142857   0.3571429   0.2857143), wk =   0.0174927
        k(   88) = (   0.2142857   0.3571429   0.4285714), wk =   0.0174927
        k(   89) = (   0.2857143   0.2857143   0.0000000), wk =   0.0043732
        k(   90) = (   0.2857143   0.2857143   0.1428571), wk =   0.0087464
        k(   91) = (   0.2857143   0.2857143   0.2857143), wk =   0.0087464
        k(   92) = (   0.2857143   0.2857143   0.4285714), wk =   0.0087464
        k(   93) = (   0.2857143   0.3571429   0.0000000), wk =   0.0043732
        k(   94) = (   0.2857143   0.3571429   0.1428571), wk =   0.0087464
        k(   95) = (   0.2857143   0.3571429   0.2857143), wk =   0.0087464
        k(   96) = (   0.2857143   0.3571429   0.4285714), wk =   0.0087464

     Dense  grid:    15415 G-vectors     FFT dimensions: (  27,  27,  50)

     Dynamical RAM for                 wfc:       0.05 MB

     Dynamical RAM for     wfc (w. buffer):       9.05 MB

     Dynamical RAM for           str. fact:       0.02 MB

     Dynamical RAM for           local pot:       0.00 MB

     Dynamical RAM for          nlocal pot:       0.11 MB

     Dynamical RAM for                qrad:       1.34 MB

     Dynamical RAM for          rho,v,vnew:       0.31 MB

     Dynamical RAM for               rhoin:       0.10 MB

     Dynamical RAM for            rho*nmix:       0.75 MB

     Dynamical RAM for           G-vectors:       0.10 MB

     Dynamical RAM for          h,s,v(r/c):       0.05 MB

     Dynamical RAM for          <psi|beta>:       0.01 MB

     Dynamical RAM for                 psi:       0.09 MB

     Dynamical RAM for                hpsi:       0.09 MB

     Dynamical RAM for                spsi:       0.09 MB

     Dynamical RAM for      wfcinit/wfcrot:       0.10 MB

     Dynamical RAM for           addusdens:       4.45 MB

     Estimated static dynamical RAM per process >      11.24 MB

     Estimated max dynamical RAM per process >      16.45 MB

     Estimated total dynamical RAM >     164.47 MB

     Check: negative core charge=   -0.000003
     Generating pointlists ...
     new r_m :   0.4125 (alat units)  2.0379 (a.u.) for type    1
     Cannot read rho : file not found

     Initial potential from superposition of free atoms

     starting charge      23.9926, renormalised to      24.0000
     Message from routine qexsd_readschema :
     xml data file ./out/Zn.save/data-file-schema.xml not found
     Cannot read wfcs: file not found
     Starting wfcs are   18 randomized atomic wfcs
     Checking if some PAW data can be deallocated... 

     total cpu time spent up to now is        1.7 secs

     Self-consistent Calculation

     iteration #  1     ecut=    70.00 Ry     beta= 0.70
     Davidson diagonalization with overlap

---- Real-time Memory Report at c_bands before calling an iterative solver
            55 MiB given to the printing process from OS
             0 MiB allocation reported by mallinfo(arena+hblkhd)
           741 MiB available memory on the node where the printing process lives
------------------
     c_bands:  1 eigenvalues not converged
     c_bands:  1 eigenvalues not converged
     c_bands:  1 eigenvalues not converged
     c_bands:  1 eigenvalues not converged
     ethr =  1.00E-05,  avg # of iterations = 10.4

     total cpu time spent up to now is        9.7 secs

     total energy              =    -487.44498349 Ry
     estimated scf accuracy    <       0.00414969 Ry

     total magnetization       =     0.00 Bohr mag/cell
     absolute magnetization    =     0.00 Bohr mag/cell

     iteration #  2     ecut=    70.00 Ry     beta= 0.70
     Davidson diagonalization with overlap

---- Real-time Memory Report at c_bands before calling an iterative solver
            67 MiB given to the printing process from OS
             0 MiB allocation reported by mallinfo(arena+hblkhd)
           673 MiB available memory on the node where the printing process lives
------------------
     ethr =  1.73E-05,  avg # of iterations =  2.0

     total cpu time spent up to now is       13.1 secs

     total energy              =    -487.44507821 Ry
     estimated scf accuracy    <       0.00109980 Ry

     total magnetization       =     0.00 Bohr mag/cell
     absolute magnetization    =     0.00 Bohr mag/cell

     iteration #  3     ecut=    70.00 Ry     beta= 0.70
     Davidson diagonalization with overlap

---- Real-time Memory Report at c_bands before calling an iterative solver
            68 MiB given to the printing process from OS
             0 MiB allocation reported by mallinfo(arena+hblkhd)
           664 MiB available memory on the node where the printing process lives
------------------
     ethr =  4.58E-06,  avg # of iterations =  2.0

     total cpu time spent up to now is       16.7 secs

     total energy              =    -487.44536349 Ry
     estimated scf accuracy    <       0.00048023 Ry

     total magnetization       =     0.00 Bohr mag/cell
     absolute magnetization    =     0.00 Bohr mag/cell

     iteration #  4     ecut=    70.00 Ry     beta= 0.70
     Davidson diagonalization with overlap

---- Real-time Memory Report at c_bands before calling an iterative solver
            68 MiB given to the printing process from OS
             0 MiB allocation reported by mallinfo(arena+hblkhd)
           671 MiB available memory on the node where the printing process lives
------------------
     ethr =  2.00E-06,  avg # of iterations =  2.0

     total cpu time spent up to now is       20.2 secs

     total energy              =    -487.44544998 Ry
     estimated scf accuracy    <       0.00000154 Ry

     total magnetization       =     0.00 Bohr mag/cell
     absolute magnetization    =     0.00 Bohr mag/cell

     iteration #  5     ecut=    70.00 Ry     beta= 0.70
     Davidson diagonalization with overlap

---- Real-time Memory Report at c_bands before calling an iterative solver
            68 MiB given to the printing process from OS
             0 MiB allocation reported by mallinfo(arena+hblkhd)
           682 MiB available memory on the node where the printing process lives
------------------
     ethr =  6.42E-09,  avg # of iterations =  4.9

     total cpu time spent up to now is       25.1 secs

     total energy              =    -487.44545245 Ry
     estimated scf accuracy    <       0.00000138 Ry

     total magnetization       =     0.00 Bohr mag/cell
     absolute magnetization    =     0.00 Bohr mag/cell

     iteration #  6     ecut=    70.00 Ry     beta= 0.70
     Davidson diagonalization with overlap

---- Real-time Memory Report at c_bands before calling an iterative solver
            68 MiB given to the printing process from OS
             0 MiB allocation reported by mallinfo(arena+hblkhd)
           680 MiB available memory on the node where the printing process lives
------------------
     ethr =  5.73E-09,  avg # of iterations =  2.0

     total cpu time spent up to now is       29.2 secs

     total energy              =    -487.44545286 Ry
     estimated scf accuracy    <       0.00000010 Ry

     total magnetization       =     0.00 Bohr mag/cell
     absolute magnetization    =     0.00 Bohr mag/cell

     iteration #  7     ecut=    70.00 Ry     beta= 0.70
     Davidson diagonalization with overlap

---- Real-time Memory Report at c_bands before calling an iterative solver
            68 MiB given to the printing process from OS
             0 MiB allocation reported by mallinfo(arena+hblkhd)
           658 MiB available memory on the node where the printing process lives
------------------
     ethr =  4.23E-10,  avg # of iterations =  1.6

     Magnetic moment per site  (integrated on atomic sphere of radius R)
     atom   1 (R=0.412)  charge= 10.6532  magn=  0.0002
     atom   2 (R=0.412)  charge= 10.6532  magn=  0.0002

     total cpu time spent up to now is       33.5 secs

     End of self-consistent calculation

 ------ SPIN UP ------------


          k = 0.0000 0.0000 0.0000 (  1933 PWs)   bands (ev):

     1.0666   3.0908   3.8956   4.1580   4.1580   4.2132   4.2132   4.5843
     4.5843   4.8110   4.8110   7.9800   8.8861  25.8232  30.0622  30.0632

     occupation numbers 
     1.0000   1.0000   1.0000   1.0000   1.0000   1.0000   1.0000   1.0000
     1.0000   1.0000   1.0000   1.0000   1.0000   0.0000   0.0000   0.0000

          k = 0.0000 0.0000 0.0766 (  1951 PWs)   bands (ev):

     1.1942   3.0706   3.8974   4.1564   4.1564   4.2072   4.2072   4.5999
     4.5999   4.8031   4.8031   6.6460  10.5047  23.8298  30.1920  30.1921

     occupation numbers 
     1.0000   1.0000   1.0000   1.0000   1.0000   1.0000   1.0000   1.0000
     1.0000   1.0000   1.0000   1.0000   1.0000   0.0000   0.0000   0.0000

          k = 0.0000 0.0000 0.1533 (  1962 PWs)   bands (ev):

     1.5639   2.9739   3.9175   4.1554   4.1554   4.1919   4.1919   4.6402
     4.6402   4.7794   4.7794   5.2851  12.7513  20.8656  30.5653  30.5653

     occupation numbers 
     1.0000   1.0000   1.0000   1.0000   1.0000   1.0000   1.0000   1.0000
     1.0000   1.0000   1.0000   1.0000   0.0000   0.0000   0.0000   0.0000

          k = 0.0000 0.0000 0.2299 (  1962 PWs)   bands (ev):

     2.1177   2.6721   4.0185   4.1607   4.1607   4.1741   4.1741   4.3892
     4.6915   4.6915   4.7408   4.7408  15.2504  17.9677  31.1218  31.1219

     occupation numbers 
     1.0000   1.0000   1.0000   1.0000   1.0000   1.0000   1.0000   1.0000
     1.0000   1.0000   1.0000   1.0000   0.0000   0.0000   0.0000   0.0000

          k = 0.0000 0.0825 0.0000 (  1947 PWs)   bands (ev):

     1.2241   3.1642   3.9130   4.1409   4.1948   4.1973   4.2507   4.5470
     4.5687   4.7091   4.8128   8.2457   8.9632  25.9983  27.3964  28.6874

     occupation numbers 
     1.0000   1.0000   1.0000   1.0000   1.0000   1.0000   1.0000   1.0000
     1.0000   1.0000   1.0000   1.0000   1.0000   0.0000   0.0000   0.0000

          k = 0.0000 0.0825 0.0766 (  1940 PWs)   bands (ev):

     1.3507   3.1486   3.9137   4.1371   4.1872   4.1953   4.2445   4.5666
     4.5856   4.6905   4.8041   6.8525  10.6485  23.9771  27.5507  28.8231

     occupation numbers 
     1.0000   1.0000   1.0000   1.0000   1.0000   1.0000   1.0000   1.0000
     1.0000   1.0000   1.0000   1.0000   1.0000   0.0000   0.0000   0.0000

          k = 0.0000 0.0825 0.1533 (  1956 PWs)   bands (ev):

     1.7174   3.0681   3.9273   4.1326   4.1677   4.1933   4.2290   4.5836
     4.6290   4.6422   4.7783   5.5349  12.8995  21.0102  27.9349  29.2263

     occupation numbers 
     1.0000   1.0000   1.0000   1.0000   1.0000   1.0000   1.0000   1.0000
     1.0000   1.0000   1.0000   1.0000   0.0000   0.0000   0.0000   0.0000

          k = 0.0000 0.0825 0.2299 (  1956 PWs)   bands (ev):

     2.2629   2.7957   4.0045   4.1376   4.1432   4.1980   4.2111   4.2991
     4.6838   4.7123   4.7366   4.8749  15.3979  18.1136  28.5612  29.4202

     occupation numbers 
     1.0000   1.0000   1.0000   1.0000   1.0000   1.0000   1.0000   1.0000
     1.0000   1.0000   1.0000   1.0000   0.0000   0.0000   0.0000   0.0000

          k = 0.0000 0.1650 0.0000 (  1943 PWs)   bands (ev):

     1.6859   3.3512   3.9441   4.1045   4.1770   4.3093   4.3569   4.3824
     4.5278   4.5476   4.8153   8.9554   9.2133  23.9047  26.4841  26.9421

     occupation numbers 
     1.0000   1.0000   1.0000   1.0000   1.0000   1.0000   1.0000   1.0000
     1.0000   1.0000   1.0000   1.0000   1.0000   0.0000   0.0000   0.0000

          k = 0.0000 0.1650 0.0766 (  1936 PWs)   bands (ev):

     1.8087   3.3473   3.9456   4.0927   4.1566   4.3050   4.3499   4.3882
     4.5493   4.5559   4.8048   7.3698  11.0884  23.9453  24.5194  27.0859

     occupation numbers 
     1.0000   1.0000   1.0000   1.0000   1.0000   1.0000   1.0000   1.0000
     1.0000   1.0000   1.0000   1.0000   1.0000   0.0000   0.0000   0.0000

          k = 0.0000 0.1650 0.1533 (  1939 PWs)   bands (ev):

     2.1611   3.3096   3.9485   4.0733   4.1152   4.2995   4.3334   4.3339
     4.6014   4.6225   4.7739   6.0192  13.3435  21.4247  24.4644  27.0983

     occupation numbers 
     1.0000   1.0000   1.0000   1.0000   1.0000   1.0000   1.0000   1.0000
     1.0000   1.0000   1.0000   1.0000   0.0000   0.0000   0.0000   0.0000

          k = 0.0000 0.1650 0.2299 (  1940 PWs)   bands (ev):

     2.6710   3.1238   3.9665   4.0348   4.1052   4.1914   4.3024   4.3152
     4.6647   4.7253   4.7850   5.1611  15.8364  18.5433  25.0982  25.9835

     occupation numbers 
     1.0000   1.0000   1.0000   1.0000   1.0000   1.0000   1.0000   1.0000
     1.0000   1.0000   1.0000   1.0000   0.0000   0.0000   0.0000   0.0000

          k = 0.0000 0.2474 0.0000 (  1937 PWs)   bands (ev):

     2.3986   3.5273   3.9818   4.0656   4.1234   4.2898   4.4323   4.4732
     4.4755   4.5140   4.8145   9.6888   9.9812  20.5578  25.4043  26.2864

     occupation numbers 
     1.0000   1.0000   1.0000   1.0000   1.0000   1.0000   1.0000   1.0000
     1.0000   1.0000   1.0000   1.0000   1.0000   0.0000   0.0000   0.0000

          k = 0.0000 0.2474 0.0766 (  1928 PWs)   bands (ev):

     2.5060   3.5346   3.9793   4.0392   4.1139   4.2800   4.4471   4.4835
     4.4980   4.5290   4.8022   8.1045  11.8362  20.6810  25.0332  25.1428

     occupation numbers 
     1.0000   1.0000   1.0000   1.0000   1.0000   1.0000   1.0000   1.0000
     1.0000   1.0000   1.0000   1.0000   0.0000   0.0000   0.0000   0.0000

          k = 0.0000 0.2474 0.1533 (  1930 PWs)   bands (ev):

     2.8024   3.5391   3.9538   3.9775   4.1137   4.2526   4.4378   4.4842
     4.5853   4.6384   4.7672   6.6853  14.0777  20.9823  22.2525  23.8100

     occupation numbers 
     1.0000   1.0000   1.0000   1.0000   1.0000   1.0000   1.0000   1.0000
     1.0000   1.0000   1.0000   1.0000   0.0000   0.0000   0.0000   0.0000

          k = 0.0000 0.2474 0.2299 (  1930 PWs)   bands (ev):

     3.1851   3.4610   3.9085   3.9211   4.1510   4.2060   4.4450   4.4630
     4.6507   4.7142   4.9657   5.6217  16.5491  19.2072  21.8183  22.6844

     occupation numbers 
     1.0000   1.0000   1.0000   1.0000   1.0000   1.0000   1.0000   1.0000
     1.0000   1.0000   1.0000   1.0000   0.0000   0.0000   0.0000   0.0000

          k = 0.0000 0.3299 0.0000 (  1929 PWs)   bands (ev):

     3.1136   3.5370   3.8945   4.0736   4.2022   4.3214   4.4166   4.6550
     4.6664   4.6940   4.8097  10.4528  11.2534  17.4471  23.2627  24.0580

     occupation numbers 
     1.0000   1.0000   1.0000   1.0000   1.0000   1.0000   1.0000   1.0000
     1.0000   1.0000   1.0000   1.0000   1.0000   0.0000   0.0000   0.0000

          k = 0.0000 0.3299 0.0766 (  1923 PWs)   bands (ev):

     3.1613   3.5453   3.8880   4.0251   4.1751   4.4309   4.4711   4.6641
     4.6685   4.6862   4.7996   9.0716  12.8824  17.5744  22.0829  24.2963

     occupation numbers 
     1.0000   1.0000   1.0000   1.0000   1.0000   1.0000   1.0000   1.0000
     1.0000   1.0000   1.0000   1.0000   0.0000   0.0000   0.0000   0.0000

          k = 0.0000 0.3299 0.1533 (  1925 PWs)   bands (ev):

     3.2787   3.5562   3.8615   3.9091   4.2633   4.4710   4.5411   4.6444
     4.6922   4.7744   4.9166   7.6164  15.0746  17.9475  20.7576  23.0182

     occupation numbers 
     1.0000   1.0000   1.0000   1.0000   1.0000   1.0000   1.0000   1.0000
     1.0000   1.0000   1.0000   1.0000   0.0000   0.0000   0.0000   0.0000

          k = 0.0000 0.3299 0.2299 (  1930 PWs)   bands (ev):

     3.4147   3.5216   3.8270   3.8427   4.3782   4.4769   4.5288   4.5916
     4.7150   4.7439   5.5206   6.4244  17.4312  18.4827  19.7093  20.4079

     occupation numbers 
     1.0000   1.0000   1.0000   1.0000   1.0000   1.0000   1.0000   1.0000
     1.0000   1.0000   1.0000   1.0000   0.0000   0.0000   0.0000   0.0000

          k = 0.0000 0.4124 0.0000 (  1920 PWs)   bands (ev):

     3.3603   3.4710   3.7280   4.1966   4.2244   4.3680   4.4566   4.8031
     4.8434   4.8631   5.6796  11.4901  12.7344  14.6754  20.4234  21.4338

     occupation numbers 
     1.0000   1.0000   1.0000   1.0000   1.0000   1.0000   1.0000   1.0000
     1.0000   1.0000   1.0000   1.0000   0.0000   0.0000   0.0000   0.0000

          k = 0.0000 0.4124 0.0766 (  1923 PWs)   bands (ev):

     3.3568   3.4666   3.7481   4.0485   4.2884   4.3872   4.5834   4.7730
     4.8458   4.8695   5.7636  10.2894  14.1077  14.8410  19.3109  22.6662

     occupation numbers 
     1.0000   1.0000   1.0000   1.0000   1.0000   1.0000   1.0000   1.0000
     1.0000   1.0000   1.0000   1.0000   0.0000   0.0000   0.0000   0.0000

          k = 0.0000 0.4124 0.1533 (  1918 PWs)   bands (ev):

     3.3621   3.4669   3.7616   3.8739   4.4208   4.4415   4.7028   4.7040
     4.8522   4.8730   6.0822   8.8579  15.0999  16.1613  18.1853  23.3984

     occupation numbers 
     1.0000   1.0000   1.0000   1.0000   1.0000   1.0000   1.0000   1.0000
     1.0000   1.0000   1.0000   1.0000   0.0000   0.0000   0.0000   0.0000

          k = 0.0000 0.4124 0.2299 (  1928 PWs)   bands (ev):

     3.3986   3.4482   3.7530   3.7731   4.5221   4.5765   4.6150   4.6897
     4.8609   4.8690   6.7152   7.6517  15.7275  16.4855  19.0944  21.4571

     occupation numbers 
     1.0000   1.0000   1.0000   1.0000   1.0000   1.0000   1.0000   1.0000
     1.0000   1.0000   1.0000   1.0000   0.0000   0.0000   0.0000   0.0000

          k = 0.0000 0.4949 0.0000 (  1894 PWs)   bands (ev):

     3.3475   3.4286   3.6293   4.1578   4.2891   4.3354   4.6091   4.7976
     4.9667   4.9863   7.2983  11.4715  13.5866  14.3576  17.8978  19.1139

     occupation numbers 
     1.0000   1.0000   1.0000   1.0000   1.0000   1.0000   1.0000   1.0000
     1.0000   1.0000   1.0000   1.0000   0.0000   0.0000   0.0000   0.0000

          k = 0.0000 0.4949 0.0766 (  1913 PWs)   bands (ev):

     3.3505   3.3965   3.6650   4.0331   4.3523   4.3567   4.6998   4.7721
     4.9682   4.9864   7.3993  11.1707  12.8499  15.3821  17.2286  20.3358

     occupation numbers 
     1.0000   1.0000   1.0000   1.0000   1.0000   1.0000   1.0000   1.0000
     1.0000   1.0000   1.0000   1.0000   0.0000   0.0000   0.0000   0.0000

          k = 0.0000 0.4949 0.1533 (  1913 PWs)   bands (ev):

     3.3388   3.3869   3.6957   3.8473   4.4169   4.5006   4.7032   4.8035
     4.9721   4.9853   7.7256  10.2114  12.8023  15.0291  18.3456  22.0400

     occupation numbers 
     1.0000   1.0000   1.0000   1.0000   1.0000   1.0000   1.0000   1.0000
     1.0000   1.0000   1.0000   1.0000   0.0000   0.0000   0.0000   0.0000

          k = 0.0000 0.4949 0.2299 (  1918 PWs)   bands (ev):

     3.3498   3.3804   3.6983   3.7286   4.5059   4.6078   4.6755   4.7958
     4.9771   4.9820   8.3136   9.1636  13.2886  14.0693  20.4676  22.3886

     occupation numbers 
     1.0000   1.0000   1.0000   1.0000   1.0000   1.0000   1.0000   1.0000
     1.0000   1.0000   1.0000   1.0000   0.0000   0.0000   0.0000   0.0000

          k = 0.0000-0.5774 0.0000 (  1902 PWs)   bands (ev):

     3.3281   3.4136   3.5968   4.1341   4.3220   4.3240   4.6578   4.7955
     5.0106   5.0319   8.9167   9.7455  14.6343  15.5045  16.2976  17.7339

     occupation numbers 
     1.0000   1.0000   1.0000   1.0000   1.0000   1.0000   1.0000   1.0000
     1.0000   1.0000   1.0000   1.0000   0.0000   0.0000   0.0000   0.0000

          k = 0.0000-0.5774 0.0766 (  1910 PWs)   bands (ev):

     3.3372   3.3700   3.6375   4.0219   4.3458   4.3763   4.7416   4.7703
     5.0120   5.0309   9.0190   9.7918  13.9825  14.2828  17.8013  18.6160

     occupation numbers 
     1.0000   1.0000   1.0000   1.0000   1.0000   1.0000   1.0000   1.0000
     1.0000   1.0000   1.0000   1.0000   0.0000   0.0000   0.0000   0.0000

          k = 0.0000-0.5774 0.1533 (  1904 PWs)   bands (ev):

     3.3262   3.3551   3.6728   3.8366   4.4079   4.5249   4.7011   4.8394
     5.0156   5.0283   9.3140   9.9075  12.9426  13.0776  19.8356  20.3457

     occupation numbers 
     1.0000   1.0000   1.0000   1.0000   1.0000   1.0000   1.0000   1.0000
     1.0000   1.0000   1.0000   1.0000   0.0000   0.0000   0.0000   0.0000

          k = 0.0000-0.5774 0.2299 (  1930 PWs)   bands (ev):

     3.3294   3.3548   3.6788   3.7130   4.4994   4.6039   4.7048   4.8293
     5.0200   5.0245   9.7165   9.9609  12.2501  12.3154  21.8014  22.0436

     occupation numbers 
     1.0000   1.0000   1.0000   1.0000   1.0000   1.0000   1.0000   1.0000
     1.0000   1.0000   1.0000   1.0000   0.0000   0.0000   0.0000   0.0000

          k = 0.0714 0.1237 0.0000 (  1935 PWs)   bands (ev):

     1.5343   3.2966   3.9371   4.1169   4.1582   4.2781   4.3305   4.4667
     4.4936   4.6110   4.8109   8.7300   9.1271  25.6623  25.7583  26.3334

     occupation numbers 
     1.0000   1.0000   1.0000   1.0000   1.0000   1.0000   1.0000   1.0000
     1.0000   1.0000   1.0000   1.0000   1.0000   0.0000   0.0000   0.0000

          k = 0.0714 0.1237 0.0766 (  1936 PWs)   bands (ev):

     1.6586   3.2892   3.9381   4.1052   4.1469   4.2744   4.3235   4.4619
     4.5256   4.6087   4.8015   7.2088  10.9408  24.2460  25.7950  25.9504

     occupation numbers 
     1.0000   1.0000   1.0000   1.0000   1.0000   1.0000   1.0000   1.0000
     1.0000   1.0000   1.0000   1.0000   1.0000   0.0000   0.0000   0.0000

          k = 0.0714 0.1237 0.1533 (  1948 PWs)   bands (ev):

     2.0170   3.2385   3.9436   4.0896   4.1168   4.2688   4.3073   4.3948
     4.6104   4.6266   4.7740   5.8747  13.1958  21.2921  26.1904  26.3226

     occupation numbers 
     1.0000   1.0000   1.0000   1.0000   1.0000   1.0000   1.0000   1.0000
     1.0000   1.0000   1.0000   1.0000   0.0000   0.0000   0.0000   0.0000

          k = 0.0714 0.1237 0.2299 (  1943 PWs)   bands (ev):

     2.5415   3.0243   3.9788   4.0666   4.1019   4.2022   4.2809   4.2897
     4.6738   4.7198   4.7644   5.0732  15.6911  18.4019  26.8379  26.9451

     occupation numbers 
     1.0000   1.0000   1.0000   1.0000   1.0000   1.0000   1.0000   1.0000
     1.0000   1.0000   1.0000   1.0000   0.0000   0.0000   0.0000   0.0000

          k = 0.0714 0.2062 0.0000 (  1936 PWs)   bands (ev):

     2.1288   3.4983   3.9424   4.0817   4.1658   4.2298   4.4135   4.4284
     4.4891   4.5464   4.8054   9.4924   9.5881  22.2954  24.2150  26.8493

     occupation numbers 
     1.0000   1.0000   1.0000   1.0000   1.0000   1.0000   1.0000   1.0000
     1.0000   1.0000   1.0000   1.0000   1.0000   0.0000   0.0000   0.0000

          k = 0.0714 0.2062 0.0766 (  1927 PWs)   bands (ev):

     2.2449   3.5035   3.9498   4.0579   4.1209   4.2401   4.4149   4.4610
     4.4845   4.5668   4.7957   7.8223  11.5371  22.4125  24.2890  24.9210

     occupation numbers 
     1.0000   1.0000   1.0000   1.0000   1.0000   1.0000   1.0000   1.0000
     1.0000   1.0000   1.0000   1.0000   1.0000   0.0000   0.0000   0.0000

          k = 0.0714 0.2062 0.1533 (  1935 PWs)   bands (ev):

     2.5732   3.4989   3.9620   4.0057   4.0541   4.2092   4.4029   4.4606
     4.5933   4.6212   4.7703   6.4281  13.7866  21.7710  22.9201  24.7778

     occupation numbers 
     1.0000   1.0000   1.0000   1.0000   1.0000   1.0000   1.0000   1.0000
     1.0000   1.0000   1.0000   1.0000   0.0000   0.0000   0.0000   0.0000

          k = 0.0714 0.2062 0.2299 (  1940 PWs)   bands (ev):

     3.0264   3.3863   3.9366   3.9495   4.0586   4.1298   4.4136   4.4362
     4.6607   4.7094   4.8907   5.4368  16.2694  18.9598  23.5106  24.3961

     occupation numbers 
     1.0000   1.0000   1.0000   1.0000   1.0000   1.0000   1.0000   1.0000
     1.0000   1.0000   1.0000   1.0000   0.0000   0.0000   0.0000   0.0000

          k = 0.0714 0.2887 0.0000 (  1933 PWs)   bands (ev):

     2.8916   3.6020   3.9923   4.0102   4.0553   4.3250   4.3269   4.4725
     4.6150   4.7382   4.7979  10.1221  10.7275  19.0668  22.9540  24.8701

     occupation numbers 
     1.0000   1.0000   1.0000   1.0000   1.0000   1.0000   1.0000   1.0000
     1.0000   1.0000   1.0000   1.0000   1.0000   0.0000   0.0000   0.0000

          k = 0.0714 0.2887 0.0766 (  1923 PWs)   bands (ev):

     2.9738   3.6135   3.9586   4.0128   4.0457   4.2954   4.4261   4.4698
     4.6317   4.7160   4.8087   8.6673  12.4406  19.1937  23.0797  23.6870

     occupation numbers 
     1.0000   1.0000   1.0000   1.0000   1.0000   1.0000   1.0000   1.0000
     1.0000   1.0000   1.0000   1.0000   0.0000   0.0000   0.0000   0.0000

          k = 0.0714 0.2887 0.1533 (  1927 PWs)   bands (ev):

     3.1846   3.6340   3.8942   3.9494   4.0993   4.2646   4.4732   4.6079
     4.6372   4.7112   4.8686   7.2244  14.6600  19.5572  22.3416  22.6503

     occupation numbers 
     1.0000   1.0000   1.0000   1.0000   1.0000   1.0000   1.0000   1.0000
     1.0000   1.0000   1.0000   1.0000   0.0000   0.0000   0.0000   0.0000

          k = 0.0714 0.2887 0.2299 (  1935 PWs)   bands (ev):

     3.4251   3.5930   3.8553   3.8922   4.1606   4.2183   4.5108   4.5709
     4.7006   4.7302   5.2715   6.0781  17.0992  19.5364  20.5563  21.2327

     occupation numbers 
     1.0000   1.0000   1.0000   1.0000   1.0000   1.0000   1.0000   1.0000
     1.0000   1.0000   1.0000   1.0000   0.0000   0.0000   0.0000   0.0000

          k = 0.0714 0.3712 0.0000 (  1923 PWs)   bands (ev):

     3.3793   3.5499   3.8049   4.1410   4.2445   4.2620   4.3987   4.6074
     4.7891   4.7931   5.3067  11.0606  12.0994  16.1029  21.8828  21.9998

     occupation numbers 
     1.0000   1.0000   1.0000   1.0000   1.0000   1.0000   1.0000   1.0000
     1.0000   1.0000   1.0000   1.0000   0.0000   0.0000   0.0000   0.0000

          k = 0.0714 0.3712 0.0766 (  1925 PWs)   bands (ev):

     3.3859   3.5560   3.8189   4.0283   4.2092   4.4061   4.4753   4.6015
     4.7595   4.8053   5.3645   9.7742  13.6205  16.2314  20.7550  22.1046

     occupation numbers 
     1.0000   1.0000   1.0000   1.0000   1.0000   1.0000   1.0000   1.0000
     1.0000   1.0000   1.0000   1.0000   0.0000   0.0000   0.0000   0.0000

          k = 0.0714 0.3712 0.1533 (  1924 PWs)   bands (ev):

     3.4157   3.5667   3.8200   3.8863   4.2912   4.4488   4.5569   4.6814
     4.7012   4.8256   5.6190   8.3274  15.7427  16.6158  19.4644  22.4826

     occupation numbers 
     1.0000   1.0000   1.0000   1.0000   1.0000   1.0000   1.0000   1.0000
     1.0000   1.0000   1.0000   1.0000   0.0000   0.0000   0.0000   0.0000

          k = 0.0714 0.3712 0.2299 (  1926 PWs)   bands (ev):

     3.4757   3.5433   3.7964   3.8172   4.4041   4.4873   4.5251   4.5951
     4.7977   4.8319   6.2073   7.1253  17.1901  17.6145  18.8959  20.9785

     occupation numbers 
     1.0000   1.0000   1.0000   1.0000   1.0000   1.0000   1.0000   1.0000
     1.0000   1.0000   1.0000   1.0000   0.0000   0.0000   0.0000   0.0000

          k = 0.0714 0.4536 0.0000 (  1925 PWs)   bands (ev):

     3.4172   3.4971   3.6803   4.1793   4.2536   4.3403   4.4909   4.7809
     4.8357   4.9230   6.6093  12.0422  13.6632  13.7248  19.2154  20.3245

     occupation numbers 
     1.0000   1.0000   1.0000   1.0000   1.0000   1.0000   1.0000   1.0000
     1.0000   1.0000   1.0000   0.0000   0.0000   0.0000   0.0000   0.0000

          k = 0.0714 0.4536 0.0766 (  1917 PWs)   bands (ev):

     3.4151   3.4730   3.7182   4.0380   4.2972   4.3776   4.6028   4.7535
     4.8330   4.9267   6.7075  11.0623  13.5973  15.0492  18.1942  21.4188

     occupation numbers 
     1.0000   1.0000   1.0000   1.0000   1.0000   1.0000   1.0000   1.0000
     1.0000   1.0000   1.0000   1.0000   0.0000   0.0000   0.0000   0.0000

          k = 0.0714 0.4536 0.1533 (  1915 PWs)   bands (ev):

     3.4033   3.4706   3.7483   3.8609   4.3648   4.4887   4.6810   4.7252
     4.8353   4.9321   7.0344   9.7075  13.9481  16.1126  17.8873  21.8352

     occupation numbers 
     1.0000   1.0000   1.0000   1.0000   1.0000   1.0000   1.0000   1.0000
     1.0000   1.0000   1.0000   1.0000   0.0000   0.0000   0.0000   0.0000

          k = 0.0714 0.4536 0.2299 (  1921 PWs)   bands (ev):

     3.4218   3.4607   3.7421   3.7587   4.4669   4.5778   4.6186   4.7115
     4.8828   4.9216   7.6426   8.5428  14.5494  15.3628  19.8338  22.0131

     occupation numbers 
     1.0000   1.0000   1.0000   1.0000   1.0000   1.0000   1.0000   1.0000
     1.0000   1.0000   1.0000   1.0000   0.0000   0.0000   0.0000   0.0000

          k = 0.0714 0.5361 0.0000 (  1910 PWs)   bands (ev):

     3.3790   3.4700   3.6189   4.1431   4.3084   4.3164   4.6046   4.7759
     4.9521   4.9820   8.3785  10.6168  14.3204  15.2474  16.9416  18.2727

     occupation numbers 
     1.0000   1.0000   1.0000   1.0000   1.0000   1.0000   1.0000   1.0000
     1.0000   1.0000   1.0000   1.0000   0.0000   0.0000   0.0000   0.0000

          k = 0.0714 0.5361 0.0766 (  1913 PWs)   bands (ev):

     3.3876   3.4228   3.6676   4.0285   4.2989   4.3978   4.6949   4.7491
     4.9487   4.9812   8.4810  10.6320  13.3760  15.1411  17.4181  19.3879

     occupation numbers 
     1.0000   1.0000   1.0000   1.0000   1.0000   1.0000   1.0000   1.0000
     1.0000   1.0000   1.0000   1.0000   0.0000   0.0000   0.0000   0.0000

          k = 0.0714 0.5361 0.1533 (  1914 PWs)   bands (ev):

     3.3749   3.4113   3.7066   3.8473   4.3536   4.5424   4.6748   4.8115
     4.9372   4.9760   8.7954  10.5241  12.5029  14.0782  19.2482  21.1880

     occupation numbers 
     1.0000   1.0000   1.0000   1.0000   1.0000   1.0000   1.0000   1.0000
     1.0000   1.0000   1.0000   1.0000   0.0000   0.0000   0.0000   0.0000

          k = 0.0714 0.5361 0.2299 (  1915 PWs)   bands (ev):

     3.3815   3.4107   3.7072   3.7315   4.4540   4.5693   4.7057   4.8201
     4.9393   4.9615   9.3226   9.9950  12.4864  13.1112  21.3103  22.1429

     occupation numbers 
     1.0000   1.0000   1.0000   1.0000   1.0000   1.0000   1.0000   1.0000
     1.0000   1.0000   1.0000   1.0000   0.0000   0.0000   0.0000   0.0000

          k = 0.1429 0.2474 0.0000 (  1933 PWs)   bands (ev):

     2.8047   3.6817   3.8837   4.0422   4.0665   4.1902   4.3058   4.5130
     4.6086   4.7580   4.7825  10.0188  10.5486  20.8379  21.0391  26.6176

     occupation numbers 
     1.0000   1.0000   1.0000   1.0000   1.0000   1.0000   1.0000   1.0000
     1.0000   1.0000   1.0000   1.0000   1.0000   0.0000   0.0000   0.0000

          k = 0.1429 0.2474 0.0766 (  1927 PWs)   bands (ev):

     2.8992   3.6972   3.8942   3.9847   4.0986   4.1193   4.4109   4.4883
     4.6384   4.7118   4.8166   8.5359  12.2944  20.9730  21.1561  25.3920

     occupation numbers 
     1.0000   1.0000   1.0000   1.0000   1.0000   1.0000   1.0000   1.0000
     1.0000   1.0000   1.0000   1.0000   0.0000   0.0000   0.0000   0.0000

          k = 0.1429 0.2474 0.1533 (  1929 PWs)   bands (ev):

     3.1513   3.7350   3.8955   3.9262   4.0234   4.0985   4.4712   4.5976
     4.6501   4.6841   4.8869   7.1019  14.5212  21.3754  21.3943  22.7512

     occupation numbers 
     1.0000   1.0000   1.0000   1.0000   1.0000   1.0000   1.0000   1.0000
     1.0000   1.0000   1.0000   1.0000   0.0000   0.0000   0.0000   0.0000

          k = 0.1429 0.2474 0.2299 (  1933 PWs)   bands (ev):

     3.4592   3.6918   3.8560   3.9285   3.9827   4.0488   4.5009   4.5639
     4.7183   4.7214   5.2263   5.9818  16.9766  19.6026  22.0367  22.3489

     occupation numbers 
     1.0000   1.0000   1.0000   1.0000   1.0000   1.0000   1.0000   1.0000
     1.0000   1.0000   1.0000   1.0000   0.0000   0.0000   0.0000   0.0000

          k = 0.1429 0.3299 0.0000 (  1929 PWs)   bands (ev):

     3.4681   3.7077   3.8731   3.9518   4.0943   4.2233   4.3233   4.4441
     4.7594   4.7832   5.2725  10.8522  11.7770  17.8413  19.8520  23.6758

     occupation numbers 
     1.0000   1.0000   1.0000   1.0000   1.0000   1.0000   1.0000   1.0000
     1.0000   1.0000   1.0000   1.0000   1.0000   0.0000   0.0000   0.0000

          k = 0.1429 0.3299 0.0766 (  1932 PWs)   bands (ev):

     3.4927   3.7235   3.8543   3.9589   4.0601   4.2389   4.4149   4.4394
     4.7299   4.7982   5.3203   9.5254  13.3500  17.9710  19.9825  22.4839

     occupation numbers 
     1.0000   1.0000   1.0000   1.0000   1.0000   1.0000   1.0000   1.0000
     1.0000   1.0000   1.0000   1.0000   0.0000   0.0000   0.0000   0.0000

          k = 0.1429 0.3299 0.1533 (  1924 PWs)   bands (ev):

     3.5529   3.7639   3.7992   3.9636   4.0534   4.2136   4.4400   4.6318
     4.6562   4.8255   5.5208   8.0830  15.5250  18.3525  20.3578  21.1536

     occupation numbers 
     1.0000   1.0000   1.0000   1.0000   1.0000   1.0000   1.0000   1.0000
     1.0000   1.0000   1.0000   1.0000   0.0000   0.0000   0.0000   0.0000

          k = 0.1429 0.3299 0.2299 (  1925 PWs)   bands (ev):

     3.6284   3.7089   3.8437   3.9147   4.1047   4.1641   4.4837   4.5642
     4.7864   4.8343   6.0314   6.9027  17.8699  18.9133  20.0762  20.5128

     occupation numbers 
     1.0000   1.0000   1.0000   1.0000   1.0000   1.0000   1.0000   1.0000
     1.0000   1.0000   1.0000   1.0000   0.0000   0.0000   0.0000   0.0000

          k = 0.1429 0.4124 0.0000 (  1935 PWs)   bands (ev):

     3.5959   3.6531   3.7489   4.1702   4.2019   4.2482   4.3598   4.5412
     4.7405   4.8986   6.3120  11.9824  13.2339  15.0585  19.0397  20.8466

     occupation numbers 
     1.0000   1.0000   1.0000   1.0000   1.0000   1.0000   1.0000   1.0000
     1.0000   1.0000   1.0000   0.0000   0.0000   0.0000   0.0000   0.0000

          k = 0.1429 0.4124 0.0766 (  1928 PWs)   bands (ev):

     3.5845   3.6324   3.8029   4.0080   4.2007   4.3740   4.4407   4.5371
     4.7115   4.9070   6.4036  10.7947  14.6040  15.2216  19.1699  19.7202

     occupation numbers 
     1.0000   1.0000   1.0000   1.0000   1.0000   1.0000   1.0000   1.0000
     1.0000   1.0000   1.0000   1.0000   0.0000   0.0000   0.0000   0.0000

          k = 0.1429 0.4124 0.1533 (  1920 PWs)   bands (ev):

     3.5596   3.6500   3.8219   3.8862   4.2331   4.4096   4.4982   4.6320
     4.6756   4.9191   6.7131   9.3812  15.5175  16.6377  18.5473  19.5768

     occupation numbers 
     1.0000   1.0000   1.0000   1.0000   1.0000   1.0000   1.0000   1.0000
     1.0000   1.0000   1.0000   1.0000   0.0000   0.0000   0.0000   0.0000

          k = 0.1429 0.4124 0.2299 (  1912 PWs)   bands (ev):

     3.5777   3.6309   3.7995   3.8418   4.3238   4.4137   4.4850   4.5434
     4.8284   4.9039   7.3051   8.2018  16.1505  16.9365  19.4146  20.1786

     occupation numbers 
     1.0000   1.0000   1.0000   1.0000   1.0000   1.0000   1.0000   1.0000
     1.0000   1.0000   1.0000   1.0000   0.0000   0.0000   0.0000   0.0000

          k = 0.1429 0.4949 0.0000 (  1918 PWs)   bands (ev):

     3.5258   3.6251   3.6755   4.1491   4.2851   4.2980   4.4324   4.7278
     4.7492   4.9318   7.8906  12.0325  13.9688  14.8555  18.2765  18.5744

     occupation numbers 
     1.0000   1.0000   1.0000   1.0000   1.0000   1.0000   1.0000   1.0000
     1.0000   1.0000   1.0000   0.0000   0.0000   0.0000   0.0000   0.0000

          k = 0.1429 0.4949 0.0766 (  1924 PWs)   bands (ev):

     3.5336   3.5597   3.7558   4.0292   4.2346   4.3920   4.5424   4.6973
     4.7424   4.9347   7.9985  11.7834  13.1925  15.8998  17.5809  18.6854

     occupation numbers 
     1.0000   1.0000   1.0000   1.0000   1.0000   1.0000   1.0000   1.0000
     1.0000   1.0000   1.0000   1.0000   0.0000   0.0000   0.0000   0.0000

          k = 0.1429 0.4949 0.1533 (  1924 PWs)   bands (ev):

     3.5083   3.5678   3.8060   3.8654   4.2508   4.5059   4.6077   4.6979
     4.7263   4.9338   8.3354  10.8259  13.1594  15.4905  18.7191  19.0908

     occupation numbers 
     1.0000   1.0000   1.0000   1.0000   1.0000   1.0000   1.0000   1.0000
     1.0000   1.0000   1.0000   1.0000   0.0000   0.0000   0.0000   0.0000

          k = 0.1429 0.4949 0.2299 (  1915 PWs)   bands (ev):

     3.5217   3.5653   3.7772   3.7927   4.3505   4.4809   4.6101   4.6764
     4.8280   4.9045   8.9252   9.7724  13.6808  14.4923  19.7362  20.3958

     occupation numbers 
     1.0000   1.0000   1.0000   1.0000   1.0000   1.0000   1.0000   1.0000
     1.0000   1.0000   1.0000   1.0000   0.0000   0.0000   0.0000   0.0000

          k = 0.1429 0.5774 0.0000 (  1918 PWs)   bands (ev):

     3.4989   3.6090   3.6515   4.1483   4.2516   4.3303   4.4949   4.7233
     4.8692   4.8921   9.5795  10.1768  15.1526  16.0425  16.6293  18.0740

     occupation numbers 
     1.0000   1.0000   1.0000   1.0000   1.0000   1.0000   1.0000   1.0000
     1.0000   1.0000   1.0000   1.0000   0.0000   0.0000   0.0000   0.0000

          k = 0.1429 0.5774 0.0766 (  1926 PWs)   bands (ev):

     3.5110   3.5337   3.7373   4.0379   4.2153   4.4186   4.5839   4.6927
     4.8661   4.8899   9.6933  10.2452  14.4637  14.7143  18.2145  18.5315

     occupation numbers 
     1.0000   1.0000   1.0000   1.0000   1.0000   1.0000   1.0000   1.0000
     1.0000   1.0000   1.0000   1.0000   0.0000   0.0000   0.0000   0.0000

          k = 0.1429 0.5774 0.1533 (  1917 PWs)   bands (ev):

     3.4886   3.5379   3.7896   3.8685   4.2365   4.5636   4.5997   4.7088
     4.8563   4.8763  10.0164  10.4342  13.3679  13.4552  18.9192  20.2866

     occupation numbers 
     1.0000   1.0000   1.0000   1.0000   1.0000   1.0000   1.0000   1.0000
     1.0000   1.0000   1.0000   1.0000   0.0000   0.0000   0.0000   0.0000

          k = 0.1429 0.5774 0.2299 (  1912 PWs)   bands (ev):

     3.5007   3.5404   3.7710   3.7757   4.3407   4.4758   4.7047   4.7704
     4.8386   4.8391  10.4427  10.6186  12.5886  12.6334  19.5801  20.4358

     occupation numbers 
     1.0000   1.0000   1.0000   1.0000   1.0000   1.0000   1.0000   1.0000
     1.0000   1.0000   1.0000   1.0000   0.0000   0.0000   0.0000   0.0000

          k = 0.2143 0.3712 0.0000 (  1921 PWs)   bands (ev):

     3.7584   3.7850   3.8313   3.9765   4.1519   4.1629   4.3789   4.3866
     4.7166   4.8939   6.2421  11.9155  13.0893  16.7970  17.0204  22.6560

     occupation numbers 
     1.0000   1.0000   1.0000   1.0000   1.0000   1.0000   1.0000   1.0000
     1.0000   1.0000   1.0000   0.0000   0.0000   0.0000   0.0000   0.0000

          k = 0.2143 0.3712 0.0766 (  1923 PWs)   bands (ev):

     3.7460   3.7728   3.8790   3.8882   4.1489   4.2222   4.3752   4.4606
     4.6875   4.9040   6.3305  10.6938  14.5412  16.9310  17.1496  21.4250

     occupation numbers 
     1.0000   1.0000   1.0000   1.0000   1.0000   1.0000   1.0000   1.0000
     1.0000   1.0000   1.0000   1.0000   0.0000   0.0000   0.0000   0.0000

          k = 0.2143 0.3712 0.1533 (  1928 PWs)   bands (ev):

     3.7107   3.7616   3.8320   3.9610   4.1159   4.2264   4.3832   4.6070
     4.6604   4.9184   6.6300   9.2742  16.6173  17.3339  17.5283  20.0502

     occupation numbers 
     1.0000   1.0000   1.0000   1.0000   1.0000   1.0000   1.0000   1.0000
     1.0000   1.0000   1.0000   1.0000   0.0000   0.0000   0.0000   0.0000

          k = 0.2143 0.3712 0.2299 (  1923 PWs)   bands (ev):

     3.6967   3.7108   3.8952   3.9617   4.1285   4.1848   4.4284   4.5118
     4.8236   4.9036   7.2093   8.0975  17.9782  18.1096  18.4101  18.8983

     occupation numbers 
     1.0000   1.0000   1.0000   1.0000   1.0000   1.0000   1.0000   1.0000
     1.0000   1.0000   1.0000   1.0000   0.0000   0.0000   0.0000   0.0000

          k = 0.2143 0.4536 0.0000 (  1925 PWs)   bands (ev):

     3.7251   3.7321   3.8161   4.1235   4.1910   4.2705   4.2918   4.5261
     4.6830   4.9146   7.6707  13.1283  14.4170  14.6259  16.2681  20.0573

     occupation numbers 
     1.0000   1.0000   1.0000   1.0000   1.0000   1.0000   1.0000   1.0000
     1.0000   1.0000   1.0000   0.0000   0.0000   0.0000   0.0000   0.0000

          k = 0.2143 0.4536 0.0766 (  1927 PWs)   bands (ev):

     3.6940   3.7409   3.8718   3.9899   4.1866   4.3195   4.3636   4.5526
     4.6523   4.9215   7.7806  12.1095  14.3900  15.9636  16.4046  18.9741

     occupation numbers 
     1.0000   1.0000   1.0000   1.0000   1.0000   1.0000   1.0000   1.0000
     1.0000   1.0000   1.0000   0.0000   0.0000   0.0000   0.0000   0.0000

          k = 0.2143 0.4536 0.1533 (  1926 PWs)   bands (ev):

     3.6640   3.7796   3.8370   3.9617   4.1462   4.3521   4.4148   4.5733
     4.6787   4.9277   8.1238  10.7568  14.7581  16.7761  17.0930  18.4379

     occupation numbers 
     1.0000   1.0000   1.0000   1.0000   1.0000   1.0000   1.0000   1.0000
     1.0000   1.0000   1.0000   1.0000   0.0000   0.0000   0.0000   0.0000

          k = 0.2143 0.4536 0.2299 (  1919 PWs)   bands (ev):

     3.6738   3.7274   3.8591   3.9317   4.2125   4.3142   4.4380   4.4907
     4.8188   4.9022   8.7286   9.6102  15.3843  16.2317  17.4453  18.2760

     occupation numbers 
     1.0000   1.0000   1.0000   1.0000   1.0000   1.0000   1.0000   1.0000
     1.0000   1.0000   1.0000   1.0000   0.0000   0.0000   0.0000   0.0000

          k = 0.2143 0.5361 0.0000 (  1920 PWs)   bands (ev):

     3.6846   3.7086   3.7984   4.1406   4.2081   4.2933   4.3314   4.6649
     4.6927   4.8522   9.4692  11.6095  15.2001  15.9300  16.2495  17.7512

     occupation numbers 
     1.0000   1.0000   1.0000   1.0000   1.0000   1.0000   1.0000   1.0000
     1.0000   1.0000   1.0000   1.0000   0.0000   0.0000   0.0000   0.0000

          k = 0.2143 0.5361 0.0766 (  1923 PWs)   bands (ev):

     3.6666   3.6993   3.8673   4.0350   4.1462   4.3708   4.4104   4.6328
     4.6986   4.8584   9.5840  11.6802  14.2012  15.9631  16.2104  18.1682

     occupation numbers 
     1.0000   1.0000   1.0000   1.0000   1.0000   1.0000   1.0000   1.0000
     1.0000   1.0000   1.0000   1.0000   0.0000   0.0000   0.0000   0.0000

          k = 0.2143 0.5361 0.1533 (  1922 PWs)   bands (ev):

     3.6391   3.7359   3.8880   3.9434   4.1088   4.4287   4.4991   4.5719
     4.7284   4.8657   9.9290  11.7403  13.1837  14.9429  16.4815  18.9815

     occupation numbers 
     1.0000   1.0000   1.0000   1.0000   1.0000   1.0000   1.0000   1.0000
     1.0000   1.0000   1.0000   1.0000   0.0000   0.0000   0.0000   0.0000

          k = 0.2143 0.5361 0.2299 (  1917 PWs)   bands (ev):

     3.6609   3.7264   3.8392   3.9018   4.2091   4.3485   4.5379   4.5618
     4.7939   4.8488  10.4984  11.2325  13.1855  13.9085  17.1284  18.0069

     occupation numbers 
     1.0000   1.0000   1.0000   1.0000   1.0000   1.0000   1.0000   1.0000
     1.0000   1.0000   1.0000   1.0000   0.0000   0.0000   0.0000   0.0000

          k = 0.2857 0.4949 0.0000 (  1935 PWs)   bands (ev):

     3.7416   3.8328   3.9013   4.1125   4.1510   4.2109   4.3173   4.5852
     4.6381   4.8435   9.3560  13.3944  13.7639  15.2514  16.2291  19.3732

     occupation numbers 
     1.0000   1.0000   1.0000   1.0000   1.0000   1.0000   1.0000   1.0000
     1.0000   1.0000   1.0000   0.0000   0.0000   0.0000   0.0000   0.0000

          k = 0.2857 0.4949 0.0766 (  1929 PWs)   bands (ev):

     3.7394   3.8432   3.9327   3.9976   4.1665   4.2466   4.3423   4.6058
     4.6155   4.8525   9.4740  13.2446  13.8981  14.4003  17.2157  18.2810

     occupation numbers 
     1.0000   1.0000   1.0000   1.0000   1.0000   1.0000   1.0000   1.0000
     1.0000   1.0000   1.0000   0.0000   0.0000   0.0000   0.0000   0.0000

          k = 0.2857 0.4949 0.1533 (  1921 PWs)   bands (ev):

     3.7412   3.8576   3.9044   4.0148   4.0871   4.2856   4.3764   4.5284
     4.6997   4.8651   9.8318  12.3430  14.2934  14.3290  16.8457  16.9031

     occupation numbers 
     1.0000   1.0000   1.0000   1.0000   1.0000   1.0000   1.0000   1.0000
     1.0000   1.0000   1.0000   0.0000   0.0000   0.0000   0.0000   0.0000

          k = 0.2857 0.4949 0.2299 (  1919 PWs)   bands (ev):

     3.7584   3.7998   3.9379   4.0051   4.1293   4.2368   4.4085   4.4531
     4.7941   4.8521  10.4373  11.2895  14.8546  14.9116  15.8065  15.8733

     occupation numbers 
     1.0000   1.0000   1.0000   1.0000   1.0000   1.0000   1.0000   1.0000
     1.0000   1.0000   1.0000   1.0000   0.0000   0.0000   0.0000   0.0000

          k = 0.2857 0.5774 0.0000 (  1922 PWs)   bands (ev):

     3.7504   3.8717   3.9343   4.1191   4.1374   4.1491   4.3467   4.6213
     4.6740   4.7490  11.2770  11.4088  13.4781  16.6144  17.5799  17.7868

     occupation numbers 
     1.0000   1.0000   1.0000   1.0000   1.0000   1.0000   1.0000   1.0000
     1.0000   1.0000   1.0000   1.0000   0.0000   0.0000   0.0000   0.0000

          k = 0.2857 0.5774 0.0766 (  1921 PWs)   bands (ev):

     3.7600   3.8785   3.9378   4.0405   4.1255   4.2065   4.3629   4.5886
     4.6927   4.7647  11.4063  11.5090  13.5887  15.8735  16.0800  17.9679

     occupation numbers 
     1.0000   1.0000   1.0000   1.0000   1.0000   1.0000   1.0000   1.0000
     1.0000   1.0000   1.0000   1.0000   0.0000   0.0000   0.0000   0.0000

          k = 0.2857 0.5774 0.1533 (  1915 PWs)   bands (ev):

     3.7790   3.8873   3.9586   3.9607   4.1114   4.2375   4.3883   4.5096
     4.7404   4.7955  11.7751  11.8055  13.8321  14.6961  14.8872  16.7552

     occupation numbers 
     1.0000   1.0000   1.0000   1.0000   1.0000   1.0000   1.0000   1.0000
     1.0000   1.0000   1.0000   0.7891   0.0000   0.0000   0.0000   0.0000

          k = 0.2857 0.5774 0.2299 (  1915 PWs)   bands (ev):

     3.8044   3.8481   3.9550   3.9726   4.1421   4.2112   4.4068   4.4377
     4.7892   4.8100  12.2339  12.2631  13.5547  13.7226  14.8714  15.6759

     occupation numbers 
     1.0000   1.0000   1.0000   1.0000   1.0000   1.0000   1.0000   1.0000
     1.0000   1.0000   0.0000   0.0000   0.0000   0.0000   0.0000   0.0000

 ------ SPIN DOWN ----------


          k = 0.0000 0.0000 0.0000 (  1933 PWs)   bands (ev):

     1.0673   3.0911   3.8957   4.1581   4.1581   4.2133   4.2133   4.5844
     4.5844   4.8111   4.8111   7.9808   8.8864  25.8237  30.0638  30.0638

     occupation numbers 
     1.0000   1.0000   1.0000   1.0000   1.0000   1.0000   1.0000   1.0000
     1.0000   1.0000   1.0000   1.0000   1.0000   0.0000   0.0000   0.0000

          k = 0.0000 0.0000 0.0766 (  1951 PWs)   bands (ev):

     1.1948   3.0709   3.8976   4.1566   4.1566   4.2073   4.2073   4.6000
     4.6000   4.8032   4.8032   6.6466  10.5052  23.8303  30.1927  30.1927

     occupation numbers 
     1.0000   1.0000   1.0000   1.0000   1.0000   1.0000   1.0000   1.0000
     1.0000   1.0000   1.0000   1.0000   1.0000   0.0000   0.0000   0.0000

          k = 0.0000 0.0000 0.1533 (  1962 PWs)   bands (ev):

     1.5645   2.9742   3.9176   4.1555   4.1555   4.1920   4.1920   4.6403
     4.6403   4.7795   4.7795   5.2856  12.7518  20.8662  30.5659  30.5660

     occupation numbers 
     1.0000   1.0000   1.0000   1.0000   1.0000   1.0000   1.0000   1.0000
     1.0000   1.0000   1.0000   1.0000   0.0000   0.0000   0.0000   0.0000

          k = 0.0000 0.0000 0.2299 (  1962 PWs)   bands (ev):

     2.1183   2.6726   4.0187   4.1608   4.1608   4.1742   4.1742   4.3896
     4.6916   4.6916   4.7409   4.7409  15.2509  17.9682  31.1224  31.1224

     occupation numbers 
     1.0000   1.0000   1.0000   1.0000   1.0000   1.0000   1.0000   1.0000
     1.0000   1.0000   1.0000   1.0000   0.0000   0.0000   0.0000   0.0000

          k = 0.0000 0.0825 0.0000 (  1947 PWs)   bands (ev):

     1.2247   3.1644   3.9132   4.1411   4.1949   4.1975   4.2508   4.5471
     4.5688   4.7092   4.8129   8.2464   8.9635  25.9988  27.3970  28.6881

     occupation numbers 
     1.0000   1.0000   1.0000   1.0000   1.0000   1.0000   1.0000   1.0000
     1.0000   1.0000   1.0000   1.0000   1.0000   0.0000   0.0000   0.0000

          k = 0.0000 0.0825 0.0766 (  1940 PWs)   bands (ev):

     1.3513   3.1488   3.9139   4.1372   4.1873   4.1954   4.2446   4.5667
     4.5857   4.6906   4.8042   6.8530  10.6490  23.9777  27.5513  28.8237

     occupation numbers 
     1.0000   1.0000   1.0000   1.0000   1.0000   1.0000   1.0000   1.0000
     1.0000   1.0000   1.0000   1.0000   1.0000   0.0000   0.0000   0.0000

          k = 0.0000 0.0825 0.1533 (  1956 PWs)   bands (ev):

     1.7180   3.0684   3.9275   4.1328   4.1679   4.1934   4.2291   4.5837
     4.6291   4.6423   4.7783   5.5353  12.9000  21.0108  27.9356  29.2269

     occupation numbers 
     1.0000   1.0000   1.0000   1.0000   1.0000   1.0000   1.0000   1.0000
     1.0000   1.0000   1.0000   1.0000   0.0000   0.0000   0.0000   0.0000

          k = 0.0000 0.0825 0.2299 (  1956 PWs)   bands (ev):

     2.2635   2.7961   4.0048   4.1378   4.1433   4.1981   4.2112   4.2993
     4.6839   4.7124   4.7367   4.8751  15.3984  18.1141  28.5618  29.4209

     occupation numbers 
     1.0000   1.0000   1.0000   1.0000   1.0000   1.0000   1.0000   1.0000
     1.0000   1.0000   1.0000   1.0000   0.0000   0.0000   0.0000   0.0000

          k = 0.0000 0.1650 0.0000 (  1943 PWs)   bands (ev):

     1.6865   3.3514   3.9442   4.1046   4.1771   4.3094   4.3570   4.3825
     4.5278   4.5477   4.8154   8.9561   9.2136  23.9053  26.4845  26.9427

     occupation numbers 
     1.0000   1.0000   1.0000   1.0000   1.0000   1.0000   1.0000   1.0000
     1.0000   1.0000   1.0000   1.0000   1.0000   0.0000   0.0000   0.0000

          k = 0.0000 0.1650 0.0766 (  1936 PWs)   bands (ev):

     1.8093   3.3476   3.9458   4.0928   4.1567   4.3051   4.3500   4.3883
     4.5494   4.5560   4.8049   7.3703  11.0889  23.9459  24.5199  27.0865

     occupation numbers 
     1.0000   1.0000   1.0000   1.0000   1.0000   1.0000   1.0000   1.0000
     1.0000   1.0000   1.0000   1.0000   1.0000   0.0000   0.0000   0.0000

          k = 0.0000 0.1650 0.1533 (  1939 PWs)   bands (ev):

     2.1617   3.3098   3.9487   4.0735   4.1154   4.2996   4.3335   4.3341
     4.6015   4.6226   4.7740   6.0196  13.3441  21.4252  24.4650  27.0998

     occupation numbers 
     1.0000   1.0000   1.0000   1.0000   1.0000   1.0000   1.0000   1.0000
     1.0000   1.0000   1.0000   1.0000   0.0000   0.0000   0.0000   0.0000

          k = 0.0000 0.1650 0.2299 (  1940 PWs)   bands (ev):

     2.6716   3.1242   3.9667   4.0350   4.1053   4.1916   4.3025   4.3153
     4.6648   4.7254   4.7851   5.1613  15.8369  18.5439  25.0987  25.9841

     occupation numbers 
     1.0000   1.0000   1.0000   1.0000   1.0000   1.0000   1.0000   1.0000
     1.0000   1.0000   1.0000   1.0000   0.0000   0.0000   0.0000   0.0000

          k = 0.0000 0.2474 0.0000 (  1937 PWs)   bands (ev):

     2.3992   3.5275   3.9819   4.0657   4.1236   4.2899   4.4325   4.4732
     4.4757   4.5141   4.8145   9.6891   9.9819  20.5583  25.4049  26.2870

[...]
     1.0000   1.0000   1.0000   1.0000   1.0000   0.0000   0.0000   0.0000

          k = 0.1429 0.2474 0.0766 (  1927 PWs)   bands (ev):

     2.8998   3.6974   3.8944   3.9848   4.0988   4.1195   4.4110   4.4884
     4.6385   4.7119   4.8167   8.5364  12.2949  20.9737  21.1565  25.3921

     occupation numbers 
     1.0000   1.0000   1.0000   1.0000   1.0000   1.0000   1.0000   1.0000
     1.0000   1.0000   1.0000   1.0000   0.0000   0.0000   0.0000   0.0000

          k = 0.1429 0.2474 0.1533 (  1929 PWs)   bands (ev):

     3.1518   3.7352   3.8957   3.9264   4.0236   4.0986   4.4713   4.5977
     4.6502   4.6842   4.8871   7.1024  14.5217  21.3761  21.3948  22.7517

     occupation numbers 
     1.0000   1.0000   1.0000   1.0000   1.0000   1.0000   1.0000   1.0000
     1.0000   1.0000   1.0000   1.0000   0.0000   0.0000   0.0000   0.0000

          k = 0.1429 0.2474 0.2299 (  1933 PWs)   bands (ev):

     3.4596   3.6921   3.8562   3.9287   3.9828   4.0490   4.5010   4.5640
     4.7184   4.7215   5.2266   5.9822  16.9771  19.6032  22.0374  22.3492

     occupation numbers 
     1.0000   1.0000   1.0000   1.0000   1.0000   1.0000   1.0000   1.0000
     1.0000   1.0000   1.0000   1.0000   0.0000   0.0000   0.0000   0.0000

          k = 0.1429 0.3299 0.0000 (  1929 PWs)   bands (ev):

     3.4686   3.7079   3.8732   3.9520   4.0944   4.2235   4.3235   4.4442
     4.7594   4.7833   5.2728  10.8526  11.7777  17.8419  19.8525  23.6761

     occupation numbers 
     1.0000   1.0000   1.0000   1.0000   1.0000   1.0000   1.0000   1.0000
     1.0000   1.0000   1.0000   1.0000   1.0000   0.0000   0.0000   0.0000

          k = 0.1429 0.3299 0.0766 (  1932 PWs)   bands (ev):

     3.4931   3.7237   3.8545   3.9590   4.0603   4.2390   4.4151   4.4395
     4.7300   4.7983   5.3205   9.5259  13.3506  17.9716  19.9830  22.4845

     occupation numbers 
     1.0000   1.0000   1.0000   1.0000   1.0000   1.0000   1.0000   1.0000
     1.0000   1.0000   1.0000   1.0000   0.0000   0.0000   0.0000   0.0000

          k = 0.1429 0.3299 0.1533 (  1924 PWs)   bands (ev):

     3.5532   3.7640   3.7994   3.9638   4.0536   4.2138   4.4401   4.6320
     4.6563   4.8256   5.5212   8.0835  15.5256  18.3531  20.3584  21.1542

     occupation numbers 
     1.0000   1.0000   1.0000   1.0000   1.0000   1.0000   1.0000   1.0000
     1.0000   1.0000   1.0000   1.0000   0.0000   0.0000   0.0000   0.0000

          k = 0.1429 0.3299 0.2299 (  1925 PWs)   bands (ev):

     3.6287   3.7090   3.8439   3.9149   4.1048   4.1642   4.4838   4.5643
     4.7865   4.8344   6.0318   6.9032  17.8705  18.9138  20.0768  20.5134

     occupation numbers 
     1.0000   1.0000   1.0000   1.0000   1.0000   1.0000   1.0000   1.0000
     1.0000   1.0000   1.0000   1.0000   0.0000   0.0000   0.0000   0.0000

          k = 0.1429 0.4124 0.0000 (  1935 PWs)   bands (ev):

     3.5961   3.6534   3.7491   4.1703   4.2020   4.2484   4.3599   4.5413
     4.7406   4.8987   6.3125  11.9829  13.2346  15.0590  19.0403  20.8470

     occupation numbers 
     1.0000   1.0000   1.0000   1.0000   1.0000   1.0000   1.0000   1.0000
     1.0000   1.0000   1.0000   0.0000   0.0000   0.0000   0.0000   0.0000

          k = 0.1429 0.4124 0.0766 (  1928 PWs)   bands (ev):

     3.5847   3.6326   3.8031   4.0082   4.2008   4.3741   4.4409   4.5373
     4.7115   4.9071   6.4041  10.7952  14.6047  15.2222  19.1705  19.7208

     occupation numbers 
     1.0000   1.0000   1.0000   1.0000   1.0000   1.0000   1.0000   1.0000
     1.0000   1.0000   1.0000   1.0000   0.0000   0.0000   0.0000   0.0000

          k = 0.1429 0.4124 0.1533 (  1920 PWs)   bands (ev):

     3.5599   3.6502   3.8221   3.8863   4.2332   4.4098   4.4983   4.6321
     4.6758   4.9192   6.7136   9.3817  15.5180  16.6383  18.5478  19.5774

     occupation numbers 
     1.0000   1.0000   1.0000   1.0000   1.0000   1.0000   1.0000   1.0000
     1.0000   1.0000   1.0000   1.0000   0.0000   0.0000   0.0000   0.0000

          k = 0.1429 0.4124 0.2299 (  1912 PWs)   bands (ev):

     3.5779   3.6311   3.7996   3.8419   4.3240   4.4138   4.4851   4.5435
     4.8285   4.9040   7.3056   8.2024  16.1511  16.9370  19.4151  20.1791

     occupation numbers 
     1.0000   1.0000   1.0000   1.0000   1.0000   1.0000   1.0000   1.0000
     1.0000   1.0000   1.0000   1.0000   0.0000   0.0000   0.0000   0.0000

          k = 0.1429 0.4949 0.0000 (  1918 PWs)   bands (ev):

     3.5260   3.6253   3.6757   4.1492   4.2852   4.2982   4.4325   4.7279
     4.7493   4.9319   7.8911  12.0331  13.9692  14.8563  18.2770  18.5749

     occupation numbers 
     1.0000   1.0000   1.0000   1.0000   1.0000   1.0000   1.0000   1.0000
     1.0000   1.0000   1.0000   0.0000   0.0000   0.0000   0.0000   0.0000

          k = 0.1429 0.4949 0.0766 (  1924 PWs)   bands (ev):

     3.5338   3.5599   3.7559   4.0293   4.2347   4.3921   4.5426   4.6973
     4.7425   4.9348   7.9990  11.7840  13.1929  15.9004  17.5814  18.6859

     occupation numbers 
     1.0000   1.0000   1.0000   1.0000   1.0000   1.0000   1.0000   1.0000
     1.0000   1.0000   1.0000   1.0000   0.0000   0.0000   0.0000   0.0000

          k = 0.1429 0.4949 0.1533 (  1924 PWs)   bands (ev):

     3.5085   3.5680   3.8062   3.8655   4.2509   4.5060   4.6078   4.6981
     4.7264   4.9339   8.3359  10.8265  13.1599  15.4910  18.7197  19.0913

     occupation numbers 
     1.0000   1.0000   1.0000   1.0000   1.0000   1.0000   1.0000   1.0000
     1.0000   1.0000   1.0000   1.0000   0.0000   0.0000   0.0000   0.0000

          k = 0.1429 0.4949 0.2299 (  1915 PWs)   bands (ev):

     3.5219   3.5655   3.7773   3.7928   4.3506   4.4810   4.6102   4.6765
     4.8281   4.9046   8.9257   9.7730  13.6813  14.4928  19.7368  20.3963

     occupation numbers 
     1.0000   1.0000   1.0000   1.0000   1.0000   1.0000   1.0000   1.0000
     1.0000   1.0000   1.0000   1.0000   0.0000   0.0000   0.0000   0.0000

          k = 0.1429 0.5774 0.0000 (  1918 PWs)   bands (ev):

     3.4990   3.6092   3.6517   4.1484   4.2517   4.3304   4.4951   4.7234
     4.8693   4.8922   9.5799  10.1775  15.1529  16.0434  16.6299  18.0745

     occupation numbers 
     1.0000   1.0000   1.0000   1.0000   1.0000   1.0000   1.0000   1.0000
     1.0000   1.0000   1.0000   1.0000   0.0000   0.0000   0.0000   0.0000

          k = 0.1429 0.5774 0.0766 (  1926 PWs)   bands (ev):

     3.5112   3.5339   3.7375   4.0380   4.2154   4.4188   4.5841   4.6927
     4.8662   4.8900   9.6937  10.2459  14.4640  14.7150  18.2153  18.5321

     occupation numbers 
     1.0000   1.0000   1.0000   1.0000   1.0000   1.0000   1.0000   1.0000
     1.0000   1.0000   1.0000   1.0000   0.0000   0.0000   0.0000   0.0000

          k = 0.1429 0.5774 0.1533 (  1917 PWs)   bands (ev):

     3.4888   3.5380   3.7898   3.8687   4.2366   4.5637   4.5998   4.7089
     4.8564   4.8764  10.0169  10.4349  13.3682  13.4559  18.9198  20.2873

     occupation numbers 
     1.0000   1.0000   1.0000   1.0000   1.0000   1.0000   1.0000   1.0000
     1.0000   1.0000   1.0000   1.0000   0.0000   0.0000   0.0000   0.0000

          k = 0.1429 0.5774 0.2299 (  1912 PWs)   bands (ev):

     3.5009   3.5406   3.7711   3.7759   4.3408   4.4759   4.7048   4.7705
     4.8387   4.8392  10.4433  10.6193  12.5890  12.6340  19.5806  20.4364

     occupation numbers 
     1.0000   1.0000   1.0000   1.0000   1.0000   1.0000   1.0000   1.0000
     1.0000   1.0000   1.0000   1.0000   0.0000   0.0000   0.0000   0.0000

          k = 0.2143 0.3712 0.0000 (  1921 PWs)   bands (ev):

     3.7586   3.7852   3.8315   3.9768   4.1521   4.1630   4.3790   4.3867
     4.7167   4.8941   6.2424  11.9160  13.0900  16.7977  17.0209  22.6564

     occupation numbers 
     1.0000   1.0000   1.0000   1.0000   1.0000   1.0000   1.0000   1.0000
     1.0000   1.0000   1.0000   0.0000   0.0000   0.0000   0.0000   0.0000

          k = 0.2143 0.3712 0.0766 (  1923 PWs)   bands (ev):

     3.7462   3.7730   3.8791   3.8884   4.1491   4.2223   4.3753   4.4607
     4.6876   4.9041   6.3309  10.6943  14.5418  16.9317  17.1501  21.4260

     occupation numbers 
     1.0000   1.0000   1.0000   1.0000   1.0000   1.0000   1.0000   1.0000
     1.0000   1.0000   1.0000   1.0000   0.0000   0.0000   0.0000   0.0000

          k = 0.2143 0.3712 0.1533 (  1928 PWs)   bands (ev):

     3.7109   3.7618   3.8321   3.9612   4.1160   4.2266   4.3833   4.6071
     4.6605   4.9185   6.6304   9.2747  16.6179  17.3346  17.5287  20.0509

     occupation numbers 
     1.0000   1.0000   1.0000   1.0000   1.0000   1.0000   1.0000   1.0000
     1.0000   1.0000   1.0000   1.0000   0.0000   0.0000   0.0000   0.0000

          k = 0.2143 0.3712 0.2299 (  1923 PWs)   bands (ev):

     3.6968   3.7109   3.8953   3.9619   4.1287   4.1850   4.4285   4.5119
     4.8237   4.9037   7.2098   8.0980  17.9789  18.1100  18.4106  18.8990

     occupation numbers 
     1.0000   1.0000   1.0000   1.0000   1.0000   1.0000   1.0000   1.0000
     1.0000   1.0000   1.0000   1.0000   0.0000   0.0000   0.0000   0.0000

          k = 0.2143 0.4536 0.0000 (  1925 PWs)   bands (ev):

     3.7253   3.7322   3.8163   4.1236   4.1912   4.2706   4.2920   4.5262
     4.6831   4.9147   7.6712  13.1288  14.4175  14.6266  16.2686  20.0577

     occupation numbers 
     1.0000   1.0000   1.0000   1.0000   1.0000   1.0000   1.0000   1.0000
     1.0000   1.0000   1.0000   0.0000   0.0000   0.0000   0.0000   0.0000

          k = 0.2143 0.4536 0.0766 (  1927 PWs)   bands (ev):

     3.6942   3.7411   3.8720   3.9901   4.1867   4.3196   4.3638   4.5527
     4.6524   4.9216   7.7810  12.1101  14.3905  15.9642  16.4051  18.9747

     occupation numbers 
     1.0000   1.0000   1.0000   1.0000   1.0000   1.0000   1.0000   1.0000
     1.0000   1.0000   1.0000   0.0000   0.0000   0.0000   0.0000   0.0000

          k = 0.2143 0.4536 0.1533 (  1926 PWs)   bands (ev):

     3.6642   3.7798   3.8371   3.9619   4.1463   4.3522   4.4149   4.5734
     4.6788   4.9278   8.1243  10.7573  14.7587  16.7767  17.0935  18.4385

     occupation numbers 
     1.0000   1.0000   1.0000   1.0000   1.0000   1.0000   1.0000   1.0000
     1.0000   1.0000   1.0000   1.0000   0.0000   0.0000   0.0000   0.0000

          k = 0.2143 0.4536 0.2299 (  1919 PWs)   bands (ev):

     3.6740   3.7276   3.8593   3.9318   4.2126   4.3143   4.4381   4.4908
     4.8189   4.9023   8.7291   9.6108  15.3848  16.2323  17.4458  18.2766

     occupation numbers 
     1.0000   1.0000   1.0000   1.0000   1.0000   1.0000   1.0000   1.0000
     1.0000   1.0000   1.0000   1.0000   0.0000   0.0000   0.0000   0.0000

          k = 0.2143 0.5361 0.0000 (  1920 PWs)   bands (ev):

     3.6848   3.7088   3.7986   4.1407   4.2082   4.2934   4.3316   4.6650
     4.6928   4.8523   9.4697  11.6101  15.2005  15.9305  16.2503  17.7517

     occupation numbers 
     1.0000   1.0000   1.0000   1.0000   1.0000   1.0000   1.0000   1.0000
     1.0000   1.0000   1.0000   1.0000   0.0000   0.0000   0.0000   0.0000

          k = 0.2143 0.5361 0.0766 (  1923 PWs)   bands (ev):

     3.6668   3.6994   3.8675   4.0352   4.1463   4.3709   4.4105   4.6329
     4.6987   4.8585   9.5846  11.6808  14.2016  15.9637  16.2110  18.1688

     occupation numbers 
     1.0000   1.0000   1.0000   1.0000   1.0000   1.0000   1.0000   1.0000
     1.0000   1.0000   1.0000   1.0000   0.0000   0.0000   0.0000   0.0000

          k = 0.2143 0.5361 0.1533 (  1922 PWs)   bands (ev):

     3.6393   3.7361   3.8881   3.9436   4.1089   4.4289   4.4992   4.5720
     4.7285   4.8658   9.9295  11.7410  13.1842  14.9434  16.4821  18.9821

     occupation numbers 
     1.0000   1.0000   1.0000   1.0000   1.0000   1.0000   1.0000   1.0000
     1.0000   1.0000   1.0000   1.0000   0.0000   0.0000   0.0000   0.0000

          k = 0.2143 0.5361 0.2299 (  1917 PWs)   bands (ev):

     3.6611   3.7265   3.8394   3.9019   4.2092   4.3487   4.5380   4.5620
     4.7940   4.8489  10.4990  11.2331  13.1860  13.9090  17.1289  18.0075

     occupation numbers 
     1.0000   1.0000   1.0000   1.0000   1.0000   1.0000   1.0000   1.0000
     1.0000   1.0000   1.0000   1.0000   0.0000   0.0000   0.0000   0.0000

          k = 0.2857 0.4949 0.0000 (  1935 PWs)   bands (ev):

     3.7417   3.8330   3.9015   4.1126   4.1512   4.2110   4.3174   4.5853
     4.6382   4.8436   9.3565  13.3951  13.7643  15.2518  16.2299  19.3735

     occupation numbers 
     1.0000   1.0000   1.0000   1.0000   1.0000   1.0000   1.0000   1.0000
     1.0000   1.0000   1.0000   0.0000   0.0000   0.0000   0.0000   0.0000

          k = 0.2857 0.4949 0.0766 (  1929 PWs)   bands (ev):

     3.7395   3.8433   3.9329   3.9978   4.1666   4.2468   4.3424   4.6058
     4.6156   4.8527   9.4745  13.2454  13.8985  14.4008  17.2163  18.2817

     occupation numbers 
     1.0000   1.0000   1.0000   1.0000   1.0000   1.0000   1.0000   1.0000
     1.0000   1.0000   1.0000   0.0000   0.0000   0.0000   0.0000   0.0000

          k = 0.2857 0.4949 0.1533 (  1921 PWs)   bands (ev):

     3.7414   3.8578   3.9045   4.0150   4.0872   4.2857   4.3765   4.5284
     4.6998   4.8652   9.8324  12.3437  14.2938  14.3296  16.8461  16.9038

     occupation numbers 
     1.0000   1.0000   1.0000   1.0000   1.0000   1.0000   1.0000   1.0000
     1.0000   1.0000   1.0000   0.0000   0.0000   0.0000   0.0000   0.0000

          k = 0.2857 0.4949 0.2299 (  1919 PWs)   bands (ev):

     3.7585   3.8000   3.9381   4.0053   4.1295   4.2370   4.4086   4.4532
     4.7942   4.8522  10.4379  11.2901  14.8553  14.9120  15.8071  15.8737

     occupation numbers 
     1.0000   1.0000   1.0000   1.0000   1.0000   1.0000   1.0000   1.0000
     1.0000   1.0000   1.0000   1.0000   0.0000   0.0000   0.0000   0.0000

          k = 0.2857 0.5774 0.0000 (  1922 PWs)   bands (ev):

     3.7506   3.8718   3.9345   4.1193   4.1375   4.1492   4.3468   4.6213
     4.6741   4.7491  11.2774  11.4095  13.4787  16.6146  17.5808  17.7874

     occupation numbers 
     1.0000   1.0000   1.0000   1.0000   1.0000   1.0000   1.0000   1.0000
     1.0000   1.0000   1.0000   1.0000   0.0000   0.0000   0.0000   0.0000

          k = 0.2857 0.5774 0.0766 (  1921 PWs)   bands (ev):

     3.7601   3.8787   3.9380   4.0406   4.1256   4.2066   4.3630   4.5886
     4.6928   4.7648  11.4067  11.5098  13.5893  15.8738  16.0807  17.9685

     occupation numbers 
     1.0000   1.0000   1.0000   1.0000   1.0000   1.0000   1.0000   1.0000
     1.0000   1.0000   1.0000   1.0000   0.0000   0.0000   0.0000   0.0000

          k = 0.2857 0.5774 0.1533 (  1915 PWs)   bands (ev):

     3.7792   3.8875   3.9587   3.9608   4.1115   4.2376   4.3884   4.5097
     4.7405   4.7956  11.7756  11.8063  13.8327  14.6964  14.8879  16.7558

     occupation numbers 
     1.0000   1.0000   1.0000   1.0000   1.0000   1.0000   1.0000   1.0000
     1.0000   1.0000   1.0000   0.7108   0.0000   0.0000   0.0000   0.0000

          k = 0.2857 0.5774 0.2299 (  1915 PWs)   bands (ev):

     3.8046   3.8482   3.9551   3.9727   4.1423   4.2114   4.4069   4.4378
     4.7893   4.8101  12.2347  12.2637  13.5553  13.7230  14.8719  15.6764

     occupation numbers 
     1.0000   1.0000   1.0000   1.0000   1.0000   1.0000   1.0000   1.0000
     1.0000   1.0000   0.0000   0.0000   0.0000   0.0000   0.0000   0.0000

     the Fermi energy is    11.8091 ev

!    total energy              =    -487.44545288 Ry
     total all-electron energy =     -7184.239498 Ry
     estimated scf accuracy    <          3.2E-09 Ry
     smearing contrib. (-TS)   =      -0.00000075 Ry
     internal energy E=F+TS    =    -487.44545213 Ry

     The total energy is F=E-TS. E is the sum of the following terms:
     one-electron contribution =    -111.38959822 Ry
     hartree contribution      =      89.55087198 Ry
     xc contribution           =     -94.40421156 Ry
     ewald contribution        =    -180.32404734 Ry
     one-center paw contrib.   =    -190.87846698 Ry
      -> PAW hartree energy AE =     122.77686549 Ry
      -> PAW hartree energy PS =    -122.15598540 Ry
      -> PAW xc energy AE      =    -143.12958477 Ry
      -> PAW xc energy PS      =      47.06947119 Ry
      -> total E_H with PAW    =      90.17175207 Ry
      -> total E_XC with PAW   =    -190.46432514 Ry

     total magnetization       =     0.00 Bohr mag/cell
     absolute magnetization    =     0.00 Bohr mag/cell

     convergence has been achieved in   7 iterations

     Writing all to output data dir ./out/Zn.save/

     init_run     :      1.46s CPU      1.56s WALL (       1 calls)
     electrons    :     30.73s CPU     31.86s WALL (       1 calls)

     Called by init_run:
     wfcinit      :      1.06s CPU      1.09s WALL (       1 calls)
     wfcinit:atom :      0.01s CPU      0.02s WALL (     192 calls)
     wfcinit:wfcr :      0.98s CPU      1.01s WALL (     192 calls)
     potinit      :      0.23s CPU      0.30s WALL (       1 calls)
     hinit0       :      0.13s CPU      0.13s WALL (       1 calls)

     Called by electrons:
     c_bands      :     25.43s CPU     26.07s WALL (       7 calls)
     sum_band     :      3.25s CPU      3.41s WALL (       7 calls)
     v_of_rho     :      0.06s CPU      0.06s WALL (       8 calls)
     v_h          :      0.00s CPU      0.00s WALL (       8 calls)
     v_xc         :      0.05s CPU      0.05s WALL (       8 calls)
     newd         :      0.14s CPU      0.15s WALL (       8 calls)
     PAW_pot      :      2.04s CPU      2.42s WALL (       8 calls)
     mix_rho      :      0.01s CPU      0.01s WALL (       7 calls)

     Called by c_bands:
     init_us_2    :      0.28s CPU      0.29s WALL (    2880 calls)
     init_us_2:cp :      0.27s CPU      0.28s WALL (    2880 calls)
     cegterg      :     24.73s CPU     25.36s WALL (    1344 calls)

     Called by sum_band:
     sum_band:wei :      0.02s CPU      0.02s WALL (       7 calls)
     sum_band:loo :      3.06s CPU      3.22s WALL (       7 calls)
     sum_band:buf :      0.03s CPU      0.03s WALL (    1344 calls)
     sum_band:ini :      0.12s CPU      0.13s WALL (    1344 calls)
     sum_band:cal :      0.53s CPU      0.55s WALL (    1344 calls)
     sum_band:bec :      0.03s CPU      0.03s WALL (    1344 calls)
     addusdens    :      0.16s CPU      0.16s WALL (       7 calls)
                                        0.00s GPU  (       7 calls)
     addusd:skk   :      0.00s CPU      0.00s WALL (       7 calls)
                                        0.00s GPU  (       7 calls)

     Called by *egterg:
     cdiaghg      :      2.25s CPU      2.31s WALL (    6131 calls)
     cegterg:over :      1.80s CPU      1.85s WALL (    4787 calls)
     cegterg:upda :      0.79s CPU      0.81s WALL (    4787 calls)
     cegterg:last :      2.06s CPU      2.11s WALL (    3570 calls)
     h_psi        :     16.11s CPU     16.50s WALL (    6323 calls)
     s_psi        :      1.44s CPU      1.49s WALL (    6323 calls)
     g_psi        :      0.15s CPU      0.16s WALL (    4787 calls)

     Called by h_psi:
     h_psi:calbec :      1.65s CPU      1.70s WALL (    6323 calls)
     vloc_psi     :     12.91s CPU     13.22s WALL (    6323 calls)
     add_vuspsi   :      1.46s CPU      1.51s WALL (    6323 calls)

     General routines
     calbec       :      2.16s CPU      2.23s WALL (    7667 calls)
     fft          :      0.08s CPU      0.08s WALL (     166 calls)
     ffts         :      0.00s CPU      0.00s WALL (      14 calls)
     fftw         :     13.15s CPU     13.54s WALL (  163150 calls)

     Parallel routines

     PAW routines
     PAW_pot      :      2.04s CPU      2.42s WALL (       8 calls)
     PAW_symme    :      0.01s CPU      0.01s WALL (      15 calls)

     PWSCF        :     32.63s CPU     34.14s WALL


   This run was terminated on:  10:43:58  16Feb2024            

=------------------------------------------------------------------------------=
   JOB DONE.
=------------------------------------------------------------------------------=
