
     Program PWSCF v.7.2 starts on  7Jul2024 at  4: 9:55 

     This program is part of the open-source Quantum ESPRESSO suite
     for quantum simulation of materials; please cite
         "P. Giannozzi et al., J. Phys.:Condens. Matter 21 395502 (2009);
         "P. Giannozzi et al., J. Phys.:Condens. Matter 29 465901 (2017);
         "P. Giannozzi et al., J. Chem. Phys. 152 154105 (2020);
          URL http://www.quantum-espresso.org", 
     in publications or presentations arising from this work. More details at
     http://www.quantum-espresso.org/quote

     Parallel version (MPI), running on   784 processors

     MPI processes distributed on     7 nodes
     230327 MiB available memory on the printing compute node when the environment starts
 
     Reading input from 2.Co_vac_in_ZnS.scf.qp1.in

     Current dimensions of program PWSCF are:
     Max number of different atomic species (ntypx) = 10
     Max number of k-points (npk) =  40000
     Max angular momentum in pseudopotentials (lmaxx) =  4
     file S.pbe-n-kjpaw_psl.1.0.0.UPF: wavefunction(s)  3S 3P renormalized
     file Zn.pbe-dnl-kjpaw_psl.1.0.0.UPF: wavefunction(s)  4S 3D renormalized
     file Co.pbe-spn-kjpaw_psl.0.3.1.UPF: wavefunction(s)  3P 3D renormalized
 
     K-points division:     npool     =       7
     R & G space division:  proc/nbgrp/npool/nimage =     112
     Subspace diagonalization in iterative solution of the eigenvalue problem:
     one sub-group per band group will be used
     scalapack distributed-memory algorithm (size of sub-group:  3*  3 procs)

 
     Parallelization info
     --------------------
     sticks:   dense  smooth     PW     G-vecs:    dense   smooth      PW
     Min         180     180     46                19282    19282    2562
     Max         181     181     47                19291    19291    2573
     Sum       20217   20217   5249              2160009  2160009  287777
 
     Using Slab Decomposition
 


     bravais-lattice index     =            1
     lattice parameter (alat)  =      20.5686  a.u.
     unit-cell volume          =    8701.8437 (a.u.)^3
     number of atoms/cell      =           63
     number of atomic types    =            3
     number of electrons       =       574.00
     number of Kohn-Sham states=          344
     kinetic-energy cutoff     =     150.0000  Ry
     charge density cutoff     =     600.0000  Ry
     scf convergence threshold =      1.0E-08
     mixing beta               =       0.7000
     number of iterations used =            8  plain     mixing
     Exchange-correlation= SLA  PW   PBX  PBC
                           (   1   4   3   4   0   0   0)

     celldm(1)=  20.568554  celldm(2)=   0.000000  celldm(3)=   0.000000
     celldm(4)=   0.000000  celldm(5)=   0.000000  celldm(6)=   0.000000

     crystal axes: (cart. coord. in units of alat)
               a(1) = (   1.000000   0.000000   0.000000 )  
               a(2) = (   0.000000   1.000000   0.000000 )  
               a(3) = (   0.000000   0.000000   1.000000 )  

     reciprocal axes: (cart. coord. in units 2 pi/alat)
               b(1) = (  1.000000  0.000000  0.000000 )  
               b(2) = (  0.000000  1.000000  0.000000 )  
               b(3) = (  0.000000  0.000000  1.000000 )  


     PseudoPot. # 1 for S  read from file:
     /arf/home/amuhaymin/pseudo/S.pbe-n-kjpaw_psl.1.0.0.UPF
     MD5 check sum: fb45dfebcf3e72a4e1bd4a866ec2e262
     Pseudo is Projector augmented-wave + core cor, Zval =  6.0
     Generated using &quot;atomic&quot; code by A. Dal Corso  v.6.3
     Shape of augmentation charge: PSQ
     Using radial grid of 1151 points,  6 beta functions with: 
                l(1) =   0
                l(2) =   0
                l(3) =   1
                l(4) =   1
                l(5) =   2
                l(6) =   2
     Q(r) pseudized with 0 coefficients 


     PseudoPot. # 2 for Zn read from file:
     /arf/home/amuhaymin/pseudo/Zn.pbe-dnl-kjpaw_psl.1.0.0.UPF
     MD5 check sum: c608214d9520ac179f507641260889e3
     Pseudo is Projector augmented-wave + core cor, Zval = 12.0
     Generated using &quot;atomic&quot; code by A. Dal Corso  v.6.2.2
     Shape of augmentation charge: PSQ
     Using radial grid of 1201 points,  6 beta functions with: 
                l(1) =   0
                l(2) =   0
                l(3) =   1
                l(4) =   1
                l(5) =   2
                l(6) =   2
     Q(r) pseudized with 0 coefficients 


     PseudoPot. # 3 for Co read from file:
     /arf/home/amuhaymin/pseudo/Co.pbe-spn-kjpaw_psl.0.3.1.UPF
     MD5 check sum: b0a1ad65bf214e88c1f3d33b20c7d919
     Pseudo is Projector augmented-wave + core cor, Zval = 17.0
     Generated using &quot;atomic&quot; code by A. Dal Corso  v.6.2.2
     Shape of augmentation charge: PSQ
     Using radial grid of 1193 points,  6 beta functions with: 
                l(1) =   0
                l(2) =   0
                l(3) =   1
                l(4) =   1
                l(5) =   2
                l(6) =   2
     Q(r) pseudized with 0 coefficients 


     atomic species   valence    mass     pseudopotential
        S              6.00    32.06500     S ( 1.00)
        Zn            12.00    65.38000     Zn( 1.00)
        Co            17.00    63.54600     Co( 1.00)

     Starting magnetic structure 
     atomic species   magnetization
        S            0.000
        Zn           0.000
        Co           0.235

      6 Sym. Ops. (no inversion) found


                                    s                        frac. trans.

      isym =  1     identity                                     

 cryst.   s( 1) = (     1          0          0      )
                  (     0          1          0      )
                  (     0          0          1      )

 cart.    s( 1) = (  1.0000000  0.0000000  0.0000000 )
                  (  0.0000000  1.0000000  0.0000000 )
                  (  0.0000000  0.0000000  1.0000000 )


      isym =  2     120 deg rotation - cart. axis [-1,-1,-1]     

 cryst.   s( 2) = (     0          0          1      )
                  (     1          0          0      )
                  (     0          1          0      )

 cart.    s( 2) = (  0.0000000  1.0000000  0.0000000 )
                  (  0.0000000  0.0000000  1.0000000 )
                  (  1.0000000  0.0000000  0.0000000 )


      isym =  3     120 deg rotation - cart. axis [1,1,1]        

 cryst.   s( 3) = (     0          1          0      )
                  (     0          0          1      )
                  (     1          0          0      )

 cart.    s( 3) = (  0.0000000  0.0000000  1.0000000 )
                  (  1.0000000  0.0000000  0.0000000 )
                  (  0.0000000  1.0000000  0.0000000 )


      isym =  4     inv. 180 deg rotation - cart. axis [1,-1,0]  

 cryst.   s( 4) = (     0          1          0      )
                  (     1          0          0      )
                  (     0          0          1      )

 cart.    s( 4) = (  0.0000000  1.0000000  0.0000000 )
                  (  1.0000000  0.0000000  0.0000000 )
                  (  0.0000000  0.0000000  1.0000000 )


      isym =  5     inv. 180 deg rotation - cart. axis [-1,0,1]  

 cryst.   s( 5) = (     0          0          1      )
                  (     0          1          0      )
                  (     1          0          0      )

 cart.    s( 5) = (  0.0000000  0.0000000  1.0000000 )
                  (  0.0000000  1.0000000  0.0000000 )
                  (  1.0000000  0.0000000  0.0000000 )


      isym =  6     inv. 180 deg rotation - cart. axis [0,1,-1]  

 cryst.   s( 6) = (     1          0          0      )
                  (     0          0          1      )
                  (     0          1          0      )

 cart.    s( 6) = (  1.0000000  0.0000000  0.0000000 )
                  (  0.0000000  0.0000000  1.0000000 )
                  (  0.0000000  1.0000000  0.0000000 )


     point group C_3v (3m)  
     there are  3 classes
     the character table:

       E     2C3   3s_v 
A_1    1.00  1.00  1.00
A_2    1.00  1.00 -1.00
E      2.00 -1.00  0.00

     the symmetry operations in each class and the name of the first element:

     E        1
          identity                                               
     2C3      2    3
          120 deg rotation - cart. axis [-1,-1,-1]               
     3s_v     4    5    6
          inv. 180 deg rotation - cart. axis [1,-1,0]            

   Cartesian axes

     site n.     atom                  positions (alat units)
         1           Zn  tau(   1) = (   0.0001122   0.0001122   0.0001122  )
         2           Zn  tau(   2) = (   0.0001442   0.2496628   0.2496628  )
         3           Zn  tau(   3) = (   0.2496628   0.0001442   0.2496628  )
         4           Zn  tau(   4) = (   0.2496628   0.2496628   0.0001442  )
         5           S   tau(   5) = (   0.1245559   0.3745487   0.3745487  )
         6           S   tau(   6) = (   0.1246764   0.1246764   0.1246764  )
         7           S   tau(   7) = (   0.3745487   0.3745487   0.1245559  )
         8           S   tau(   8) = (   0.3745487   0.1245559   0.3745487  )
         9           Zn  tau(   9) = (   0.0022835   0.0022835   0.4986853  )
        10           Zn  tau(  10) = (   0.0023997   0.2474620   0.7499908  )
        11           Zn  tau(  11) = (   0.2474620   0.0023997   0.7499908  )
        12           Zn  tau(  12) = (   0.2524827   0.2524827   0.4995461  )
        13           S   tau(  13) = (   0.1247681   0.3746802   0.8745649  )
        14           S   tau(  14) = (   0.1257710   0.1257710   0.6235254  )
        15           S   tau(  15) = (   0.3773777   0.3773777   0.6221813  )
        16           S   tau(  16) = (   0.3746802   0.1247681   0.8745649  )
        17           Zn  tau(  17) = (   0.0022835   0.4986853   0.0022835  )
        18           Zn  tau(  18) = (   0.0023997   0.7499908   0.2474620  )
        19           Zn  tau(  19) = (   0.2524827   0.4995461   0.2524827  )
        20           Zn  tau(  20) = (   0.2474620   0.7499908   0.0023997  )
        21           S   tau(  21) = (   0.1247681   0.8745649   0.3746802  )
        22           S   tau(  22) = (   0.1257710   0.6235254   0.1257710  )
        23           S   tau(  23) = (   0.3746802   0.8745649   0.1247681  )
        24           S   tau(  24) = (   0.3773777   0.6221813   0.3773777  )
        25           Zn  tau(  25) = (   0.0035780   0.5002371   0.5002371  )
        26           Zn  tau(  26) = (   0.0032808   0.7486777   0.7486777  )
        27           Zn  tau(  27) = (   0.2499037   0.4961869   0.7462466  )
        28           Zn  tau(  28) = (   0.2499037   0.7462466   0.4961869  )
        29           S   tau(  29) = (   0.1246284   0.8746328   0.8746328  )
        30           S   tau(  30) = (   0.1259487   0.6246984   0.6246984  )
        31           S   tau(  31) = (   0.3727047   0.8764716   0.6220581  )
        32           S   tau(  32) = (   0.3727047   0.6220581   0.8764716  )
        33           Zn  tau(  33) = (   0.4986853   0.0022835   0.0022835  )
        34           Zn  tau(  34) = (   0.4995461   0.2524827   0.2524827  )
        35           Zn  tau(  35) = (   0.7499908   0.0023997   0.2474620  )
        36           Zn  tau(  36) = (   0.7499908   0.2474620   0.0023997  )
        37           S   tau(  37) = (   0.6221813   0.3773777   0.3773777  )
        38           S   tau(  38) = (   0.6235254   0.1257710   0.1257710  )
        39           S   tau(  39) = (   0.8745649   0.3746802   0.1247681  )
        40           S   tau(  40) = (   0.8745649   0.1247681   0.3746802  )
        41           Zn  tau(  41) = (   0.5002371   0.0035780   0.5002371  )
        42           Zn  tau(  42) = (   0.4961869   0.2499037   0.7462466  )
        43           Zn  tau(  43) = (   0.7486777   0.0032808   0.7486777  )
        44           Zn  tau(  44) = (   0.7462466   0.2499037   0.4961869  )
        45           S   tau(  45) = (   0.6220581   0.3727047   0.8764716  )
        46           S   tau(  46) = (   0.6246984   0.1259487   0.6246984  )
        47           S   tau(  47) = (   0.8764716   0.3727047   0.6220581  )
        48           S   tau(  48) = (   0.8746328   0.1246284   0.8746328  )
        49           Zn  tau(  49) = (   0.5002371   0.5002371   0.0035780  )
        50           Zn  tau(  50) = (   0.4961869   0.7462466   0.2499037  )
        51           Zn  tau(  51) = (   0.7462466   0.4961869   0.2499037  )
        52           Zn  tau(  52) = (   0.7486777   0.7486777   0.0032808  )
        53           S   tau(  53) = (   0.6220581   0.8764716   0.3727047  )
        54           S   tau(  54) = (   0.6246984   0.6246984   0.1259487  )
        55           S   tau(  55) = (   0.8746328   0.8746328   0.1246284  )
        56           S   tau(  56) = (   0.8764716   0.6220581   0.3727047  )
        57           Co  tau(  57) = (   0.4853704   0.4853704   0.4853704  )
        58           Zn  tau(  58) = (   0.4701193   0.7774579   0.7774579  )
        59           Zn  tau(  59) = (   0.7774579   0.4701193   0.7774579  )
        60           Zn  tau(  60) = (   0.7774579   0.7774579   0.4701193  )
        61           S   tau(  61) = (   0.6265895   0.8757611   0.8757611  )
        62           S   tau(  62) = (   0.8757611   0.8757611   0.6265895  )
        63           S   tau(  63) = (   0.8757611   0.6265895   0.8757611  )

   Crystallographic axes

     site n.     atom                  positions (cryst. coord.)
         1           Zn  tau(   1) = (  0.0001122  0.0001122  0.0001122  )
         2           Zn  tau(   2) = (  0.0001442  0.2496628  0.2496628  )
         3           Zn  tau(   3) = (  0.2496628  0.0001442  0.2496628  )
         4           Zn  tau(   4) = (  0.2496628  0.2496628  0.0001442  )
         5           S   tau(   5) = (  0.1245559  0.3745487  0.3745487  )
         6           S   tau(   6) = (  0.1246764  0.1246764  0.1246764  )
         7           S   tau(   7) = (  0.3745487  0.3745487  0.1245559  )
         8           S   tau(   8) = (  0.3745487  0.1245559  0.3745487  )
         9           Zn  tau(   9) = (  0.0022835  0.0022835  0.4986853  )
        10           Zn  tau(  10) = (  0.0023997  0.2474620  0.7499908  )
        11           Zn  tau(  11) = (  0.2474620  0.0023997  0.7499908  )
        12           Zn  tau(  12) = (  0.2524827  0.2524827  0.4995461  )
        13           S   tau(  13) = (  0.1247681  0.3746802  0.8745649  )
        14           S   tau(  14) = (  0.1257710  0.1257710  0.6235254  )
        15           S   tau(  15) = (  0.3773777  0.3773777  0.6221813  )
        16           S   tau(  16) = (  0.3746802  0.1247681  0.8745649  )
        17           Zn  tau(  17) = (  0.0022835  0.4986853  0.0022835  )
        18           Zn  tau(  18) = (  0.0023997  0.7499908  0.2474620  )
        19           Zn  tau(  19) = (  0.2524827  0.4995461  0.2524827  )
        20           Zn  tau(  20) = (  0.2474620  0.7499908  0.0023997  )
        21           S   tau(  21) = (  0.1247681  0.8745649  0.3746802  )
        22           S   tau(  22) = (  0.1257710  0.6235254  0.1257710  )
        23           S   tau(  23) = (  0.3746802  0.8745649  0.1247681  )
        24           S   tau(  24) = (  0.3773777  0.6221813  0.3773777  )
        25           Zn  tau(  25) = (  0.0035780  0.5002371  0.5002371  )
        26           Zn  tau(  26) = (  0.0032808  0.7486777  0.7486777  )
        27           Zn  tau(  27) = (  0.2499037  0.4961869  0.7462466  )
        28           Zn  tau(  28) = (  0.2499037  0.7462466  0.4961869  )
        29           S   tau(  29) = (  0.1246284  0.8746328  0.8746328  )
        30           S   tau(  30) = (  0.1259487  0.6246984  0.6246984  )
        31           S   tau(  31) = (  0.3727047  0.8764716  0.6220581  )
        32           S   tau(  32) = (  0.3727047  0.6220581  0.8764716  )
        33           Zn  tau(  33) = (  0.4986853  0.0022835  0.0022835  )
        34           Zn  tau(  34) = (  0.4995461  0.2524827  0.2524827  )
        35           Zn  tau(  35) = (  0.7499908  0.0023997  0.2474620  )
        36           Zn  tau(  36) = (  0.7499908  0.2474620  0.0023997  )
        37           S   tau(  37) = (  0.6221813  0.3773777  0.3773777  )
        38           S   tau(  38) = (  0.6235254  0.1257710  0.1257710  )
        39           S   tau(  39) = (  0.8745649  0.3746802  0.1247681  )
        40           S   tau(  40) = (  0.8745649  0.1247681  0.3746802  )
        41           Zn  tau(  41) = (  0.5002371  0.0035780  0.5002371  )
        42           Zn  tau(  42) = (  0.4961869  0.2499037  0.7462466  )
        43           Zn  tau(  43) = (  0.7486777  0.0032808  0.7486777  )
        44           Zn  tau(  44) = (  0.7462466  0.2499037  0.4961869  )
        45           S   tau(  45) = (  0.6220581  0.3727047  0.8764716  )
        46           S   tau(  46) = (  0.6246984  0.1259487  0.6246984  )
        47           S   tau(  47) = (  0.8764716  0.3727047  0.6220581  )
        48           S   tau(  48) = (  0.8746328  0.1246284  0.8746328  )
        49           Zn  tau(  49) = (  0.5002371  0.5002371  0.0035780  )
        50           Zn  tau(  50) = (  0.4961869  0.7462466  0.2499037  )
        51           Zn  tau(  51) = (  0.7462466  0.4961869  0.2499037  )
        52           Zn  tau(  52) = (  0.7486777  0.7486777  0.0032808  )
        53           S   tau(  53) = (  0.6220581  0.8764716  0.3727047  )
        54           S   tau(  54) = (  0.6246984  0.6246984  0.1259487  )
        55           S   tau(  55) = (  0.8746328  0.8746328  0.1246284  )
        56           S   tau(  56) = (  0.8764716  0.6220581  0.3727047  )
        57           Co  tau(  57) = (  0.4853704  0.4853704  0.4853704  )
        58           Zn  tau(  58) = (  0.4701193  0.7774579  0.7774579  )
        59           Zn  tau(  59) = (  0.7774579  0.4701193  0.7774579  )
        60           Zn  tau(  60) = (  0.7774579  0.7774579  0.4701193  )
        61           S   tau(  61) = (  0.6265895  0.8757611  0.8757611  )
        62           S   tau(  62) = (  0.8757611  0.8757611  0.6265895  )
        63           S   tau(  63) = (  0.8757611  0.6265895  0.8757611  )

     number of k points=    13  Gaussian smearing, width (Ry)=  0.0010
                       cart. coord. in units 2pi/alat
        k(    1) = (   0.0000000   0.0000000   0.0000000), wk =   0.0156250
        k(    2) = (   0.0000000   0.0000000   0.2500000), wk =   0.0937500
        k(    3) = (   0.0000000   0.0000000  -0.5000000), wk =   0.0468750
        k(    4) = (   0.0000000   0.2500000   0.2500000), wk =   0.0937500
        k(    5) = (   0.0000000   0.2500000  -0.5000000), wk =   0.1875000
        k(    6) = (   0.0000000  -0.5000000  -0.5000000), wk =   0.0468750
        k(    7) = (   0.2500000   0.2500000   0.2500000), wk =   0.0312500
        k(    8) = (   0.2500000   0.2500000  -0.5000000), wk =   0.0937500
        k(    9) = (   0.2500000  -0.5000000  -0.5000000), wk =   0.0937500
        k(   10) = (  -0.5000000  -0.5000000  -0.5000000), wk =   0.0156250
        k(   11) = (  -0.2500000   0.0000000   0.2500000), wk =   0.0937500
        k(   12) = (   0.2500000  -0.2500000   0.2500000), wk =   0.0937500
        k(   13) = (   0.2500000  -0.2500000  -0.5000000), wk =   0.0937500

                       cryst. coord.
        k(    1) = (   0.0000000   0.0000000   0.0000000), wk =   0.0156250
        k(    2) = (   0.0000000   0.0000000   0.2500000), wk =   0.0937500
        k(    3) = (   0.0000000   0.0000000  -0.5000000), wk =   0.0468750
        k(    4) = (   0.0000000   0.2500000   0.2500000), wk =   0.0937500
        k(    5) = (   0.0000000   0.2500000  -0.5000000), wk =   0.1875000
        k(    6) = (   0.0000000  -0.5000000  -0.5000000), wk =   0.0468750
        k(    7) = (   0.2500000   0.2500000   0.2500000), wk =   0.0312500
        k(    8) = (   0.2500000   0.2500000  -0.5000000), wk =   0.0937500
        k(    9) = (   0.2500000  -0.5000000  -0.5000000), wk =   0.0937500
        k(   10) = (  -0.5000000  -0.5000000  -0.5000000), wk =   0.0156250
        k(   11) = (  -0.2500000   0.0000000   0.2500000), wk =   0.0937500
        k(   12) = (   0.2500000  -0.2500000   0.2500000), wk =   0.0937500
        k(   13) = (   0.2500000  -0.2500000  -0.5000000), wk =   0.0937500

     Dense  grid:  2160009 G-vectors     FFT dimensions: ( 162, 162, 162)

     Dynamical RAM for                 wfc:      12.65 MB

     Dynamical RAM for     wfc (w. buffer):      63.25 MB

     Dynamical RAM for           str. fact:       0.88 MB

     Dynamical RAM for           local pot:       0.00 MB

     Dynamical RAM for          nlocal pot:      41.70 MB

     Dynamical RAM for                qrad:       5.90 MB

     Dynamical RAM for          rho,v,vnew:       4.17 MB

     Dynamical RAM for               rhoin:       1.39 MB

     Dynamical RAM for            rho*nmix:       9.42 MB

     Dynamical RAM for           G-vectors:       1.25 MB

     Dynamical RAM for          h,s,v(r/c):       2.40 MB

     Dynamical RAM for          <psi|beta>:       5.95 MB

     Dynamical RAM for                 psi:      25.30 MB

     Dynamical RAM for                hpsi:      25.30 MB

     Dynamical RAM for                spsi:      25.30 MB

     Dynamical RAM for      wfcinit/wfcrot:      34.28 MB

     Dynamical RAM for           addusdens:       9.67 MB

     Estimated static dynamical RAM per process >     122.12 MB

     Estimated max dynamical RAM per process >     215.79 MB

     Estimated total dynamical RAM >     159.03 GB

     Check: negative core charge=   -0.000001
     Generating pointlists ...
     new r_m :   0.0846 (alat units)  1.7397 (a.u.) for type    1
     new r_m :   0.0860 (alat units)  1.7684 (a.u.) for type    2
     new r_m :   0.0846 (alat units)  1.7397 (a.u.) for type    3

     Initial potential from superposition of free atoms

     starting charge     574.8832, renormalised to     574.0000
     Starting wfcs are  413 randomized atomic wfcs
     Checking if some PAW data can be deallocated... 
       PAW data deallocated on  400 nodes for type:  1
       PAW data deallocated on  396 nodes for type:  2
       PAW data deallocated on  772 nodes for type:  3

     total cpu time spent up to now is       10.7 secs

     Self-consistent Calculation

     iteration #  1     ecut=   150.00 Ry     beta= 0.70
     Davidson diagonalization with overlap

---- Real-time Memory Report at c_bands before calling an iterative solver
          1313 MiB given to the printing process from OS
             0 MiB allocation reported by mallinfo(arena+hblkhd)
        203745 MiB available memory on the node where the printing process lives
------------------
     ethr =  1.00E-02,  avg # of iterations =  4.3

     Threshold (ethr) on eigenvalues was too large:
     Diagonalizing with lowered threshold

     Davidson diagonalization with overlap

---- Real-time Memory Report at c_bands before calling an iterative solver
          1433 MiB given to the printing process from OS
             0 MiB allocation reported by mallinfo(arena+hblkhd)
        200779 MiB available memory on the node where the printing process lives
------------------
     ethr =  5.95E-04,  avg # of iterations =  2.5

     total cpu time spent up to now is       46.7 secs

     total energy              =   -9989.83858049 Ry
     estimated scf accuracy    <       3.25738340 Ry

     total magnetization       =     2.00 Bohr mag/cell
     absolute magnetization    =     2.13 Bohr mag/cell

     iteration #  2     ecut=   150.00 Ry     beta= 0.70
     Davidson diagonalization with overlap

---- Real-time Memory Report at c_bands before calling an iterative solver
          1448 MiB given to the printing process from OS
             0 MiB allocation reported by mallinfo(arena+hblkhd)
        200769 MiB available memory on the node where the printing process lives
------------------
     ethr =  5.67E-04,  avg # of iterations = 16.7

     total cpu time spent up to now is       77.9 secs

     total energy              =   -9986.35122364 Ry
     estimated scf accuracy    <      55.16400849 Ry

     total magnetization       =     0.08 Bohr mag/cell
     absolute magnetization    =     0.17 Bohr mag/cell

     iteration #  3     ecut=   150.00 Ry     beta= 0.70
     Davidson diagonalization with overlap

---- Real-time Memory Report at c_bands before calling an iterative solver
          1482 MiB given to the printing process from OS
             0 MiB allocation reported by mallinfo(arena+hblkhd)
        200349 MiB available memory on the node where the printing process lives
------------------
     ethr =  5.67E-04,  avg # of iterations =  8.6

     total cpu time spent up to now is      109.9 secs

     total energy              =   -9990.67388596 Ry
     estimated scf accuracy    <       8.13841712 Ry

     total magnetization       =     0.04 Bohr mag/cell
     absolute magnetization    =     0.28 Bohr mag/cell

     iteration #  4     ecut=   150.00 Ry     beta= 0.70
     Davidson diagonalization with overlap

---- Real-time Memory Report at c_bands before calling an iterative solver
          1500 MiB given to the printing process from OS
             0 MiB allocation reported by mallinfo(arena+hblkhd)
        200083 MiB available memory on the node where the printing process lives
------------------
     ethr =  5.67E-04,  avg # of iterations =  2.1

     total cpu time spent up to now is      126.1 secs

     total energy              =   -9991.10917266 Ry
     estimated scf accuracy    <       0.66901217 Ry

     total magnetization       =     2.00 Bohr mag/cell
     absolute magnetization    =     2.06 Bohr mag/cell

     iteration #  5     ecut=   150.00 Ry     beta= 0.70
     Davidson diagonalization with overlap

---- Real-time Memory Report at c_bands before calling an iterative solver
          1509 MiB given to the printing process from OS
             0 MiB allocation reported by mallinfo(arena+hblkhd)
        199914 MiB available memory on the node where the printing process lives
------------------
     ethr =  1.17E-04,  avg # of iterations =  5.5

     total cpu time spent up to now is      146.2 secs

     total energy              =   -9991.20071991 Ry
     estimated scf accuracy    <       0.15196203 Ry

     total magnetization       =     2.00 Bohr mag/cell
     absolute magnetization    =     2.09 Bohr mag/cell

     iteration #  6     ecut=   150.00 Ry     beta= 0.70
     Davidson diagonalization with overlap

---- Real-time Memory Report at c_bands before calling an iterative solver
          1521 MiB given to the printing process from OS
             0 MiB allocation reported by mallinfo(arena+hblkhd)
        199700 MiB available memory on the node where the printing process lives
------------------
     c_bands:  1 eigenvalues not converged
     c_bands:  1 eigenvalues not converged
     c_bands:  2 eigenvalues not converged
     ethr =  2.65E-05,  avg # of iterations = 17.3

     total cpu time spent up to now is      174.7 secs

     total energy              =   -9991.21653711 Ry
     estimated scf accuracy    <       0.05062096 Ry

     total magnetization       =     2.00 Bohr mag/cell
     absolute magnetization    =     2.11 Bohr mag/cell

     iteration #  7     ecut=   150.00 Ry     beta= 0.70
     Davidson diagonalization with overlap

---- Real-time Memory Report at c_bands before calling an iterative solver
          1540 MiB given to the printing process from OS
             0 MiB allocation reported by mallinfo(arena+hblkhd)
        199495 MiB available memory on the node where the printing process lives
------------------
     c_bands:  1 eigenvalues not converged
     ethr =  8.82E-06,  avg # of iterations =  6.7

     total cpu time spent up to now is      196.0 secs

     total energy              =   -9991.22018126 Ry
     estimated scf accuracy    <       0.01543577 Ry

     total magnetization       =     2.00 Bohr mag/cell
     absolute magnetization    =     2.15 Bohr mag/cell

     iteration #  8     ecut=   150.00 Ry     beta= 0.70
     Davidson diagonalization with overlap

---- Real-time Memory Report at c_bands before calling an iterative solver
          1551 MiB given to the printing process from OS
             0 MiB allocation reported by mallinfo(arena+hblkhd)
        199287 MiB available memory on the node where the printing process lives
------------------
     c_bands:  1 eigenvalues not converged
     ethr =  2.69E-06,  avg # of iterations = 14.0

     total cpu time spent up to now is      227.9 secs

     total energy              =   -9991.22193119 Ry
     estimated scf accuracy    <       0.00558643 Ry

     total magnetization       =     2.00 Bohr mag/cell
     absolute magnetization    =     2.17 Bohr mag/cell

     iteration #  9     ecut=   150.00 Ry     beta= 0.70
     Davidson diagonalization with overlap

---- Real-time Memory Report at c_bands before calling an iterative solver
          1569 MiB given to the printing process from OS
             0 MiB allocation reported by mallinfo(arena+hblkhd)
        199022 MiB available memory on the node where the printing process lives
------------------
     ethr =  9.73E-07,  avg # of iterations =  4.6

     total cpu time spent up to now is      248.0 secs

     total energy              =   -9991.22284689 Ry
     estimated scf accuracy    <       0.00161497 Ry

     total magnetization       =     2.00 Bohr mag/cell
     absolute magnetization    =     2.20 Bohr mag/cell

     iteration # 10     ecut=   150.00 Ry     beta= 0.70
     Davidson diagonalization with overlap

---- Real-time Memory Report at c_bands before calling an iterative solver
          1575 MiB given to the printing process from OS
             0 MiB allocation reported by mallinfo(arena+hblkhd)
        198840 MiB available memory on the node where the printing process lives
------------------
     ethr =  2.81E-07,  avg # of iterations =  5.0

     total cpu time spent up to now is      266.7 secs

     total energy              =   -9991.22320842 Ry
     estimated scf accuracy    <       0.00011914 Ry

     total magnetization       =     2.00 Bohr mag/cell
     absolute magnetization    =     2.22 Bohr mag/cell

     iteration # 11     ecut=   150.00 Ry     beta= 0.70
     Davidson diagonalization with overlap

---- Real-time Memory Report at c_bands before calling an iterative solver
          1582 MiB given to the printing process from OS
             0 MiB allocation reported by mallinfo(arena+hblkhd)
        198657 MiB available memory on the node where the printing process lives
------------------
     ethr =  2.08E-08,  avg # of iterations =  5.5

     total cpu time spent up to now is      289.8 secs

     total energy              =   -9991.22324229 Ry
     estimated scf accuracy    <       0.00005952 Ry

     total magnetization       =     2.00 Bohr mag/cell
     absolute magnetization    =     2.22 Bohr mag/cell

     iteration # 12     ecut=   150.00 Ry     beta= 0.70
     Davidson diagonalization with overlap

---- Real-time Memory Report at c_bands before calling an iterative solver
          1590 MiB given to the printing process from OS
             0 MiB allocation reported by mallinfo(arena+hblkhd)
        198625 MiB available memory on the node where the printing process lives
------------------
     ethr =  1.04E-08,  avg # of iterations =  3.1

     total cpu time spent up to now is      307.8 secs

     total energy              =   -9991.22325182 Ry
     estimated scf accuracy    <       0.00000667 Ry

     total magnetization       =     2.00 Bohr mag/cell
     absolute magnetization    =     2.22 Bohr mag/cell

     iteration # 13     ecut=   150.00 Ry     beta= 0.70
     Davidson diagonalization with overlap

---- Real-time Memory Report at c_bands before calling an iterative solver
          1593 MiB given to the printing process from OS
             0 MiB allocation reported by mallinfo(arena+hblkhd)
        198601 MiB available memory on the node where the printing process lives
------------------
     ethr =  1.16E-09,  avg # of iterations =  5.3

     total cpu time spent up to now is      327.5 secs

     total energy              =   -9991.22325324 Ry
     estimated scf accuracy    <       0.00000407 Ry

     total magnetization       =     2.00 Bohr mag/cell
     absolute magnetization    =     2.22 Bohr mag/cell

     iteration # 14     ecut=   150.00 Ry     beta= 0.70
     Davidson diagonalization with overlap

---- Real-time Memory Report at c_bands before calling an iterative solver
          1597 MiB given to the printing process from OS
             0 MiB allocation reported by mallinfo(arena+hblkhd)
        198590 MiB available memory on the node where the printing process lives
------------------
     ethr =  7.08E-10,  avg # of iterations =  5.7

     total cpu time spent up to now is      346.8 secs

     total energy              =   -9991.22325408 Ry
     estimated scf accuracy    <       0.00000065 Ry

     total magnetization       =     2.00 Bohr mag/cell
     absolute magnetization    =     2.22 Bohr mag/cell

     iteration # 15     ecut=   150.00 Ry     beta= 0.70
     Davidson diagonalization with overlap

---- Real-time Memory Report at c_bands before calling an iterative solver
          1602 MiB given to the printing process from OS
             0 MiB allocation reported by mallinfo(arena+hblkhd)
        198600 MiB available memory on the node where the printing process lives
------------------
     ethr =  1.12E-10,  avg # of iterations =  5.2

     total cpu time spent up to now is      366.4 secs

     total energy              =   -9991.22325420 Ry
     estimated scf accuracy    <       0.00000009 Ry

     total magnetization       =     2.00 Bohr mag/cell
     absolute magnetization    =     2.22 Bohr mag/cell

     iteration # 16     ecut=   150.00 Ry     beta= 0.70
     Davidson diagonalization with overlap

---- Real-time Memory Report at c_bands before calling an iterative solver
          1607 MiB given to the printing process from OS
             0 MiB allocation reported by mallinfo(arena+hblkhd)
        198568 MiB available memory on the node where the printing process lives
------------------
     ethr =  1.64E-11,  avg # of iterations =  4.8

     total cpu time spent up to now is      387.8 secs

     total energy              =   -9991.22325424 Ry
     estimated scf accuracy    <       0.00000002 Ry

     total magnetization       =     2.00 Bohr mag/cell
     absolute magnetization    =     2.22 Bohr mag/cell

     iteration # 17     ecut=   150.00 Ry     beta= 0.70
     Davidson diagonalization with overlap

---- Real-time Memory Report at c_bands before calling an iterative solver
          1612 MiB given to the printing process from OS
             0 MiB allocation reported by mallinfo(arena+hblkhd)
        198537 MiB available memory on the node where the printing process lives
------------------
     ethr =  2.93E-12,  avg # of iterations =  4.9
 
     Magnetic moment per site  (integrated on atomic sphere of radius R)
     atom   1 (R=0.086)  charge=  9.9971  magn= -0.0001
     atom   2 (R=0.086)  charge=  9.9972  magn= -0.0001
     atom   3 (R=0.086)  charge=  9.9972  magn= -0.0001
     atom   4 (R=0.086)  charge=  9.9972  magn= -0.0001
     atom   5 (R=0.085)  charge=  3.6179  magn= -0.0001
     atom   6 (R=0.085)  charge=  3.6173  magn=  0.0002
     atom   7 (R=0.085)  charge=  3.6179  magn= -0.0001
     atom   8 (R=0.085)  charge=  3.6179  magn= -0.0001
     atom   9 (R=0.086)  charge=  9.9972  magn=  0.0004
     atom  10 (R=0.086)  charge=  9.9983  magn= -0.0003
     atom  11 (R=0.086)  charge=  9.9983  magn= -0.0003
     atom  12 (R=0.086)  charge=  9.9973  magn= -0.0002
     atom  13 (R=0.085)  charge=  3.6163  magn=  0.0028
     atom  14 (R=0.085)  charge=  3.6213  magn= -0.0008
     atom  15 (R=0.085)  charge=  3.6317  magn=  0.0189
     atom  16 (R=0.085)  charge=  3.6163  magn=  0.0028
     atom  17 (R=0.086)  charge=  9.9972  magn=  0.0004
     atom  18 (R=0.086)  charge=  9.9983  magn= -0.0003
     atom  19 (R=0.086)  charge=  9.9973  magn= -0.0002
     atom  20 (R=0.086)  charge=  9.9983  magn= -0.0003
     atom  21 (R=0.085)  charge=  3.6163  magn=  0.0028
     atom  22 (R=0.085)  charge=  3.6213  magn= -0.0008
     atom  23 (R=0.085)  charge=  3.6163  magn=  0.0028
     atom  24 (R=0.085)  charge=  3.6317  magn=  0.0189
     atom  25 (R=0.086)  charge=  9.9992  magn= -0.0000
     atom  26 (R=0.086)  charge=  9.9985  magn=  0.0001
     atom  27 (R=0.086)  charge=  9.9996  magn=  0.0031
     atom  28 (R=0.086)  charge=  9.9996  magn=  0.0031
     atom  29 (R=0.085)  charge=  3.6160  magn= -0.0000
     atom  30 (R=0.085)  charge=  3.6235  magn= -0.0000
     atom  31 (R=0.085)  charge=  3.6181  magn= -0.0008
     atom  32 (R=0.085)  charge=  3.6181  magn= -0.0008
     atom  33 (R=0.086)  charge=  9.9972  magn=  0.0004
     atom  34 (R=0.086)  charge=  9.9973  magn= -0.0002
     atom  35 (R=0.086)  charge=  9.9983  magn= -0.0003
     atom  36 (R=0.086)  charge=  9.9983  magn= -0.0003
     atom  37 (R=0.085)  charge=  3.6317  magn=  0.0189
     atom  38 (R=0.085)  charge=  3.6213  magn= -0.0008
     atom  39 (R=0.085)  charge=  3.6163  magn=  0.0028
     atom  40 (R=0.085)  charge=  3.6163  magn=  0.0028
     atom  41 (R=0.086)  charge=  9.9992  magn= -0.0000
     atom  42 (R=0.086)  charge=  9.9996  magn=  0.0031
     atom  43 (R=0.086)  charge=  9.9985  magn=  0.0001
     atom  44 (R=0.086)  charge=  9.9996  magn=  0.0031
     atom  45 (R=0.085)  charge=  3.6181  magn= -0.0008
     atom  46 (R=0.085)  charge=  3.6235  magn= -0.0000
     atom  47 (R=0.085)  charge=  3.6181  magn= -0.0008
     atom  48 (R=0.085)  charge=  3.6160  magn= -0.0000
     atom  49 (R=0.086)  charge=  9.9992  magn= -0.0000
     atom  50 (R=0.086)  charge=  9.9996  magn=  0.0031
     atom  51 (R=0.086)  charge=  9.9996  magn=  0.0031
     atom  52 (R=0.086)  charge=  9.9985  magn=  0.0001
     atom  53 (R=0.085)  charge=  3.6181  magn= -0.0008
     atom  54 (R=0.085)  charge=  3.6235  magn= -0.0000
     atom  55 (R=0.085)  charge=  3.6160  magn= -0.0000
     atom  56 (R=0.085)  charge=  3.6181  magn= -0.0008
     atom  57 (R=0.085)  charge= 14.9918  magn=  1.6953
     atom  58 (R=0.086)  charge= 10.0127  magn= -0.0005
     atom  59 (R=0.086)  charge= 10.0127  magn= -0.0005
     atom  60 (R=0.086)  charge= 10.0127  magn= -0.0005
     atom  61 (R=0.085)  charge=  3.6169  magn= -0.0003
     atom  62 (R=0.085)  charge=  3.6169  magn= -0.0003
     atom  63 (R=0.085)  charge=  3.6169  magn= -0.0003

     total cpu time spent up to now is      408.8 secs

     End of self-consistent calculation

 ------ SPIN UP ------------


          k = 0.0000 0.0000 0.0000 (269825 PWs)   bands (ev):

   -88.2770 -51.7791 -51.7791 -51.2058  -7.6215  -7.1579  -7.1579  -7.0998
    -7.0998  -7.0950  -7.0008  -6.8898  -6.8898  -6.8316  -6.8262  -6.7787
    -6.7787  -6.7650  -6.7650  -6.7265  -6.7195  -6.7195  -6.6931  -6.6695
    -6.6695  -6.6635  -6.5379  -6.4992  -6.4992  -6.4403  -6.3972  -6.3972
    -6.3764  -6.3472  -6.3472  -1.1157  -1.1157  -1.1147  -1.0977  -1.0922
    -1.0922  -1.0866  -1.0866  -1.0743  -1.0028  -0.9857  -0.9857  -0.9642
    -0.9642  -0.9530  -0.8364  -0.8364  -0.8268  -0.7813  -0.7813  -0.7794
    -0.7609  -0.7609  -0.7431  -0.7388  -0.7388  -0.7273  -0.7221  -0.7221
    -0.7182  -0.7099  -0.7099  -0.7080  -0.6950  -0.6950  -0.6840  -0.6840
    -0.6766  -0.6757  -0.6692  -0.6692  -0.6611  -0.6589  -0.6589  -0.6545
    -0.6485  -0.6449  -0.6449  -0.6404  -0.6349  -0.6326  -0.6326  -0.6303
    -0.6259  -0.6259  -0.6185  -0.6185  -0.6133  -0.6035  -0.6035  -0.5991
    -0.5884  -0.5884  -0.5850  -0.5800  -0.5800  -0.5451  -0.5451  -0.5423
    -0.5385  -0.5352  -0.5352  -0.5250  -0.5241  -0.5110  -0.5110  -0.5085
    -0.5085  -0.4870  -0.4870  -0.4820  -0.4795  -0.4795  -0.4692  -0.4692
    -0.4628  -0.4578  -0.4578  -0.4468  -0.4150  -0.3904  -0.3904  -0.3903
    -0.3850  -0.3850  -0.3792  -0.3722  -0.3722  -0.3609  -0.3609  -0.3530
    -0.3505  -0.3431  -0.3431  -0.3400  -0.3368  -0.3368  -0.3243  -0.3187
    -0.3187  -0.3165  -0.3145  -0.3145  -0.3089  -0.3057  -0.3057  -0.3045
    -0.2944  -0.2944  -0.2764  -0.2764  -0.2736  -0.2653  -0.2653  -0.2606
    -0.2548  -0.2548  -0.2541  -0.2541  -0.2472  -0.2436  -0.2422  -0.2422
    -0.2231  -0.2215  -0.2215  -0.2053  -0.1873  -0.1873  -0.1792  -0.1771
    -0.1771  -0.1618  -0.1343  -0.1343  -0.1259  -0.1259  -0.1213  -0.0925
     0.0222   0.0305   0.0305   0.0409   0.0714   0.0714   0.1102   0.3191
     0.3329   0.3329   0.8808   0.8808   0.9246   0.9256   0.9726   0.9726
     1.0177   1.0177   1.1283   1.3678   1.3682   1.3682   1.4791   1.4791
     1.5349   1.5378   1.5684   1.5684   1.6749   1.6749   1.9629   2.5321
     2.5321   2.6409   2.6448   2.6448   2.6644   2.6771   2.6771   2.7448
     2.7694   2.7694   2.7864   2.8231   2.8305   2.8305   2.8881   2.8881
     2.9124   2.9235   2.9235   2.9552   2.9552   2.9771   2.9843   3.0158
     3.0158   3.0458   3.1544   3.1544   3.1774   3.2657   3.2657   3.2910
     3.6063   3.6063   3.6882   3.7935   3.7935   4.1052   4.1370   4.1370
     4.1706   4.2229   4.2229   4.2392   4.2870   4.2870   4.3430   4.3972
     4.3972   4.4287   4.4287   4.4451   4.4481   4.4481   4.5057   4.5470
     4.5470   4.5653   4.5653   4.5696   4.5740   4.6120   4.6120   4.6211
     5.1905   5.1905   5.3122   5.7301   5.7301   5.9255   6.2006   6.2006
     7.3070   7.9633   8.6352   8.6533   8.6533   8.7615   9.0037   9.0037
     9.2954   9.2954   9.3341   9.5426   9.5797   9.5797   9.6765   9.6765
     9.7739   9.8916   9.8916   9.9839   9.9839   9.9866  10.0352  10.0352
    10.0521  10.0680  10.1329  10.1329  10.1434  10.1816  10.1834  10.1834
    10.3117  10.3117  10.4007  10.6552  10.6552  10.8774  11.1093  11.1291
    11.1291  11.2880  11.2880  11.3311  11.3419  11.3419  11.4603  11.7565
    11.7565  11.7942  11.8047  11.8048  11.8824  11.9435  11.9902  11.9913

     occupation numbers 
     1.0000   1.0000   1.0000   1.0000   1.0000   1.0000   1.0000   1.0000
     1.0000   1.0000   1.0000   1.0000   1.0000   1.0000   1.0000   1.0000
     1.0000   1.0000   1.0000   1.0000   1.0000   1.0000   1.0000   1.0000
     1.0000   1.0000   1.0000   1.0000   1.0000   1.0000   1.0000   1.0000
     1.0000   1.0000   1.0000   1.0000   1.0000   1.0000   1.0000   1.0000
     1.0000   1.0000   1.0000   1.0000   1.0000   1.0000   1.0000   1.0000
     1.0000   1.0000   1.0000   1.0000   1.0000   1.0000   1.0000   1.0000
     1.0000   1.0000   1.0000   1.0000   1.0000   1.0000   1.0000   1.0000
     1.0000   1.0000   1.0000   1.0000   1.0000   1.0000   1.0000   1.0000
     1.0000   1.0000   1.0000   1.0000   1.0000   1.0000   1.0000   1.0000
     1.0000   1.0000   1.0000   1.0000   1.0000   1.0000   1.0000   1.0000
     1.0000   1.0000   1.0000   1.0000   1.0000   1.0000   1.0000   1.0000
     1.0000   1.0000   1.0000   1.0000   1.0000   1.0000   1.0000   1.0000
     1.0000   1.0000   1.0000   1.0000   1.0000   1.0000   1.0000   1.0000
     1.0000   1.0000   1.0000   1.0000   1.0000   1.0000   1.0000   1.0000
     1.0000   1.0000   1.0000   1.0000   1.0000   1.0000   1.0000   1.0000
     1.0000   1.0000   1.0000   1.0000   1.0000   1.0000   1.0000   1.0000
     1.0000   1.0000   1.0000   1.0000   1.0000   1.0000   1.0000   1.0000
     1.0000   1.0000   1.0000   1.0000   1.0000   1.0000   1.0000   1.0000
     1.0000   1.0000   1.0000   1.0000   1.0000   1.0000   1.0000   1.0000
     1.0000   1.0000   1.0000   1.0000   1.0000   1.0000   1.0000   1.0000
     1.0000   1.0000   1.0000   1.0000   1.0000   1.0000   1.0000   1.0000
     1.0000   1.0000   1.0000   1.0000   1.0000   1.0000   1.0000   1.0000
     1.0000   1.0000   1.0000   1.0000   1.0000   1.0000   1.0000   1.0000
     1.0000   1.0000   1.0000   1.0000   1.0000   1.0000   1.0000   1.0000
     1.0000   1.0000   1.0000   1.0000   1.0000   1.0000   1.0000   1.0000
     1.0000   1.0000   1.0000   1.0000   1.0000   1.0000   1.0000   1.0000
     1.0000   1.0000   1.0000   1.0000   1.0000   1.0000   1.0000   1.0000
     1.0000   1.0000   1.0000   1.0000   1.0000   1.0000   1.0000   1.0000
     1.0000   1.0000   1.0000   1.0000   1.0000   1.0000   1.0000   1.0000
     1.0000   1.0000   1.0000   1.0000   1.0000   1.0000   1.0000   1.0000
     1.0000   1.0000   1.0000   1.0000   1.0000   1.0000   1.0000   1.0000
     1.0000   1.0000   1.0000   1.0000   1.0000   1.0000   1.0000   1.0000
     1.0000   1.0000   1.0000   1.0000   1.0000   1.0000   1.0000   1.0000
     1.0000   1.0000   1.0000   1.0000   1.0000   1.0000   1.0000   1.0000
     1.0000   1.0000   1.0000   1.0000   1.0000   1.0000   1.0000   1.0000
     0.0000   0.0000   0.0000   0.0000   0.0000   0.0000   0.0000   0.0000
     0.0000   0.0000   0.0000   0.0000   0.0000   0.0000   0.0000   0.0000
     0.0000   0.0000   0.0000   0.0000   0.0000   0.0000   0.0000   0.0000
     0.0000   0.0000   0.0000   0.0000   0.0000   0.0000   0.0000   0.0000
     0.0000   0.0000   0.0000   0.0000   0.0000   0.0000   0.0000   0.0000
     0.0000   0.0000   0.0000   0.0000   0.0000   0.0000   0.0000   0.0000
     0.0000   0.0000   0.0000   0.0000   0.0000   0.0000   0.0000   0.0000

          k = 0.0000 0.0000 0.2500 (269876 PWs)   bands (ev):

   -88.2770 -51.7791 -51.7791 -51.2058  -7.5856  -7.3129  -7.1400  -7.0909
    -7.0786  -7.0220  -6.9479  -6.9477  -6.8979  -6.8898  -6.8336  -6.8120
    -6.8043  -6.7716  -6.7314  -6.7285  -6.7046  -6.6830  -6.6608  -6.6429
    -6.6358  -6.5983  -6.5412  -6.5052  -6.5014  -6.4529  -6.4166  -6.4151
    -6.3907  -6.3672  -6.3501  -1.1152  -1.1139  -1.1136  -1.0972  -1.0922
    -1.0910  -1.0860  -1.0850  -1.0761  -0.9989  -0.9858  -0.9823  -0.9673
    -0.9635  -0.9559  -0.8302  -0.8240  -0.8155  -0.7859  -0.7808  -0.7740
    -0.7603  -0.7573  -0.7439  -0.7397  -0.7362  -0.7257  -0.7251  -0.7232
    -0.7163  -0.7135  -0.7126  -0.7104  -0.6989  -0.6970  -0.6934  -0.6876
    -0.6843  -0.6819  -0.6730  -0.6728  -0.6655  -0.6636  -0.6601  -0.6583
    -0.6539  -0.6526  -0.6468  -0.6463  -0.6367  -0.6364  -0.6331  -0.6318
    -0.6280  -0.6273  -0.6220  -0.6197  -0.6143  -0.6060  -0.6056  -0.5996
    -0.5943  -0.5846  -0.5824  -0.5822  -0.5769  -0.5741  -0.5664  -0.5630
    -0.5559  -0.5425  -0.5360  -0.5290  -0.5285  -0.5204  -0.5160  -0.5001
    -0.4955  -0.4890  -0.4814  -0.4761  -0.4742  -0.4674  -0.4644  -0.4506
    -0.4450  -0.4349  -0.4233  -0.4162  -0.4047  -0.3960  -0.3894  -0.3826
    -0.3813  -0.3784  -0.3763  -0.3746  -0.3588  -0.3585  -0.3488  -0.3475
    -0.3453  -0.3439  -0.3428  -0.3413  -0.3365  -0.3298  -0.3283  -0.3255
    -0.3231  -0.3175  -0.3136  -0.3098  -0.3081  -0.3045  -0.3018  -0.2986
    -0.2975  -0.2818  -0.2811  -0.2788  -0.2730  -0.2680  -0.2656  -0.2632
    -0.2607  -0.2566  -0.2547  -0.2504  -0.2483  -0.2397  -0.2372  -0.2326
    -0.2292  -0.2245  -0.2202  -0.2052  -0.2051  -0.1933  -0.1909  -0.1832
    -0.1805  -0.1776  -0.1645  -0.1623  -0.1503  -0.1471  -0.1239  -0.1145
     0.0012   0.0044   0.0087   0.0136   0.0421   0.0423   0.3141   0.4926
     0.4967   0.5081   0.8740   0.8849   0.9277   0.9324   0.9627   0.9729
     0.9892   1.0608   1.1139   1.1774   1.1922   1.2321   1.2401   1.2855
     1.3854   1.4007   1.5547   1.8428   1.8917   1.9012   1.9741   2.2155
     2.3984   2.4501   2.4927   2.5294   2.5544   2.5814   2.5968   2.6554
     2.6696   2.7042   2.7487   2.7820   2.8588   2.8827   2.8852   2.9073
     3.0767   3.1088   3.1245   3.1503   3.1531   3.1987   3.2077   3.2255
     3.2650   3.2719   3.2721   3.3087   3.3207   3.3317   3.3355   3.4439
     3.5601   3.6357   3.7568   3.8074   3.8598   3.9012   3.9133   4.0549
     4.0919   4.1359   4.1394   4.2187   4.2460   4.2522   4.2855   4.2928
     4.3046   4.3317   4.3570   4.3756   4.4026   4.4316   4.4921   4.5155
     4.5421   4.5647   4.5730   4.5812   4.6022   4.6311   4.6406   4.6537
     4.9303   5.1154   5.1871   5.6910   5.7216   5.9283   6.1494   6.1910
     7.6624   8.1309   8.8069   8.8318   8.8341   8.9584   9.0757   9.1323
     9.2200   9.3396   9.3399   9.4693   9.5432   9.6871   9.6991   9.7277
     9.7668   9.7992   9.8897   9.9293   9.9643   9.9766  10.0133  10.0559
    10.0885  10.0988  10.1593  10.1757  10.2077  10.2272  10.2503  10.2581
    10.3138  10.3930  10.4565  10.6352  10.6886  10.7069  10.8203  10.8753
    10.8805  11.0038  11.0721  11.1911  11.2933  11.3534  11.4665  11.5641
    11.5790  11.6177  11.6852  11.7728  11.7974  11.8147  11.8290  11.8442

     occupation numbers 
     1.0000   1.0000   1.0000   1.0000   1.0000   1.0000   1.0000   1.0000
     1.0000   1.0000   1.0000   1.0000   1.0000   1.0000   1.0000   1.0000
     1.0000   1.0000   1.0000   1.0000   1.0000   1.0000   1.0000   1.0000
     1.0000   1.0000   1.0000   1.0000   1.0000   1.0000   1.0000   1.0000
     1.0000   1.0000   1.0000   1.0000   1.0000   1.0000   1.0000   1.0000
     1.0000   1.0000   1.0000   1.0000   1.0000   1.0000   1.0000   1.0000
     1.0000   1.0000   1.0000   1.0000   1.0000   1.0000   1.0000   1.0000
     1.0000   1.0000   1.0000   1.0000   1.0000   1.0000   1.0000   1.0000
     1.0000   1.0000   1.0000   1.0000   1.0000   1.0000   1.0000   1.0000
     1.0000   1.0000   1.0000   1.0000   1.0000   1.0000   1.0000   1.0000
     1.0000   1.0000   1.0000   1.0000   1.0000   1.0000   1.0000   1.0000
     1.0000   1.0000   1.0000   1.0000   1.0000   1.0000   1.0000   1.0000
     1.0000   1.0000   1.0000   1.0000   1.0000   1.0000   1.0000   1.0000
     1.0000   1.0000   1.0000   1.0000   1.0000   1.0000   1.0000   1.0000
     1.0000   1.0000   1.0000   1.0000   1.0000   1.0000   1.0000   1.0000
     1.0000   1.0000   1.0000   1.0000   1.0000   1.0000   1.0000   1.0000
     1.0000   1.0000   1.0000   1.0000   1.0000   1.0000   1.0000   1.0000
     1.0000   1.0000   1.0000   1.0000   1.0000   1.0000   1.0000   1.0000
     1.0000   1.0000   1.0000   1.0000   1.0000   1.0000   1.0000   1.0000
     1.0000   1.0000   1.0000   1.0000   1.0000   1.0000   1.0000   1.0000
     1.0000   1.0000   1.0000   1.0000   1.0000   1.0000   1.0000   1.0000
     1.0000   1.0000   1.0000   1.0000   1.0000   1.0000   1.0000   1.0000
     1.0000   1.0000   1.0000   1.0000   1.0000   1.0000   1.0000   1.0000
     1.0000   1.0000   1.0000   1.0000   1.0000   1.0000   1.0000   1.0000
     1.0000   1.0000   1.0000   1.0000   1.0000   1.0000   1.0000   1.0000
     1.0000   1.0000   1.0000   1.0000   1.0000   1.0000   1.0000   1.0000
     1.0000   1.0000   1.0000   1.0000   1.0000   1.0000   1.0000   1.0000
     1.0000   1.0000   1.0000   1.0000   1.0000   1.0000   1.0000   1.0000
     1.0000   1.0000   1.0000   1.0000   1.0000   1.0000   1.0000   1.0000
     1.0000   1.0000   1.0000   1.0000   1.0000   1.0000   1.0000   1.0000
     1.0000   1.0000   1.0000   1.0000   1.0000   1.0000   1.0000   1.0000
     1.0000   1.0000   1.0000   1.0000   1.0000   1.0000   1.0000   1.0000
     1.0000   1.0000   1.0000   1.0000   1.0000   1.0000   1.0000   1.0000
     1.0000   1.0000   1.0000   1.0000   1.0000   1.0000   1.0000   1.0000
     1.0000   1.0000   1.0000   1.0000   1.0000   1.0000   1.0000   1.0000
     1.0000   1.0000   1.0000   1.0000   1.0000   1.0000   1.0000   1.0000
     0.0000   0.0000   0.0000   0.0000   0.0000   0.0000   0.0000   0.0000
     0.0000   0.0000   0.0000   0.0000   0.0000   0.0000   0.0000   0.0000
     0.0000   0.0000   0.0000   0.0000   0.0000   0.0000   0.0000   0.0000
     0.0000   0.0000   0.0000   0.0000   0.0000   0.0000   0.0000   0.0000
     0.0000   0.0000   0.0000   0.0000   0.0000   0.0000   0.0000   0.0000
     0.0000   0.0000   0.0000   0.0000   0.0000   0.0000   0.0000   0.0000
     0.0000   0.0000   0.0000   0.0000   0.0000   0.0000   0.0000   0.0000

          k = 0.0000 0.0000-0.5000 (270152 PWs)   bands (ev):

   -88.2770 -51.7791 -51.7791 -51.2058  -7.5025  -7.4516  -7.1134  -7.0556
    -7.0332  -7.0148  -7.0018  -6.9826  -6.9508  -6.9163  -6.8274  -6.8063
    -6.7826  -6.7461  -6.7264  -6.7224  -6.6985  -6.6837  -6.6301  -6.6004
    -6.5979  -6.5791  -6.5121  -6.5100  -6.4846  -6.4742  -6.4684  -6.4409
    -6.4176  -6.3768  -6.3527  -1.1140  -1.1135  -1.1112  -1.0973  -1.0917
    -1.0901  -1.0855  -1.0832  -1.0782  -0.9942  -0.9856  -0.9777  -0.9715
    -0.9629  -0.9599  -0.8245  -0.8020  -0.7921  -0.7868  -0.7791  -0.7682
    -0.7658  -0.7622  -0.7527  -0.7432  -0.7386  -0.7383  -0.7277  -0.7271
    -0.7194  -0.7158  -0.7149  -0.7120  -0.7023  -0.7012  -0.6988  -0.6943
    -0.6878  -0.6876  -0.6743  -0.6743  -0.6670  -0.6644  -0.6643  -0.6628
    -0.6581  -0.6568  -0.6528  -0.6484  -0.6411  -0.6395  -0.6381  -0.6359
    -0.6315  -0.6270  -0.6254  -0.6239  -0.6169  -0.6119  -0.6018  -0.5993
    -0.5945  -0.5860  -0.5815  -0.5813  -0.5774  -0.5682  -0.5636  -0.5571
    -0.5532  -0.5522  -0.5391  -0.5362  -0.5294  -0.5252  -0.5182  -0.5090
    -0.4890  -0.4843  -0.4758  -0.4744  -0.4706  -0.4561  -0.4429  -0.4397
    -0.4360  -0.4168  -0.4160  -0.4122  -0.3964  -0.3954  -0.3882  -0.3847
    -0.3813  -0.3794  -0.3778  -0.3678  -0.3674  -0.3620  -0.3585  -0.3578
    -0.3457  -0.3435  -0.3435  -0.3367  -0.3337  -0.3335  -0.3301  -0.3283
    -0.3217  -0.3186  -0.3186  -0.3119  -0.3085  -0.3079  -0.3063  -0.2998
    -0.2995  -0.2852  -0.2846  -0.2789  -0.2732  -0.2710  -0.2697  -0.2676
    -0.2630  -0.2626  -0.2536  -0.2534  -0.2517  -0.2457  -0.2434  -0.2355
    -0.2295  -0.2247  -0.2212  -0.2100  -0.2045  -0.1941  -0.1887  -0.1763
    -0.1714  -0.1667  -0.1661  -0.1309  -0.1112  -0.1051  -0.0968  -0.0745
    -0.0656  -0.0591  -0.0402  -0.0359   0.0030   0.0170   0.6338   0.7181
     0.7801   0.8092   0.8156   0.8518   0.8578   0.8833   0.9161   0.9322
     0.9631   0.9768   0.9817   1.0030   1.0061   1.0456   1.0694   1.2736
     1.2754   1.4028   1.5652   1.7265   2.1127   2.1601   2.1899   2.2250
     2.3051   2.3069   2.3361   2.3988   2.4387   2.4444   2.4781   2.4835
     2.5232   2.6252   2.7128   2.7473   2.9611   2.9721   2.9868   3.0105
     3.0653   3.0704   3.0927   3.1120   3.2402   3.2931   3.4679   3.5497
     3.5721   3.5751   3.5912   3.6224   3.6343   3.6691   3.6727   3.7098
     3.7246   3.7328   3.7544   3.7585   3.7593   3.7765   3.8049   3.8186
     3.8233   3.8588   3.8721   3.8961   3.9123   4.0374   4.1894   4.2140
     4.2389   4.3044   4.3608   4.4113   4.4129   4.4343   4.4594   4.4992
     4.5275   4.5384   4.5469   4.5648   4.5751   4.5792   4.6099   4.8294
     4.8784   4.9690   5.0008   5.6559   5.7131   5.9308   6.1144   6.1812
     8.1510   8.4223   8.5688   9.0073   9.0792   9.1409   9.1660   9.3250
     9.4157   9.4302   9.4440   9.4749   9.5539   9.5844   9.6079   9.6814
     9.7274   9.7337   9.8473   9.8956   9.9294   9.9392  10.0289  10.0553
    10.0736  10.0812  10.1151  10.1928  10.2103  10.2207  10.3007  10.3470
    10.4969  10.5415  10.5693  10.6039  10.6476  10.6564  10.7233  10.7295
    10.7809  10.8486  10.9381  10.9964  11.0472  11.0584  11.1986  11.2669
    11.3876  11.4662  11.4822  11.5358  11.5973  11.6749  11.7159  11.7358

     occupation numbers 
     1.0000   1.0000   1.0000   1.0000   1.0000   1.0000   1.0000   1.0000
     1.0000   1.0000   1.0000   1.0000   1.0000   1.0000   1.0000   1.0000
     1.0000   1.0000   1.0000   1.0000   1.0000   1.0000   1.0000   1.0000
     1.0000   1.0000   1.0000   1.0000   1.0000   1.0000   1.0000   1.0000
     1.0000   1.0000   1.0000   1.0000   1.0000   1.0000   1.0000   1.0000
     1.0000   1.0000   1.0000   1.0000   1.0000   1.0000   1.0000   1.0000
     1.0000   1.0000   1.0000   1.0000   1.0000   1.0000   1.0000   1.0000
     1.0000   1.0000   1.0000   1.0000   1.0000   1.0000   1.0000   1.0000
     1.0000   1.0000   1.0000   1.0000   1.0000   1.0000   1.0000   1.0000
     1.0000   1.0000   1.0000   1.0000   1.0000   1.0000   1.0000   1.0000
     1.0000   1.0000   1.0000   1.0000   1.0000   1.0000   1.0000   1.0000
     1.0000   1.0000   1.0000   1.0000   1.0000   1.0000   1.0000   1.0000
     1.0000   1.0000   1.0000   1.0000   1.0000   1.0000   1.0000   1.0000
     1.0000   1.0000   1.0000   1.0000   1.0000   1.0000   1.0000   1.0000
     1.0000   1.0000   1.0000   1.0000   1.0000   1.0000   1.0000   1.0000
     1.0000   1.0000   1.0000   1.0000   1.0000   1.0000   1.0000   1.0000
     1.0000   1.0000   1.0000   1.0000   1.0000   1.0000   1.0000   1.0000
     1.0000   1.0000   1.0000   1.0000   1.0000   1.0000   1.0000   1.0000
     1.0000   1.0000   1.0000   1.0000   1.0000   1.0000   1.0000   1.0000
     1.0000   1.0000   1.0000   1.0000   1.0000   1.0000   1.0000   1.0000
     1.0000   1.0000   1.0000   1.0000   1.0000   1.0000   1.0000   1.0000
     1.0000   1.0000   1.0000   1.0000   1.0000   1.0000   1.0000   1.0000
     1.0000   1.0000   1.0000   1.0000   1.0000   1.0000   1.0000   1.0000
     1.0000   1.0000   1.0000   1.0000   1.0000   1.0000   1.0000   1.0000
     1.0000   1.0000   1.0000   1.0000   1.0000   1.0000   1.0000   1.0000
     1.0000   1.0000   1.0000   1.0000   1.0000   1.0000   1.0000   1.0000
     1.0000   1.0000   1.0000   1.0000   1.0000   1.0000   1.0000   1.0000
     1.0000   1.0000   1.0000   1.0000   1.0000   1.0000   1.0000   1.0000
     1.0000   1.0000   1.0000   1.0000   1.0000   1.0000   1.0000   1.0000
     1.0000   1.0000   1.0000   1.0000   1.0000   1.0000   1.0000   1.0000
     1.0000   1.0000   1.0000   1.0000   1.0000   1.0000   1.0000   1.0000
     1.0000   1.0000   1.0000   1.0000   1.0000   1.0000   1.0000   1.0000
     1.0000   1.0000   1.0000   1.0000   1.0000   1.0000   1.0000   1.0000
     1.0000   1.0000   1.0000   1.0000   1.0000   1.0000   1.0000   1.0000
     1.0000   1.0000   1.0000   1.0000   1.0000   1.0000   1.0000   1.0000
     1.0000   1.0000   1.0000   1.0000   1.0000   1.0000   1.0000   1.0000
     0.0000   0.0000   0.0000   0.0000   0.0000   0.0000   0.0000   0.0000
     0.0000   0.0000   0.0000   0.0000   0.0000   0.0000   0.0000   0.0000
     0.0000   0.0000   0.0000   0.0000   0.0000   0.0000   0.0000   0.0000
     0.0000   0.0000   0.0000   0.0000   0.0000   0.0000   0.0000   0.0000
     0.0000   0.0000   0.0000   0.0000   0.0000   0.0000   0.0000   0.0000
     0.0000   0.0000   0.0000   0.0000   0.0000   0.0000   0.0000   0.0000
     0.0000   0.0000   0.0000   0.0000   0.0000   0.0000   0.0000   0.0000

          k = 0.0000 0.2500 0.2500 (269929 PWs)   bands (ev):

   -88.2770 -51.7791 -51.7791 -51.2058  -7.5502  -7.3109  -7.2564  -7.1042
    -7.0540  -7.0299  -6.9417  -6.9181  -6.8983  -6.8851  -6.8665  -6.8055
    -6.7740  -6.7660  -6.7654  -6.6934  -6.6813  -6.6633  -6.6482  -6.6234
    -6.6166  -6.5814  -6.5303  -6.5245  -6.4921  -6.4685  -6.4361  -6.4233
    -6.4042  -6.3863  -6.3617  -1.1145  -1.1131  -1.1128  -1.0956  -1.0917
    -1.0907  -1.0856  -1.0837  -1.0772  -0.9952  -0.9835  -0.9824  -0.9681
    -0.9649  -0.9575  -0.8195  -0.8142  -0.8068  -0.7885  -0.7773  -0.7741
    -0.7566  -0.7550  -0.7478  -0.7363  -0.7334  -0.7275  -0.7246  -0.7210
    -0.7199  -0.7198  -0.7151  -0.7096  -0.7069  -0.7018  -0.6934  -0.6921
    -0.6900  -0.6899  -0.6765  -0.6740  -0.6707  -0.6691  -0.6623  -0.6619
    -0.6561  -0.6558  -0.6500  -0.6478  -0.6438  -0.6389  -0.6358  -0.6346
    -0.6292  -0.6241  -0.6207  -0.6178  -0.6149  -0.6079  -0.6014  -0.5984
    -0.5926  -0.5858  -0.5833  -0.5821  -0.5726  -0.5709  -0.5602  -0.5570
    -0.5555  -0.5435  -0.5418  -0.5387  -0.5351  -0.5257  -0.5171  -0.5162
    -0.5058  -0.4999  -0.4865  -0.4854  -0.4773  -0.4748  -0.4679  -0.4591
    -0.4351  -0.4243  -0.4167  -0.4057  -0.4052  -0.3988  -0.3965  -0.3885
    -0.3828  -0.3793  -0.3753  -0.3704  -0.3643  -0.3594  -0.3527  -0.3505
    -0.3468  -0.3441  -0.3414  -0.3392  -0.3355  -0.3343  -0.3291  -0.3221
    -0.3173  -0.3152  -0.3149  -0.3107  -0.3076  -0.3059  -0.3009  -0.2986
    -0.2957  -0.2880  -0.2876  -0.2791  -0.2767  -0.2723  -0.2622  -0.2610
    -0.2583  -0.2578  -0.2470  -0.2455  -0.2431  -0.2383  -0.2352  -0.2346
    -0.2297  -0.2128  -0.2088  -0.2007  -0.1995  -0.1901  -0.1852  -0.1726
    -0.1690  -0.1640  -0.1596  -0.1569  -0.1301  -0.1136  -0.1027  -0.0757
    -0.0380  -0.0156  -0.0080   0.0062   0.0275   0.0342   0.3036   0.4432
     0.7176   0.7688   0.8132   0.8601   0.9011   0.9261   0.9494   0.9703
     0.9719   1.0102   1.0115   1.0491   1.0887   1.1573   1.2021   1.3903
     1.5084   1.5130   1.5747   1.5966   1.7992   1.8193   2.0284   2.0743
     2.3275   2.3759   2.4233   2.4603   2.4930   2.5303   2.5950   2.6553
     2.7194   2.7445   2.7762   2.8704   2.9247   2.9709   3.0032   3.0507
     3.0557   3.0871   3.1253   3.1750   3.1948   3.2360   3.2989   3.3008
     3.3414   3.3431   3.3723   3.3881   3.4492   3.5100   3.5454   3.5530
     3.6048   3.6515   3.6843   3.7860   3.8863   3.9194   3.9204   3.9959
     3.9962   4.0168   4.0801   4.0945   4.1395   4.1635   4.1836   4.2166
     4.2277   4.2618   4.3218   4.3501   4.3799   4.4079   4.4702   4.4738
     4.4857   4.5096   4.5797   4.5849   4.6143   4.6187   4.7209   4.7275
     4.8455   5.0488   5.1611   5.6906   5.7170   5.9267   6.1540   6.1952
     7.8818   8.2529   8.8626   8.8830   9.0423   9.0528   9.2124   9.2699
     9.2941   9.3071   9.3642   9.4580   9.4912   9.6658   9.6784   9.7325
     9.7793   9.8040   9.8111   9.8228   9.8641   9.9106   9.9484   9.9929
    10.0001  10.0198  10.0866  10.1488  10.1865  10.2029  10.2890  10.4282
    10.4798  10.5018  10.5557  10.5714  10.6599  10.7430  10.7863  10.8265
    10.8409  10.9274  10.9803  11.0870  11.1118  11.2924  11.3229  11.3651
    11.4312  11.5558  11.5623  11.6469  11.6685  11.6916  11.7227  11.7672

     occupation numbers 
     1.0000   1.0000   1.0000   1.0000   1.0000   1.0000   1.0000   1.0000
     1.0000   1.0000   1.0000   1.0000   1.0000   1.0000   1.0000   1.0000
     1.0000   1.0000   1.0000   1.0000   1.0000   1.0000   1.0000   1.0000
     1.0000   1.0000   1.0000   1.0000   1.0000   1.0000   1.0000   1.0000
     1.0000   1.0000   1.0000   1.0000   1.0000   1.0000   1.0000   1.0000
     1.0000   1.0000   1.0000   1.0000   1.0000   1.0000   1.0000   1.0000
     1.0000   1.0000   1.0000   1.0000   1.0000   1.0000   1.0000   1.0000
     1.0000   1.0000   1.0000   1.0000   1.0000   1.0000   1.0000   1.0000
     1.0000   1.0000   1.0000   1.0000   1.0000   1.0000   1.0000   1.0000
     1.0000   1.0000   1.0000   1.0000   1.0000   1.0000   1.0000   1.0000
     1.0000   1.0000   1.0000   1.0000   1.0000   1.0000   1.0000   1.0000
     1.0000   1.0000   1.0000   1.0000   1.0000   1.0000   1.0000   1.0000
     1.0000   1.0000   1.0000   1.0000   1.0000   1.0000   1.0000   1.0000
     1.0000   1.0000   1.0000   1.0000   1.0000   1.0000   1.0000   1.0000
     1.0000   1.0000   1.0000   1.0000   1.0000   1.0000   1.0000   1.0000
     1.0000   1.0000   1.0000   1.0000   1.0000   1.0000   1.0000   1.0000
     1.0000   1.0000   1.0000   1.0000   1.0000   1.0000   1.0000   1.0000
     1.0000   1.0000   1.0000   1.0000   1.0000   1.0000   1.0000   1.0000
     1.0000   1.0000   1.0000   1.0000   1.0000   1.0000   1.0000   1.0000
     1.0000   1.0000   1.0000   1.0000   1.0000   1.0000   1.0000   1.0000
     1.0000   1.0000   1.0000   1.0000   1.0000   1.0000   1.0000   1.0000
     1.0000   1.0000   1.0000   1.0000   1.0000   1.0000   1.0000   1.0000
     1.0000   1.0000   1.0000   1.0000   1.0000   1.0000   1.0000   1.0000
     1.0000   1.0000   1.0000   1.0000   1.0000   1.0000   1.0000   1.0000
     1.0000   1.0000   1.0000   1.0000   1.0000   1.0000   1.0000   1.0000
     1.0000   1.0000   1.0000   1.0000   1.0000   1.0000   1.0000   1.0000
     1.0000   1.0000   1.0000   1.0000   1.0000   1.0000   1.0000   1.0000
     1.0000   1.0000   1.0000   1.0000   1.0000   1.0000   1.0000   1.0000
     1.0000   1.0000   1.0000   1.0000   1.0000   1.0000   1.0000   1.0000
     1.0000   1.0000   1.0000   1.0000   1.0000   1.0000   1.0000   1.0000
     1.0000   1.0000   1.0000   1.0000   1.0000   1.0000   1.0000   1.0000
     1.0000   1.0000   1.0000   1.0000   1.0000   1.0000   1.0000   1.0000
     1.0000   1.0000   1.0000   1.0000   1.0000   1.0000   1.0000   1.0000
     1.0000   1.0000   1.0000   1.0000   1.0000   1.0000   1.0000   1.0000
     1.0000   1.0000   1.0000   1.0000   1.0000   1.0000   1.0000   1.0000
     1.0000   1.0000   1.0000   1.0000   1.0000   1.0000   1.0000   1.0000
     0.0000   0.0000   0.0000   0.0000   0.0000   0.0000   0.0000   0.0000
     0.0000   0.0000   0.0000   0.0000   0.0000   0.0000   0.0000   0.0000
     0.0000   0.0000   0.0000   0.0000   0.0000   0.0000   0.0000   0.0000
     0.0000   0.0000   0.0000   0.0000   0.0000   0.0000   0.0000   0.0000
     0.0000   0.0000   0.0000   0.0000   0.0000   0.0000   0.0000   0.0000
     0.0000   0.0000   0.0000   0.0000   0.0000   0.0000   0.0000   0.0000
     0.0000   0.0000   0.0000   0.0000   0.0000   0.0000   0.0000   0.0000

          k = 0.0000 0.2500-0.5000 (269962 PWs)   bands (ev):

   -88.2770 -51.7791 -51.7791 -51.2058  -7.4703  -7.4211  -7.2256  -7.1628
    -7.0662  -6.9925  -6.9735  -6.9491  -6.8980  -6.8792  -6.8268  -6.8075
    -6.7896  -6.7791  -6.7061  -6.6853  -6.6651  -6.6360  -6.6280  -6.6094
    -6.5815  -6.5757  -6.5221  -6.5163  -6.5008  -6.4832  -6.4675  -6.4501
    -6.4228  -6.4031  -6.3665  -1.1138  -1.1124  -1.1109  -1.0952  -1.0914
    -1.0902  -1.0848  -1.0823  -1.0792  -0.9906  -0.9834  -0.9776  -0.9709
    -0.9652  -0.9615  -0.8142  -0.8012  -0.7898  -0.7813  -0.7742  -0.7670
    -0.7618  -0.7569  -0.7528  -0.7436  -0.7366  -0.7331  -0.7311  -0.7237
    -0.7216  -0.7175  -0.7155  -0.7126  -0.7091  -0.7018  -0.6968  -0.6950
    -0.6916  -0.6880  -0.6859  -0.6767  -0.6739  -0.6689  -0.6656  -0.6636
    -0.6590  -0.6570  -0.6550  -0.6494  -0.6435  -0.6416  -0.6381  -0.6348
    -0.6301  -0.6242  -0.6218  -0.6184  -0.6139  -0.6087  -0.6020  -0.5978
    -0.5929  -0.5871  -0.5803  -0.5760  -0.5714  -0.5684  -0.5638  -0.5572
    -0.5523  -0.5470  -0.5408  -0.5382  -0.5335  -0.5295  -0.5237  -0.5159
    -0.5120  -0.5049  -0.4996  -0.4900  -0.4877  -0.4810  -0.4669  -0.4616
    -0.4566  -0.4450  -0.4348  -0.4202  -0.4043  -0.3989  -0.3903  -0.3862
    -0.3833  -0.3765  -0.3743  -0.3671  -0.3653  -0.3592  -0.3530  -0.3504
    -0.3442  -0.3410  -0.3384  -0.3361  -0.3328  -0.3311  -0.3250  -0.3232
    -0.3194  -0.3152  -0.3133  -0.3106  -0.3085  -0.3036  -0.3004  -0.2934
    -0.2894  -0.2844  -0.2809  -0.2779  -0.2719  -0.2685  -0.2648  -0.2594
    -0.2573  -0.2518  -0.2463  -0.2421  -0.2372  -0.2340  -0.2303  -0.2264
    -0.2215  -0.2169  -0.2093  -0.2003  -0.1879  -0.1838  -0.1765  -0.1709
    -0.1591  -0.1520  -0.1356  -0.1222  -0.1176  -0.1023  -0.0889  -0.0734
    -0.0651  -0.0444  -0.0354  -0.0108  -0.0045   0.0256   0.5057   0.5869
     0.6537   0.6760   0.7710   0.8058   0.8789   0.8948   0.9269   0.9532
     0.9764   1.0486   1.0825   1.1072   1.1489   1.1836   1.2123   1.2970
     1.3222   1.4061   1.5286   1.6391   1.8219   1.8793   1.9912   2.0039
     2.1117   2.2324   2.3497   2.4078   2.5873   2.6172   2.6315   2.6760
     2.7135   2.7373   2.7789   2.8326   2.8761   2.9492   2.9775   3.0536
     3.1313   3.1824   3.2371   3.2747   3.3264   3.3640   3.3779   3.4193
     3.4457   3.4711   3.5222   3.5609   3.5765   3.5972   3.6075   3.6343
     3.6707   3.7038   3.7151   3.7937   3.8305   3.8531   3.8865   3.9289
     3.9464   3.9863   3.9953   4.0132   4.0387   4.0585   4.0969   4.1284
     4.1437   4.1764   4.2324   4.2573   4.2938   4.3289   4.3778   4.3915
     4.4214   4.4774   4.5125   4.5471   4.5838   4.7443   4.8111   4.8577
     4.8877   5.0216   5.0820   5.6665   5.7120   5.9331   6.1341   6.1735
     8.1791   8.5429   8.6573   8.9696   9.1096   9.1466   9.2752   9.3229
     9.3494   9.4113   9.4905   9.5344   9.5519   9.5820   9.6038   9.6760
     9.7401   9.7457   9.7723   9.7850   9.7940   9.8405   9.8649   9.9102
     9.9758  10.0018  10.1013  10.1821  10.2540  10.2909  10.3660  10.4063
    10.4280  10.4543  10.5332  10.5699  10.6335  10.6827  10.7142  10.8338
    10.8926  10.9525  11.0123  11.1137  11.1515  11.2373  11.2519  11.2995
    11.3350  11.3623  11.3756  11.3932  11.4788  11.5424  11.5656  11.6227

     occupation numbers 
     1.0000   1.0000   1.0000   1.0000   1.0000   1.0000   1.0000   1.0000
     1.0000   1.0000   1.0000   1.0000   1.0000   1.0000   1.0000   1.0000
     1.0000   1.0000   1.0000   1.0000   1.0000   1.0000   1.0000   1.0000
     1.0000   1.0000   1.0000   1.0000   1.0000   1.0000   1.0000   1.0000
     1.0000   1.0000   1.0000   1.0000   1.0000   1.0000   1.0000   1.0000
     1.0000   1.0000   1.0000   1.0000   1.0000   1.0000   1.0000   1.0000
     1.0000   1.0000   1.0000   1.0000   1.0000   1.0000   1.0000   1.0000
     1.0000   1.0000   1.0000   1.0000   1.0000   1.0000   1.0000   1.0000
     1.0000   1.0000   1.0000   1.0000   1.0000   1.0000   1.0000   1.0000
     1.0000   1.0000   1.0000   1.0000   1.0000   1.0000   1.0000   1.0000
     1.0000   1.0000   1.0000   1.0000   1.0000   1.0000   1.0000   1.0000
     1.0000   1.0000   1.0000   1.0000   1.0000   1.0000   1.0000   1.0000
     1.0000   1.0000   1.0000   1.0000   1.0000   1.0000   1.0000   1.0000
     1.0000   1.0000   1.0000   1.0000   1.0000   1.0000   1.0000   1.0000
     1.0000   1.0000   1.0000   1.0000   1.0000   1.0000   1.0000   1.0000
     1.0000   1.0000   1.0000   1.0000   1.0000   1.0000   1.0000   1.0000
     1.0000   1.0000   1.0000   1.0000   1.0000   1.0000   1.0000   1.0000
     1.0000   1.0000   1.0000   1.0000   1.0000   1.0000   1.0000   1.0000
     1.0000   1.0000   1.0000   1.0000   1.0000   1.0000   1.0000   1.0000
     1.0000   1.0000   1.0000   1.0000   1.0000   1.0000   1.0000   1.0000
     1.0000   1.0000   1.0000   1.0000   1.0000   1.0000   1.0000   1.0000
     1.0000   1.0000   1.0000   1.0000   1.0000   1.0000   1.0000   1.0000
     1.0000   1.0000   1.0000   1.0000   1.0000   1.0000   1.0000   1.0000
     1.0000   1.0000   1.0000   1.0000   1.0000   1.0000   1.0000   1.0000
     1.0000   1.0000   1.0000   1.0000   1.0000   1.0000   1.0000   1.0000
     1.0000   1.0000   1.0000   1.0000   1.0000   1.0000   1.0000   1.0000
     1.0000   1.0000   1.0000   1.0000   1.0000   1.0000   1.0000   1.0000
     1.0000   1.0000   1.0000   1.0000   1.0000   1.0000   1.0000   1.0000
     1.0000   1.0000   1.0000   1.0000   1.0000   1.0000   1.0000   1.0000
     1.0000   1.0000   1.0000   1.0000   1.0000   1.0000   1.0000   1.0000
     1.0000   1.0000   1.0000   1.0000   1.0000   1.0000   1.0000   1.0000
     1.0000   1.0000   1.0000   1.0000   1.0000   1.0000   1.0000   1.0000
     1.0000   1.0000   1.0000   1.0000   1.0000   1.0000   1.0000   1.0000
     1.0000   1.0000   1.0000   1.0000   1.0000   1.0000   1.0000   1.0000
     1.0000   1.0000   1.0000   1.0000   1.0000   1.0000   1.0000   1.0000
     1.0000   1.0000   1.0000   1.0000   1.0000   1.0000   1.0000   1.0000
     0.0000   0.0000   0.0000   0.0000   0.0000   0.0000   0.0000   0.0000
     0.0000   0.0000   0.0000   0.0000   0.0000   0.0000   0.0000   0.0000
     0.0000   0.0000   0.0000   0.0000   0.0000   0.0000   0.0000   0.0000
     0.0000   0.0000   0.0000   0.0000   0.0000   0.0000   0.0000   0.0000
     0.0000   0.0000   0.0000   0.0000   0.0000   0.0000   0.0000   0.0000
     0.0000   0.0000   0.0000   0.0000   0.0000   0.0000   0.0000   0.0000
     0.0000   0.0000   0.0000   0.0000   0.0000   0.0000   0.0000   0.0000

          k = 0.0000-0.5000-0.5000 (269920 PWs)   bands (ev):

   -88.2770 -51.7791 -51.7791 -51.2058  -7.3948  -7.3774  -7.3298  -7.2743
    -7.0508  -6.9678  -6.9594  -6.9443  -6.9136  -6.8965  -6.8510  -6.8298
    -6.7588  -6.6881  -6.6766  -6.6756  -6.6523  -6.6287  -6.6062  -6.5802
    -6.5584  -6.5545  -6.5509  -6.5352  -6.5143  -6.5071  -6.4841  -6.4690
    -6.4297  -6.4265  -6.3752  -1.1137  -1.1112  -1.1104  -1.0931  -1.0912
    -1.0901  -1.0844  -1.0808  -1.0807  -0.9862  -0.9789  -0.9786  -0.9721
    -0.9670  -0.9637  -0.8071  -0.7962  -0.7831  -0.7710  -0.7668  -0.7621
    -0.7597  -0.7558  -0.7518  -0.7432  -0.7397  -0.7371  -0.7300  -0.7272
    -0.7234  -0.7191  -0.7178  -0.7140  -0.7049  -0.7044  -0.6976  -0.6917
    -0.6907  -0.6881  -0.6880  -0.6839  -0.6777  -0.6750  -0.6681  -0.6677
    -0.6639  -0.6616  -0.6578  -0.6534  -0.6507  -0.6441  -0.6329  -0.6281
    -0.6249  -0.6222  -0.6162  -0.6139  -0.6132  -0.6084  -0.6022  -0.6021
    -0.5955  -0.5875  -0.5818  -0.5735  -0.5717  -0.5707  -0.5679  -0.5608
    -0.5561  -0.5490  -0.5464  -0.5458  -0.5396  -0.5341  -0.5335  -0.5255
    -0.5204  -0.5061  -0.5041  -0.5008  -0.4983  -0.4866  -0.4861  -0.4731
    -0.4664  -0.4537  -0.4365  -0.4262  -0.4137  -0.4007  -0.3939  -0.3910
    -0.3823  -0.3822  -0.3769  -0.3682  -0.3634  -0.3572  -0.3526  -0.3449
    -0.3399  -0.3379  -0.3355  -0.3346  -0.3311  -0.3290  -0.3260  -0.3223
    -0.3165  -0.3123  -0.3106  -0.3070  -0.3063  -0.3020  -0.2919  -0.2882
    -0.2856  -0.2825  -0.2792  -0.2742  -0.2684  -0.2678  -0.2554  -0.2538
    -0.2515  -0.2467  -0.2428  -0.2357  -0.2347  -0.2278  -0.2249  -0.2191
    -0.2168  -0.2155  -0.2036  -0.1990  -0.1923  -0.1876  -0.1835  -0.1785
    -0.1731  -0.1634  -0.1243  -0.1240  -0.0836  -0.0727  -0.0522  -0.0462
    -0.0402  -0.0280  -0.0185   0.0069   0.0097   0.0449   0.4846   0.5482
     0.6034   0.6254   0.6659   0.6796   0.7581   0.7676   0.9197   0.9546
     0.9553   1.0939   1.3039   1.3318   1.3399   1.3530   1.4004   1.4072
     1.4791   1.4862   1.5372   1.5445   1.5889   1.6173   1.6665   1.7418
     1.8138   2.1016   2.3885   2.4283   2.4597   2.4605   2.8180   2.8618
     2.9724   2.9844   3.0157   3.0312   3.0735   3.1044   3.1159   3.1408
     3.1526   3.1831   3.1915   3.2342   3.2436   3.3025   3.3027   3.3859
     3.3876   3.4437   3.4983   3.5027   3.5249   3.5468   3.5706   3.6062
     3.6235   3.6369   3.6499   3.6784   3.6960   3.8350   3.8518   3.9131
     3.9655   3.9795   4.0181   4.0294   4.0944   4.1077   4.1267   4.2070
     4.2354   4.2422   4.2748   4.3274   4.3345   4.3492   4.3530   4.3735
     4.3840   4.3844   4.4195   4.4597   4.5399   4.5826   4.5913   4.9302
     5.0086   5.1159   5.1547   5.6578   5.7274   5.9350   6.1270   6.1934
     8.2184   8.7903   8.8138   8.8788   9.0425   9.0843   9.1829   9.2875
     9.4072   9.4073   9.4455   9.4553   9.4845   9.4914   9.4998   9.5822
     9.6133   9.8231   9.8528   9.8636  10.0119  10.0551  10.0754  10.1025
    10.1145  10.1259  10.1537  10.1859  10.1891  10.2338  10.2375  10.2518
    10.2752  10.3052  10.3227  10.3617  10.3866  10.4493  10.4885  10.7353
    10.8510  10.9563  11.1497  11.2155  11.3128  11.3235  11.3669  11.3893
    11.4057  11.4286  11.4586  11.4851  11.5723  11.5853  11.6021  11.6135

     occupation numbers 
     1.0000   1.0000   1.0000   1.0000   1.0000   1.0000   1.0000   1.0000
     1.0000   1.0000   1.0000   1.0000   1.0000   1.0000   1.0000   1.0000
     1.0000   1.0000   1.0000   1.0000   1.0000   1.0000   1.0000   1.0000
     1.0000   1.0000   1.0000   1.0000   1.0000   1.0000   1.0000   1.0000
     1.0000   1.0000   1.0000   1.0000   1.0000   1.0000   1.0000   1.0000
     1.0000   1.0000   1.0000   1.0000   1.0000   1.0000   1.0000   1.0000
     1.0000   1.0000   1.0000   1.0000   1.0000   1.0000   1.0000   1.0000
     1.0000   1.0000   1.0000   1.0000   1.0000   1.0000   1.0000   1.0000
     1.0000   1.0000   1.0000   1.0000   1.0000   1.0000   1.0000   1.0000
     1.0000   1.0000   1.0000   1.0000   1.0000   1.0000   1.0000   1.0000
     1.0000   1.0000   1.0000   1.0000   1.0000   1.0000   1.0000   1.0000
     1.0000   1.0000   1.0000   1.0000   1.0000   1.0000   1.0000   1.0000
     1.0000   1.0000   1.0000   1.0000   1.0000   1.0000   1.0000   1.0000
     1.0000   1.0000   1.0000   1.0000   1.0000   1.0000   1.0000   1.0000
     1.0000   1.0000   1.0000   1.0000   1.0000   1.0000   1.0000   1.0000
     1.0000   1.0000   1.0000   1.0000   1.0000   1.0000   1.0000   1.0000
     1.0000   1.0000   1.0000   1.0000   1.0000   1.0000   1.0000   1.0000
     1.0000   1.0000   1.0000   1.0000   1.0000   1.0000   1.0000   1.0000
     1.0000   1.0000   1.0000   1.0000   1.0000   1.0000   1.0000   1.0000
     1.0000   1.0000   1.0000   1.0000   1.0000   1.0000   1.0000   1.0000
     1.0000   1.0000   1.0000   1.0000   1.0000   1.0000   1.0000   1.0000
     1.0000   1.0000   1.0000   1.0000   1.0000   1.0000   1.0000   1.0000
     1.0000   1.0000   1.0000   1.0000   1.0000   1.0000   1.0000   1.0000
     1.0000   1.0000   1.0000   1.0000   1.0000   1.0000   1.0000   1.0000
     1.0000   1.0000   1.0000   1.0000   1.0000   1.0000   1.0000   1.0000
     1.0000   1.0000   1.0000   1.0000   1.0000   1.0000   1.0000   1.0000
     1.0000   1.0000   1.0000   1.0000   1.0000   1.0000   1.0000   1.0000
     1.0000   1.0000   1.0000   1.0000   1.0000   1.0000   1.0000   1.0000
     1.0000   1.0000   1.0000   1.0000   1.0000   1.0000   1.0000   1.0000
     1.0000   1.0000   1.0000   1.0000   1.0000   1.0000   1.0000   1.0000
     1.0000   1.0000   1.0000   1.0000   1.0000   1.0000   1.0000   1.0000
     1.0000   1.0000   1.0000   1.0000   1.0000   1.0000   1.0000   1.0000
     1.0000   1.0000   1.0000   1.0000   1.0000   1.0000   1.0000   1.0000
     1.0000   1.0000   1.0000   1.0000   1.0000   1.0000   1.0000   1.0000
     1.0000   1.0000   1.0000   1.0000   1.0000   1.0000   1.0000   1.0000
     1.0000   1.0000   1.0000   1.0000   1.0000   1.0000   1.0000   1.0000
     0.0000   0.0000   0.0000   0.0000   0.0000   0.0000   0.0000   0.0000
     0.0000   0.0000   0.0000   0.0000   0.0000   0.0000   0.0000   0.0000
     0.0000   0.0000   0.0000   0.0000   0.0000   0.0000   0.0000   0.0000
     0.0000   0.0000   0.0000   0.0000   0.0000   0.0000   0.0000   0.0000
     0.0000   0.0000   0.0000   0.0000   0.0000   0.0000   0.0000   0.0000
     0.0000   0.0000   0.0000   0.0000   0.0000   0.0000   0.0000   0.0000
     0.0000   0.0000   0.0000   0.0000   0.0000   0.0000   0.0000   0.0000

          k = 0.2500 0.2500 0.2500 (269935 PWs)   bands (ev):

   -88.2770 -51.7791 -51.7791 -51.2058  -7.5152  -7.2850  -7.2850  -7.1936
    -7.0611  -7.0611  -7.0020  -6.8861  -6.8861  -6.8744  -6.7983  -6.7879
    -6.7842  -6.7842  -6.6853  -6.6853  -6.6631  -6.6631  -6.6608  -6.5998
    -6.5998  -6.5942  -6.5134  -6.5134  -6.5116  -6.4805  -6.4426  -6.4426
    -6.4212  -6.3900  -6.3900  -1.1144  -1.1125  -1.1125  -1.0935  -1.0905
    -1.0905  -1.0841  -1.0841  -1.0780  -0.9917  -0.9825  -0.9825  -0.9674
    -0.9674  -0.9578  -0.8048  -0.8022  -0.8022  -0.7873  -0.7762  -0.7762
    -0.7535  -0.7535  -0.7521  -0.7350  -0.7350  -0.7342  -0.7257  -0.7204
    -0.7204  -0.7146  -0.7146  -0.7115  -0.7115  -0.7079  -0.7027  -0.6954
    -0.6938  -0.6938  -0.6829  -0.6829  -0.6704  -0.6695  -0.6674  -0.6674
    -0.6578  -0.6578  -0.6498  -0.6467  -0.6467  -0.6444  -0.6378  -0.6316
    -0.6316  -0.6262  -0.6262  -0.6149  -0.6082  -0.6082  -0.6052  -0.5923
    -0.5923  -0.5900  -0.5768  -0.5748  -0.5704  -0.5704  -0.5609  -0.5609
    -0.5505  -0.5505  -0.5481  -0.5403  -0.5203  -0.5203  -0.5117  -0.5117
    -0.5072  -0.5021  -0.4842  -0.4842  -0.4782  -0.4782  -0.4655  -0.4652
    -0.4602  -0.4602  -0.4469  -0.4153  -0.4153  -0.3984  -0.3984  -0.3862
    -0.3848  -0.3774  -0.3774  -0.3681  -0.3681  -0.3630  -0.3573  -0.3451
    -0.3451  -0.3407  -0.3364  -0.3364  -0.3290  -0.3290  -0.3282  -0.3234
    -0.3136  -0.3134  -0.3134  -0.3087  -0.3087  -0.2987  -0.2987  -0.2987
    -0.2980  -0.2843  -0.2843  -0.2736  -0.2736  -0.2691  -0.2555  -0.2550
    -0.2550  -0.2520  -0.2520  -0.2429  -0.2384  -0.2384  -0.2239  -0.2190
    -0.2190  -0.2067  -0.2067  -0.2053  -0.1950  -0.1805  -0.1805  -0.1590
    -0.1578  -0.1578  -0.1432  -0.1389  -0.1389  -0.1020  -0.1008  -0.1008
[...]
     1.0000   1.0000   1.0000   1.0000   1.0000   1.0000   1.0000   1.0000
     1.0000   1.0000   1.0000   1.0000   1.0000   1.0000   1.0000   1.0000
     1.0000   1.0000   1.0000   1.0000   1.0000   1.0000   1.0000   1.0000
     1.0000   1.0000   1.0000   1.0000   1.0000   1.0000   1.0000   1.0000
     1.0000   1.0000   1.0000   1.0000   1.0000   1.0000   1.0000   1.0000
     1.0000   1.0000   1.0000   1.0000   1.0000   1.0000   1.0000   1.0000
     1.0000   1.0000   1.0000   1.0000   1.0000   1.0000   1.0000   1.0000
     1.0000   1.0000   1.0000   1.0000   1.0000   1.0000   1.0000   1.0000
     1.0000   1.0000   1.0000   1.0000   1.0000   1.0000   1.0000   1.0000
     1.0000   1.0000   1.0000   1.0000   1.0000   1.0000   1.0000   1.0000
     1.0000   1.0000   1.0000   1.0000   1.0000   1.0000   1.0000   1.0000
     1.0000   1.0000   1.0000   1.0000   1.0000   1.0000   1.0000   1.0000
     1.0000   1.0000   1.0000   1.0000   1.0000   1.0000   1.0000   1.0000
     1.0000   1.0000   1.0000   1.0000   1.0000   1.0000   1.0000   1.0000
     1.0000   1.0000   1.0000   1.0000   1.0000   1.0000   1.0000   1.0000
     1.0000   1.0000   1.0000   1.0000   1.0000   1.0000   1.0000   1.0000
     1.0000   1.0000   1.0000   1.0000   1.0000   1.0000   1.0000   1.0000
     1.0000   1.0000   1.0000   1.0000   1.0000   1.0000   1.0000   1.0000
     1.0000   1.0000   1.0000   1.0000   1.0000   1.0000   0.0000   0.0000
     0.0000   0.0000   0.0000   0.0000   0.0000   0.0000   0.0000   0.0000
     0.0000   0.0000   0.0000   0.0000   0.0000   0.0000   0.0000   0.0000
     0.0000   0.0000   0.0000   0.0000   0.0000   0.0000   0.0000   0.0000
     0.0000   0.0000   0.0000   0.0000   0.0000   0.0000   0.0000   0.0000
     0.0000   0.0000   0.0000   0.0000   0.0000   0.0000   0.0000   0.0000
     0.0000   0.0000   0.0000   0.0000   0.0000   0.0000   0.0000   0.0000
     0.0000   0.0000   0.0000   0.0000   0.0000   0.0000   0.0000   0.0000

          k = 0.2500-0.2500 0.2500 (269935 PWs)   bands (ev):

   -86.2091 -49.6294 -49.6294 -49.4479  -7.5157  -7.2844  -7.2629  -7.2091
    -7.0708  -7.0561  -6.9887  -6.8906  -6.8884  -6.8632  -6.8212  -6.8114
    -6.7424  -6.7325  -6.7055  -6.7043  -6.6644  -6.6506  -6.6503  -6.6116
    -6.5969  -6.5756  -6.5196  -6.5186  -6.4871  -6.4706  -6.4363  -6.4352
    -6.4187  -6.3660  -6.3656  -1.1145  -1.1121  -1.1118  -1.0953  -1.0914
    -1.0911  -1.0848  -1.0834  -1.0787  -0.9923  -0.9825  -0.9799  -0.9683
    -0.9674  -0.9611  -0.8162  -0.8055  -0.7983  -0.7893  -0.7724  -0.7708
    -0.7567  -0.7492  -0.7453  -0.7383  -0.7382  -0.7298  -0.7271  -0.7193
    -0.7159  -0.7157  -0.7143  -0.7113  -0.7072  -0.7031  -0.7018  -0.6915
    -0.6910  -0.6866  -0.6790  -0.6775  -0.6721  -0.6664  -0.6664  -0.6628
    -0.6581  -0.6579  -0.6530  -0.6493  -0.6447  -0.6440  -0.6402  -0.6329
    -0.6269  -0.6251  -0.6184  -0.6171  -0.6150  -0.6058  -0.6011  -0.5956
    -0.5924  -0.5854  -0.5807  -0.5760  -0.5705  -0.5681  -0.5666  -0.5599
    -0.5462  -0.5452  -0.5409  -0.5347  -0.5238  -0.5209  -0.5080  -0.5065
    -0.5052  -0.4993  -0.4905  -0.4886  -0.4823  -0.4800  -0.4688  -0.4687
    -0.4594  -0.4497  -0.4302  -0.4132  -0.4088  -0.4028  -0.3974  -0.3903
    -0.3889  -0.3811  -0.3787  -0.3701  -0.3617  -0.3613  -0.3587  -0.3512
    -0.3460  -0.3401  -0.3377  -0.3360  -0.3296  -0.3257  -0.3220  -0.3201
    -0.3182  -0.3150  -0.3127  -0.3081  -0.3067  -0.3009  -0.3004  -0.2906
    -0.2853  -0.2827  -0.2774  -0.2735  -0.2725  -0.2628  -0.2605  -0.2586
    -0.2488  -0.2461  -0.2461  -0.2409  -0.2372  -0.2334  -0.2321  -0.2268
    -0.2192  -0.2182  -0.2095  -0.1936  -0.1887  -0.1837  -0.1802  -0.1660
    -0.1609  -0.1545  -0.1535  -0.1411  -0.1380  -0.0981  -0.0960  -0.0878
    -0.0371  -0.0198  -0.0169  -0.0104  -0.0043   0.0030   0.4277   0.5854
     0.5874   0.7623   0.7741   0.8145   0.9139   0.9149   0.9240   1.0169
     1.0369   1.0544   1.0816   1.1209   1.1343   1.1892   1.2427   1.2934
     1.3021   1.3591   1.4894   1.6561   1.9139   1.9142   1.9838   2.0785
     2.0980   2.2947   2.5178   2.5751   2.5843   2.6238   2.6569   2.6693
     2.7682   2.8001   2.8031   2.9515   2.9808   2.9891   2.9961   3.0906
     3.1471   3.1756   3.2100   3.2295   3.2626   3.3189   3.3258   3.3410
     3.3796   3.3851   3.4205   3.4461   3.4524   3.4933   3.5748   3.5811
     3.6855   3.7537   3.7699   3.8403   3.8462   3.8914   3.9732   4.0141
     4.0196   4.0354   4.0419   4.0736   4.1038   4.1460   4.1494   4.1551
     4.1626   4.1775   4.2553   4.2554   4.2648   4.3004   4.4507   4.4827
     4.5908   4.6207   4.6339   4.6460   4.6796   4.7076   4.8109   4.8341
     4.8809   5.1662   5.1911   6.8269   6.8464   6.8767   7.8869   7.9698
     8.0531   8.3093   8.7812   8.9011   9.0302   9.1389   9.3000   9.3065
     9.3328   9.3710   9.3725   9.4271   9.4740   9.4859   9.5481   9.5956
     9.7360   9.7425   9.8191   9.8907   9.9687  10.0194  10.0286  10.0551
    10.0795  10.1655  10.1802  10.1924  10.2485  10.2543  10.2574  10.2907
    10.3254  10.3633  10.3778  10.4188  10.5268  10.7212  10.8030  10.9482
    10.9836  11.0789  11.1045  11.1764  11.2386  11.3078  11.3576  11.3940
    11.4162  11.4476  11.4925  11.5376  11.6290  11.6605  11.7350  11.7510

     occupation numbers 
     1.0000   1.0000   1.0000   1.0000   1.0000   1.0000   1.0000   1.0000
     1.0000   1.0000   1.0000   1.0000   1.0000   1.0000   1.0000   1.0000
     1.0000   1.0000   1.0000   1.0000   1.0000   1.0000   1.0000   1.0000
     1.0000   1.0000   1.0000   1.0000   1.0000   1.0000   1.0000   1.0000
     1.0000   1.0000   1.0000   1.0000   1.0000   1.0000   1.0000   1.0000
     1.0000   1.0000   1.0000   1.0000   1.0000   1.0000   1.0000   1.0000
     1.0000   1.0000   1.0000   1.0000   1.0000   1.0000   1.0000   1.0000
     1.0000   1.0000   1.0000   1.0000   1.0000   1.0000   1.0000   1.0000
     1.0000   1.0000   1.0000   1.0000   1.0000   1.0000   1.0000   1.0000
     1.0000   1.0000   1.0000   1.0000   1.0000   1.0000   1.0000   1.0000
     1.0000   1.0000   1.0000   1.0000   1.0000   1.0000   1.0000   1.0000
     1.0000   1.0000   1.0000   1.0000   1.0000   1.0000   1.0000   1.0000
     1.0000   1.0000   1.0000   1.0000   1.0000   1.0000   1.0000   1.0000
     1.0000   1.0000   1.0000   1.0000   1.0000   1.0000   1.0000   1.0000
     1.0000   1.0000   1.0000   1.0000   1.0000   1.0000   1.0000   1.0000
     1.0000   1.0000   1.0000   1.0000   1.0000   1.0000   1.0000   1.0000
     1.0000   1.0000   1.0000   1.0000   1.0000   1.0000   1.0000   1.0000
     1.0000   1.0000   1.0000   1.0000   1.0000   1.0000   1.0000   1.0000
     1.0000   1.0000   1.0000   1.0000   1.0000   1.0000   1.0000   1.0000
     1.0000   1.0000   1.0000   1.0000   1.0000   1.0000   1.0000   1.0000
     1.0000   1.0000   1.0000   1.0000   1.0000   1.0000   1.0000   1.0000
     1.0000   1.0000   1.0000   1.0000   1.0000   1.0000   1.0000   1.0000
     1.0000   1.0000   1.0000   1.0000   1.0000   1.0000   1.0000   1.0000
     1.0000   1.0000   1.0000   1.0000   1.0000   1.0000   1.0000   1.0000
     1.0000   1.0000   1.0000   1.0000   1.0000   1.0000   1.0000   1.0000
     1.0000   1.0000   1.0000   1.0000   1.0000   1.0000   1.0000   1.0000
     1.0000   1.0000   1.0000   1.0000   1.0000   1.0000   1.0000   1.0000
     1.0000   1.0000   1.0000   1.0000   1.0000   1.0000   1.0000   1.0000
     1.0000   1.0000   1.0000   1.0000   1.0000   1.0000   1.0000   1.0000
     1.0000   1.0000   1.0000   1.0000   1.0000   1.0000   1.0000   1.0000
     1.0000   1.0000   1.0000   1.0000   1.0000   1.0000   1.0000   1.0000
     1.0000   1.0000   1.0000   1.0000   1.0000   1.0000   1.0000   1.0000
     1.0000   1.0000   1.0000   1.0000   1.0000   1.0000   1.0000   1.0000
     1.0000   1.0000   1.0000   1.0000   1.0000   1.0000   1.0000   1.0000
     1.0000   1.0000   1.0000   1.0000   1.0000   1.0000   1.0000   1.0000
     1.0000   1.0000   1.0000   1.0000   1.0000   1.0000   0.0000   0.0000
     0.0000   0.0000   0.0000   0.0000   0.0000   0.0000   0.0000   0.0000
     0.0000   0.0000   0.0000   0.0000   0.0000   0.0000   0.0000   0.0000
     0.0000   0.0000   0.0000   0.0000   0.0000   0.0000   0.0000   0.0000
     0.0000   0.0000   0.0000   0.0000   0.0000   0.0000   0.0000   0.0000
     0.0000   0.0000   0.0000   0.0000   0.0000   0.0000   0.0000   0.0000
     0.0000   0.0000   0.0000   0.0000   0.0000   0.0000   0.0000   0.0000
     0.0000   0.0000   0.0000   0.0000   0.0000   0.0000   0.0000   0.0000

          k = 0.2500-0.2500-0.5000 (269988 PWs)   bands (ev):

   -86.2091 -49.6294 -49.6294 -49.4479  -7.4397  -7.3891  -7.2062  -7.1904
    -7.1645  -7.0972  -7.0021  -6.9286  -6.8640  -6.8338  -6.8107  -6.7849
    -6.7285  -6.7144  -6.6939  -6.6799  -6.6548  -6.6332  -6.6124  -6.6084
    -6.5837  -6.5617  -6.5244  -6.5135  -6.4969  -6.4834  -6.4689  -6.4586
    -6.4239  -6.3944  -6.3682  -1.1140  -1.1118  -1.1110  -1.0939  -1.0910
    -1.0905  -1.0848  -1.0819  -1.0800  -0.9879  -0.9816  -0.9776  -0.9710
    -0.9672  -0.9637  -0.8079  -0.8001  -0.7848  -0.7791  -0.7704  -0.7647
    -0.7579  -0.7531  -0.7512  -0.7429  -0.7380  -0.7351  -0.7312  -0.7223
    -0.7189  -0.7161  -0.7151  -0.7123  -0.7075  -0.7063  -0.7035  -0.6966
    -0.6932  -0.6881  -0.6827  -0.6798  -0.6763  -0.6703  -0.6680  -0.6660
    -0.6632  -0.6601  -0.6549  -0.6507  -0.6461  -0.6456  -0.6363  -0.6327
    -0.6290  -0.6198  -0.6181  -0.6153  -0.6104  -0.6079  -0.5991  -0.5970
    -0.5909  -0.5853  -0.5807  -0.5713  -0.5679  -0.5619  -0.5590  -0.5576
    -0.5498  -0.5457  -0.5436  -0.5385  -0.5340  -0.5288  -0.5217  -0.5124
    -0.5113  -0.5020  -0.4994  -0.4945  -0.4917  -0.4773  -0.4677  -0.4561
    -0.4498  -0.4437  -0.4339  -0.4206  -0.4172  -0.4079  -0.4027  -0.4006
    -0.3928  -0.3830  -0.3736  -0.3708  -0.3674  -0.3667  -0.3601  -0.3512
    -0.3464  -0.3412  -0.3363  -0.3325  -0.3277  -0.3235  -0.3221  -0.3163
    -0.3135  -0.3117  -0.3085  -0.3060  -0.3010  -0.2989  -0.2927  -0.2881
    -0.2843  -0.2821  -0.2770  -0.2743  -0.2670  -0.2660  -0.2623  -0.2550
    -0.2507  -0.2466  -0.2433  -0.2398  -0.2384  -0.2288  -0.2247  -0.2207
    -0.2147  -0.2071  -0.2052  -0.1968  -0.1907  -0.1870  -0.1763  -0.1670
    -0.1609  -0.1529  -0.1411  -0.1362  -0.1141  -0.1034  -0.0826  -0.0692
    -0.0499  -0.0484  -0.0425  -0.0283  -0.0002   0.0080   0.5181   0.5803
     0.7155   0.7743   0.8142   0.8477   0.8878   0.8897   0.9349   0.9488
     1.0023   1.0153   1.0401   1.0698   1.0761   1.1164   1.1741   1.4076
     1.4451   1.4962   1.5288   1.6010   1.6549   1.6881   1.7909   1.9986
     2.4840   2.5191   2.5263   2.5437   2.5763   2.5906   2.6681   2.6890
     2.7282   2.7711   2.7938   2.8222   2.8775   2.9713   3.0145   3.0840
     3.1950   3.2774   3.2920   3.3368   3.3900   3.4147   3.4338   3.4512
     3.4752   3.4908   3.5227   3.5337   3.5758   3.6077   3.6300   3.6547
     3.6702   3.6961   3.6973   3.7138   3.7377   3.7467   3.7747   3.7890
     3.8409   3.9386   3.9739   3.9935   4.0329   4.0461   4.1031   4.1203
     4.1805   4.2070   4.2264   4.2807   4.3274   4.3666   4.3774   4.4163
     4.4784   4.5582   4.7299   4.7966   4.8018   4.8597   4.8676   4.9418
     5.0012   5.0349   5.0443   6.8298   6.8435   6.8798   7.9271   7.9468
     8.1786   8.5705   8.6555   8.8893   9.0240   9.0841   9.1852   9.2494
     9.3395   9.3694   9.3786   9.4750   9.5083   9.6053   9.6094   9.6369
     9.6621   9.7272   9.7694   9.7909   9.8141   9.8754   9.9102   9.9507
     9.9633  10.0387  10.1114  10.1230  10.1863  10.2240  10.2996  10.3494
    10.3976  10.4690  10.5943  10.6520  10.6878  10.7390  10.8256  10.8941
    10.9250  11.0443  11.0638  11.1672  11.2113  11.3268  11.3833  11.3915
    11.4618  11.4951  11.5134  11.5417  11.6008  11.6175  11.6475  11.6637

     occupation numbers 
     1.0000   1.0000   1.0000   1.0000   1.0000   1.0000   1.0000   1.0000
     1.0000   1.0000   1.0000   1.0000   1.0000   1.0000   1.0000   1.0000
     1.0000   1.0000   1.0000   1.0000   1.0000   1.0000   1.0000   1.0000
     1.0000   1.0000   1.0000   1.0000   1.0000   1.0000   1.0000   1.0000
     1.0000   1.0000   1.0000   1.0000   1.0000   1.0000   1.0000   1.0000
     1.0000   1.0000   1.0000   1.0000   1.0000   1.0000   1.0000   1.0000
     1.0000   1.0000   1.0000   1.0000   1.0000   1.0000   1.0000   1.0000
     1.0000   1.0000   1.0000   1.0000   1.0000   1.0000   1.0000   1.0000
     1.0000   1.0000   1.0000   1.0000   1.0000   1.0000   1.0000   1.0000
     1.0000   1.0000   1.0000   1.0000   1.0000   1.0000   1.0000   1.0000
     1.0000   1.0000   1.0000   1.0000   1.0000   1.0000   1.0000   1.0000
     1.0000   1.0000   1.0000   1.0000   1.0000   1.0000   1.0000   1.0000
     1.0000   1.0000   1.0000   1.0000   1.0000   1.0000   1.0000   1.0000
     1.0000   1.0000   1.0000   1.0000   1.0000   1.0000   1.0000   1.0000
     1.0000   1.0000   1.0000   1.0000   1.0000   1.0000   1.0000   1.0000
     1.0000   1.0000   1.0000   1.0000   1.0000   1.0000   1.0000   1.0000
     1.0000   1.0000   1.0000   1.0000   1.0000   1.0000   1.0000   1.0000
     1.0000   1.0000   1.0000   1.0000   1.0000   1.0000   1.0000   1.0000
     1.0000   1.0000   1.0000   1.0000   1.0000   1.0000   1.0000   1.0000
     1.0000   1.0000   1.0000   1.0000   1.0000   1.0000   1.0000   1.0000
     1.0000   1.0000   1.0000   1.0000   1.0000   1.0000   1.0000   1.0000
     1.0000   1.0000   1.0000   1.0000   1.0000   1.0000   1.0000   1.0000
     1.0000   1.0000   1.0000   1.0000   1.0000   1.0000   1.0000   1.0000
     1.0000   1.0000   1.0000   1.0000   1.0000   1.0000   1.0000   1.0000
     1.0000   1.0000   1.0000   1.0000   1.0000   1.0000   1.0000   1.0000
     1.0000   1.0000   1.0000   1.0000   1.0000   1.0000   1.0000   1.0000
     1.0000   1.0000   1.0000   1.0000   1.0000   1.0000   1.0000   1.0000
     1.0000   1.0000   1.0000   1.0000   1.0000   1.0000   1.0000   1.0000
     1.0000   1.0000   1.0000   1.0000   1.0000   1.0000   1.0000   1.0000
     1.0000   1.0000   1.0000   1.0000   1.0000   1.0000   1.0000   1.0000
     1.0000   1.0000   1.0000   1.0000   1.0000   1.0000   1.0000   1.0000
     1.0000   1.0000   1.0000   1.0000   1.0000   1.0000   1.0000   1.0000
     1.0000   1.0000   1.0000   1.0000   1.0000   1.0000   1.0000   1.0000
     1.0000   1.0000   1.0000   1.0000   1.0000   1.0000   1.0000   1.0000
     1.0000   1.0000   1.0000   1.0000   1.0000   1.0000   1.0000   1.0000
     1.0000   1.0000   1.0000   1.0000   1.0000   1.0000   0.0000   0.0000
     0.0000   0.0000   0.0000   0.0000   0.0000   0.0000   0.0000   0.0000
     0.0000   0.0000   0.0000   0.0000   0.0000   0.0000   0.0000   0.0000
     0.0000   0.0000   0.0000   0.0000   0.0000   0.0000   0.0000   0.0000
     0.0000   0.0000   0.0000   0.0000   0.0000   0.0000   0.0000   0.0000
     0.0000   0.0000   0.0000   0.0000   0.0000   0.0000   0.0000   0.0000
     0.0000   0.0000   0.0000   0.0000   0.0000   0.0000   0.0000   0.0000
     0.0000   0.0000   0.0000   0.0000   0.0000   0.0000   0.0000   0.0000

     the Fermi energy is     7.0405 ev

!    total energy              =   -9991.22325424 Ry
     total all-electron energy =   -138896.844044 Ry
     estimated scf accuracy    <          2.9E-09 Ry
     smearing contrib. (-TS)   =      -0.00000000 Ry
     internal energy E=F+TS    =   -9991.22325424 Ry

     The total energy is F=E-TS. E is the sum of the following terms:
     one-electron contribution =   -3018.81632857 Ry
     hartree contribution      =    2076.60619293 Ry
     xc contribution           =   -1652.39370187 Ry
     ewald contribution        =   -2920.92048935 Ry
     one-center paw contrib.   =   -4475.69892739 Ry
      -> PAW hartree energy AE =     123.16082873 Ry
      -> PAW hartree energy PS =    -122.51860587 Ry
      -> PAW xc energy AE      =    -143.20017518 Ry
      -> PAW xc energy PS      =      47.13896582 Ry
      -> total E_H with PAW    =    2077.24841579 Ry
      -> total E_XC with PAW   =   -1748.45491122 Ry

     total magnetization       =     2.00 Bohr mag/cell
     absolute magnetization    =     2.22 Bohr mag/cell

     convergence has been achieved in  17 iterations

     Writing all to output data dir ./out/Co_qp1.save/
 
     init_run     :      9.32s CPU      9.92s WALL (       1 calls)
     electrons    :    392.47s CPU    398.27s WALL (       1 calls)

     Called by init_run:
     wfcinit      :      5.67s CPU      5.89s WALL (       1 calls)
     wfcinit:atom :      0.06s CPU      0.07s WALL (       4 calls)
     wfcinit:wfcr :      5.40s CPU      5.58s WALL (       4 calls)
     potinit      :      1.31s CPU      1.43s WALL (       1 calls)
     hinit0       :      0.45s CPU      0.53s WALL (       1 calls)

     Called by electrons:
     c_bands      :    355.64s CPU    360.56s WALL (      18 calls)
     sum_band     :     31.42s CPU     31.98s WALL (      18 calls)
     v_of_rho     :      1.38s CPU      1.47s WALL (      18 calls)
     v_h          :      0.06s CPU      0.06s WALL (      18 calls)
     v_xc         :      1.32s CPU      1.40s WALL (      18 calls)
     newd         :      1.04s CPU      1.11s WALL (      18 calls)
     PAW_pot      :      2.87s CPU      2.93s WALL (      18 calls)
     mix_rho      :      0.46s CPU      0.48s WALL (      18 calls)

     Called by c_bands:
     init_us_2    :      4.03s CPU      4.08s WALL (     148 calls)
     init_us_2:cp :      4.03s CPU      4.08s WALL (     148 calls)
     cegterg      :    290.54s CPU    294.80s WALL (      72 calls)

     Called by sum_band:
     sum_band:wei :      0.05s CPU      0.05s WALL (      18 calls)
     sum_band:loo :     28.40s CPU     28.86s WALL (      18 calls)
     sum_band:buf :      0.58s CPU      0.68s WALL (      72 calls)
     sum_band:ini :      1.97s CPU      1.98s WALL (      72 calls)
     sum_band:cal :     10.40s CPU     10.49s WALL (      72 calls)
     sum_band:bec :      0.21s CPU      0.21s WALL (      72 calls)
     addusdens    :      1.14s CPU      1.17s WALL (      18 calls)
                                        0.00s GPU  (      18 calls)
     addusd:skk   :      0.02s CPU      0.02s WALL (      54 calls)
                                        0.00s GPU  (      54 calls)

     Called by *egterg:
     cdiaghg      :     33.82s CPU     34.08s WALL (     586 calls)
     cegterg:over :     22.18s CPU     22.38s WALL (     518 calls)
     cegterg:upda :     22.60s CPU     22.78s WALL (     518 calls)
     cegterg:last :     34.65s CPU     34.92s WALL (     159 calls)
     cdiaghg:chol :      2.09s CPU      2.10s WALL (     586 calls)
     cdiaghg:inve :      3.09s CPU      3.10s WALL (     586 calls)
     cdiaghg:para :      4.91s CPU      4.96s WALL (    1172 calls)
     h_psi        :    141.13s CPU    143.41s WALL (     594 calls)
     s_psi        :     32.25s CPU     32.44s WALL (     594 calls)
     g_psi        :      0.74s CPU      0.74s WALL (     518 calls)

     Called by h_psi:
     h_psi:calbec :     31.79s CPU     32.11s WALL (     594 calls)
     vloc_psi     :     75.19s CPU     75.97s WALL (     594 calls)
     add_vuspsi   :     32.87s CPU     33.26s WALL (     594 calls)

     General routines
     calbec       :     42.19s CPU     42.60s WALL (     666 calls)
     fft          :      1.06s CPU      1.24s WALL (     378 calls)
     ffts         :      0.10s CPU      0.13s WALL (      36 calls)
     fftw         :     83.71s CPU     84.68s WALL (  154452 calls)
 
     Parallel routines

     PAW routines
     PAW_pot      :      2.87s CPU      2.93s WALL (      18 calls)
     PAW_symme    :      0.24s CPU      0.25s WALL (      36 calls)
 
     PWSCF        :   6m48.46s CPU   6m57.98s WALL

 
   This run was terminated on:   4:16:53   7Jul2024            

=------------------------------------------------------------------------------=
   JOB DONE.
=------------------------------------------------------------------------------=
