
     Program PWSCF v.7.2 starts on  8Jul2024 at 21:50:52 

     This program is part of the open-source Quantum ESPRESSO suite
     for quantum simulation of materials; please cite
         "P. Giannozzi et al., J. Phys.:Condens. Matter 21 395502 (2009);
         "P. Giannozzi et al., J. Phys.:Condens. Matter 29 465901 (2017);
         "P. Giannozzi et al., J. Chem. Phys. 152 154105 (2020);
          URL http://www.quantum-espresso.org", 
     in publications or presentations arising from this work. More details at
     http://www.quantum-espresso.org/quote

     Parallel version (MPI), running on   784 processors

     MPI processes distributed on     7 nodes
     235523 MiB available memory on the printing compute node when the environment starts
 
     Reading input from 3.Co_vac_in_ZnS.nscf.qp1.in

     Current dimensions of program PWSCF are:
     Max number of different atomic species (ntypx) = 10
     Max number of k-points (npk) =  40000
     Max angular momentum in pseudopotentials (lmaxx) =  4

     Atomic positions and unit cell read from directory:
     ./out/Co_qp1.save/
 
     file S.pbe-n-kjpaw_psl.1.0.0.UPF: wavefunction(s)  3S 3P renormalized
     file Zn.pbe-dnl-kjpaw_psl.1.0.0.UPF: wavefunction(s)  4S 3D renormalized
     file Co.pbe-spn-kjpaw_psl.0.3.1.UPF: wavefunction(s)  3P 3D renormalized
     [opt_tetra]  Optimized tetrahedron method is used.
 
     K-points division:     npool     =       7
     R & G space division:  proc/nbgrp/npool/nimage =     112
     Subspace diagonalization in iterative solution of the eigenvalue problem:
     one sub-group per band group will be used
     scalapack distributed-memory algorithm (size of sub-group:  3*  3 procs)

 
     Parallelization info
     --------------------
     sticks:   dense  smooth     PW     G-vecs:    dense   smooth      PW
     Min         180     180     46                19282    19282    2562
     Max         181     181     47                19291    19291    2573
     Sum       20217   20217   5249              2160009  2160009  287777
 
     Using Slab Decomposition
 


     bravais-lattice index     =            1
     lattice parameter (alat)  =      20.5686  a.u.
     unit-cell volume          =    8701.8437 (a.u.)^3
     number of atoms/cell      =           63
     number of atomic types    =            3
     number of electrons       =       574.00
     number of Kohn-Sham states=          344
     kinetic-energy cutoff     =     150.0000  Ry
     charge density cutoff     =     600.0000  Ry
     Exchange-correlation= SLA  PW   PBX  PBC
                           (   1   4   3   4   0   0   0)

     celldm(1)=  20.568554  celldm(2)=   0.000000  celldm(3)=   0.000000
     celldm(4)=   0.000000  celldm(5)=   0.000000  celldm(6)=   0.000000

     crystal axes: (cart. coord. in units of alat)
               a(1) = (   1.000000   0.000000   0.000000 )  
               a(2) = (   0.000000   1.000000   0.000000 )  
               a(3) = (   0.000000   0.000000   1.000000 )  

     reciprocal axes: (cart. coord. in units 2 pi/alat)
               b(1) = (  1.000000  0.000000  0.000000 )  
               b(2) = (  0.000000  1.000000  0.000000 )  
               b(3) = (  0.000000  0.000000  1.000000 )  


     PseudoPot. # 1 for S  read from file:
     /arf/home/amuhaymin/pseudo/S.pbe-n-kjpaw_psl.1.0.0.UPF
     MD5 check sum: fb45dfebcf3e72a4e1bd4a866ec2e262
     Pseudo is Projector augmented-wave + core cor, Zval =  6.0
     Generated using &quot;atomic&quot; code by A. Dal Corso  v.6.3
     Shape of augmentation charge: PSQ
     Using radial grid of 1151 points,  6 beta functions with: 
                l(1) =   0
                l(2) =   0
                l(3) =   1
                l(4) =   1
                l(5) =   2
                l(6) =   2
     Q(r) pseudized with 0 coefficients 


     PseudoPot. # 2 for Zn read from file:
     /arf/home/amuhaymin/pseudo/Zn.pbe-dnl-kjpaw_psl.1.0.0.UPF
     MD5 check sum: c608214d9520ac179f507641260889e3
     Pseudo is Projector augmented-wave + core cor, Zval = 12.0
     Generated using &quot;atomic&quot; code by A. Dal Corso  v.6.2.2
     Shape of augmentation charge: PSQ
     Using radial grid of 1201 points,  6 beta functions with: 
                l(1) =   0
                l(2) =   0
                l(3) =   1
                l(4) =   1
                l(5) =   2
                l(6) =   2
     Q(r) pseudized with 0 coefficients 


     PseudoPot. # 3 for Co read from file:
     /arf/home/amuhaymin/pseudo/Co.pbe-spn-kjpaw_psl.0.3.1.UPF
     MD5 check sum: b0a1ad65bf214e88c1f3d33b20c7d919
     Pseudo is Projector augmented-wave + core cor, Zval = 17.0
     Generated using &quot;atomic&quot; code by A. Dal Corso  v.6.2.2
     Shape of augmentation charge: PSQ
     Using radial grid of 1193 points,  6 beta functions with: 
                l(1) =   0
                l(2) =   0
                l(3) =   1
                l(4) =   1
                l(5) =   2
                l(6) =   2
     Q(r) pseudized with 0 coefficients 


     atomic species   valence    mass     pseudopotential
        S              6.00    32.06500     S ( 1.00)
        Zn            12.00    65.38000     Zn( 1.00)
        Co            17.00    63.54600     Co( 1.00)

     Starting magnetic structure 
     atomic species   magnetization
        S            0.000
        Zn           0.000
        Co           0.235

      6 Sym. Ops. (no inversion) found


                                    s                        frac. trans.

      isym =  1     identity                                     

 cryst.   s( 1) = (     1          0          0      )
                  (     0          1          0      )
                  (     0          0          1      )

 cart.    s( 1) = (  1.0000000  0.0000000  0.0000000 )
                  (  0.0000000  1.0000000  0.0000000 )
                  (  0.0000000  0.0000000  1.0000000 )


      isym =  2     120 deg rotation - cart. axis [-1,-1,-1]     

 cryst.   s( 2) = (     0          0          1      )
                  (     1          0          0      )
                  (     0          1          0      )

 cart.    s( 2) = (  0.0000000  1.0000000  0.0000000 )
                  (  0.0000000  0.0000000  1.0000000 )
                  (  1.0000000  0.0000000  0.0000000 )


      isym =  3     120 deg rotation - cart. axis [1,1,1]        

 cryst.   s( 3) = (     0          1          0      )
                  (     0          0          1      )
                  (     1          0          0      )

 cart.    s( 3) = (  0.0000000  0.0000000  1.0000000 )
                  (  1.0000000  0.0000000  0.0000000 )
                  (  0.0000000  1.0000000  0.0000000 )


      isym =  4     inv. 180 deg rotation - cart. axis [1,-1,0]  

 cryst.   s( 4) = (     0          1          0      )
                  (     1          0          0      )
                  (     0          0          1      )

 cart.    s( 4) = (  0.0000000  1.0000000  0.0000000 )
                  (  1.0000000  0.0000000  0.0000000 )
                  (  0.0000000  0.0000000  1.0000000 )


      isym =  5     inv. 180 deg rotation - cart. axis [-1,0,1]  

 cryst.   s( 5) = (     0          0          1      )
                  (     0          1          0      )
                  (     1          0          0      )

 cart.    s( 5) = (  0.0000000  0.0000000  1.0000000 )
                  (  0.0000000  1.0000000  0.0000000 )
                  (  1.0000000  0.0000000  0.0000000 )


      isym =  6     inv. 180 deg rotation - cart. axis [0,1,-1]  

 cryst.   s( 6) = (     1          0          0      )
                  (     0          0          1      )
                  (     0          1          0      )

 cart.    s( 6) = (  1.0000000  0.0000000  0.0000000 )
                  (  0.0000000  0.0000000  1.0000000 )
                  (  0.0000000  1.0000000  0.0000000 )


     point group C_3v (3m)  
     there are  3 classes
     the character table:

       E     2C3   3s_v 
A_1    1.00  1.00  1.00
A_2    1.00  1.00 -1.00
E      2.00 -1.00  0.00

     the symmetry operations in each class and the name of the first element:

     E        1
          identity                                               
     2C3      2    3
          120 deg rotation - cart. axis [-1,-1,-1]               
     3s_v     4    5    6
          inv. 180 deg rotation - cart. axis [1,-1,0]            

   Cartesian axes

     site n.     atom                  positions (alat units)
         1           Zn  tau(   1) = (   0.0001122   0.0001122   0.0001122  )
         2           Zn  tau(   2) = (   0.0001442   0.2496628   0.2496628  )
         3           Zn  tau(   3) = (   0.2496628   0.0001442   0.2496628  )
         4           Zn  tau(   4) = (   0.2496628   0.2496628   0.0001442  )
         5           S   tau(   5) = (   0.1245559   0.3745487   0.3745487  )
         6           S   tau(   6) = (   0.1246764   0.1246764   0.1246764  )
         7           S   tau(   7) = (   0.3745487   0.3745487   0.1245559  )
         8           S   tau(   8) = (   0.3745487   0.1245559   0.3745487  )
         9           Zn  tau(   9) = (   0.0022835   0.0022835   0.4986853  )
        10           Zn  tau(  10) = (   0.0023997   0.2474620   0.7499908  )
        11           Zn  tau(  11) = (   0.2474620   0.0023997   0.7499908  )
        12           Zn  tau(  12) = (   0.2524827   0.2524827   0.4995461  )
        13           S   tau(  13) = (   0.1247681   0.3746802   0.8745649  )
        14           S   tau(  14) = (   0.1257710   0.1257710   0.6235254  )
        15           S   tau(  15) = (   0.3773777   0.3773777   0.6221813  )
        16           S   tau(  16) = (   0.3746802   0.1247681   0.8745649  )
        17           Zn  tau(  17) = (   0.0022835   0.4986853   0.0022835  )
        18           Zn  tau(  18) = (   0.0023997   0.7499908   0.2474620  )
        19           Zn  tau(  19) = (   0.2524827   0.4995461   0.2524827  )
        20           Zn  tau(  20) = (   0.2474620   0.7499908   0.0023997  )
        21           S   tau(  21) = (   0.1247681   0.8745649   0.3746802  )
        22           S   tau(  22) = (   0.1257710   0.6235254   0.1257710  )
        23           S   tau(  23) = (   0.3746802   0.8745649   0.1247681  )
        24           S   tau(  24) = (   0.3773777   0.6221813   0.3773777  )
        25           Zn  tau(  25) = (   0.0035780   0.5002371   0.5002371  )
        26           Zn  tau(  26) = (   0.0032808   0.7486777   0.7486777  )
        27           Zn  tau(  27) = (   0.2499037   0.4961869   0.7462466  )
        28           Zn  tau(  28) = (   0.2499037   0.7462466   0.4961869  )
        29           S   tau(  29) = (   0.1246284   0.8746328   0.8746328  )
        30           S   tau(  30) = (   0.1259487   0.6246984   0.6246984  )
        31           S   tau(  31) = (   0.3727047   0.8764716   0.6220581  )
        32           S   tau(  32) = (   0.3727047   0.6220581   0.8764716  )
        33           Zn  tau(  33) = (   0.4986853   0.0022835   0.0022835  )
        34           Zn  tau(  34) = (   0.4995461   0.2524827   0.2524827  )
        35           Zn  tau(  35) = (   0.7499908   0.0023997   0.2474620  )
        36           Zn  tau(  36) = (   0.7499908   0.2474620   0.0023997  )
        37           S   tau(  37) = (   0.6221813   0.3773777   0.3773777  )
        38           S   tau(  38) = (   0.6235254   0.1257710   0.1257710  )
        39           S   tau(  39) = (   0.8745649   0.3746802   0.1247681  )
        40           S   tau(  40) = (   0.8745649   0.1247681   0.3746802  )
        41           Zn  tau(  41) = (   0.5002371   0.0035780   0.5002371  )
        42           Zn  tau(  42) = (   0.4961869   0.2499037   0.7462466  )
        43           Zn  tau(  43) = (   0.7486777   0.0032808   0.7486777  )
        44           Zn  tau(  44) = (   0.7462466   0.2499037   0.4961869  )
        45           S   tau(  45) = (   0.6220581   0.3727047   0.8764716  )
        46           S   tau(  46) = (   0.6246984   0.1259487   0.6246984  )
        47           S   tau(  47) = (   0.8764716   0.3727047   0.6220581  )
        48           S   tau(  48) = (   0.8746328   0.1246284   0.8746328  )
        49           Zn  tau(  49) = (   0.5002371   0.5002371   0.0035780  )
        50           Zn  tau(  50) = (   0.4961869   0.7462466   0.2499037  )
        51           Zn  tau(  51) = (   0.7462466   0.4961869   0.2499037  )
        52           Zn  tau(  52) = (   0.7486777   0.7486777   0.0032808  )
        53           S   tau(  53) = (   0.6220581   0.8764716   0.3727047  )
        54           S   tau(  54) = (   0.6246984   0.6246984   0.1259487  )
        55           S   tau(  55) = (   0.8746328   0.8746328   0.1246284  )
        56           S   tau(  56) = (   0.8764716   0.6220581   0.3727047  )
        57           Co  tau(  57) = (   0.4853704   0.4853704   0.4853704  )
        58           Zn  tau(  58) = (   0.4701193   0.7774579   0.7774579  )
        59           Zn  tau(  59) = (   0.7774579   0.4701193   0.7774579  )
        60           Zn  tau(  60) = (   0.7774579   0.7774579   0.4701193  )
        61           S   tau(  61) = (   0.6265895   0.8757611   0.8757611  )
        62           S   tau(  62) = (   0.8757611   0.8757611   0.6265895  )
        63           S   tau(  63) = (   0.8757611   0.6265895   0.8757611  )

   Crystallographic axes

     site n.     atom                  positions (cryst. coord.)
         1           Zn  tau(   1) = (  0.0001122  0.0001122  0.0001122  )
         2           Zn  tau(   2) = (  0.0001442  0.2496628  0.2496628  )
         3           Zn  tau(   3) = (  0.2496628  0.0001442  0.2496628  )
         4           Zn  tau(   4) = (  0.2496628  0.2496628  0.0001442  )
         5           S   tau(   5) = (  0.1245559  0.3745487  0.3745487  )
         6           S   tau(   6) = (  0.1246764  0.1246764  0.1246764  )
         7           S   tau(   7) = (  0.3745487  0.3745487  0.1245559  )
         8           S   tau(   8) = (  0.3745487  0.1245559  0.3745487  )
         9           Zn  tau(   9) = (  0.0022835  0.0022835  0.4986853  )
        10           Zn  tau(  10) = (  0.0023997  0.2474620  0.7499908  )
        11           Zn  tau(  11) = (  0.2474620  0.0023997  0.7499908  )
        12           Zn  tau(  12) = (  0.2524827  0.2524827  0.4995461  )
        13           S   tau(  13) = (  0.1247681  0.3746802  0.8745649  )
        14           S   tau(  14) = (  0.1257710  0.1257710  0.6235254  )
        15           S   tau(  15) = (  0.3773777  0.3773777  0.6221813  )
        16           S   tau(  16) = (  0.3746802  0.1247681  0.8745649  )
        17           Zn  tau(  17) = (  0.0022835  0.4986853  0.0022835  )
        18           Zn  tau(  18) = (  0.0023997  0.7499908  0.2474620  )
        19           Zn  tau(  19) = (  0.2524827  0.4995461  0.2524827  )
        20           Zn  tau(  20) = (  0.2474620  0.7499908  0.0023997  )
        21           S   tau(  21) = (  0.1247681  0.8745649  0.3746802  )
        22           S   tau(  22) = (  0.1257710  0.6235254  0.1257710  )
        23           S   tau(  23) = (  0.3746802  0.8745649  0.1247681  )
        24           S   tau(  24) = (  0.3773777  0.6221813  0.3773777  )
        25           Zn  tau(  25) = (  0.0035780  0.5002371  0.5002371  )
        26           Zn  tau(  26) = (  0.0032808  0.7486777  0.7486777  )
        27           Zn  tau(  27) = (  0.2499037  0.4961869  0.7462466  )
        28           Zn  tau(  28) = (  0.2499037  0.7462466  0.4961869  )
        29           S   tau(  29) = (  0.1246284  0.8746328  0.8746328  )
        30           S   tau(  30) = (  0.1259487  0.6246984  0.6246984  )
        31           S   tau(  31) = (  0.3727047  0.8764716  0.6220581  )
        32           S   tau(  32) = (  0.3727047  0.6220581  0.8764716  )
        33           Zn  tau(  33) = (  0.4986853  0.0022835  0.0022835  )
        34           Zn  tau(  34) = (  0.4995461  0.2524827  0.2524827  )
        35           Zn  tau(  35) = (  0.7499908  0.0023997  0.2474620  )
        36           Zn  tau(  36) = (  0.7499908  0.2474620  0.0023997  )
        37           S   tau(  37) = (  0.6221813  0.3773777  0.3773777  )
        38           S   tau(  38) = (  0.6235254  0.1257710  0.1257710  )
        39           S   tau(  39) = (  0.8745649  0.3746802  0.1247681  )
        40           S   tau(  40) = (  0.8745649  0.1247681  0.3746802  )
        41           Zn  tau(  41) = (  0.5002371  0.0035780  0.5002371  )
        42           Zn  tau(  42) = (  0.4961869  0.2499037  0.7462466  )
        43           Zn  tau(  43) = (  0.7486777  0.0032808  0.7486777  )
        44           Zn  tau(  44) = (  0.7462466  0.2499037  0.4961869  )
        45           S   tau(  45) = (  0.6220581  0.3727047  0.8764716  )
        46           S   tau(  46) = (  0.6246984  0.1259487  0.6246984  )
        47           S   tau(  47) = (  0.8764716  0.3727047  0.6220581  )
        48           S   tau(  48) = (  0.8746328  0.1246284  0.8746328  )
        49           Zn  tau(  49) = (  0.5002371  0.5002371  0.0035780  )
        50           Zn  tau(  50) = (  0.4961869  0.7462466  0.2499037  )
        51           Zn  tau(  51) = (  0.7462466  0.4961869  0.2499037  )
        52           Zn  tau(  52) = (  0.7486777  0.7486777  0.0032808  )
        53           S   tau(  53) = (  0.6220581  0.8764716  0.3727047  )
        54           S   tau(  54) = (  0.6246984  0.6246984  0.1259487  )
        55           S   tau(  55) = (  0.8746328  0.8746328  0.1246284  )
        56           S   tau(  56) = (  0.8764716  0.6220581  0.3727047  )
        57           Co  tau(  57) = (  0.4853704  0.4853704  0.4853704  )
        58           Zn  tau(  58) = (  0.4701193  0.7774579  0.7774579  )
        59           Zn  tau(  59) = (  0.7774579  0.4701193  0.7774579  )
        60           Zn  tau(  60) = (  0.7774579  0.7774579  0.4701193  )
        61           S   tau(  61) = (  0.6265895  0.8757611  0.8757611  )
        62           S   tau(  62) = (  0.8757611  0.8757611  0.6265895  )
        63           S   tau(  63) = (  0.8757611  0.6265895  0.8757611  )

     number of k points=    13 (tetrahedron method)
                       cart. coord. in units 2pi/alat
        k(    1) = (   0.0000000   0.0000000   0.0000000), wk =   0.0156250
        k(    2) = (   0.0000000   0.0000000   0.2500000), wk =   0.0937500
        k(    3) = (   0.0000000   0.0000000  -0.5000000), wk =   0.0468750
        k(    4) = (   0.0000000   0.2500000   0.2500000), wk =   0.0937500
        k(    5) = (   0.0000000   0.2500000  -0.5000000), wk =   0.1875000
        k(    6) = (   0.0000000  -0.5000000  -0.5000000), wk =   0.0468750
        k(    7) = (   0.2500000   0.2500000   0.2500000), wk =   0.0312500
        k(    8) = (   0.2500000   0.2500000  -0.5000000), wk =   0.0937500
        k(    9) = (   0.2500000  -0.5000000  -0.5000000), wk =   0.0937500
        k(   10) = (  -0.5000000  -0.5000000  -0.5000000), wk =   0.0156250
        k(   11) = (  -0.2500000   0.0000000   0.2500000), wk =   0.0937500
        k(   12) = (   0.2500000  -0.2500000   0.2500000), wk =   0.0937500
        k(   13) = (   0.2500000  -0.2500000  -0.5000000), wk =   0.0937500

                       cryst. coord.
        k(    1) = (   0.0000000   0.0000000   0.0000000), wk =   0.0156250
        k(    2) = (   0.0000000   0.0000000   0.2500000), wk =   0.0937500
        k(    3) = (   0.0000000   0.0000000  -0.5000000), wk =   0.0468750
        k(    4) = (   0.0000000   0.2500000   0.2500000), wk =   0.0937500
        k(    5) = (   0.0000000   0.2500000  -0.5000000), wk =   0.1875000
        k(    6) = (   0.0000000  -0.5000000  -0.5000000), wk =   0.0468750
        k(    7) = (   0.2500000   0.2500000   0.2500000), wk =   0.0312500
        k(    8) = (   0.2500000   0.2500000  -0.5000000), wk =   0.0937500
        k(    9) = (   0.2500000  -0.5000000  -0.5000000), wk =   0.0937500
        k(   10) = (  -0.5000000  -0.5000000  -0.5000000), wk =   0.0156250
        k(   11) = (  -0.2500000   0.0000000   0.2500000), wk =   0.0937500
        k(   12) = (   0.2500000  -0.2500000   0.2500000), wk =   0.0937500
        k(   13) = (   0.2500000  -0.2500000  -0.5000000), wk =   0.0937500

     Dense  grid:  2160009 G-vectors     FFT dimensions: ( 162, 162, 162)

     Dynamical RAM for                 wfc:      12.65 MB

     Dynamical RAM for     wfc (w. buffer):      63.25 MB

     Dynamical RAM for           str. fact:       0.88 MB

     Dynamical RAM for           local pot:       0.00 MB

     Dynamical RAM for          nlocal pot:      41.70 MB

     Dynamical RAM for                qrad:       5.90 MB

     Dynamical RAM for          rho,v,vnew:       4.17 MB

     Dynamical RAM for           G-vectors:       1.25 MB

     Dynamical RAM for          h,s,v(r/c):       2.40 MB

     Dynamical RAM for          <psi|beta>:       5.95 MB

     Dynamical RAM for                 psi:      25.30 MB

     Dynamical RAM for                hpsi:      25.30 MB

     Dynamical RAM for                spsi:      25.30 MB

     Dynamical RAM for      wfcinit/wfcrot:      34.28 MB

     Dynamical RAM for           addusdens:       9.67 MB

     Estimated static dynamical RAM per process >     120.73 MB

     Estimated max dynamical RAM per process >     204.98 MB

     Estimated total dynamical RAM >     156.94 GB

     Check: negative core charge=   -0.000001
     Generating pointlists ...
     new r_m :   0.0846 (alat units)  1.7397 (a.u.) for type    1
     new r_m :   0.0860 (alat units)  1.7684 (a.u.) for type    2
     new r_m :   0.0846 (alat units)  1.7397 (a.u.) for type    3

     The potential is recalculated from file :
     ./out/Co_qp1.save/charge-density

     Starting wfcs are  413 randomized atomic wfcs
     Checking if some PAW data can be deallocated... 
       PAW data deallocated on  400 nodes for type:  1
       PAW data deallocated on  396 nodes for type:  2
       PAW data deallocated on  772 nodes for type:  3

     Band Structure Calculation
     Davidson diagonalization with overlap

     Computing kpt #:     1  of     4 on this pool
     c_bands:  2 eigenvalues not converged
     total cpu time spent up to now is      158.0 secs

     Computing kpt #:     2  of     4 on this pool
     c_bands:  4 eigenvalues not converged
     total cpu time spent up to now is      298.6 secs

     Computing kpt #:     3  of     4 on this pool
     total cpu time spent up to now is      423.4 secs

     Computing kpt #:     4  of     4 on this pool
     c_bands:  2 eigenvalues not converged
     total cpu time spent up to now is      497.8 secs

     ethr =  1.74E-12,  avg # of iterations =111.7

     total cpu time spent up to now is      569.0 secs

     End of band structure calculation

 ------ SPIN UP ------------


          k = 0.0000 0.0000 0.0000 (269825 PWs)   bands (ev):

   -88.2771 -51.7791 -51.7791 -51.2060  -7.6215  -7.1579  -7.1579  -7.0998
    -7.0998  -7.0951  -7.0008  -6.8898  -6.8898  -6.8316  -6.8263  -6.7787
    -6.7787  -6.7649  -6.7649  -6.7265  -6.7195  -6.7195  -6.6930  -6.6694
    -6.6694  -6.6635  -6.5379  -6.4992  -6.4992  -6.4403  -6.3971  -6.3971
    -6.3763  -6.3471  -6.3471  -1.1158  -1.1158  -1.1148  -1.0978  -1.0923
    -1.0923  -1.0867  -1.0867  -1.0744  -1.0028  -0.9857  -0.9857  -0.9643
    -0.9643  -0.9531  -0.8363  -0.8363  -0.8267  -0.7812  -0.7812  -0.7793
    -0.7608  -0.7608  -0.7431  -0.7386  -0.7386  -0.7272  -0.7219  -0.7219
    -0.7181  -0.7097  -0.7097  -0.7079  -0.6949  -0.6949  -0.6839  -0.6839
    -0.6764  -0.6756  -0.6690  -0.6690  -0.6610  -0.6587  -0.6587  -0.6544
    -0.6484  -0.6448  -0.6448  -0.6403  -0.6347  -0.6325  -0.6325  -0.6302
    -0.6258  -0.6258  -0.6184  -0.6184  -0.6132  -0.6034  -0.6034  -0.5990
    -0.5883  -0.5883  -0.5849  -0.5799  -0.5799  -0.5450  -0.5450  -0.5422
    -0.5384  -0.5351  -0.5351  -0.5249  -0.5240  -0.5109  -0.5109  -0.5084
    -0.5084  -0.4869  -0.4869  -0.4819  -0.4794  -0.4794  -0.4691  -0.4691
    -0.4627  -0.4577  -0.4577  -0.4468  -0.4149  -0.3903  -0.3903  -0.3901
    -0.3849  -0.3849  -0.3790  -0.3721  -0.3721  -0.3608  -0.3608  -0.3528
    -0.3503  -0.3430  -0.3430  -0.3399  -0.3367  -0.3367  -0.3242  -0.3185
    -0.3185  -0.3163  -0.3144  -0.3144  -0.3088  -0.3056  -0.3056  -0.3043
    -0.2942  -0.2942  -0.2763  -0.2763  -0.2735  -0.2652  -0.2652  -0.2605
    -0.2547  -0.2547  -0.2540  -0.2540  -0.2471  -0.2435  -0.2421  -0.2421
    -0.2230  -0.2213  -0.2213  -0.2052  -0.1871  -0.1871  -0.1791  -0.1770
    -0.1770  -0.1617  -0.1342  -0.1342  -0.1258  -0.1258  -0.1212  -0.0924
     0.0223   0.0306   0.0306   0.0411   0.0715   0.0715   0.1102   0.3191
     0.3329   0.3329   0.8808   0.8808   0.9247   0.9256   0.9727   0.9727
     1.0177   1.0177   1.1283   1.3678   1.3682   1.3682   1.4791   1.4791
     1.5349   1.5378   1.5684   1.5684   1.6749   1.6749   1.9630   2.5321
     2.5321   2.6410   2.6448   2.6448   2.6644   2.6771   2.6771   2.7448
     2.7694   2.7694   2.7865   2.8231   2.8305   2.8305   2.8881   2.8881
     2.9125   2.9235   2.9235   2.9553   2.9553   2.9772   2.9843   3.0158
     3.0158   3.0459   3.1545   3.1545   3.1774   3.2657   3.2657   3.2910
     3.6063   3.6063   3.6883   3.7935   3.7935   4.1052   4.1370   4.1370
     4.1706   4.2230   4.2230   4.2392   4.2870   4.2870   4.3430   4.3972
     4.3972   4.4287   4.4287   4.4451   4.4481   4.4481   4.5057   4.5470
     4.5470   4.5654   4.5654   4.5696   4.5741   4.6121   4.6121   4.6212
     5.1905   5.1905   5.3122   5.7300   5.7301   5.9254   6.2006   6.2006
     7.3070   7.9632   8.6352   8.6533   8.6533   8.7615   9.0037   9.0037
     9.2953   9.2953   9.3341   9.5426   9.5797   9.5797   9.6765   9.6765
     9.7739   9.8917   9.8917   9.9839   9.9839   9.9866  10.0352  10.0352
    10.0521  10.0679  10.1329  10.1329  10.1434  10.1816  10.1835  10.1835
    10.3118  10.3118  10.4007  10.6552  10.6552  10.8774  11.1094  11.1291
    11.1291  11.2880  11.2880  11.3311  11.3419  11.3419  11.4604  11.7565
    11.7565  11.7942  11.8047  11.8047  11.8822  11.9435  11.9901  11.9901

     occupation numbers 
     1.0000   1.0000   1.0000   1.0000   1.0000   1.0000   1.0000   1.0000
     1.0000   1.0000   1.0000   1.0000   1.0000   1.0000   1.0000   1.0000
     1.0000   1.0000   1.0000   1.0000   1.0000   1.0000   1.0000   1.0000
     1.0000   1.0000   1.0000   1.0000   1.0000   1.0000   1.0000   1.0000
     1.0000   1.0000   1.0000   1.0000   1.0000   1.0000   1.0000   1.0000
     1.0000   1.0000   1.0000   1.0000   1.0000   1.0000   1.0000   1.0000
     1.0000   1.0000   1.0000   1.0000   1.0000   1.0000   1.0000   1.0000
     1.0000   1.0000   1.0000   1.0000   1.0000   1.0000   1.0000   1.0000
     1.0000   1.0000   1.0000   1.0000   1.0000   1.0000   1.0000   1.0000
     1.0000   1.0000   1.0000   1.0000   1.0000   1.0000   1.0000   1.0000
     1.0000   1.0000   1.0000   1.0000   1.0000   1.0000   1.0000   1.0000
     1.0000   1.0000   1.0000   1.0000   1.0000   1.0000   1.0000   1.0000
     1.0000   1.0000   1.0000   1.0000   1.0000   1.0000   1.0000   1.0000
     1.0000   1.0000   1.0000   1.0000   1.0000   1.0000   1.0000   1.0000
     1.0000   1.0000   1.0000   1.0000   1.0000   1.0000   1.0000   1.0000
     1.0000   1.0000   1.0000   1.0000   1.0000   1.0000   1.0000   1.0000
     1.0000   1.0000   1.0000   1.0000   1.0000   1.0000   1.0000   1.0000
     1.0000   1.0000   1.0000   1.0000   1.0000   1.0000   1.0000   1.0000
     1.0000   1.0000   1.0000   1.0000   1.0000   1.0000   1.0000   1.0000
     1.0000   1.0000   1.0000   1.0000   1.0000   1.0000   1.0000   1.0000
     1.0000   1.0000   1.0000   1.0000   1.0000   1.0000   1.0000   1.0000
     1.0000   1.0000   1.0000   1.0000   1.0000   1.0000   1.0000   1.0000
     1.0000   1.0000   1.0000   1.0000   1.0000   1.0000   1.0000   1.0000
     1.0000   1.0000   1.0000   1.0000   1.0000   1.0000   1.0000   1.0000
     1.0000   1.0000   1.0000   1.0000   1.0000   1.0000   1.0000   1.0000
     1.0000   1.0000   1.0000   1.0000   1.0000   1.0000   1.0000   1.0000
     1.0000   1.0000   1.0000   1.0000   1.0000   1.0000   1.0000   1.0000
     1.0000   1.0000   1.0000   1.0000   1.0000   1.0000   1.0000   1.0000
     1.0000   1.0000   1.0000   1.0000   1.0000   1.0000   1.0000   1.0000
     1.0000   1.0000   1.0000   1.0000   1.0000   1.0000   1.0000   1.0000
     1.0000   1.0000   1.0000   1.0000   1.0000   1.0000   1.0000   1.0000
     1.0000   1.0000   1.0000   1.0000   1.0000   1.0000   1.0000   1.0000
     1.0000   1.0000   1.0000   1.0000   1.0000   1.0000   1.0000   1.0000
     1.0000   1.0000   1.0000   1.0000   1.0000   1.0000   1.0000   1.0000
     1.0000   1.0000   1.0000   1.0000   1.0000   1.0000   1.0000   1.0000
     1.0000   1.0000   1.0000   1.0000   1.0000   1.0000   1.0000   1.0000
     0.0000   0.0000   0.0000   0.0000   0.0000   0.0000   0.0000   0.0000
     0.0000   0.0000   0.0000   0.0000   0.0000   0.0000   0.0000   0.0000
     0.0000   0.0000   0.0000   0.0000   0.0000   0.0000   0.0000   0.0000
     0.0000   0.0000   0.0000   0.0000   0.0000   0.0000   0.0000   0.0000
     0.0000   0.0000   0.0000   0.0000   0.0000   0.0000   0.0000   0.0000
     0.0000   0.0000   0.0000   0.0000   0.0000   0.0000   0.0000   0.0000
     0.0000   0.0000   0.0000   0.0000   0.0000   0.0000   0.0000   0.0000

          k = 0.0000 0.0000 0.2500 (269876 PWs)   bands (ev):

   -88.2771 -51.7791 -51.7791 -51.2060  -7.5856  -7.3129  -7.1400  -7.0909
    -7.0786  -7.0220  -6.9479  -6.9477  -6.8979  -6.8898  -6.8336  -6.8119
    -6.8043  -6.7716  -6.7314  -6.7284  -6.7046  -6.6829  -6.6608  -6.6429
    -6.6357  -6.5983  -6.5412  -6.5052  -6.5013  -6.4528  -6.4165  -6.4150
    -6.3906  -6.3672  -6.3500  -1.1152  -1.1139  -1.1136  -1.0973  -1.0922
    -1.0911  -1.0861  -1.0851  -1.0762  -0.9990  -0.9859  -0.9824  -0.9674
    -0.9636  -0.9560  -0.8301  -0.8239  -0.8154  -0.7859  -0.7807  -0.7739
    -0.7602  -0.7572  -0.7438  -0.7396  -0.7361  -0.7255  -0.7250  -0.7231
    -0.7161  -0.7134  -0.7125  -0.7103  -0.6988  -0.6969  -0.6932  -0.6875
    -0.6842  -0.6818  -0.6729  -0.6726  -0.6654  -0.6634  -0.6600  -0.6582
    -0.6538  -0.6525  -0.6467  -0.6462  -0.6366  -0.6362  -0.6330  -0.6317
    -0.6279  -0.6272  -0.6219  -0.6196  -0.6142  -0.6058  -0.6055  -0.5994
    -0.5942  -0.5845  -0.5823  -0.5821  -0.5768  -0.5740  -0.5663  -0.5629
    -0.5558  -0.5424  -0.5359  -0.5289  -0.5284  -0.5203  -0.5158  -0.5000
    -0.4954  -0.4889  -0.4813  -0.4760  -0.4741  -0.4672  -0.4643  -0.4505
    -0.4449  -0.4348  -0.4232  -0.4161  -0.4046  -0.3958  -0.3893  -0.3825
    -0.3812  -0.3782  -0.3762  -0.3744  -0.3586  -0.3583  -0.3486  -0.3474
    -0.3451  -0.3437  -0.3426  -0.3412  -0.3363  -0.3296  -0.3281  -0.3254
    -0.3230  -0.3174  -0.3134  -0.3096  -0.3080  -0.3044  -0.3016  -0.2985
    -0.2973  -0.2817  -0.2810  -0.2787  -0.2729  -0.2679  -0.2655  -0.2632
    -0.2606  -0.2565  -0.2546  -0.2503  -0.2482  -0.2396  -0.2371  -0.2325
    -0.2291  -0.2244  -0.2200  -0.2051  -0.2050  -0.1932  -0.1908  -0.1831
    -0.1804  -0.1775  -0.1644  -0.1622  -0.1502  -0.1470  -0.1238  -0.1144
     0.0013   0.0045   0.0088   0.0137   0.0422   0.0424   0.3141   0.4927
     0.4967   0.5082   0.8741   0.8849   0.9278   0.9325   0.9627   0.9729
     0.9892   1.0608   1.1139   1.1774   1.1922   1.2321   1.2402   1.2855
     1.3854   1.4007   1.5547   1.8428   1.8917   1.9012   1.9741   2.2156
     2.3985   2.4501   2.4927   2.5294   2.5544   2.5814   2.5968   2.6555
     2.6696   2.7043   2.7488   2.7820   2.8588   2.8827   2.8853   2.9073
     3.0767   3.1088   3.1245   3.1504   3.1531   3.1987   3.2077   3.2256
     3.2650   3.2719   3.2721   3.3087   3.3207   3.3317   3.3355   3.4440
     3.5601   3.6357   3.7568   3.8075   3.8598   3.9012   3.9133   4.0549
     4.0919   4.1359   4.1394   4.2187   4.2460   4.2522   4.2855   4.2928
     4.3046   4.3318   4.3570   4.3756   4.4026   4.4317   4.4921   4.5155
     4.5421   4.5648   4.5730   4.5812   4.6022   4.6311   4.6406   4.6538
     4.9303   5.1154   5.1871   5.6910   5.7215   5.9282   6.1493   6.1910
     7.6624   8.1308   8.8069   8.8318   8.8341   8.9584   9.0757   9.1323
     9.2200   9.3396   9.3399   9.4692   9.5432   9.6871   9.6991   9.7277
     9.7669   9.7992   9.8897   9.9293   9.9644   9.9767  10.0133  10.0559
    10.0886  10.0988  10.1593  10.1757  10.2077  10.2272  10.2503  10.2581
    10.3138  10.3930  10.4566  10.6352  10.6886  10.7069  10.8203  10.8754
    10.8805  11.0039  11.0722  11.1911  11.2933  11.3534  11.4665  11.5641
    11.5789  11.6177  11.6851  11.7728  11.7974  11.8146  11.8289  11.8440

     occupation numbers 
     1.0000   1.0000   1.0000   1.0000   1.0000   1.0000   1.0000   1.0000
     1.0000   1.0000   1.0000   1.0000   1.0000   1.0000   1.0000   1.0000
     1.0000   1.0000   1.0000   1.0000   1.0000   1.0000   1.0000   1.0000
     1.0000   1.0000   1.0000   1.0000   1.0000   1.0000   1.0000   1.0000
     1.0000   1.0000   1.0000   1.0000   1.0000   1.0000   1.0000   1.0000
     1.0000   1.0000   1.0000   1.0000   1.0000   1.0000   1.0000   1.0000
     1.0000   1.0000   1.0000   1.0000   1.0000   1.0000   1.0000   1.0000
     1.0000   1.0000   1.0000   1.0000   1.0000   1.0000   1.0000   1.0000
     1.0000   1.0000   1.0000   1.0000   1.0000   1.0000   1.0000   1.0000
     1.0000   1.0000   1.0000   1.0000   1.0000   1.0000   1.0000   1.0000
     1.0000   1.0000   1.0000   1.0000   1.0000   1.0000   1.0000   1.0000
     1.0000   1.0000   1.0000   1.0000   1.0000   1.0000   1.0000   1.0000
     1.0000   1.0000   1.0000   1.0000   1.0000   1.0000   1.0000   1.0000
     1.0000   1.0000   1.0000   1.0000   1.0000   1.0000   1.0000   1.0000
     1.0000   1.0000   1.0000   1.0000   1.0000   1.0000   1.0000   1.0000
     1.0000   1.0000   1.0000   1.0000   1.0000   1.0000   1.0000   1.0000
     1.0000   1.0000   1.0000   1.0000   1.0000   1.0000   1.0000   1.0000
     1.0000   1.0000   1.0000   1.0000   1.0000   1.0000   1.0000   1.0000
     1.0000   1.0000   1.0000   1.0000   1.0000   1.0000   1.0000   1.0000
     1.0000   1.0000   1.0000   1.0000   1.0000   1.0000   1.0000   1.0000
     1.0000   1.0000   1.0000   1.0000   1.0000   1.0000   1.0000   1.0000
     1.0000   1.0000   1.0000   1.0000   1.0000   1.0000   1.0000   1.0000
     1.0000   1.0000   1.0000   1.0000   1.0000   1.0000   1.0000   1.0000
     1.0000   1.0000   1.0000   1.0000   1.0000   1.0000   1.0000   1.0000
     1.0000   1.0000   1.0000   1.0000   1.0000   1.0000   1.0000   1.0000
     1.0000   1.0000   1.0000   1.0000   1.0000   1.0000   1.0000   1.0000
     1.0000   1.0000   1.0000   1.0000   1.0000   1.0000   1.0000   1.0000
     1.0000   1.0000   1.0000   1.0000   1.0000   1.0000   1.0000   1.0000
     1.0000   1.0000   1.0000   1.0000   1.0000   1.0000   1.0000   1.0000
     1.0000   1.0000   1.0000   1.0000   1.0000   1.0000   1.0000   1.0000
     1.0000   1.0000   1.0000   1.0000   1.0000   1.0000   1.0000   1.0000
     1.0000   1.0000   1.0000   1.0000   1.0000   1.0000   1.0000   1.0000
     1.0000   1.0000   1.0000   1.0000   1.0000   1.0000   1.0000   1.0000
     1.0000   1.0000   1.0000   1.0000   1.0000   1.0000   1.0000   1.0000
     1.0000   1.0000   1.0000   1.0000   1.0000   1.0000   1.0000   1.0000
     1.0000   1.0000   1.0000   1.0000   1.0000   1.0000   1.0000   1.0000
     0.0000   0.0000   0.0000   0.0000   0.0000   0.0000   0.0000   0.0000
     0.0000   0.0000   0.0000   0.0000   0.0000   0.0000   0.0000   0.0000
     0.0000   0.0000   0.0000   0.0000   0.0000   0.0000   0.0000   0.0000
     0.0000   0.0000   0.0000   0.0000   0.0000   0.0000   0.0000   0.0000
     0.0000   0.0000   0.0000   0.0000   0.0000   0.0000   0.0000   0.0000
     0.0000   0.0000   0.0000   0.0000   0.0000   0.0000   0.0000   0.0000
     0.0000   0.0000   0.0000   0.0000   0.0000   0.0000   0.0000   0.0000

          k = 0.0000 0.0000-0.5000 (270152 PWs)   bands (ev):

   -88.2771 -51.7791 -51.7791 -51.2060  -7.5026  -7.4516  -7.1134  -7.0556
    -7.0332  -7.0148  -7.0018  -6.9826  -6.9508  -6.9163  -6.8275  -6.8063
    -6.7826  -6.7461  -6.7263  -6.7224  -6.6985  -6.6836  -6.6301  -6.6003
    -6.5979  -6.5791  -6.5120  -6.5100  -6.4846  -6.4742  -6.4683  -6.4408
    -6.4176  -6.3767  -6.3527  -1.1141  -1.1136  -1.1112  -1.0973  -1.0917
    -1.0901  -1.0855  -1.0832  -1.0783  -0.9943  -0.9857  -0.9777  -0.9715
    -0.9630  -0.9600  -0.8244  -0.8019  -0.7920  -0.7867  -0.7790  -0.7681
    -0.7657  -0.7621  -0.7526  -0.7431  -0.7385  -0.7381  -0.7276  -0.7269
    -0.7193  -0.7157  -0.7148  -0.7119  -0.7022  -0.7011  -0.6987  -0.6942
    -0.6877  -0.6874  -0.6742  -0.6741  -0.6669  -0.6643  -0.6642  -0.6627
    -0.6579  -0.6568  -0.6527  -0.6483  -0.6410  -0.6394  -0.6380  -0.6358
    -0.6314  -0.6269  -0.6253  -0.6238  -0.6167  -0.6118  -0.6017  -0.5992
    -0.5945  -0.5859  -0.5814  -0.5812  -0.5773  -0.5681  -0.5635  -0.5570
    -0.5531  -0.5521  -0.5390  -0.5361  -0.5293  -0.5250  -0.5181  -0.5089
    -0.4889  -0.4842  -0.4757  -0.4743  -0.4705  -0.4560  -0.4428  -0.4396
    -0.4359  -0.4167  -0.4158  -0.4121  -0.3963  -0.3953  -0.3881  -0.3846
    -0.3812  -0.3793  -0.3776  -0.3677  -0.3673  -0.3618  -0.3583  -0.3576
    -0.3456  -0.3434  -0.3433  -0.3365  -0.3336  -0.3333  -0.3299  -0.3281
    -0.3216  -0.3185  -0.3184  -0.3117  -0.3084  -0.3077  -0.3061  -0.2997
    -0.2993  -0.2851  -0.2845  -0.2788  -0.2731  -0.2709  -0.2696  -0.2675
    -0.2629  -0.2624  -0.2535  -0.2533  -0.2516  -0.2456  -0.2433  -0.2354
    -0.2294  -0.2246  -0.2210  -0.2099  -0.2044  -0.1940  -0.1886  -0.1762
    -0.1713  -0.1665  -0.1660  -0.1308  -0.1111  -0.1050  -0.0967  -0.0744
    -0.0655  -0.0590  -0.0401  -0.0358   0.0031   0.0171   0.6338   0.7182
     0.7801   0.8092   0.8156   0.8518   0.8578   0.8833   0.9162   0.9322
     0.9631   0.9769   0.9817   1.0031   1.0061   1.0456   1.0694   1.2736
     1.2755   1.4028   1.5652   1.7265   2.1127   2.1601   2.1899   2.2250
     2.3051   2.3070   2.3361   2.3988   2.4387   2.4444   2.4781   2.4835
     2.5232   2.6253   2.7129   2.7473   2.9611   2.9721   2.9868   3.0106
     3.0653   3.0704   3.0928   3.1121   3.2402   3.2931   3.4679   3.5497
     3.5721   3.5751   3.5912   3.6224   3.6343   3.6692   3.6727   3.7098
     3.7246   3.7328   3.7544   3.7585   3.7593   3.7765   3.8050   3.8186
     3.8234   3.8588   3.8722   3.8962   3.9123   4.0374   4.1894   4.2140
     4.2389   4.3044   4.3609   4.4113   4.4129   4.4343   4.4594   4.4992
     4.5275   4.5385   4.5469   4.5648   4.5751   4.5793   4.6100   4.8294
     4.8784   4.9691   5.0009   5.6559   5.7130   5.9307   6.1144   6.1812
     8.1509   8.4224   8.5688   9.0073   9.0792   9.1408   9.1659   9.3251
     9.4157   9.4303   9.4440   9.4749   9.5540   9.5844   9.6079   9.6814
     9.7274   9.7337   9.8472   9.8956   9.9294   9.9392  10.0289  10.0553
    10.0736  10.0813  10.1152  10.1928  10.2103  10.2207  10.3008  10.3470
    10.4970  10.5415  10.5693  10.6040  10.6476  10.6565  10.7233  10.7295
    10.7809  10.8486  10.9381  10.9964  11.0472  11.0584  11.1986  11.2669
    11.3876  11.4662  11.4822  11.5358  11.5973  11.6749  11.7159  11.7358

     occupation numbers 
     1.0000   1.0000   1.0000   1.0000   1.0000   1.0000   1.0000   1.0000
     1.0000   1.0000   1.0000   1.0000   1.0000   1.0000   1.0000   1.0000
     1.0000   1.0000   1.0000   1.0000   1.0000   1.0000   1.0000   1.0000
     1.0000   1.0000   1.0000   1.0000   1.0000   1.0000   1.0000   1.0000
     1.0000   1.0000   1.0000   1.0000   1.0000   1.0000   1.0000   1.0000
     1.0000   1.0000   1.0000   1.0000   1.0000   1.0000   1.0000   1.0000
     1.0000   1.0000   1.0000   1.0000   1.0000   1.0000   1.0000   1.0000
     1.0000   1.0000   1.0000   1.0000   1.0000   1.0000   1.0000   1.0000
     1.0000   1.0000   1.0000   1.0000   1.0000   1.0000   1.0000   1.0000
     1.0000   1.0000   1.0000   1.0000   1.0000   1.0000   1.0000   1.0000
     1.0000   1.0000   1.0000   1.0000   1.0000   1.0000   1.0000   1.0000
     1.0000   1.0000   1.0000   1.0000   1.0000   1.0000   1.0000   1.0000
     1.0000   1.0000   1.0000   1.0000   1.0000   1.0000   1.0000   1.0000
     1.0000   1.0000   1.0000   1.0000   1.0000   1.0000   1.0000   1.0000
     1.0000   1.0000   1.0000   1.0000   1.0000   1.0000   1.0000   1.0000
     1.0000   1.0000   1.0000   1.0000   1.0000   1.0000   1.0000   1.0000
     1.0000   1.0000   1.0000   1.0000   1.0000   1.0000   1.0000   1.0000
     1.0000   1.0000   1.0000   1.0000   1.0000   1.0000   1.0000   1.0000
     1.0000   1.0000   1.0000   1.0000   1.0000   1.0000   1.0000   1.0000
     1.0000   1.0000   1.0000   1.0000   1.0000   1.0000   1.0000   1.0000
     1.0000   1.0000   1.0000   1.0000   1.0000   1.0000   1.0000   1.0000
     1.0000   1.0000   1.0000   1.0000   1.0000   1.0000   1.0000   1.0000
     1.0000   1.0000   1.0000   1.0000   1.0000   1.0000   1.0000   1.0000
     1.0000   1.0000   1.0000   1.0000   1.0000   1.0000   1.0000   1.0000
     1.0000   1.0000   1.0000   1.0000   1.0000   1.0000   1.0000   1.0000
     1.0000   1.0000   1.0000   1.0000   1.0000   1.0000   1.0000   1.0000
     1.0000   1.0000   1.0000   1.0000   1.0000   1.0000   1.0000   1.0000
     1.0000   1.0000   1.0000   1.0000   1.0000   1.0000   1.0000   1.0000
     1.0000   1.0000   1.0000   1.0000   1.0000   1.0000   1.0000   1.0000
     1.0000   1.0000   1.0000   1.0000   1.0000   1.0000   1.0000   1.0000
     1.0000   1.0000   1.0000   1.0000   1.0000   1.0000   1.0000   1.0000
     1.0000   1.0000   1.0000   1.0000   1.0000   1.0000   1.0000   1.0000
     1.0000   1.0000   1.0000   1.0000   1.0000   1.0000   1.0000   1.0000
     1.0000   1.0000   1.0000   1.0000   1.0000   1.0000   1.0000   1.0000
     1.0000   1.0000   1.0000   1.0000   1.0000   1.0000   1.0000   1.0000
     1.0000   1.0000   1.0000   1.0000   1.0000   1.0000   1.0000   1.0000
     0.0000   0.0000   0.0000   0.0000   0.0000   0.0000   0.0000   0.0000
     0.0000   0.0000   0.0000   0.0000   0.0000   0.0000   0.0000   0.0000
     0.0000   0.0000   0.0000   0.0000   0.0000   0.0000   0.0000   0.0000
     0.0000   0.0000   0.0000   0.0000   0.0000   0.0000   0.0000   0.0000
     0.0000   0.0000   0.0000   0.0000   0.0000   0.0000   0.0000   0.0000
     0.0000   0.0000   0.0000   0.0000   0.0000   0.0000   0.0000   0.0000
     0.0000   0.0000   0.0000   0.0000   0.0000   0.0000   0.0000   0.0000

          k = 0.0000 0.2500 0.2500 (269929 PWs)   bands (ev):

   -88.2771 -51.7791 -51.7791 -51.2060  -7.5502  -7.3109  -7.2564  -7.1042
    -7.0541  -7.0298  -6.9418  -6.9181  -6.8983  -6.8851  -6.8665  -6.8055
    -6.7739  -6.7660  -6.7654  -6.6934  -6.6813  -6.6633  -6.6481  -6.6234
    -6.6166  -6.5814  -6.5303  -6.5245  -6.4921  -6.4684  -6.4360  -6.4232
    -6.4042  -6.3862  -6.3616  -1.1145  -1.1131  -1.1129  -1.0956  -1.0918
    -1.0908  -1.0856  -1.0838  -1.0773  -0.9953  -0.9836  -0.9825  -0.9682
    -0.9650  -0.9575  -0.8193  -0.8141  -0.8067  -0.7884  -0.7772  -0.7740
    -0.7565  -0.7549  -0.7477  -0.7361  -0.7333  -0.7274  -0.7244  -0.7208
    -0.7198  -0.7197  -0.7150  -0.7094  -0.7068  -0.7017  -0.6933  -0.6919
    -0.6899  -0.6898  -0.6764  -0.6739  -0.6706  -0.6690  -0.6622  -0.6618
    -0.6560  -0.6556  -0.6499  -0.6476  -0.6436  -0.6388  -0.6357  -0.6345
    -0.6291  -0.6239  -0.6206  -0.6177  -0.6148  -0.6078  -0.6013  -0.5983
    -0.5925  -0.5857  -0.5831  -0.5820  -0.5725  -0.5708  -0.5601  -0.5569
    -0.5554  -0.5434  -0.5417  -0.5386  -0.5350  -0.5256  -0.5170  -0.5161
    -0.5057  -0.4998  -0.4864  -0.4853  -0.4772  -0.4747  -0.4678  -0.4590
    -0.4350  -0.4242  -0.4166  -0.4056  -0.4050  -0.3987  -0.3964  -0.3884
    -0.3826  -0.3792  -0.3752  -0.3703  -0.3642  -0.3593  -0.3526  -0.3503
    -0.3466  -0.3439  -0.3412  -0.3391  -0.3353  -0.3341  -0.3290  -0.3220
    -0.3172  -0.3151  -0.3147  -0.3105  -0.3075  -0.3057  -0.3007  -0.2985
    -0.2956  -0.2879  -0.2875  -0.2790  -0.2766  -0.2722  -0.2620  -0.2609
    -0.2582  -0.2577  -0.2469  -0.2454  -0.2430  -0.2382  -0.2350  -0.2345
    -0.2296  -0.2127  -0.2086  -0.2006  -0.1994  -0.1900  -0.1851  -0.1725
    -0.1689  -0.1639  -0.1595  -0.1568  -0.1300  -0.1135  -0.1026  -0.0756
    -0.0379  -0.0155  -0.0079   0.0064   0.0276   0.0343   0.3037   0.4432
     0.7177   0.7688   0.8132   0.8601   0.9011   0.9261   0.9494   0.9703
     0.9719   1.0103   1.0115   1.0491   1.0888   1.1573   1.2021   1.3903
     1.5085   1.5130   1.5747   1.5966   1.7993   1.8193   2.0284   2.0743
     2.3275   2.3759   2.4233   2.4603   2.4930   2.5304   2.5950   2.6553
     2.7194   2.7446   2.7762   2.8704   2.9247   2.9709   3.0032   3.0507
     3.0558   3.0871   3.1254   3.1750   3.1948   3.2360   3.2990   3.3008
     3.3414   3.3431   3.3723   3.3882   3.4493   3.5101   3.5454   3.5530
     3.6049   3.6515   3.6843   3.7860   3.8863   3.9194   3.9204   3.9959
     3.9962   4.0168   4.0801   4.0946   4.1395   4.1635   4.1836   4.2167
     4.2277   4.2619   4.3219   4.3501   4.3799   4.4079   4.4702   4.4739
     4.4857   4.5096   4.5798   4.5850   4.6143   4.6187   4.7210   4.7275
     4.8456   5.0488   5.1611   5.6905   5.7169   5.9266   6.1540   6.1951
     7.8818   8.2529   8.8626   8.8829   9.0422   9.0528   9.2124   9.2699
     9.2941   9.3071   9.3642   9.4580   9.4912   9.6659   9.6784   9.7326
     9.7793   9.8040   9.8111   9.8228   9.8641   9.9106   9.9484   9.9929
    10.0001  10.0198  10.0866  10.1488  10.1865  10.2029  10.2890  10.4282
    10.4798  10.5018  10.5557  10.5715  10.6599  10.7430  10.7864  10.8265
    10.8409  10.9274  10.9803  11.0871  11.1118  11.2924  11.3229  11.3651
    11.4313  11.5557  11.5623  11.6468  11.6684  11.6914  11.7226  11.7668

     occupation numbers 
     1.0000   1.0000   1.0000   1.0000   1.0000   1.0000   1.0000   1.0000
     1.0000   1.0000   1.0000   1.0000   1.0000   1.0000   1.0000   1.0000
     1.0000   1.0000   1.0000   1.0000   1.0000   1.0000   1.0000   1.0000
     1.0000   1.0000   1.0000   1.0000   1.0000   1.0000   1.0000   1.0000
     1.0000   1.0000   1.0000   1.0000   1.0000   1.0000   1.0000   1.0000
     1.0000   1.0000   1.0000   1.0000   1.0000   1.0000   1.0000   1.0000
     1.0000   1.0000   1.0000   1.0000   1.0000   1.0000   1.0000   1.0000
     1.0000   1.0000   1.0000   1.0000   1.0000   1.0000   1.0000   1.0000
     1.0000   1.0000   1.0000   1.0000   1.0000   1.0000   1.0000   1.0000
     1.0000   1.0000   1.0000   1.0000   1.0000   1.0000   1.0000   1.0000
     1.0000   1.0000   1.0000   1.0000   1.0000   1.0000   1.0000   1.0000
     1.0000   1.0000   1.0000   1.0000   1.0000   1.0000   1.0000   1.0000
     1.0000   1.0000   1.0000   1.0000   1.0000   1.0000   1.0000   1.0000
     1.0000   1.0000   1.0000   1.0000   1.0000   1.0000   1.0000   1.0000
     1.0000   1.0000   1.0000   1.0000   1.0000   1.0000   1.0000   1.0000
     1.0000   1.0000   1.0000   1.0000   1.0000   1.0000   1.0000   1.0000
     1.0000   1.0000   1.0000   1.0000   1.0000   1.0000   1.0000   1.0000
     1.0000   1.0000   1.0000   1.0000   1.0000   1.0000   1.0000   1.0000
     1.0000   1.0000   1.0000   1.0000   1.0000   1.0000   1.0000   1.0000
     1.0000   1.0000   1.0000   1.0000   1.0000   1.0000   1.0000   1.0000
     1.0000   1.0000   1.0000   1.0000   1.0000   1.0000   1.0000   1.0000
     1.0000   1.0000   1.0000   1.0000   1.0000   1.0000   1.0000   1.0000
     1.0000   1.0000   1.0000   1.0000   1.0000   1.0000   1.0000   1.0000
     1.0000   1.0000   1.0000   1.0000   1.0000   1.0000   1.0000   1.0000
     1.0000   1.0000   1.0000   1.0000   1.0000   1.0000   1.0000   1.0000
     1.0000   1.0000   1.0000   1.0000   1.0000   1.0000   1.0000   1.0000
     1.0000   1.0000   1.0000   1.0000   1.0000   1.0000   1.0000   1.0000
     1.0000   1.0000   1.0000   1.0000   1.0000   1.0000   1.0000   1.0000
     1.0000   1.0000   1.0000   1.0000   1.0000   1.0000   1.0000   1.0000
     1.0000   1.0000   1.0000   1.0000   1.0000   1.0000   1.0000   1.0000
     1.0000   1.0000   1.0000   1.0000   1.0000   1.0000   1.0000   1.0000
     1.0000   1.0000   1.0000   1.0000   1.0000   1.0000   1.0000   1.0000
     1.0000   1.0000   1.0000   1.0000   1.0000   1.0000   1.0000   1.0000
     1.0000   1.0000   1.0000   1.0000   1.0000   1.0000   1.0000   1.0000
     1.0000   1.0000   1.0000   1.0000   1.0000   1.0000   1.0000   1.0000
     1.0000   1.0000   1.0000   1.0000   1.0000   1.0000   1.0000   1.0000
     0.0000   0.0000   0.0000   0.0000   0.0000   0.0000   0.0000   0.0000
     0.0000   0.0000   0.0000   0.0000   0.0000   0.0000   0.0000   0.0000
     0.0000   0.0000   0.0000   0.0000   0.0000   0.0000   0.0000   0.0000
     0.0000   0.0000   0.0000   0.0000   0.0000   0.0000   0.0000   0.0000
     0.0000   0.0000   0.0000   0.0000   0.0000   0.0000   0.0000   0.0000
     0.0000   0.0000   0.0000   0.0000   0.0000   0.0000   0.0000   0.0000
     0.0000   0.0000   0.0000   0.0000   0.0000   0.0000   0.0000   0.0000

          k = 0.0000 0.2500-0.5000 (269962 PWs)   bands (ev):

   -88.2771 -51.7791 -51.7791 -51.2060  -7.4704  -7.4211  -7.2257  -7.1628
    -7.0662  -6.9925  -6.9735  -6.9491  -6.8980  -6.8792  -6.8268  -6.8075
    -6.7896  -6.7790  -6.7061  -6.6854  -6.6651  -6.6359  -6.6280  -6.6094
    -6.5815  -6.5757  -6.5220  -6.5163  -6.5008  -6.4832  -6.4675  -6.4500
    -6.4227  -6.4030  -6.3665  -1.1139  -1.1124  -1.1110  -1.0952  -1.0914
    -1.0903  -1.0849  -1.0823  -1.0793  -0.9907  -0.9834  -0.9777  -0.9710
    -0.9653  -0.9615  -0.8141  -0.8011  -0.7897  -0.7812  -0.7741  -0.7669
    -0.7617  -0.7567  -0.7527  -0.7434  -0.7365  -0.7330  -0.7310  -0.7235
    -0.7214  -0.7174  -0.7154  -0.7124  -0.7090  -0.7017  -0.6967  -0.6949
    -0.6915  -0.6879  -0.6857  -0.6765  -0.6737  -0.6687  -0.6655  -0.6635
    -0.6589  -0.6569  -0.6549  -0.6493  -0.6434  -0.6415  -0.6380  -0.6346
    -0.6300  -0.6241  -0.6217  -0.6183  -0.6138  -0.6086  -0.6018  -0.5976
    -0.5928  -0.5870  -0.5802  -0.5759  -0.5713  -0.5683  -0.5637  -0.5571
    -0.5522  -0.5469  -0.5407  -0.5381  -0.5334  -0.5294  -0.5236  -0.5158
    -0.5119  -0.5048  -0.4995  -0.4899  -0.4876  -0.4809  -0.4668  -0.4615
    -0.4565  -0.4449  -0.4347  -0.4201  -0.4042  -0.3988  -0.3901  -0.3860
    -0.3832  -0.3764  -0.3742  -0.3669  -0.3651  -0.3591  -0.3529  -0.3502
    -0.3441  -0.3409  -0.3382  -0.3360  -0.3327  -0.3309  -0.3248  -0.3231
    -0.3192  -0.3151  -0.3131  -0.3104  -0.3084  -0.3034  -0.3003  -0.2933
    -0.2893  -0.2843  -0.2808  -0.2779  -0.2718  -0.2684  -0.2647  -0.2593
    -0.2573  -0.2517  -0.2462  -0.2420  -0.2371  -0.2339  -0.2301  -0.2263
    -0.2214  -0.2168  -0.2092  -0.2002  -0.1878  -0.1837  -0.1764  -0.1708
    -0.1590  -0.1519  -0.1355  -0.1221  -0.1175  -0.1022  -0.0888  -0.0732
    -0.0650  -0.0442  -0.0353  -0.0107  -0.0044   0.0257   0.5057   0.5870
     0.6537   0.6761   0.7710   0.8058   0.8789   0.8948   0.9269   0.9533
     0.9764   1.0487   1.0825   1.1072   1.1490   1.1837   1.2124   1.2971
     1.3222   1.4061   1.5287   1.6391   1.8220   1.8793   1.9912   2.0039
     2.1117   2.2324   2.3498   2.4078   2.5874   2.6172   2.6315   2.6761
     2.7135   2.7373   2.7789   2.8326   2.8762   2.9492   2.9775   3.0536
     3.1313   3.1824   3.2371   3.2747   3.3264   3.3640   3.3779   3.4193
     3.4457   3.4711   3.5222   3.5609   3.5765   3.5972   3.6075   3.6343
     3.6707   3.7038   3.7152   3.7937   3.8305   3.8532   3.8866   3.9289
     3.9464   3.9863   3.9954   4.0133   4.0388   4.0585   4.0969   4.1284
     4.1438   4.1764   4.2324   4.2573   4.2939   4.3289   4.3778   4.3915
     4.4214   4.4775   4.5126   4.5472   4.5839   4.7443   4.8111   4.8578
     4.8877   5.0216   5.0821   5.6664   5.7120   5.9330   6.1341   6.1734
     8.1790   8.5429   8.6573   8.9696   9.1096   9.1466   9.2752   9.3229
     9.3494   9.4113   9.4905   9.5344   9.5519   9.5820   9.6038   9.6760
     9.7402   9.7457   9.7723   9.7850   9.7940   9.8405   9.8649   9.9102
     9.9758  10.0018  10.1013  10.1821  10.2540  10.2909  10.3660  10.4064
    10.4280  10.4543  10.5332  10.5699  10.6335  10.6827  10.7142  10.8338
    10.8926  10.9525  11.0123  11.1137  11.1515  11.2373  11.2519  11.2995
    11.3350  11.3624  11.3756  11.3932  11.4788  11.5424  11.5656  11.6223

     occupation numbers 
     1.0000   1.0000   1.0000   1.0000   1.0000   1.0000   1.0000   1.0000
     1.0000   1.0000   1.0000   1.0000   1.0000   1.0000   1.0000   1.0000
     1.0000   1.0000   1.0000   1.0000   1.0000   1.0000   1.0000   1.0000
     1.0000   1.0000   1.0000   1.0000   1.0000   1.0000   1.0000   1.0000
     1.0000   1.0000   1.0000   1.0000   1.0000   1.0000   1.0000   1.0000
     1.0000   1.0000   1.0000   1.0000   1.0000   1.0000   1.0000   1.0000
     1.0000   1.0000   1.0000   1.0000   1.0000   1.0000   1.0000   1.0000
     1.0000   1.0000   1.0000   1.0000   1.0000   1.0000   1.0000   1.0000
     1.0000   1.0000   1.0000   1.0000   1.0000   1.0000   1.0000   1.0000
     1.0000   1.0000   1.0000   1.0000   1.0000   1.0000   1.0000   1.0000
     1.0000   1.0000   1.0000   1.0000   1.0000   1.0000   1.0000   1.0000
     1.0000   1.0000   1.0000   1.0000   1.0000   1.0000   1.0000   1.0000
     1.0000   1.0000   1.0000   1.0000   1.0000   1.0000   1.0000   1.0000
     1.0000   1.0000   1.0000   1.0000   1.0000   1.0000   1.0000   1.0000
     1.0000   1.0000   1.0000   1.0000   1.0000   1.0000   1.0000   1.0000
     1.0000   1.0000   1.0000   1.0000   1.0000   1.0000   1.0000   1.0000
     1.0000   1.0000   1.0000   1.0000   1.0000   1.0000   1.0000   1.0000
     1.0000   1.0000   1.0000   1.0000   1.0000   1.0000   1.0000   1.0000
     1.0000   1.0000   1.0000   1.0000   1.0000   1.0000   1.0000   1.0000
     1.0000   1.0000   1.0000   1.0000   1.0000   1.0000   1.0000   1.0000
     1.0000   1.0000   1.0000   1.0000   1.0000   1.0000   1.0000   1.0000
     1.0000   1.0000   1.0000   1.0000   1.0000   1.0000   1.0000   1.0000
     1.0000   1.0000   1.0000   1.0000   1.0000   1.0000   1.0000   1.0000
     1.0000   1.0000   1.0000   1.0000   1.0000   1.0000   1.0000   1.0000
     1.0000   1.0000   1.0000   1.0000   1.0000   1.0000   1.0000   1.0000
     1.0000   1.0000   1.0000   1.0000   1.0000   1.0000   1.0000   1.0000
     1.0000   1.0000   1.0000   1.0000   1.0000   1.0000   1.0000   1.0000
     1.0000   1.0000   1.0000   1.0000   1.0000   1.0000   1.0000   1.0000
     1.0000   1.0000   1.0000   1.0000   1.0000   1.0000   1.0000   1.0000
     1.0000   1.0000   1.0000   1.0000   1.0000   1.0000   1.0000   1.0000
     1.0000   1.0000   1.0000   1.0000   1.0000   1.0000   1.0000   1.0000
     1.0000   1.0000   1.0000   1.0000   1.0000   1.0000   1.0000   1.0000
     1.0000   1.0000   1.0000   1.0000   1.0000   1.0000   1.0000   1.0000
     1.0000   1.0000   1.0000   1.0000   1.0000   1.0000   1.0000   1.0000
     1.0000   1.0000   1.0000   1.0000   1.0000   1.0000   1.0000   1.0000
     1.0000   1.0000   1.0000   1.0000   1.0000   1.0000   1.0000   1.0000
     0.0000   0.0000   0.0000   0.0000   0.0000   0.0000   0.0000   0.0000
     0.0000   0.0000   0.0000   0.0000   0.0000   0.0000   0.0000   0.0000
     0.0000   0.0000   0.0000   0.0000   0.0000   0.0000   0.0000   0.0000
     0.0000   0.0000   0.0000   0.0000   0.0000   0.0000   0.0000   0.0000
     0.0000   0.0000   0.0000   0.0000   0.0000   0.0000   0.0000   0.0000
     0.0000   0.0000   0.0000   0.0000   0.0000   0.0000   0.0000   0.0000
     0.0000   0.0000   0.0000   0.0000   0.0000   0.0000   0.0000   0.0000

          k = 0.0000-0.5000-0.5000 (269920 PWs)   bands (ev):

   -88.2771 -51.7791 -51.7791 -51.2060  -7.3948  -7.3774  -7.3298  -7.2743
    -7.0508  -6.9678  -6.9594  -6.9443  -6.9136  -6.8965  -6.8510  -6.8298
    -6.7589  -6.6882  -6.6766  -6.6756  -6.6523  -6.6287  -6.6062  -6.5801
    -6.5583  -6.5544  -6.5508  -6.5351  -6.5143  -6.5071  -6.4841  -6.4690
    -6.4296  -6.4264  -6.3752  -1.1138  -1.1113  -1.1105  -1.0932  -1.0913
    -1.0901  -1.0845  -1.0809  -1.0808  -0.9862  -0.9789  -0.9787  -0.9722
    -0.9671  -0.9637  -0.8070  -0.7960  -0.7830  -0.7709  -0.7666  -0.7620
    -0.7596  -0.7557  -0.7517  -0.7430  -0.7396  -0.7370  -0.7299  -0.7271
    -0.7233  -0.7190  -0.7176  -0.7138  -0.7047  -0.7043  -0.6975  -0.6916
    -0.6906  -0.6880  -0.6879  -0.6838  -0.6776  -0.6749  -0.6679  -0.6675
    -0.6638  -0.6614  -0.6577  -0.6533  -0.6506  -0.6440  -0.6327  -0.6280
    -0.6247  -0.6221  -0.6161  -0.6137  -0.6131  -0.6083  -0.6020  -0.6020
    -0.5954  -0.5874  -0.5817  -0.5734  -0.5716  -0.5706  -0.5678  -0.5607
    -0.5560  -0.5489  -0.5463  -0.5457  -0.5395  -0.5339  -0.5333  -0.5254
    -0.5203  -0.5060  -0.5040  -0.5007  -0.4982  -0.4865  -0.4860  -0.4730
    -0.4663  -0.4536  -0.4364  -0.4260  -0.4136  -0.4005  -0.3938  -0.3909
    -0.3821  -0.3821  -0.3768  -0.3681  -0.3633  -0.3570  -0.3524  -0.3448
    -0.3398  -0.3378  -0.3353  -0.3345  -0.3310  -0.3289  -0.3258  -0.3221
    -0.3163  -0.3121  -0.3104  -0.3068  -0.3062  -0.3019  -0.2918  -0.2881
    -0.2855  -0.2824  -0.2791  -0.2741  -0.2683  -0.2678  -0.2553  -0.2537
    -0.2514  -0.2465  -0.2428  -0.2355  -0.2346  -0.2277  -0.2248  -0.2190
    -0.2167  -0.2154  -0.2035  -0.1988  -0.1922  -0.1875  -0.1834  -0.1784
    -0.1730  -0.1633  -0.1242  -0.1239  -0.0835  -0.0726  -0.0521  -0.0461
    -0.0401  -0.0279  -0.0184   0.0070   0.0098   0.0451   0.4846   0.5482
     0.6034   0.6255   0.6659   0.6796   0.7582   0.7677   0.9197   0.9546
     0.9554   1.0939   1.3039   1.3319   1.3400   1.3530   1.4004   1.4073
     1.4791   1.4862   1.5372   1.5445   1.5889   1.6173   1.6666   1.7418
     1.8138   2.1017   2.3885   2.4283   2.4598   2.4605   2.8181   2.8618
     2.9724   2.9844   3.0158   3.0312   3.0735   3.1044   3.1159   3.1408
     3.1527   3.1831   3.1916   3.2342   3.2436   3.3026   3.3028   3.3859
     3.3876   3.4438   3.4983   3.5028   3.5250   3.5469   3.5706   3.6062
     3.6236   3.6369   3.6500   3.6784   3.6960   3.8350   3.8518   3.9132
     3.9656   3.9795   4.0181   4.0294   4.0945   4.1077   4.1267   4.2071
     4.2355   4.2422   4.2748   4.3275   4.3346   4.3493   4.3530   4.3736
     4.3841   4.3844   4.4195   4.4597   4.5400   4.5827   4.5913   4.9302
     5.0087   5.1160   5.1547   5.6577   5.7274   5.9349   6.1270   6.1934
     8.2183   8.7903   8.8138   8.8788   9.0425   9.0843   9.1829   9.2875
     9.4072   9.4073   9.4455   9.4553   9.4845   9.4914   9.4998   9.5823
     9.6133   9.8231   9.8528   9.8636  10.0119  10.0552  10.0754  10.1025
    10.1145  10.1259  10.1537  10.1859  10.1891  10.2338  10.2376  10.2518
    10.2752  10.3052  10.3227  10.3617  10.3867  10.4493  10.4885  10.7353
    10.8510  10.9563  11.1496  11.2155  11.3128  11.3235  11.3669  11.3893
    11.4057  11.4285  11.4585  11.4849  11.5718  11.5851  11.6015  11.6131

     occupation numbers 
     1.0000   1.0000   1.0000   1.0000   1.0000   1.0000   1.0000   1.0000
     1.0000   1.0000   1.0000   1.0000   1.0000   1.0000   1.0000   1.0000
     1.0000   1.0000   1.0000   1.0000   1.0000   1.0000   1.0000   1.0000
     1.0000   1.0000   1.0000   1.0000   1.0000   1.0000   1.0000   1.0000
     1.0000   1.0000   1.0000   1.0000   1.0000   1.0000   1.0000   1.0000
     1.0000   1.0000   1.0000   1.0000   1.0000   1.0000   1.0000   1.0000
     1.0000   1.0000   1.0000   1.0000   1.0000   1.0000   1.0000   1.0000
     1.0000   1.0000   1.0000   1.0000   1.0000   1.0000   1.0000   1.0000
     1.0000   1.0000   1.0000   1.0000   1.0000   1.0000   1.0000   1.0000
     1.0000   1.0000   1.0000   1.0000   1.0000   1.0000   1.0000   1.0000
     1.0000   1.0000   1.0000   1.0000   1.0000   1.0000   1.0000   1.0000
     1.0000   1.0000   1.0000   1.0000   1.0000   1.0000   1.0000   1.0000
     1.0000   1.0000   1.0000   1.0000   1.0000   1.0000   1.0000   1.0000
     1.0000   1.0000   1.0000   1.0000   1.0000   1.0000   1.0000   1.0000
     1.0000   1.0000   1.0000   1.0000   1.0000   1.0000   1.0000   1.0000
     1.0000   1.0000   1.0000   1.0000   1.0000   1.0000   1.0000   1.0000
     1.0000   1.0000   1.0000   1.0000   1.0000   1.0000   1.0000   1.0000
     1.0000   1.0000   1.0000   1.0000   1.0000   1.0000   1.0000   1.0000
     1.0000   1.0000   1.0000   1.0000   1.0000   1.0000   1.0000   1.0000
     1.0000   1.0000   1.0000   1.0000   1.0000   1.0000   1.0000   1.0000
     1.0000   1.0000   1.0000   1.0000   1.0000   1.0000   1.0000   1.0000
     1.0000   1.0000   1.0000   1.0000   1.0000   1.0000   1.0000   1.0000
     1.0000   1.0000   1.0000   1.0000   1.0000   1.0000   1.0000   1.0000
     1.0000   1.0000   1.0000   1.0000   1.0000   1.0000   1.0000   1.0000
     1.0000   1.0000   1.0000   1.0000   1.0000   1.0000   1.0000   1.0000
     1.0000   1.0000   1.0000   1.0000   1.0000   1.0000   1.0000   1.0000
     1.0000   1.0000   1.0000   1.0000   1.0000   1.0000   1.0000   1.0000
     1.0000   1.0000   1.0000   1.0000   1.0000   1.0000   1.0000   1.0000
     1.0000   1.0000   1.0000   1.0000   1.0000   1.0000   1.0000   1.0000
     1.0000   1.0000   1.0000   1.0000   1.0000   1.0000   1.0000   1.0000
     1.0000   1.0000   1.0000   1.0000   1.0000   1.0000   1.0000   1.0000
     1.0000   1.0000   1.0000   1.0000   1.0000   1.0000   1.0000   1.0000
     1.0000   1.0000   1.0000   1.0000   1.0000   1.0000   1.0000   1.0000
     1.0000   1.0000   1.0000   1.0000   1.0000   1.0000   1.0000   1.0000
     1.0000   1.0000   1.0000   1.0000   1.0000   1.0000   1.0000   1.0000
     1.0000   1.0000   1.0000   1.0000   1.0000   1.0000   1.0000   1.0000
     0.0000   0.0000   0.0000   0.0000   0.0000   0.0000   0.0000   0.0000
     0.0000   0.0000   0.0000   0.0000   0.0000   0.0000   0.0000   0.0000
     0.0000   0.0000   0.0000   0.0000   0.0000   0.0000   0.0000   0.0000
     0.0000   0.0000   0.0000   0.0000   0.0000   0.0000   0.0000   0.0000
     0.0000   0.0000   0.0000   0.0000   0.0000   0.0000   0.0000   0.0000
     0.0000   0.0000   0.0000   0.0000   0.0000   0.0000   0.0000   0.0000
     0.0000   0.0000   0.0000   0.0000   0.0000   0.0000   0.0000   0.0000

          k = 0.2500 0.2500 0.2500 (269935 PWs)   bands (ev):

   -88.2771 -51.7791 -51.7791 -51.2060  -7.5152  -7.2850  -7.2850  -7.1936
    -7.0611  -7.0611  -7.0020  -6.8862  -6.8862  -6.8744  -6.7983  -6.7879
    -6.7842  -6.7842  -6.6852  -6.6852  -6.6631  -6.6631  -6.6607  -6.5998
    -6.5998  -6.5942  -6.5133  -6.5133  -6.5116  -6.4805  -6.4425  -6.4425
    -6.4211  -6.3900  -6.3900  -1.1145  -1.1125  -1.1125  -1.0935  -1.0906
    -1.0906  -1.0841  -1.0841  -1.0781  -0.9918  -0.9826  -0.9826  -0.9674
    -0.9674  -0.9578  -0.8047  -0.8021  -0.8021  -0.7872  -0.7761  -0.7761
    -0.7534  -0.7534  -0.7519  -0.7349  -0.7349  -0.7341  -0.7255  -0.7203
    -0.7203  -0.7145  -0.7145  -0.7113  -0.7113  -0.7078  -0.7025  -0.6953
    -0.6937  -0.6937  -0.6828  -0.6828  -0.6704  -0.6694  -0.6673  -0.6673
    -0.6576  -0.6576  -0.6497  -0.6466  -0.6466  -0.6442  -0.6377  -0.6314
    -0.6314  -0.6261  -0.6261  -0.6148  -0.6081  -0.6081  -0.6051  -0.5922
    -0.5922  -0.5899  -0.5767  -0.5747  -0.5704  -0.5704  -0.5607  -0.5607
    -0.5504  -0.5504  -0.5480  -0.5402  -0.5202  -0.5202  -0.5116  -0.5116
    -0.5071  -0.5020  -0.4841  -0.4841  -0.4781  -0.4781  -0.4654  -0.4651
    -0.4601  -0.4601  -0.4468  -0.4151  -0.4151  -0.3983  -0.3983  -0.3861
    -0.3846  -0.3772  -0.3772  -0.3679  -0.3679  -0.3628  -0.3572  -0.3450
    -0.3450  -0.3405  -0.3363  -0.3363  -0.3288  -0.3288  -0.3281  -0.3233
    -0.3134  -0.3132  -0.3132  -0.3086  -0.3086  -0.2986  -0.2986  -0.2985
    -0.2979  -0.2842  -0.2842  -0.2735  -0.2735  -0.2690  -0.2554  -0.2549
    -0.2549  -0.2519  -0.2519  -0.2428  -0.2383  -0.2383  -0.2238  -0.2189
    -0.2189  -0.2066  -0.2066  -0.2051  -0.1949  -0.1804  -0.1804  -0.1590
    -0.1577  -0.1577  -0.1431  -0.1388  -0.1388  -0.1019  -0.1007  -0.1007
    -0.0367  -0.0308  -0.0308  -0.0056   0.0038   0.0038   0.4214   0.5894
     0.5894   0.7636   0.7636   0.8161   0.8998   0.8998   0.9418   1.0044
     1.0044   1.0344   1.0917   1.1272   1.1272   1.1551   1.2667   1.2667
     1.2996   1.4664   1.4664   1.5494   1.8801   1.8801   1.9205   2.0788
     2.0788   2.3379   2.5189   2.5746   2.5746   2.6069   2.6069   2.6411
     2.6640   2.6640   2.7916   2.9370   2.9370   3.0304   3.0304   3.0499
     3.1018   3.2033   3.2033   3.2539   3.2689   3.2689   3.2811   3.3356
     3.3356   3.3543   3.4446   3.4446   3.4785   3.4990   3.4990   3.5241
     3.7229   3.7566   3.7566   3.7903   3.7903   3.8376   3.9478   3.9478
     3.9747   4.0293   4.0293   4.0796   4.0846   4.0846   4.0911   4.1308
     4.1308   4.1514   4.2003   4.2003   4.2640   4.3716   4.3716   4.3818
     4.6022   4.6022   4.6067   4.6378   4.6797   4.6797   4.8149   4.8149
     4.9010   5.0806   5.0806   5.7097   5.7097   5.9199   6.1945   6.1945
     8.0042   8.3276   8.7659   9.0381   9.0381   9.0634   9.3256   9.3400
     9.3400   9.3756   9.3756   9.4186   9.4418   9.4418   9.5365   9.5365
     9.7375   9.7375   9.7424   9.8828   9.9486  10.0054  10.0054  10.0713
    10.0893  10.0893  10.1630  10.1630  10.1930  10.2460  10.2460  10.2591
    10.3011  10.3141  10.3141  10.4773  10.4773  10.5064  10.7919  10.7919
    10.9914  11.0701  11.0701  11.2305  11.2824  11.3523  11.3523  11.3980
    11.3980  11.4044  11.4642  11.5149  11.5149  11.6728  11.7243  11.7998

     occupation numbers 
     1.0000   1.0000   1.0000   1.0000   1.0000   1.0000   1.0000   1.0000
     1.0000   1.0000   1.0000   1.0000   1.0000   1.0000   1.0000   1.0000
     1.0000   1.0000   1.0000   1.0000   1.0000   1.0000   1.0000   1.0000
     1.0000   1.0000   1.0000   1.0000   1.0000   1.0000   1.0000   1.0000
     1.0000   1.0000   1.0000   1.0000   1.0000   1.0000   1.0000   1.0000
     1.0000   1.0000   1.0000   1.0000   1.0000   1.0000   1.0000   1.0000
     1.0000   1.0000   1.0000   1.0000   1.0000   1.0000   1.0000   1.0000
     1.0000   1.0000   1.0000   1.0000   1.0000   1.0000   1.0000   1.0000
     1.0000   1.0000   1.0000   1.0000   1.0000   1.0000   1.0000   1.0000
     1.0000   1.0000   1.0000   1.0000   1.0000   1.0000   1.0000   1.0000
     1.0000   1.0000   1.0000   1.0000   1.0000   1.0000   1.0000   1.0000
     1.0000   1.0000   1.0000   1.0000   1.0000   1.0000   1.0000   1.0000
     1.0000   1.0000   1.0000   1.0000   1.0000   1.0000   1.0000   1.0000
     1.0000   1.0000   1.0000   1.0000   1.0000   1.0000   1.0000   1.0000
     1.0000   1.0000   1.0000   1.0000   1.0000   1.0000   1.0000   1.0000
     1.0000   1.0000   1.0000   1.0000   1.0000   1.0000   1.0000   1.0000
     1.0000   1.0000   1.0000   1.0000   1.0000   1.0000   1.0000   1.0000
     1.0000   1.0000   1.0000   1.0000   1.0000   1.0000   1.0000   1.0000
     1.0000   1.0000   1.0000   1.0000   1.0000   1.0000   1.0000   1.0000
     1.0000   1.0000   1.0000   1.0000   1.0000   1.0000   1.0000   1.0000
     1.0000   1.0000   1.0000   1.0000   1.0000   1.0000   1.0000   1.0000
     1.0000   1.0000   1.0000   1.0000   1.0000   1.0000   1.0000   1.0000
     1.0000   1.0000   1.0000   1.0000   1.0000   1.0000   1.0000   1.0000
     1.0000   1.0000   1.0000   1.0000   1.0000   1.0000   1.0000   1.0000
     1.0000   1.0000   1.0000   1.0000   1.0000   1.0000   1.0000   1.0000
     1.0000   1.0000   1.0000   1.0000   1.0000   1.0000   1.0000   1.0000
     1.0000   1.0000   1.0000   1.0000   1.0000   1.0000   1.0000   1.0000
     1.0000   1.0000   1.0000   1.0000   1.0000   1.0000   1.0000   1.0000
     1.0000   1.0000   1.0000   1.0000   1.0000   1.0000   1.0000   1.0000
     1.0000   1.0000   1.0000   1.0000   1.0000   1.0000   1.0000   1.0000
     1.0000   1.0000   1.0000   1.0000   1.0000   1.0000   1.0000   1.0000
     1.0000   1.0000   1.0000   1.0000   1.0000   1.0000   1.0000   1.0000
     1.0000   1.0000   1.0000   1.0000   1.0000   1.0000   1.0000   1.0000
     1.0000   1.0000   1.0000   1.0000   1.0000   1.0000   1.0000   1.0000
     1.0000   1.0000   1.0000   1.0000   1.0000   1.0000   1.0000   1.0000
     1.0000   1.0000   1.0000   1.0000   1.0000   1.0000   1.0000   1.0000
     0.0000   0.0000   0.0000   0.0000   0.0000   0.0000   0.0000   0.0000
     0.0000   0.0000   0.0000   0.0000   0.0000   0.0000   0.0000   0.0000
     0.0000   0.0000   0.0000   0.0000   0.0000   0.0000   0.0000   0.0000
     0.0000   0.0000   0.0000   0.0000   0.0000   0.0000   0.0000   0.0000
     0.0000   0.0000   0.0000   0.0000   0.0000   0.0000   0.0000   0.0000
     0.0000   0.0000   0.0000   0.0000   0.0000   0.0000   0.0000   0.0000
     0.0000   0.0000   0.0000   0.0000   0.0000   0.0000   0.0000   0.0000

          k = 0.2500 0.2500-0.5000 (269988 PWs)   bands (ev):

   -88.2771 -51.7791 -51.7791 -51.2060  -7.4384  -7.3915  -7.2389  -7.1652
    -7.1463  -7.1216  -6.9997  -6.9300  -6.8741  -6.8325  -6.8086  -6.7792
    -6.7497  -6.7201  -6.6824  -6.6805  -6.6576  -6.6329  -6.6255  -6.6136
    -6.5832  -6.5563  -6.5265  -6.5263  -6.5076  -6.4798  -6.4728  -6.4710
    -6.4391  -6.4169  -6.3927  -1.1140  -1.1120  -1.1111  -1.0932  -1.0908
    -1.0900  -1.0834  -1.0825  -1.0800  -0.9878  -0.9820  -0.9780  -0.9704
    -0.9672  -0.9615  -0.8044  -0.7920  -0.7890  -0.7793  -0.7718  -0.7680
    -0.7616  -0.7570  -0.7478  -0.7410  -0.7372  -0.7335  -0.7295  -0.7293
    -0.7214  -0.7173  -0.7157  -0.7113  -0.7103  -0.7066  -0.7038  -0.6953
    -0.6940  -0.6918  -0.6886  -0.6814  -0.6735  -0.6734  -0.6685  -0.6675
    -0.6616  -0.6601  -0.6539  -0.6507  -0.6461  -0.6445  -0.6399  -0.6390
    -0.6296  -0.6213  -0.6197  -0.6173  -0.6136  -0.6084  -0.6047  -0.5926
    -0.5875  -0.5840  -0.5774  -0.5762  -0.5685  -0.5655  -0.5596  -0.5566
    -0.5551  -0.5467  -0.5442  -0.5351  -0.5315  -0.5281  -0.5254  -0.5235
    -0.5125  -0.5118  -0.4989  -0.4943  -0.4878  -0.4849  -0.4633  -0.4590
    -0.4496  -0.4408  -0.4317  -0.4208  -0.4170  -0.4085  -0.4080  -0.3934
    -0.3933  -0.3861  -0.3764  -0.3709  -0.3658  -0.3648  -0.3626  -0.3579
    -0.3570  -0.3382  -0.3355  -0.3297  -0.3281  -0.3264  -0.3202  -0.3178
    -0.3136  -0.3117  -0.3112  -0.3054  -0.3054  -0.2983  -0.2963  -0.2905
    -0.2859  -0.2804  -0.2755  -0.2694  -0.2694  -0.2633  -0.2603  -0.2540
    -0.2520  -0.2473  -0.2452  -0.2396  -0.2379  -0.2366  -0.2327  -0.2190
    -0.2178  -0.2072  -0.2046  -0.1987  -0.1878  -0.1840  -0.1774  -0.1733
    -0.1620  -0.1540  -0.1322  -0.1307  -0.1195  -0.1040  -0.0824  -0.0645
    -0.0634  -0.0474  -0.0351  -0.0304   0.0004   0.0074   0.4835   0.5786
     0.7200   0.7403   0.8246   0.8416   0.8730   0.8918   0.9374   0.9489
     1.0039   1.0054   1.0286   1.0486   1.0742   1.1200   1.2762   1.3697
     1.4454   1.4922   1.5198   1.5937   1.5953   1.6264   1.7507   2.0149
     2.3914   2.4727   2.5048   2.5483   2.5554   2.6098   2.6298   2.6830
     2.6981   2.7514   2.7741   2.8158   2.8771   2.9464   2.9940   3.0395
     3.0891   3.2197   3.2566   3.2852   3.3512   3.3673   3.4192   3.4629
     3.4833   3.4880   3.5009   3.5654   3.5725   3.6035   3.6304   3.6388
     3.6644   3.6670   3.6985   3.7001   3.7236   3.7244   3.7487   3.7859
     3.8266   3.8885   3.9499   3.9716   4.0149   4.0449   4.0510   4.0691
     4.1727   4.1779   4.2304   4.2306   4.2820   4.3015   4.3835   4.3909
     4.4436   4.5022   4.6707   4.7048   4.8269   4.8471   4.8764   4.9348
     4.9673   4.9820   5.0372   5.6950   5.7078   5.9290   6.1582   6.1844
     8.1371   8.5903   8.6708   8.9544   9.0205   9.0230   9.1504   9.2276
     9.2774   9.3548   9.4245   9.4650   9.5304   9.6021   9.6044   9.6355
     9.7026   9.7249   9.7570   9.7889   9.7899   9.8573   9.8622   9.9285
     9.9331   9.9779  10.0816  10.1405  10.1477  10.1697  10.2567  10.3334
    10.3691  10.4688  10.5310  10.5817  10.6437  10.6959  10.7941  10.8718
    10.9341  10.9417  11.1085  11.1313  11.2426  11.2985  11.3515  11.4435
    11.4822  11.5035  11.5358  11.5425  11.5752  11.5940  11.6242  11.6546

     occupation numbers 
     1.0000   1.0000   1.0000   1.0000   1.0000   1.0000   1.0000   1.0000
     1.0000   1.0000   1.0000   1.0000   1.0000   1.0000   1.0000   1.0000
     1.0000   1.0000   1.0000   1.0000   1.0000   1.0000   1.0000   1.0000
     1.0000   1.0000   1.0000   1.0000   1.0000   1.0000   1.0000   1.0000
     1.0000   1.0000   1.0000   1.0000   1.0000   1.0000   1.0000   1.0000
     1.0000   1.0000   1.0000   1.0000   1.0000   1.0000   1.0000   1.0000
     1.0000   1.0000   1.0000   1.0000   1.0000   1.0000   1.0000   1.0000
     1.0000   1.0000   1.0000   1.0000   1.0000   1.0000   1.0000   1.0000
     1.0000   1.0000   1.0000   1.0000   1.0000   1.0000   1.0000   1.0000
     1.0000   1.0000   1.0000   1.0000   1.0000   1.0000   1.0000   1.0000
     1.0000   1.0000   1.0000   1.0000   1.0000   1.0000   1.0000   1.0000
     1.0000   1.0000   1.0000   1.0000   1.0000   1.0000   1.0000   1.0000
     1.0000   1.0000   1.0000   1.0000   1.0000   1.0000   1.0000   1.0000
     1.0000   1.0000   1.0000   1.0000   1.0000   1.0000   1.0000   1.0000
     1.0000   1.0000   1.0000   1.0000   1.0000   1.0000   1.0000   1.0000
     1.0000   1.0000   1.0000   1.0000   1.0000   1.0000   1.0000   1.0000
     1.0000   1.0000   1.0000   1.0000   1.0000   1.0000   1.0000   1.0000
     1.0000   1.0000   1.0000   1.0000   1.0000   1.0000   1.0000   1.0000
     1.0000   1.0000   1.0000   1.0000   1.0000   1.0000   1.0000   1.0000
     1.0000   1.0000   1.0000   1.0000   1.0000   1.0000   1.0000   1.0000
     1.0000   1.0000   1.0000   1.0000   1.0000   1.0000   1.0000   1.0000
     1.0000   1.0000   1.0000   1.0000   1.0000   1.0000   1.0000   1.0000
     1.0000   1.0000   1.0000   1.0000   1.0000   1.0000   1.0000   1.0000
     1.0000   1.0000   1.0000   1.0000   1.0000   1.0000   1.0000   1.0000
     1.0000   1.0000   1.0000   1.0000   1.0000   1.0000   1.0000   1.0000
     1.0000   1.0000   1.0000   1.0000   1.0000   1.0000   1.0000   1.0000
     1.0000   1.0000   1.0000   1.0000   1.0000   1.0000   1.0000   1.0000
     1.0000   1.0000   1.0000   1.0000   1.0000   1.0000   1.0000   1.0000
     1.0000   1.0000   1.0000   1.0000   1.0000   1.0000   1.0000   1.0000
     1.0000   1.0000   1.0000   1.0000   1.0000   1.0000   1.0000   1.0000
     1.0000   1.0000   1.0000   1.0000   1.0000   1.0000   1.0000   1.0000
     1.0000   1.0000   1.0000   1.0000   1.0000   1.0000   1.0000   1.0000
     1.0000   1.0000   1.0000   1.0000   1.0000   1.0000   1.0000   1.0000
     1.0000   1.0000   1.0000   1.0000   1.0000   1.0000   1.0000   1.0000
     1.0000   1.0000   1.0000   1.0000   1.0000   1.0000   1.0000   1.0000
     1.0000   1.0000   1.0000   1.0000   1.0000   1.0000   1.0000   1.0000
     0.0000   0.0000   0.0000   0.0000   0.0000   0.0000   0.0000   0.0000
     0.0000   0.0000   0.0000   0.0000   0.0000   0.0000   0.0000   0.0000
     0.0000   0.0000   0.0000   0.0000   0.0000   0.0000   0.0000   0.0000
     0.0000   0.0000   0.0000   0.0000   0.0000   0.0000   0.0000   0.0000
     0.0000   0.0000   0.0000   0.0000   0.0000   0.0000   0.0000   0.0000
     0.0000   0.0000   0.0000   0.0000   0.0000   0.0000   0.0000   0.0000
     0.0000   0.0000   0.0000   0.0000   0.0000   0.0000   0.0000   0.0000

          k = 0.2500-0.5000-0.5000 (269956 PWs)   bands (ev):

   -88.2771 -51.7791 -51.7791 -51.2060  -7.3668  -7.3498  -7.3065  -7.2508
    -7.1510  -7.1100  -7.0571  -7.0028  -6.8393  -6.8113  -6.7573  -6.7543
    -6.7135  -6.6914  -6.6756  -6.6674  -6.6459  -6.6170  -6.6065  -6.5798
    -6.5583  -6.5539  -6.5526  -6.5326  -6.5166  -6.5091  -6.4961  -6.4756
    -6.4545  -6.4507  -6.4061  -1.1139  -1.1114  -1.1110  -1.0915  -1.0906
    -1.0899  -1.0834  -1.0811  -1.0810  -0.9837  -0.9787  -0.9786  -0.9712
    -0.9683  -0.9637  -0.8025  -0.7884  -0.7800  -0.7727  -0.7676  -0.7628
    -0.7568  -0.7546  -0.7509  -0.7432  -0.7417  -0.7397  -0.7298  -0.7261
    -0.7251  -0.7207  -0.7155  -0.7136  -0.7078  -0.7071  -0.7002  -0.6997
    -0.6969  -0.6922  -0.6869  -0.6841  -0.6790  -0.6765  -0.6729  -0.6720
    -0.6694  -0.6622  -0.6593  -0.6575  -0.6476  -0.6418  -0.6415  -0.6384
    -0.6360  -0.6228  -0.6178  -0.6101  -0.6076  -0.6039  -0.5977  -0.5902
    -0.5872  -0.5786  -0.5745  -0.5720  -0.5691  -0.5602  -0.5568  -0.5558
    -0.5501  -0.5459  -0.5440  -0.5414  -0.5359  -0.5252  -0.5240  -0.5178
    -0.5164  -0.5091  -0.5071  -0.4970  -0.4890  -0.4818  -0.4747  -0.4652
    -0.4630  -0.4568  -0.4408  -0.4281  -0.4209  -0.4189  -0.4076  -0.4050
    -0.4021  -0.3949  -0.3821  -0.3768  -0.3668  -0.3653  -0.3635  -0.3596
    -0.3493  -0.3468  -0.3326  -0.3309  -0.3237  -0.3224  -0.3170  -0.3135
    -0.3126  -0.3084  -0.3052  -0.3041  -0.2989  -0.2937  -0.2868  -0.2848
    -0.2836  -0.2766  -0.2719  -0.2675  -0.2638  -0.2621  -0.2585  -0.2493
    -0.2465  -0.2420  -0.2413  -0.2351  -0.2323  -0.2293  -0.2180  -0.2094
    -0.2081  -0.2058  -0.1950  -0.1908  -0.1894  -0.1822  -0.1806  -0.1681
    -0.1658  -0.1594  -0.1420  -0.1270  -0.1014  -0.0959  -0.0908  -0.0832
    -0.0753  -0.0587  -0.0578  -0.0347  -0.0340  -0.0024   0.5997   0.6686
     0.7067   0.7458   0.7624   0.7827   0.8307   0.8423   0.9194   0.9629
     0.9636   1.0159   1.1893   1.2053   1.2257   1.2495   1.2502   1.2839
     1.2845   1.3032   1.3244   1.4526   1.5201   1.7036   2.0533   2.0826
     2.0849   2.2376   2.5588   2.5772   2.5871   2.6262   2.7847   2.8543
     2.9332   2.9560   3.0033   3.0111   3.0202   3.0528   3.0689   3.0891
     3.1040   3.1129   3.1278   3.1389   3.1550   3.1762   3.2124   3.3452
     3.3485   3.3815   3.4470   3.4668   3.5736   3.5737   3.6526   3.6528
     3.6628   3.6742   3.7082   3.7089   3.7265   3.7343   3.7425   3.8197
     3.8429   3.8454   3.9004   3.9114   3.9465   3.9645   3.9942   4.0257
     4.0266   4.0712   4.0978   4.2815   4.2932   4.4421   4.5885   4.5962
     4.6500   4.7086   4.7218   4.7441   4.7778   4.7842   4.8000   4.9439
     5.0053   5.0642   5.1017   5.6901   5.7257   5.9324   6.1575   6.1920
     8.1045   8.7094   8.7128   8.8198   8.9315   8.9784   9.0059   9.0716
     9.1342   9.2853   9.2997   9.4521   9.4945   9.6175   9.6437   9.6822
     9.7012   9.7568   9.7698   9.7918   9.8014   9.8308   9.8333   9.8608
     9.8720   9.9122   9.9790  10.0003  10.0271  10.0994  10.2298  10.2373
    10.4403  10.5265  10.5769  10.7417  10.7759  10.8108  10.8628  10.9365
    11.0000  11.0003  11.0819  11.2692  11.3677  11.3712  11.3808  11.4138
    11.4147  11.4863  11.5232  11.5335  11.5804  11.6046  11.7200  11.7552

     occupation numbers 
     1.0000   1.0000   1.0000   1.0000   1.0000   1.0000   1.0000   1.0000
     1.0000   1.0000   1.0000   1.0000   1.0000   1.0000   1.0000   1.0000
     1.0000   1.0000   1.0000   1.0000   1.0000   1.0000   1.0000   1.0000
     1.0000   1.0000   1.0000   1.0000   1.0000   1.0000   1.0000   1.0000
     1.0000   1.0000   1.0000   1.0000   1.0000   1.0000   1.0000   1.0000
     1.0000   1.0000   1.0000   1.0000   1.0000   1.0000   1.0000   1.0000
     1.0000   1.0000   1.0000   1.0000   1.0000   1.0000   1.0000   1.0000
     1.0000   1.0000   1.0000   1.0000   1.0000   1.0000   1.0000   1.0000
     1.0000   1.0000   1.0000   1.0000   1.0000   1.0000   1.0000   1.0000
     1.0000   1.0000   1.0000   1.0000   1.0000   1.0000   1.0000   1.0000
     1.0000   1.0000   1.0000   1.0000   1.0000   1.0000   1.0000   1.0000
     1.0000   1.0000   1.0000   1.0000   1.0000   1.0000   1.0000   1.0000
     1.0000   1.0000   1.0000   1.0000   1.0000   1.0000   1.0000   1.0000
     1.0000   1.0000   1.0000   1.0000   1.0000   1.0000   1.0000   1.0000
     1.0000   1.0000   1.0000   1.0000   1.0000   1.0000   1.0000   1.0000
     1.0000   1.0000   1.0000   1.0000   1.0000   1.0000   1.0000   1.0000
     1.0000   1.0000   1.0000   1.0000   1.0000   1.0000   1.0000   1.0000
     1.0000   1.0000   1.0000   1.0000   1.0000   1.0000   1.0000   1.0000
[...]
     4.2469   4.2753   4.3139   4.3760   4.3960   4.4281   4.4663   4.4830
     4.4921   4.5327   4.5766   4.5951   4.6082   4.6256   4.7374   4.7412
     4.8693   5.0988   5.2694   6.8259   6.8444   6.8754   7.8562   7.9425
     7.9747   8.2735   8.7943   8.9101   9.0232   9.0667   9.1934   9.2792
     9.3105   9.3195   9.3808   9.5265   9.5839   9.6011   9.7112   9.7481
     9.7694   9.8133   9.8339   9.8614   9.8816   9.9236   9.9654   9.9766
    10.0231  10.0551  10.1182  10.1755  10.1856  10.2425  10.3311  10.3919
    10.4980  10.5392  10.5453  10.6362  10.7492  10.7839  10.8074  10.8213
    10.8634  10.9297  11.0518  11.0689  11.1770  11.2507  11.3427  11.3773
    11.4037  11.5749  11.6314  11.6574  11.6849  11.7156  11.7459  11.8020

     occupation numbers 
     1.0000   1.0000   1.0000   1.0000   1.0000   1.0000   1.0000   1.0000
     1.0000   1.0000   1.0000   1.0000   1.0000   1.0000   1.0000   1.0000
     1.0000   1.0000   1.0000   1.0000   1.0000   1.0000   1.0000   1.0000
     1.0000   1.0000   1.0000   1.0000   1.0000   1.0000   1.0000   1.0000
     1.0000   1.0000   1.0000   1.0000   1.0000   1.0000   1.0000   1.0000
     1.0000   1.0000   1.0000   1.0000   1.0000   1.0000   1.0000   1.0000
     1.0000   1.0000   1.0000   1.0000   1.0000   1.0000   1.0000   1.0000
     1.0000   1.0000   1.0000   1.0000   1.0000   1.0000   1.0000   1.0000
     1.0000   1.0000   1.0000   1.0000   1.0000   1.0000   1.0000   1.0000
     1.0000   1.0000   1.0000   1.0000   1.0000   1.0000   1.0000   1.0000
     1.0000   1.0000   1.0000   1.0000   1.0000   1.0000   1.0000   1.0000
     1.0000   1.0000   1.0000   1.0000   1.0000   1.0000   1.0000   1.0000
     1.0000   1.0000   1.0000   1.0000   1.0000   1.0000   1.0000   1.0000
     1.0000   1.0000   1.0000   1.0000   1.0000   1.0000   1.0000   1.0000
     1.0000   1.0000   1.0000   1.0000   1.0000   1.0000   1.0000   1.0000
     1.0000   1.0000   1.0000   1.0000   1.0000   1.0000   1.0000   1.0000
     1.0000   1.0000   1.0000   1.0000   1.0000   1.0000   1.0000   1.0000
     1.0000   1.0000   1.0000   1.0000   1.0000   1.0000   1.0000   1.0000
     1.0000   1.0000   1.0000   1.0000   1.0000   1.0000   1.0000   1.0000
     1.0000   1.0000   1.0000   1.0000   1.0000   1.0000   1.0000   1.0000
     1.0000   1.0000   1.0000   1.0000   1.0000   1.0000   1.0000   1.0000
     1.0000   1.0000   1.0000   1.0000   1.0000   1.0000   1.0000   1.0000
     1.0000   1.0000   1.0000   1.0000   1.0000   1.0000   1.0000   1.0000
     1.0000   1.0000   1.0000   1.0000   1.0000   1.0000   1.0000   1.0000
     1.0000   1.0000   1.0000   1.0000   1.0000   1.0000   1.0000   1.0000
     1.0000   1.0000   1.0000   1.0000   1.0000   1.0000   1.0000   1.0000
     1.0000   1.0000   1.0000   1.0000   1.0000   1.0000   1.0000   1.0000
     1.0000   1.0000   1.0000   1.0000   1.0000   1.0000   1.0000   1.0000
     1.0000   1.0000   1.0000   1.0000   1.0000   1.0000   1.0000   1.0000
     1.0000   1.0000   1.0000   1.0000   1.0000   1.0000   1.0000   1.0000
     1.0000   1.0000   1.0000   1.0000   1.0000   1.0000   1.0000   1.0000
     1.0000   1.0000   1.0000   1.0000   1.0000   1.0000   1.0000   1.0000
     1.0000   1.0000   1.0000   1.0000   1.0000   1.0000   1.0000   1.0000
     1.0000   1.0000   1.0000   1.0000   1.0000   1.0000   1.0000   1.0000
     1.0000   1.0000   1.0000   1.0000   1.0000   1.0000   1.0000   1.0000
     1.0000   1.0000   1.0000   1.0000   1.0000   1.0000   0.0000   0.0000
     0.0000   0.0000   0.0000   0.0000   0.0000   0.0000   0.0000   0.0000
     0.0000   0.0000   0.0000   0.0000   0.0000   0.0000   0.0000   0.0000
     0.0000   0.0000   0.0000   0.0000   0.0000   0.0000   0.0000   0.0000
     0.0000   0.0000   0.0000   0.0000   0.0000   0.0000   0.0000   0.0000
     0.0000   0.0000   0.0000   0.0000   0.0000   0.0000   0.0000   0.0000
     0.0000   0.0000   0.0000   0.0000   0.0000   0.0000   0.0000   0.0000
     0.0000   0.0000   0.0000   0.0000   0.0000   0.0000   0.0000   0.0000

          k = 0.2500-0.2500 0.2500 (269935 PWs)   bands (ev):

   -86.2092 -49.6295 -49.6295 -49.4480  -7.5157  -7.2844  -7.2629  -7.2091
    -7.0708  -7.0561  -6.9887  -6.8907  -6.8885  -6.8632  -6.8212  -6.8114
    -6.7424  -6.7325  -6.7055  -6.7043  -6.6643  -6.6506  -6.6503  -6.6115
    -6.5968  -6.5755  -6.5196  -6.5186  -6.4871  -6.4706  -6.4362  -6.4352
    -6.4186  -6.3660  -6.3656  -1.1145  -1.1122  -1.1119  -1.0954  -1.0914
    -1.0911  -1.0849  -1.0834  -1.0788  -0.9924  -0.9826  -0.9800  -0.9684
    -0.9674  -0.9611  -0.8161  -0.8053  -0.7982  -0.7892  -0.7723  -0.7707
    -0.7566  -0.7491  -0.7452  -0.7382  -0.7380  -0.7297  -0.7270  -0.7192
    -0.7158  -0.7156  -0.7141  -0.7112  -0.7071  -0.7030  -0.7017  -0.6914
    -0.6909  -0.6865  -0.6788  -0.6774  -0.6720  -0.6662  -0.6662  -0.6627
    -0.6580  -0.6578  -0.6528  -0.6492  -0.6446  -0.6439  -0.6400  -0.6328
    -0.6268  -0.6250  -0.6182  -0.6170  -0.6149  -0.6056  -0.6010  -0.5955
    -0.5923  -0.5853  -0.5806  -0.5759  -0.5704  -0.5679  -0.5665  -0.5598
    -0.5461  -0.5451  -0.5409  -0.5346  -0.5237  -0.5208  -0.5079  -0.5064
    -0.5051  -0.4992  -0.4904  -0.4885  -0.4822  -0.4799  -0.4687  -0.4686
    -0.4592  -0.4496  -0.4301  -0.4131  -0.4087  -0.4027  -0.3972  -0.3902
    -0.3888  -0.3810  -0.3786  -0.3699  -0.3616  -0.3612  -0.3585  -0.3511
    -0.3459  -0.3400  -0.3376  -0.3358  -0.3294  -0.3255  -0.3218  -0.3200
    -0.3180  -0.3148  -0.3125  -0.3079  -0.3065  -0.3008  -0.3002  -0.2905
    -0.2852  -0.2826  -0.2773  -0.2734  -0.2724  -0.2627  -0.2605  -0.2585
    -0.2487  -0.2460  -0.2459  -0.2408  -0.2370  -0.2333  -0.2319  -0.2266
    -0.2191  -0.2180  -0.2093  -0.1935  -0.1886  -0.1836  -0.1801  -0.1659
    -0.1608  -0.1544  -0.1534  -0.1410  -0.1379  -0.0979  -0.0959  -0.0877
    -0.0370  -0.0197  -0.0168  -0.0103  -0.0041   0.0031   0.4277   0.5855
     0.5874   0.7623   0.7742   0.8145   0.9139   0.9149   0.9240   1.0170
     1.0369   1.0544   1.0817   1.1209   1.1343   1.1892   1.2427   1.2934
     1.3021   1.3591   1.4894   1.6562   1.9139   1.9143   1.9838   2.0785
     2.0980   2.2947   2.5178   2.5751   2.5843   2.6238   2.6569   2.6694
     2.7683   2.8001   2.8031   2.9515   2.9808   2.9891   2.9961   3.0906
     3.1471   3.1756   3.2100   3.2295   3.2627   3.3189   3.3258   3.3410
     3.3796   3.3852   3.4205   3.4462   3.4525   3.4933   3.5749   3.5811
     3.6855   3.7537   3.7699   3.8404   3.8462   3.8914   3.9733   4.0141
     4.0196   4.0354   4.0420   4.0736   4.1038   4.1460   4.1494   4.1551
     4.1627   4.1776   4.2554   4.2555   4.2648   4.3004   4.4507   4.4827
     4.5908   4.6208   4.6339   4.6460   4.6797   4.7077   4.8110   4.8341
     4.8810   5.1663   5.1911   6.8269   6.8463   6.8766   7.8869   7.9696
     8.0530   8.3092   8.7812   8.9011   9.0301   9.1389   9.3000   9.3065
     9.3328   9.3711   9.3725   9.4271   9.4740   9.4859   9.5481   9.5956
     9.7360   9.7425   9.8191   9.8907   9.9688  10.0194  10.0286  10.0551
    10.0795  10.1656  10.1802  10.1924  10.2485  10.2543  10.2574  10.2907
    10.3254  10.3633  10.3778  10.4188  10.5269  10.7212  10.8030  10.9481
    10.9836  11.0789  11.1045  11.1764  11.2386  11.3078  11.3577  11.3940
    11.4163  11.4476  11.4925  11.5376  11.6290  11.6604  11.7348  11.7510

     occupation numbers 
     1.0000   1.0000   1.0000   1.0000   1.0000   1.0000   1.0000   1.0000
     1.0000   1.0000   1.0000   1.0000   1.0000   1.0000   1.0000   1.0000
     1.0000   1.0000   1.0000   1.0000   1.0000   1.0000   1.0000   1.0000
     1.0000   1.0000   1.0000   1.0000   1.0000   1.0000   1.0000   1.0000
     1.0000   1.0000   1.0000   1.0000   1.0000   1.0000   1.0000   1.0000
     1.0000   1.0000   1.0000   1.0000   1.0000   1.0000   1.0000   1.0000
     1.0000   1.0000   1.0000   1.0000   1.0000   1.0000   1.0000   1.0000
     1.0000   1.0000   1.0000   1.0000   1.0000   1.0000   1.0000   1.0000
     1.0000   1.0000   1.0000   1.0000   1.0000   1.0000   1.0000   1.0000
     1.0000   1.0000   1.0000   1.0000   1.0000   1.0000   1.0000   1.0000
     1.0000   1.0000   1.0000   1.0000   1.0000   1.0000   1.0000   1.0000
     1.0000   1.0000   1.0000   1.0000   1.0000   1.0000   1.0000   1.0000
     1.0000   1.0000   1.0000   1.0000   1.0000   1.0000   1.0000   1.0000
     1.0000   1.0000   1.0000   1.0000   1.0000   1.0000   1.0000   1.0000
     1.0000   1.0000   1.0000   1.0000   1.0000   1.0000   1.0000   1.0000
     1.0000   1.0000   1.0000   1.0000   1.0000   1.0000   1.0000   1.0000
     1.0000   1.0000   1.0000   1.0000   1.0000   1.0000   1.0000   1.0000
     1.0000   1.0000   1.0000   1.0000   1.0000   1.0000   1.0000   1.0000
     1.0000   1.0000   1.0000   1.0000   1.0000   1.0000   1.0000   1.0000
     1.0000   1.0000   1.0000   1.0000   1.0000   1.0000   1.0000   1.0000
     1.0000   1.0000   1.0000   1.0000   1.0000   1.0000   1.0000   1.0000
     1.0000   1.0000   1.0000   1.0000   1.0000   1.0000   1.0000   1.0000
     1.0000   1.0000   1.0000   1.0000   1.0000   1.0000   1.0000   1.0000
     1.0000   1.0000   1.0000   1.0000   1.0000   1.0000   1.0000   1.0000
     1.0000   1.0000   1.0000   1.0000   1.0000   1.0000   1.0000   1.0000
     1.0000   1.0000   1.0000   1.0000   1.0000   1.0000   1.0000   1.0000
     1.0000   1.0000   1.0000   1.0000   1.0000   1.0000   1.0000   1.0000
     1.0000   1.0000   1.0000   1.0000   1.0000   1.0000   1.0000   1.0000
     1.0000   1.0000   1.0000   1.0000   1.0000   1.0000   1.0000   1.0000
     1.0000   1.0000   1.0000   1.0000   1.0000   1.0000   1.0000   1.0000
     1.0000   1.0000   1.0000   1.0000   1.0000   1.0000   1.0000   1.0000
     1.0000   1.0000   1.0000   1.0000   1.0000   1.0000   1.0000   1.0000
     1.0000   1.0000   1.0000   1.0000   1.0000   1.0000   1.0000   1.0000
     1.0000   1.0000   1.0000   1.0000   1.0000   1.0000   1.0000   1.0000
     1.0000   1.0000   1.0000   1.0000   1.0000   1.0000   1.0000   1.0000
     1.0000   1.0000   1.0000   1.0000   1.0000   1.0000   0.0000   0.0000
     0.0000   0.0000   0.0000   0.0000   0.0000   0.0000   0.0000   0.0000
     0.0000   0.0000   0.0000   0.0000   0.0000   0.0000   0.0000   0.0000
     0.0000   0.0000   0.0000   0.0000   0.0000   0.0000   0.0000   0.0000
     0.0000   0.0000   0.0000   0.0000   0.0000   0.0000   0.0000   0.0000
     0.0000   0.0000   0.0000   0.0000   0.0000   0.0000   0.0000   0.0000
     0.0000   0.0000   0.0000   0.0000   0.0000   0.0000   0.0000   0.0000
     0.0000   0.0000   0.0000   0.0000   0.0000   0.0000   0.0000   0.0000

          k = 0.2500-0.2500-0.5000 (269988 PWs)   bands (ev):

   -86.2092 -49.6295 -49.6295 -49.4480  -7.4397  -7.3891  -7.2063  -7.1904
    -7.1645  -7.0971  -7.0021  -6.9286  -6.8641  -6.8338  -6.8108  -6.7849
    -6.7284  -6.7144  -6.6939  -6.6799  -6.6547  -6.6331  -6.6124  -6.6084
    -6.5836  -6.5616  -6.5243  -6.5135  -6.4969  -6.4834  -6.4688  -6.4585
    -6.4238  -6.3944  -6.3681  -1.1141  -1.1119  -1.1110  -1.0940  -1.0910
    -1.0905  -1.0849  -1.0820  -1.0800  -0.9879  -0.9817  -0.9777  -0.9710
    -0.9672  -0.9638  -0.8078  -0.8000  -0.7847  -0.7790  -0.7703  -0.7646
    -0.7578  -0.7530  -0.7511  -0.7428  -0.7378  -0.7349  -0.7311  -0.7222
    -0.7187  -0.7160  -0.7150  -0.7122  -0.7074  -0.7061  -0.7033  -0.6965
    -0.6930  -0.6879  -0.6826  -0.6797  -0.6762  -0.6702  -0.6679  -0.6658
    -0.6631  -0.6599  -0.6548  -0.6506  -0.6460  -0.6455  -0.6362  -0.6326
    -0.6289  -0.6197  -0.6180  -0.6152  -0.6103  -0.6078  -0.5990  -0.5969
    -0.5908  -0.5852  -0.5806  -0.5712  -0.5678  -0.5618  -0.5589  -0.5575
    -0.5497  -0.5456  -0.5435  -0.5384  -0.5339  -0.5287  -0.5216  -0.5123
    -0.5112  -0.5019  -0.4993  -0.4944  -0.4916  -0.4772  -0.4676  -0.4561
    -0.4497  -0.4436  -0.4338  -0.4204  -0.4170  -0.4077  -0.4025  -0.4004
    -0.3926  -0.3829  -0.3735  -0.3707  -0.3673  -0.3665  -0.3599  -0.3510
    -0.3462  -0.3411  -0.3361  -0.3324  -0.3275  -0.3233  -0.3219  -0.3162
    -0.3133  -0.3115  -0.3083  -0.3058  -0.3008  -0.2987  -0.2926  -0.2880
    -0.2842  -0.2820  -0.2770  -0.2742  -0.2669  -0.2659  -0.2623  -0.2549
    -0.2506  -0.2465  -0.2432  -0.2397  -0.2383  -0.2287  -0.2245  -0.2206
    -0.2146  -0.2070  -0.2050  -0.1967  -0.1906  -0.1869  -0.1762  -0.1669
    -0.1609  -0.1528  -0.1410  -0.1361  -0.1140  -0.1032  -0.0825  -0.0690
    -0.0497  -0.0482  -0.0424  -0.0282  -0.0001   0.0081   0.5181   0.5803
     0.7155   0.7744   0.8142   0.8477   0.8878   0.8898   0.9349   0.9489
     1.0023   1.0154   1.0401   1.0699   1.0762   1.1165   1.1741   1.4077
     1.4452   1.4962   1.5288   1.6010   1.6549   1.6881   1.7909   1.9987
     2.4840   2.5192   2.5263   2.5437   2.5764   2.5907   2.6681   2.6890
     2.7282   2.7711   2.7938   2.8223   2.8775   2.9713   3.0145   3.0840
     3.1950   3.2774   3.2920   3.3368   3.3900   3.4147   3.4338   3.4512
     3.4753   3.4908   3.5228   3.5337   3.5758   3.6077   3.6300   3.6548
     3.6702   3.6961   3.6974   3.7139   3.7378   3.7468   3.7747   3.7890
     3.8409   3.9387   3.9740   3.9935   4.0330   4.0461   4.1032   4.1204
     4.1805   4.2071   4.2265   4.2807   4.3274   4.3666   4.3775   4.4163
     4.4785   4.5582   4.7300   4.7966   4.8018   4.8597   4.8676   4.9418
     5.0012   5.0349   5.0444   6.8299   6.8434   6.8797   7.9271   7.9466
     8.1785   8.5705   8.6555   8.8893   9.0241   9.0842   9.1852   9.2494
     9.3396   9.3694   9.3786   9.4750   9.5083   9.6053   9.6094   9.6369
     9.6621   9.7272   9.7695   9.7910   9.8142   9.8754   9.9102   9.9507
     9.9633  10.0388  10.1114  10.1230  10.1863  10.2240  10.2996  10.3495
    10.3976  10.4690  10.5943  10.6520  10.6878  10.7390  10.8256  10.8941
    10.9250  11.0443  11.0637  11.1672  11.2113  11.3269  11.3833  11.3915
    11.4618  11.4951  11.5134  11.5417  11.6008  11.6175  11.6475  11.6636

     occupation numbers 
     1.0000   1.0000   1.0000   1.0000   1.0000   1.0000   1.0000   1.0000
     1.0000   1.0000   1.0000   1.0000   1.0000   1.0000   1.0000   1.0000
     1.0000   1.0000   1.0000   1.0000   1.0000   1.0000   1.0000   1.0000
     1.0000   1.0000   1.0000   1.0000   1.0000   1.0000   1.0000   1.0000
     1.0000   1.0000   1.0000   1.0000   1.0000   1.0000   1.0000   1.0000
     1.0000   1.0000   1.0000   1.0000   1.0000   1.0000   1.0000   1.0000
     1.0000   1.0000   1.0000   1.0000   1.0000   1.0000   1.0000   1.0000
     1.0000   1.0000   1.0000   1.0000   1.0000   1.0000   1.0000   1.0000
     1.0000   1.0000   1.0000   1.0000   1.0000   1.0000   1.0000   1.0000
     1.0000   1.0000   1.0000   1.0000   1.0000   1.0000   1.0000   1.0000
     1.0000   1.0000   1.0000   1.0000   1.0000   1.0000   1.0000   1.0000
     1.0000   1.0000   1.0000   1.0000   1.0000   1.0000   1.0000   1.0000
     1.0000   1.0000   1.0000   1.0000   1.0000   1.0000   1.0000   1.0000
     1.0000   1.0000   1.0000   1.0000   1.0000   1.0000   1.0000   1.0000
     1.0000   1.0000   1.0000   1.0000   1.0000   1.0000   1.0000   1.0000
     1.0000   1.0000   1.0000   1.0000   1.0000   1.0000   1.0000   1.0000
     1.0000   1.0000   1.0000   1.0000   1.0000   1.0000   1.0000   1.0000
     1.0000   1.0000   1.0000   1.0000   1.0000   1.0000   1.0000   1.0000
     1.0000   1.0000   1.0000   1.0000   1.0000   1.0000   1.0000   1.0000
     1.0000   1.0000   1.0000   1.0000   1.0000   1.0000   1.0000   1.0000
     1.0000   1.0000   1.0000   1.0000   1.0000   1.0000   1.0000   1.0000
     1.0000   1.0000   1.0000   1.0000   1.0000   1.0000   1.0000   1.0000
     1.0000   1.0000   1.0000   1.0000   1.0000   1.0000   1.0000   1.0000
     1.0000   1.0000   1.0000   1.0000   1.0000   1.0000   1.0000   1.0000
     1.0000   1.0000   1.0000   1.0000   1.0000   1.0000   1.0000   1.0000
     1.0000   1.0000   1.0000   1.0000   1.0000   1.0000   1.0000   1.0000
     1.0000   1.0000   1.0000   1.0000   1.0000   1.0000   1.0000   1.0000
     1.0000   1.0000   1.0000   1.0000   1.0000   1.0000   1.0000   1.0000
     1.0000   1.0000   1.0000   1.0000   1.0000   1.0000   1.0000   1.0000
     1.0000   1.0000   1.0000   1.0000   1.0000   1.0000   1.0000   1.0000
     1.0000   1.0000   1.0000   1.0000   1.0000   1.0000   1.0000   1.0000
     1.0000   1.0000   1.0000   1.0000   1.0000   1.0000   1.0000   1.0000
     1.0000   1.0000   1.0000   1.0000   1.0000   1.0000   1.0000   1.0000
     1.0000   1.0000   1.0000   1.0000   1.0000   1.0000   1.0000   1.0000
     1.0000   1.0000   1.0000   1.0000   1.0000   1.0000   1.0000   1.0000
     1.0000   1.0000   1.0000   1.0000   1.0000   1.0000   0.0000   0.0000
     0.0000   0.0000   0.0000   0.0000   0.0000   0.0000   0.0000   0.0000
     0.0000   0.0000   0.0000   0.0000   0.0000   0.0000   0.0000   0.0000
     0.0000   0.0000   0.0000   0.0000   0.0000   0.0000   0.0000   0.0000
     0.0000   0.0000   0.0000   0.0000   0.0000   0.0000   0.0000   0.0000
     0.0000   0.0000   0.0000   0.0000   0.0000   0.0000   0.0000   0.0000
     0.0000   0.0000   0.0000   0.0000   0.0000   0.0000   0.0000   0.0000
     0.0000   0.0000   0.0000   0.0000   0.0000   0.0000   0.0000   0.0000

     the Fermi energy is     6.9111 ev
     (compare with:     6.9111 eV, computed in scf)

     Writing all to output data dir ./out/Co_qp1.save/
 
     init_run     :      6.23s CPU      7.06s WALL (       1 calls)
     electrons    :    555.45s CPU    559.38s WALL (       1 calls)

     Called by init_run:
     wfcinit      :      0.00s CPU      0.22s WALL (       1 calls)
     wfcinit:atom :      0.06s CPU      0.07s WALL (       4 calls)
     wfcinit:wfcr :      5.22s CPU      5.54s WALL (       4 calls)
     potinit      :      1.49s CPU      1.71s WALL (       1 calls)
     hinit0       :      0.55s CPU      0.71s WALL (       1 calls)

     Called by electrons:
     c_bands      :    555.19s CPU    559.11s WALL (       1 calls)
     v_of_rho     :      0.29s CPU      0.36s WALL (       1 calls)
     v_h          :      0.01s CPU      0.01s WALL (       1 calls)
     v_xc         :      0.29s CPU      0.35s WALL (       1 calls)
     newd         :      0.12s CPU      0.16s WALL (       1 calls)
     PAW_pot      :      0.70s CPU      0.72s WALL (       1 calls)

     Called by c_bands:
     init_us_2    :      0.11s CPU      0.13s WALL (       4 calls)
     init_us_2:cp :      0.11s CPU      0.13s WALL (       4 calls)
     cegterg      :    279.63s CPU    282.11s WALL (      24 calls)

     Called by sum_band:

     Called by *egterg:
     cdiaghg      :     29.82s CPU     30.12s WALL (     466 calls)
     cegterg:over :     26.11s CPU     26.31s WALL (     462 calls)
     cegterg:upda :     24.10s CPU     24.24s WALL (     462 calls)
     cegterg:last :     46.89s CPU     47.17s WALL (     159 calls)
     cdiaghg:chol :      1.94s CPU      2.00s WALL (     466 calls)
     cdiaghg:inve :      2.86s CPU      2.88s WALL (     466 calls)
     cdiaghg:para :      4.54s CPU      4.57s WALL (     932 calls)
     h_psi        :    123.89s CPU    125.18s WALL (     490 calls)
     s_psi        :     27.86s CPU     28.03s WALL (     490 calls)
     g_psi        :      0.93s CPU      0.94s WALL (     462 calls)

     Called by h_psi:
     h_psi:calbec :     27.25s CPU     27.47s WALL (     490 calls)
     vloc_psi     :     67.22s CPU     67.84s WALL (     490 calls)
     add_vuspsi   :     28.06s CPU     28.25s WALL (     490 calls)

     General routines
     calbec       :     27.25s CPU     27.47s WALL (     490 calls)
     fft          :      0.47s CPU      0.70s WALL (      21 calls)
     fftw         :     62.44s CPU     63.02s WALL (  114810 calls)
 
     Parallel routines

     PAW routines
     PAW_pot      :      0.70s CPU      0.72s WALL (       1 calls)
 
     PWSCF        :   9m28.65s CPU   9m58.32s WALL

 
   This run was terminated on:  22: 0:50   8Jul2024            

=------------------------------------------------------------------------------=
   JOB DONE.
=------------------------------------------------------------------------------=
