### Running on host: unam-asus

     Program PWSCF v.7.3.1 starts on 15Apr2024 at 18:30:55 

     This program is part of the open-source Quantum ESPRESSO suite
     for quantum simulation of materials; please cite
         "P. Giannozzi et al., J. Phys.:Condens. Matter 21 395502 (2009);
         "P. Giannozzi et al., J. Phys.:Condens. Matter 29 465901 (2017);
         "P. Giannozzi et al., J. Chem. Phys. 152 154105 (2020);
          URL http://www.quantum-espresso.org", 
     in publications or presentations arising from this work. More details at
     http://www.quantum-espresso.org/quote

     Parallel version (MPI), running on    10 processors

     MPI processes distributed on     1 nodes
     898 MiB available memory on the printing compute node when the environment starts

     Reading input from scf.350.in

     Current dimensions of program PWSCF are:
     Max number of different atomic species (ntypx) = 10
     Max number of k-points (npk) =  40000
     Max angular momentum in pseudopotentials (lmaxx) =  4
     file Fe.pbe-spn-kjpaw_psl.1.0.0.UPF: wavefunction(s)  3P 3D renormalized
     Message from routine set_cutoff:
     ecutrho < 4*ecutwfc, are you sure?
     Found identity + ( -0.5000 -0.5000 -0.5000) symmetry
     This is a supercell, fractional translations are disabled
     Message from routine setup:
     using ibrav=0 with symmetry is DISCOURAGED, use correct ibrav instead

     R & G space division:  proc/nbgrp/npool/nimage =      10
     Subspace diagonalization in iterative solution of the eigenvalue problem:
     a serial algorithm will be used


     Parallelization info
     --------------------
     sticks:   dense  smooth     PW     G-vecs:    dense   smooth      PW
     Min          80      80     28                 1744     1744     356
     Max          81      81     30                 1747     1747     358
     Sum         805     805    285                17461    17461    3575

     Using Slab Decomposition



     bravais-lattice index     =            0
     lattice parameter (alat)  =       5.4104  a.u.
     unit-cell volume          =     158.3714 (a.u.)^3
     number of atoms/cell      =            2
     number of atomic types    =            1
     number of electrons       =        32.00
     number of Kohn-Sham states=           20
     kinetic-energy cutoff     =     100.0000  Ry
     charge density cutoff     =     350.0000  Ry
     scf convergence threshold =      4.0E-10
     mixing beta               =       0.4000
     number of iterations used =            8  plain     mixing
     Exchange-correlation= SLA  PW   PBX  PBC
                           (   1   4   3   4   0   0   0)

     celldm(1)=   5.410353  celldm(2)=   0.000000  celldm(3)=   0.000000
     celldm(4)=   0.000000  celldm(5)=   0.000000  celldm(6)=   0.000000

     crystal axes: (cart. coord. in units of alat)
               a(1) = (   1.000000   0.000000   0.000000 )  
               a(2) = (   0.000000   1.000000   0.000000 )  
               a(3) = (   0.000000   0.000000   1.000000 )  

     reciprocal axes: (cart. coord. in units 2 pi/alat)
               b(1) = (  1.000000  0.000000  0.000000 )  
               b(2) = (  0.000000  1.000000  0.000000 )  
               b(3) = (  0.000000  0.000000  1.000000 )  


     PseudoPot. # 1 for Fe read from file:
     /home/abdul/git_repo/ZnS/pseudo/QE/Fe.pbe-spn-kjpaw_psl.1.0.0.UPF
     MD5 check sum: fc81f059e5c5069939230b1155715ae8
     Pseudo is Projector augmented-wave + core cor, Zval = 16.0
     Generated using &quot;atomic&quot; code by A. Dal Corso  v.6.3
     Shape of augmentation charge: PSQ
     Using radial grid of 1191 points,  6 beta functions with: 
                l(1) =   0
                l(2) =   0
                l(3) =   1
                l(4) =   1
                l(5) =   2
                l(6) =   2
     Q(r) pseudized with 0 coefficients 


     atomic species   valence    mass     pseudopotential
     Fe               16.00    55.84500     Fe( 1.00)

     Starting magnetic structure 
     atomic species   magnetization
     Fe              0.312

     48 Sym. Ops., with inversion, found


                                    s                        frac. trans.

      isym =  1     identity                                     

 cryst.   s( 1) = (     1          0          0      )
                  (     0          1          0      )
                  (     0          0          1      )

 cart.    s( 1) = (  1.0000000  0.0000000  0.0000000 )
                  (  0.0000000  1.0000000  0.0000000 )
                  (  0.0000000  0.0000000  1.0000000 )


      isym =  2     180 deg rotation - cart. axis [0,0,1]        

 cryst.   s( 2) = (    -1          0          0      )
                  (     0         -1          0      )
                  (     0          0          1      )

 cart.    s( 2) = ( -1.0000000  0.0000000  0.0000000 )
                  (  0.0000000 -1.0000000  0.0000000 )
                  (  0.0000000  0.0000000  1.0000000 )


      isym =  3     180 deg rotation - cart. axis [0,1,0]        

 cryst.   s( 3) = (    -1          0          0      )
                  (     0          1          0      )
                  (     0          0         -1      )

 cart.    s( 3) = ( -1.0000000  0.0000000  0.0000000 )
                  (  0.0000000  1.0000000  0.0000000 )
                  (  0.0000000  0.0000000 -1.0000000 )


      isym =  4     180 deg rotation - cart. axis [1,0,0]        

 cryst.   s( 4) = (     1          0          0      )
                  (     0         -1          0      )
                  (     0          0         -1      )

 cart.    s( 4) = (  1.0000000  0.0000000  0.0000000 )
                  (  0.0000000 -1.0000000  0.0000000 )
                  (  0.0000000  0.0000000 -1.0000000 )


      isym =  5     180 deg rotation - cart. axis [1,1,0]        

 cryst.   s( 5) = (     0          1          0      )
                  (     1          0          0      )
                  (     0          0         -1      )

 cart.    s( 5) = (  0.0000000  1.0000000  0.0000000 )
                  (  1.0000000  0.0000000  0.0000000 )
                  (  0.0000000  0.0000000 -1.0000000 )


      isym =  6     180 deg rotation - cart. axis [1,-1,0]       

 cryst.   s( 6) = (     0         -1          0      )
                  (    -1          0          0      )
                  (     0          0         -1      )

 cart.    s( 6) = (  0.0000000 -1.0000000  0.0000000 )
                  ( -1.0000000  0.0000000  0.0000000 )
                  (  0.0000000  0.0000000 -1.0000000 )


      isym =  7      90 deg rotation - cart. axis [0,0,-1]       

 cryst.   s( 7) = (     0         -1          0      )
                  (     1          0          0      )
                  (     0          0          1      )

 cart.    s( 7) = (  0.0000000  1.0000000  0.0000000 )
                  ( -1.0000000  0.0000000  0.0000000 )
                  (  0.0000000  0.0000000  1.0000000 )


      isym =  8      90 deg rotation - cart. axis [0,0,1]        

 cryst.   s( 8) = (     0          1          0      )
                  (    -1          0          0      )
                  (     0          0          1      )

 cart.    s( 8) = (  0.0000000 -1.0000000  0.0000000 )
                  (  1.0000000  0.0000000  0.0000000 )
                  (  0.0000000  0.0000000  1.0000000 )


      isym =  9     180 deg rotation - cart. axis [1,0,1]        

 cryst.   s( 9) = (     0          0          1      )
                  (     0         -1          0      )
                  (     1          0          0      )

 cart.    s( 9) = (  0.0000000  0.0000000  1.0000000 )
                  (  0.0000000 -1.0000000  0.0000000 )
                  (  1.0000000  0.0000000  0.0000000 )


      isym = 10     180 deg rotation - cart. axis [-1,0,1]       

 cryst.   s(10) = (     0          0         -1      )
                  (     0         -1          0      )
                  (    -1          0          0      )

 cart.    s(10) = (  0.0000000  0.0000000 -1.0000000 )
                  (  0.0000000 -1.0000000  0.0000000 )
                  ( -1.0000000  0.0000000  0.0000000 )


      isym = 11      90 deg rotation - cart. axis [0,1,0]        

 cryst.   s(11) = (     0          0         -1      )
                  (     0          1          0      )
                  (     1          0          0      )

 cart.    s(11) = (  0.0000000  0.0000000  1.0000000 )
                  (  0.0000000  1.0000000  0.0000000 )
                  ( -1.0000000  0.0000000  0.0000000 )


      isym = 12      90 deg rotation - cart. axis [0,-1,0]       

 cryst.   s(12) = (     0          0          1      )
                  (     0          1          0      )
                  (    -1          0          0      )

 cart.    s(12) = (  0.0000000  0.0000000 -1.0000000 )
                  (  0.0000000  1.0000000  0.0000000 )
                  (  1.0000000  0.0000000  0.0000000 )


      isym = 13     180 deg rotation - cart. axis [0,1,1]        

 cryst.   s(13) = (    -1          0          0      )
                  (     0          0          1      )
                  (     0          1          0      )

 cart.    s(13) = ( -1.0000000  0.0000000  0.0000000 )
                  (  0.0000000  0.0000000  1.0000000 )
                  (  0.0000000  1.0000000  0.0000000 )


      isym = 14     180 deg rotation - cart. axis [0,1,-1]       

 cryst.   s(14) = (    -1          0          0      )
                  (     0          0         -1      )
                  (     0         -1          0      )

 cart.    s(14) = ( -1.0000000  0.0000000  0.0000000 )
                  (  0.0000000  0.0000000 -1.0000000 )
                  (  0.0000000 -1.0000000  0.0000000 )


      isym = 15      90 deg rotation - cart. axis [-1,0,0]       

 cryst.   s(15) = (     1          0          0      )
                  (     0          0         -1      )
                  (     0          1          0      )

 cart.    s(15) = (  1.0000000  0.0000000  0.0000000 )
                  (  0.0000000  0.0000000  1.0000000 )
                  (  0.0000000 -1.0000000  0.0000000 )


      isym = 16      90 deg rotation - cart. axis [1,0,0]        

 cryst.   s(16) = (     1          0          0      )
                  (     0          0          1      )
                  (     0         -1          0      )

 cart.    s(16) = (  1.0000000  0.0000000  0.0000000 )
                  (  0.0000000  0.0000000 -1.0000000 )
                  (  0.0000000  1.0000000  0.0000000 )


      isym = 17     120 deg rotation - cart. axis [-1,-1,-1]     

 cryst.   s(17) = (     0          0          1      )
                  (     1          0          0      )
                  (     0          1          0      )

 cart.    s(17) = (  0.0000000  1.0000000  0.0000000 )
                  (  0.0000000  0.0000000  1.0000000 )
                  (  1.0000000  0.0000000  0.0000000 )


      isym = 18     120 deg rotation - cart. axis [-1,1,1]       

 cryst.   s(18) = (     0          0         -1      )
                  (    -1          0          0      )
                  (     0          1          0      )

 cart.    s(18) = (  0.0000000 -1.0000000  0.0000000 )
                  (  0.0000000  0.0000000  1.0000000 )
                  ( -1.0000000  0.0000000  0.0000000 )


      isym = 19     120 deg rotation - cart. axis [1,1,-1]       

 cryst.   s(19) = (     0          0         -1      )
                  (     1          0          0      )
                  (     0         -1          0      )

 cart.    s(19) = (  0.0000000  1.0000000  0.0000000 )
                  (  0.0000000  0.0000000 -1.0000000 )
                  ( -1.0000000  0.0000000  0.0000000 )


      isym = 20     120 deg rotation - cart. axis [1,-1,1]       

 cryst.   s(20) = (     0          0          1      )
                  (    -1          0          0      )
                  (     0         -1          0      )

 cart.    s(20) = (  0.0000000 -1.0000000  0.0000000 )
                  (  0.0000000  0.0000000 -1.0000000 )
                  (  1.0000000  0.0000000  0.0000000 )


      isym = 21     120 deg rotation - cart. axis [1,1,1]        

 cryst.   s(21) = (     0          1          0      )
                  (     0          0          1      )
                  (     1          0          0      )

 cart.    s(21) = (  0.0000000  0.0000000  1.0000000 )
                  (  1.0000000  0.0000000  0.0000000 )
                  (  0.0000000  1.0000000  0.0000000 )


      isym = 22     120 deg rotation - cart. axis [-1,1,-1]      

 cryst.   s(22) = (     0         -1          0      )
                  (     0          0         -1      )
                  (     1          0          0      )

 cart.    s(22) = (  0.0000000  0.0000000  1.0000000 )
                  ( -1.0000000  0.0000000  0.0000000 )
                  (  0.0000000 -1.0000000  0.0000000 )


      isym = 23     120 deg rotation - cart. axis [1,-1,-1]      

 cryst.   s(23) = (     0         -1          0      )
                  (     0          0          1      )
                  (    -1          0          0      )

 cart.    s(23) = (  0.0000000  0.0000000 -1.0000000 )
                  ( -1.0000000  0.0000000  0.0000000 )
                  (  0.0000000  1.0000000  0.0000000 )


      isym = 24     120 deg rotation - cart. axis [-1,-1,1]      

 cryst.   s(24) = (     0          1          0      )
                  (     0          0         -1      )
                  (    -1          0          0      )

 cart.    s(24) = (  0.0000000  0.0000000 -1.0000000 )
                  (  1.0000000  0.0000000  0.0000000 )
                  (  0.0000000 -1.0000000  0.0000000 )


      isym = 25     inversion                                    

 cryst.   s(25) = (    -1          0          0      )
                  (     0         -1          0      )
                  (     0          0         -1      )

 cart.    s(25) = ( -1.0000000  0.0000000  0.0000000 )
                  (  0.0000000 -1.0000000  0.0000000 )
                  (  0.0000000  0.0000000 -1.0000000 )


      isym = 26     inv. 180 deg rotation - cart. axis [0,0,1]   

 cryst.   s(26) = (     1          0          0      )
                  (     0          1          0      )
                  (     0          0         -1      )

 cart.    s(26) = (  1.0000000  0.0000000  0.0000000 )
                  (  0.0000000  1.0000000  0.0000000 )
                  (  0.0000000  0.0000000 -1.0000000 )


      isym = 27     inv. 180 deg rotation - cart. axis [0,1,0]   

 cryst.   s(27) = (     1          0          0      )
                  (     0         -1          0      )
                  (     0          0          1      )

 cart.    s(27) = (  1.0000000  0.0000000  0.0000000 )
                  (  0.0000000 -1.0000000  0.0000000 )
                  (  0.0000000  0.0000000  1.0000000 )


      isym = 28     inv. 180 deg rotation - cart. axis [1,0,0]   

 cryst.   s(28) = (    -1          0          0      )
                  (     0          1          0      )
                  (     0          0          1      )

 cart.    s(28) = ( -1.0000000  0.0000000  0.0000000 )
                  (  0.0000000  1.0000000  0.0000000 )
                  (  0.0000000  0.0000000  1.0000000 )


      isym = 29     inv. 180 deg rotation - cart. axis [1,1,0]   

 cryst.   s(29) = (     0         -1          0      )
                  (    -1          0          0      )
                  (     0          0          1      )

 cart.    s(29) = (  0.0000000 -1.0000000  0.0000000 )
                  ( -1.0000000  0.0000000  0.0000000 )
                  (  0.0000000  0.0000000  1.0000000 )


      isym = 30     inv. 180 deg rotation - cart. axis [1,-1,0]  

 cryst.   s(30) = (     0          1          0      )
                  (     1          0          0      )
                  (     0          0          1      )

 cart.    s(30) = (  0.0000000  1.0000000  0.0000000 )
                  (  1.0000000  0.0000000  0.0000000 )
                  (  0.0000000  0.0000000  1.0000000 )


      isym = 31     inv.  90 deg rotation - cart. axis [0,0,-1]  

 cryst.   s(31) = (     0          1          0      )
                  (    -1          0          0      )
                  (     0          0         -1      )

 cart.    s(31) = (  0.0000000 -1.0000000  0.0000000 )
                  (  1.0000000  0.0000000  0.0000000 )
                  (  0.0000000  0.0000000 -1.0000000 )


      isym = 32     inv.  90 deg rotation - cart. axis [0,0,1]   

 cryst.   s(32) = (     0         -1          0      )
                  (     1          0          0      )
                  (     0          0         -1      )

 cart.    s(32) = (  0.0000000  1.0000000  0.0000000 )
                  ( -1.0000000  0.0000000  0.0000000 )
                  (  0.0000000  0.0000000 -1.0000000 )


      isym = 33     inv. 180 deg rotation - cart. axis [1,0,1]   

 cryst.   s(33) = (     0          0         -1      )
                  (     0          1          0      )
                  (    -1          0          0      )

 cart.    s(33) = (  0.0000000  0.0000000 -1.0000000 )
                  (  0.0000000  1.0000000  0.0000000 )
                  ( -1.0000000  0.0000000  0.0000000 )


      isym = 34     inv. 180 deg rotation - cart. axis [-1,0,1]  

 cryst.   s(34) = (     0          0          1      )
                  (     0          1          0      )
                  (     1          0          0      )

 cart.    s(34) = (  0.0000000  0.0000000  1.0000000 )
                  (  0.0000000  1.0000000  0.0000000 )
                  (  1.0000000  0.0000000  0.0000000 )


      isym = 35     inv.  90 deg rotation - cart. axis [0,1,0]   

 cryst.   s(35) = (     0          0          1      )
                  (     0         -1          0      )
                  (    -1          0          0      )

 cart.    s(35) = (  0.0000000  0.0000000 -1.0000000 )
                  (  0.0000000 -1.0000000  0.0000000 )
                  (  1.0000000  0.0000000  0.0000000 )


      isym = 36     inv.  90 deg rotation - cart. axis [0,-1,0]  

 cryst.   s(36) = (     0          0         -1      )
                  (     0         -1          0      )
                  (     1          0          0      )

 cart.    s(36) = (  0.0000000  0.0000000  1.0000000 )
                  (  0.0000000 -1.0000000  0.0000000 )
                  ( -1.0000000  0.0000000  0.0000000 )


      isym = 37     inv. 180 deg rotation - cart. axis [0,1,1]   

 cryst.   s(37) = (     1          0          0      )
                  (     0          0         -1      )
                  (     0         -1          0      )

 cart.    s(37) = (  1.0000000  0.0000000  0.0000000 )
                  (  0.0000000  0.0000000 -1.0000000 )
                  (  0.0000000 -1.0000000  0.0000000 )


      isym = 38     inv. 180 deg rotation - cart. axis [0,1,-1]  

 cryst.   s(38) = (     1          0          0      )
                  (     0          0          1      )
                  (     0          1          0      )

 cart.    s(38) = (  1.0000000  0.0000000  0.0000000 )
                  (  0.0000000  0.0000000  1.0000000 )
                  (  0.0000000  1.0000000  0.0000000 )


      isym = 39     inv.  90 deg rotation - cart. axis [-1,0,0]  

 cryst.   s(39) = (    -1          0          0      )
                  (     0          0          1      )
                  (     0         -1          0      )

 cart.    s(39) = ( -1.0000000  0.0000000  0.0000000 )
                  (  0.0000000  0.0000000 -1.0000000 )
                  (  0.0000000  1.0000000  0.0000000 )


      isym = 40     inv.  90 deg rotation - cart. axis [1,0,0]   

 cryst.   s(40) = (    -1          0          0      )
                  (     0          0         -1      )
                  (     0          1          0      )

 cart.    s(40) = ( -1.0000000  0.0000000  0.0000000 )
                  (  0.0000000  0.0000000  1.0000000 )
                  (  0.0000000 -1.0000000  0.0000000 )


      isym = 41     inv. 120 deg rotation - cart. axis [-1,-1,-1]

 cryst.   s(41) = (     0          0         -1      )
                  (    -1          0          0      )
                  (     0         -1          0      )

 cart.    s(41) = (  0.0000000 -1.0000000  0.0000000 )
                  (  0.0000000  0.0000000 -1.0000000 )
                  ( -1.0000000  0.0000000  0.0000000 )


      isym = 42     inv. 120 deg rotation - cart. axis [-1,1,1]  

 cryst.   s(42) = (     0          0          1      )
                  (     1          0          0      )
                  (     0         -1          0      )

 cart.    s(42) = (  0.0000000  1.0000000  0.0000000 )
                  (  0.0000000  0.0000000 -1.0000000 )
                  (  1.0000000  0.0000000  0.0000000 )


      isym = 43     inv. 120 deg rotation - cart. axis [1,1,-1]  

 cryst.   s(43) = (     0          0          1      )
                  (    -1          0          0      )
                  (     0          1          0      )

 cart.    s(43) = (  0.0000000 -1.0000000  0.0000000 )
                  (  0.0000000  0.0000000  1.0000000 )
                  (  1.0000000  0.0000000  0.0000000 )


      isym = 44     inv. 120 deg rotation - cart. axis [1,-1,1]  

 cryst.   s(44) = (     0          0         -1      )
                  (     1          0          0      )
                  (     0          1          0      )

 cart.    s(44) = (  0.0000000  1.0000000  0.0000000 )
                  (  0.0000000  0.0000000  1.0000000 )
                  ( -1.0000000  0.0000000  0.0000000 )


      isym = 45     inv. 120 deg rotation - cart. axis [1,1,1]   

 cryst.   s(45) = (     0         -1          0      )
                  (     0          0         -1      )
                  (    -1          0          0      )

 cart.    s(45) = (  0.0000000  0.0000000 -1.0000000 )
                  ( -1.0000000  0.0000000  0.0000000 )
                  (  0.0000000 -1.0000000  0.0000000 )


      isym = 46     inv. 120 deg rotation - cart. axis [-1,1,-1] 

 cryst.   s(46) = (     0          1          0      )
                  (     0          0          1      )
                  (    -1          0          0      )

 cart.    s(46) = (  0.0000000  0.0000000 -1.0000000 )
                  (  1.0000000  0.0000000  0.0000000 )
                  (  0.0000000  1.0000000  0.0000000 )


      isym = 47     inv. 120 deg rotation - cart. axis [1,-1,-1] 

 cryst.   s(47) = (     0          1          0      )
                  (     0          0         -1      )
                  (     1          0          0      )

 cart.    s(47) = (  0.0000000  0.0000000  1.0000000 )
                  (  1.0000000  0.0000000  0.0000000 )
                  (  0.0000000 -1.0000000  0.0000000 )


      isym = 48     inv. 120 deg rotation - cart. axis [-1,-1,1] 

 cryst.   s(48) = (     0         -1          0      )
                  (     0          0          1      )
                  (     1          0          0      )

 cart.    s(48) = (  0.0000000  0.0000000  1.0000000 )
                  ( -1.0000000  0.0000000  0.0000000 )
                  (  0.0000000  1.0000000  0.0000000 )


   Cartesian axes

     site n.     atom                  positions (alat units)
         1        Fe     tau(   1) = (   0.0000000   0.0000000   0.0000000  )
         2        Fe     tau(   2) = (   0.5000000   0.5000000   0.5000000  )

   Crystallographic axes

     site n.     atom                  positions (cryst. coord.)
         1        Fe     tau(   1) = (  0.0000000  0.0000000  0.0000000  )
         2        Fe     tau(   2) = (  0.5000000  0.5000000  0.5000000  )

     number of k points=    56  Gaussian smearing, width (Ry)=  0.0100
                       cart. coord. in units 2pi/alat
        k(    1) = (   0.0000000   0.0000000   0.0000000), wk =   0.0010000
        k(    2) = (   0.0000000   0.0000000   0.1000000), wk =   0.0060000
        k(    3) = (   0.0000000   0.0000000   0.2000000), wk =   0.0060000
        k(    4) = (   0.0000000   0.0000000   0.3000000), wk =   0.0060000
        k(    5) = (   0.0000000   0.0000000   0.4000000), wk =   0.0060000
        k(    6) = (   0.0000000   0.0000000  -0.5000000), wk =   0.0030000
        k(    7) = (   0.0000000   0.1000000   0.1000000), wk =   0.0120000
        k(    8) = (   0.0000000   0.1000000   0.2000000), wk =   0.0240000
        k(    9) = (   0.0000000   0.1000000   0.3000000), wk =   0.0240000
        k(   10) = (   0.0000000   0.1000000   0.4000000), wk =   0.0240000
        k(   11) = (   0.0000000   0.1000000  -0.5000000), wk =   0.0120000
        k(   12) = (   0.0000000   0.2000000   0.2000000), wk =   0.0120000
        k(   13) = (   0.0000000   0.2000000   0.3000000), wk =   0.0240000
        k(   14) = (   0.0000000   0.2000000   0.4000000), wk =   0.0240000
        k(   15) = (   0.0000000   0.2000000  -0.5000000), wk =   0.0120000
        k(   16) = (   0.0000000   0.3000000   0.3000000), wk =   0.0120000
        k(   17) = (   0.0000000   0.3000000   0.4000000), wk =   0.0240000
        k(   18) = (   0.0000000   0.3000000  -0.5000000), wk =   0.0120000
        k(   19) = (   0.0000000   0.4000000   0.4000000), wk =   0.0120000
        k(   20) = (   0.0000000   0.4000000  -0.5000000), wk =   0.0120000
        k(   21) = (   0.0000000  -0.5000000  -0.5000000), wk =   0.0030000
        k(   22) = (   0.1000000   0.1000000   0.1000000), wk =   0.0080000
        k(   23) = (   0.1000000   0.1000000   0.2000000), wk =   0.0240000
        k(   24) = (   0.1000000   0.1000000   0.3000000), wk =   0.0240000
        k(   25) = (   0.1000000   0.1000000   0.4000000), wk =   0.0240000
        k(   26) = (   0.1000000   0.1000000  -0.5000000), wk =   0.0120000
        k(   27) = (   0.1000000   0.2000000   0.2000000), wk =   0.0240000
        k(   28) = (   0.1000000   0.2000000   0.3000000), wk =   0.0480000
        k(   29) = (   0.1000000   0.2000000   0.4000000), wk =   0.0480000
        k(   30) = (   0.1000000   0.2000000  -0.5000000), wk =   0.0240000
        k(   31) = (   0.1000000   0.3000000   0.3000000), wk =   0.0240000
        k(   32) = (   0.1000000   0.3000000   0.4000000), wk =   0.0480000
        k(   33) = (   0.1000000   0.3000000  -0.5000000), wk =   0.0240000
        k(   34) = (   0.1000000   0.4000000   0.4000000), wk =   0.0240000
        k(   35) = (   0.1000000   0.4000000  -0.5000000), wk =   0.0240000
        k(   36) = (   0.1000000  -0.5000000  -0.5000000), wk =   0.0060000
        k(   37) = (   0.2000000   0.2000000   0.2000000), wk =   0.0080000
        k(   38) = (   0.2000000   0.2000000   0.3000000), wk =   0.0240000
        k(   39) = (   0.2000000   0.2000000   0.4000000), wk =   0.0240000
        k(   40) = (   0.2000000   0.2000000  -0.5000000), wk =   0.0120000
        k(   41) = (   0.2000000   0.3000000   0.3000000), wk =   0.0240000
        k(   42) = (   0.2000000   0.3000000   0.4000000), wk =   0.0480000
        k(   43) = (   0.2000000   0.3000000  -0.5000000), wk =   0.0240000
        k(   44) = (   0.2000000   0.4000000   0.4000000), wk =   0.0240000
        k(   45) = (   0.2000000   0.4000000  -0.5000000), wk =   0.0240000
        k(   46) = (   0.2000000  -0.5000000  -0.5000000), wk =   0.0060000
        k(   47) = (   0.3000000   0.3000000   0.3000000), wk =   0.0080000
        k(   48) = (   0.3000000   0.3000000   0.4000000), wk =   0.0240000
        k(   49) = (   0.3000000   0.3000000  -0.5000000), wk =   0.0120000
        k(   50) = (   0.3000000   0.4000000   0.4000000), wk =   0.0240000
        k(   51) = (   0.3000000   0.4000000  -0.5000000), wk =   0.0240000
        k(   52) = (   0.3000000  -0.5000000  -0.5000000), wk =   0.0060000
        k(   53) = (   0.4000000   0.4000000   0.4000000), wk =   0.0080000
        k(   54) = (   0.4000000   0.4000000  -0.5000000), wk =   0.0120000
        k(   55) = (   0.4000000  -0.5000000  -0.5000000), wk =   0.0060000
        k(   56) = (  -0.5000000  -0.5000000  -0.5000000), wk =   0.0010000

                       cryst. coord.
        k(    1) = (   0.0000000   0.0000000   0.0000000), wk =   0.0010000
        k(    2) = (   0.0000000   0.0000000   0.1000000), wk =   0.0060000
        k(    3) = (   0.0000000   0.0000000   0.2000000), wk =   0.0060000
        k(    4) = (   0.0000000   0.0000000   0.3000000), wk =   0.0060000
        k(    5) = (   0.0000000   0.0000000   0.4000000), wk =   0.0060000
        k(    6) = (   0.0000000   0.0000000  -0.5000000), wk =   0.0030000
        k(    7) = (   0.0000000   0.1000000   0.1000000), wk =   0.0120000
        k(    8) = (   0.0000000   0.1000000   0.2000000), wk =   0.0240000
        k(    9) = (   0.0000000   0.1000000   0.3000000), wk =   0.0240000
        k(   10) = (   0.0000000   0.1000000   0.4000000), wk =   0.0240000
        k(   11) = (   0.0000000   0.1000000  -0.5000000), wk =   0.0120000
        k(   12) = (   0.0000000   0.2000000   0.2000000), wk =   0.0120000
        k(   13) = (   0.0000000   0.2000000   0.3000000), wk =   0.0240000
        k(   14) = (   0.0000000   0.2000000   0.4000000), wk =   0.0240000
        k(   15) = (   0.0000000   0.2000000  -0.5000000), wk =   0.0120000
        k(   16) = (   0.0000000   0.3000000   0.3000000), wk =   0.0120000
        k(   17) = (   0.0000000   0.3000000   0.4000000), wk =   0.0240000
        k(   18) = (   0.0000000   0.3000000  -0.5000000), wk =   0.0120000
        k(   19) = (   0.0000000   0.4000000   0.4000000), wk =   0.0120000
        k(   20) = (   0.0000000   0.4000000  -0.5000000), wk =   0.0120000
        k(   21) = (   0.0000000  -0.5000000  -0.5000000), wk =   0.0030000
        k(   22) = (   0.1000000   0.1000000   0.1000000), wk =   0.0080000
        k(   23) = (   0.1000000   0.1000000   0.2000000), wk =   0.0240000
        k(   24) = (   0.1000000   0.1000000   0.3000000), wk =   0.0240000
        k(   25) = (   0.1000000   0.1000000   0.4000000), wk =   0.0240000
        k(   26) = (   0.1000000   0.1000000  -0.5000000), wk =   0.0120000
        k(   27) = (   0.1000000   0.2000000   0.2000000), wk =   0.0240000
        k(   28) = (   0.1000000   0.2000000   0.3000000), wk =   0.0480000
        k(   29) = (   0.1000000   0.2000000   0.4000000), wk =   0.0480000
        k(   30) = (   0.1000000   0.2000000  -0.5000000), wk =   0.0240000
        k(   31) = (   0.1000000   0.3000000   0.3000000), wk =   0.0240000
        k(   32) = (   0.1000000   0.3000000   0.4000000), wk =   0.0480000
        k(   33) = (   0.1000000   0.3000000  -0.5000000), wk =   0.0240000
        k(   34) = (   0.1000000   0.4000000   0.4000000), wk =   0.0240000
        k(   35) = (   0.1000000   0.4000000  -0.5000000), wk =   0.0240000
        k(   36) = (   0.1000000  -0.5000000  -0.5000000), wk =   0.0060000
        k(   37) = (   0.2000000   0.2000000   0.2000000), wk =   0.0080000
        k(   38) = (   0.2000000   0.2000000   0.3000000), wk =   0.0240000
        k(   39) = (   0.2000000   0.2000000   0.4000000), wk =   0.0240000
        k(   40) = (   0.2000000   0.2000000  -0.5000000), wk =   0.0120000
        k(   41) = (   0.2000000   0.3000000   0.3000000), wk =   0.0240000
        k(   42) = (   0.2000000   0.3000000   0.4000000), wk =   0.0480000
        k(   43) = (   0.2000000   0.3000000  -0.5000000), wk =   0.0240000
        k(   44) = (   0.2000000   0.4000000   0.4000000), wk =   0.0240000
        k(   45) = (   0.2000000   0.4000000  -0.5000000), wk =   0.0240000
        k(   46) = (   0.2000000  -0.5000000  -0.5000000), wk =   0.0060000
        k(   47) = (   0.3000000   0.3000000   0.3000000), wk =   0.0080000
        k(   48) = (   0.3000000   0.3000000   0.4000000), wk =   0.0240000
        k(   49) = (   0.3000000   0.3000000  -0.5000000), wk =   0.0120000
        k(   50) = (   0.3000000   0.4000000   0.4000000), wk =   0.0240000
        k(   51) = (   0.3000000   0.4000000  -0.5000000), wk =   0.0240000
        k(   52) = (   0.3000000  -0.5000000  -0.5000000), wk =   0.0060000
        k(   53) = (   0.4000000   0.4000000   0.4000000), wk =   0.0080000
        k(   54) = (   0.4000000   0.4000000  -0.5000000), wk =   0.0120000
        k(   55) = (   0.4000000  -0.5000000  -0.5000000), wk =   0.0060000
        k(   56) = (  -0.5000000  -0.5000000  -0.5000000), wk =   0.0010000

     Dense  grid:    17461 G-vectors     FFT dimensions: (  36,  36,  36)

     Dynamical RAM for                 wfc:       0.08 MB

     Dynamical RAM for     wfc (w. buffer):       9.21 MB

     Dynamical RAM for           str. fact:       0.03 MB

     Dynamical RAM for           local pot:       0.00 MB

     Dynamical RAM for          nlocal pot:       0.15 MB

     Dynamical RAM for                qrad:       1.50 MB

     Dynamical RAM for          rho,v,vnew:       0.40 MB

     Dynamical RAM for               rhoin:       0.13 MB

     Dynamical RAM for            rho*nmix:       0.85 MB

     Dynamical RAM for           G-vectors:       0.11 MB

     Dynamical RAM for          h,s,v(r/c):       0.07 MB

     Dynamical RAM for          <psi|beta>:       0.01 MB

     Dynamical RAM for                 psi:       0.16 MB

     Dynamical RAM for                hpsi:       0.16 MB

     Dynamical RAM for                spsi:       0.16 MB

     Dynamical RAM for      wfcinit/wfcrot:       0.17 MB

     Dynamical RAM for           addusdens:       5.04 MB

     Estimated static dynamical RAM per process >      11.82 MB

     Estimated max dynamical RAM per process >      17.71 MB

     Estimated total dynamical RAM >     177.07 MB

     Check: negative core charge=   -0.000004
     Generating pointlists ...
     new r_m :   0.3572 (alat units)  1.9328 (a.u.) for type    1

     The initial density is read from file :
     ./out/Fe.save/charge-density


     negative rho (up, down):  0.000E+00 4.356E-04
     Starting wfcs from file
     Checking if some PAW data can be deallocated... 

     total cpu time spent up to now is        1.2 secs

     Self-consistent Calculation

     iteration #  1     ecut=   100.00 Ry     beta= 0.40
     Davidson diagonalization with overlap

---- Real-time Memory Report at c_bands before calling an iterative solver
            60 MiB given to the printing process from OS
             0 MiB allocation reported by mallinfo(arena+hblkhd)
           632 MiB available memory on the node where the printing process lives
------------------
     ethr =  1.00E-05,  avg # of iterations =  1.4

     Threshold (ethr) on eigenvalues was too large:
     Diagonalizing with lowered threshold

     Davidson diagonalization with overlap

---- Real-time Memory Report at c_bands before calling an iterative solver
            60 MiB given to the printing process from OS
             0 MiB allocation reported by mallinfo(arena+hblkhd)
           625 MiB available memory on the node where the printing process lives
------------------
     ethr =  2.46E-09,  avg # of iterations =  1.0

     negative rho (up, down):  0.000E+00 4.522E-04

     total cpu time spent up to now is        8.8 secs

     total energy              =    -658.54062526 Ry
     estimated scf accuracy    <       0.00000079 Ry

     total magnetization       =     4.43 Bohr mag/cell
     absolute magnetization    =     4.70 Bohr mag/cell

     iteration #  2     ecut=   100.00 Ry     beta= 0.40
     Davidson diagonalization with overlap

---- Real-time Memory Report at c_bands before calling an iterative solver
            74 MiB given to the printing process from OS
             0 MiB allocation reported by mallinfo(arena+hblkhd)
           624 MiB available memory on the node where the printing process lives
------------------
     ethr =  2.47E-09,  avg # of iterations =  1.6

     negative rho (up, down):  0.000E+00 4.544E-04

     total cpu time spent up to now is       12.7 secs

     total energy              =    -658.54064215 Ry
     estimated scf accuracy    <       0.00000242 Ry

     total magnetization       =     4.43 Bohr mag/cell
     absolute magnetization    =     4.70 Bohr mag/cell

     iteration #  3     ecut=   100.00 Ry     beta= 0.40
     Davidson diagonalization with overlap

---- Real-time Memory Report at c_bands before calling an iterative solver
            74 MiB given to the printing process from OS
             0 MiB allocation reported by mallinfo(arena+hblkhd)
           595 MiB available memory on the node where the printing process lives
------------------
     ethr =  2.47E-09,  avg # of iterations =  1.5

     negative rho (up, down):  0.000E+00 4.761E-04

     total cpu time spent up to now is       16.6 secs

     total energy              =    -658.54072590 Ry
     estimated scf accuracy    <       0.00000138 Ry

     total magnetization       =     4.43 Bohr mag/cell
     absolute magnetization    =     4.70 Bohr mag/cell

     iteration #  4     ecut=   100.00 Ry     beta= 0.40
     Davidson diagonalization with overlap

---- Real-time Memory Report at c_bands before calling an iterative solver
            74 MiB given to the printing process from OS
             0 MiB allocation reported by mallinfo(arena+hblkhd)
           600 MiB available memory on the node where the printing process lives
------------------
     ethr =  2.47E-09,  avg # of iterations =  1.5

     negative rho (up, down):  0.000E+00 4.772E-04

     total cpu time spent up to now is       20.4 secs

     total energy              =    -658.54072621 Ry
     estimated scf accuracy    <       0.00000005 Ry

     total magnetization       =     4.43 Bohr mag/cell
     absolute magnetization    =     4.70 Bohr mag/cell

     iteration #  5     ecut=   100.00 Ry     beta= 0.40
     Davidson diagonalization with overlap

---- Real-time Memory Report at c_bands before calling an iterative solver
            74 MiB given to the printing process from OS
             0 MiB allocation reported by mallinfo(arena+hblkhd)
           571 MiB available memory on the node where the printing process lives
------------------
     ethr =  1.51E-10,  avg # of iterations =  1.9

     negative rho (up, down):  0.000E+00 4.773E-04

     total cpu time spent up to now is       24.6 secs

     total energy              =    -658.54072621 Ry
     estimated scf accuracy    <          7.0E-09 Ry

     total magnetization       =     4.43 Bohr mag/cell
     absolute magnetization    =     4.70 Bohr mag/cell

     iteration #  6     ecut=   100.00 Ry     beta= 0.40
     Davidson diagonalization with overlap

---- Real-time Memory Report at c_bands before calling an iterative solver
            74 MiB given to the printing process from OS
             0 MiB allocation reported by mallinfo(arena+hblkhd)
           600 MiB available memory on the node where the printing process lives
------------------
     ethr =  2.19E-11,  avg # of iterations =  2.4

     negative rho (up, down):  0.000E+00 4.774E-04

     total cpu time spent up to now is       28.9 secs

     total energy              =    -658.54072621 Ry
     estimated scf accuracy    <          4.9E-10 Ry

     total magnetization       =     4.43 Bohr mag/cell
     absolute magnetization    =     4.70 Bohr mag/cell

     iteration #  7     ecut=   100.00 Ry     beta= 0.40
     Davidson diagonalization with overlap

---- Real-time Memory Report at c_bands before calling an iterative solver
            74 MiB given to the printing process from OS
             0 MiB allocation reported by mallinfo(arena+hblkhd)
           608 MiB available memory on the node where the printing process lives
------------------
     ethr =  1.53E-12,  avg # of iterations =  1.9

     negative rho (up, down):  0.000E+00 4.774E-04

     total cpu time spent up to now is       32.7 secs

     total energy              =    -658.54072621 Ry
     estimated scf accuracy    <          4.3E-10 Ry

     total magnetization       =     4.43 Bohr mag/cell
     absolute magnetization    =     4.70 Bohr mag/cell

     iteration #  8     ecut=   100.00 Ry     beta= 0.40
     Davidson diagonalization with overlap

---- Real-time Memory Report at c_bands before calling an iterative solver
            74 MiB given to the printing process from OS
             0 MiB allocation reported by mallinfo(arena+hblkhd)
           613 MiB available memory on the node where the printing process lives
------------------
     ethr =  1.33E-12,  avg # of iterations =  2.2

     negative rho (up, down):  0.000E+00 4.774E-04

     Magnetic moment per site  (integrated on atomic sphere of radius R)
     atom   1 (R=0.357)  charge= 14.4177  magn=  2.2726
     atom   2 (R=0.357)  charge= 14.4177  magn=  2.2726

     total cpu time spent up to now is       36.9 secs

     End of self-consistent calculation

 ------ SPIN UP ------------


          k = 0.0000 0.0000 0.0000 (  2721 PWs)   bands (ev):

   -70.4799 -70.3602 -36.5678 -36.5678 -36.5678 -36.3010 -36.3010 -36.3010
     9.2424  12.8891  12.8891  15.3436  15.3436  15.3436  16.4935  16.4935
    17.6723  17.6723  17.6723  27.1980

     occupation numbers 
     1.0000   1.0000   1.0000   1.0000   1.0000   1.0000   1.0000   1.0000
     1.0000   1.0000   1.0000   1.0000   1.0000   1.0000   1.0000   1.0000
     0.1873   0.1873   0.1873   0.0000

          k = 0.0000 0.0000 0.1000 (  2673 PWs)   bands (ev):

   -70.4766 -70.3627 -36.5667 -36.5609 -36.5609 -36.3130 -36.3071 -36.3071
     9.4450  12.9739  12.9750  15.3423  15.3423  15.3979  16.4049  16.5282
    17.5069  17.5069  17.6128  25.8762

     occupation numbers 
     1.0000   1.0000   1.0000   1.0000   1.0000   1.0000   1.0000   1.0000
     1.0000   1.0000   1.0000   1.0000   1.0000   1.0000   1.0000   1.0000
     0.7973   0.7973   0.3939   0.0000

          k = 0.0000 0.0000 0.2000 (  2677 PWs)   bands (ev):

   -70.4670 -70.3701 -36.5620 -36.5410 -36.5410 -36.3464 -36.3251 -36.3251
    10.0348  13.1948  13.2216  15.3508  15.3508  15.5565  16.1467  16.6278
    17.0937  17.0937  17.4407  23.4511

     occupation numbers 
     1.0000   1.0000   1.0000   1.0000   1.0000   1.0000   1.0000   1.0000
     1.0000   1.0000   1.0000   1.0000   1.0000   1.0000   1.0000   1.0000
     1.0000   1.0000   0.9357   0.0000

          k = 0.0000 0.0000 0.3000 (  2701 PWs)   bands (ev):

   -70.4524 -70.3820 -36.5501 -36.5103 -36.5103 -36.3937 -36.3534 -36.3534
    10.9484  13.4286  13.6114  15.4005  15.4005  15.7426  15.8057  16.5931
    16.5931  16.7919  17.1748  21.0468

     occupation numbers 
     1.0000   1.0000   1.0000   1.0000   1.0000   1.0000   1.0000   1.0000
     1.0000   1.0000   1.0000   1.0000   1.0000   1.0000   1.0000   1.0000
     1.0000   1.0000   1.0000   0.0000

          k = 0.0000 0.0000 0.4000 (  2670 PWs)   bands (ev):

   -70.4346 -70.3976 -36.5273 -36.4722 -36.4722 -36.4452 -36.3897 -36.3897
    12.0384  13.4558  14.1093  15.2322  15.5296  15.5296  16.1235  16.1298
    16.1298  16.8433  17.0807  19.0462

     occupation numbers 
     1.0000   1.0000   1.0000   1.0000   1.0000   1.0000   1.0000   1.0000
     1.0000   1.0000   1.0000   1.0000   1.0000   1.0000   1.0000   1.0000
     1.0000   1.0000   1.0000   0.0000

          k = 0.0000 0.0000-0.5000 (  2666 PWs)   bands (ev):

   -70.4157 -70.4157 -36.4917 -36.4917 -36.4306 -36.4306 -36.4306 -36.4306
    12.9964  12.9964  14.6682  14.6682  15.7688  15.7688  15.7688  15.7688
    16.4808  16.4808  17.7229  17.7229

     occupation numbers 
     1.0000   1.0000   1.0000   1.0000   1.0000   1.0000   1.0000   1.0000
     1.0000   1.0000   1.0000   1.0000   1.0000   1.0000   1.0000   1.0000
     1.0000   1.0000   0.0787   0.0787

          k = 0.0000 0.1000 0.1000 (  2668 PWs)   bands (ev):

   -70.4734 -70.3651 -36.5776 -36.5543 -36.5426 -36.3368 -36.3129 -36.3009
     9.6442  13.0511  13.0653  15.2375  15.3292  15.5547  16.3982  16.5024
    17.2227  17.3422  17.6968  25.9431

     occupation numbers 
     1.0000   1.0000   1.0000   1.0000   1.0000   1.0000   1.0000   1.0000
     1.0000   1.0000   1.0000   1.0000   1.0000   1.0000   1.0000   1.0000
     0.9999   0.9945   0.1266   0.0000

          k = 0.0000 0.1000 0.2000 (  2675 PWs)   bands (ev):

   -70.4642 -70.3721 -36.5828 -36.5353 -36.5145 -36.3784 -36.3300 -36.3086
    10.2221  13.2607  13.3108  15.1637  15.3031  15.7913  16.2163  16.5878
    16.7560  16.9409  17.6343  23.6933

     occupation numbers 
     1.0000   1.0000   1.0000   1.0000   1.0000   1.0000   1.0000   1.0000
     1.0000   1.0000   1.0000   1.0000   1.0000   1.0000   1.0000   1.0000
     1.0000   1.0000   0.3110   0.0000

          k = 0.0000 0.1000 0.3000 (  2688 PWs)   bands (ev):

   -70.4503 -70.3833 -36.5778 -36.5061 -36.4798 -36.4296 -36.3568 -36.3301
    11.1104  13.4915  13.6742  15.1608  15.2616  15.9453  16.0844  16.2532
    16.4851  16.7558  17.4294  21.2684

     occupation numbers 
     1.0000   1.0000   1.0000   1.0000   1.0000   1.0000   1.0000   1.0000
     1.0000   1.0000   1.0000   1.0000   1.0000   1.0000   1.0000   1.0000
     1.0000   1.0000   0.9491   0.0000

          k = 0.0000 0.1000 0.4000 (  2684 PWs)   bands (ev):

   -70.4333 -70.3981 -36.5596 -36.4818 -36.4697 -36.4405 -36.3912 -36.3618
    12.1539  13.5054  14.1313  15.0584  15.2544  15.8059  15.8168  16.1271
    16.4221  17.0612  17.1304  19.2103

     occupation numbers 
     1.0000   1.0000   1.0000   1.0000   1.0000   1.0000   1.0000   1.0000
     1.0000   1.0000   1.0000   1.0000   1.0000   1.0000   1.0000   1.0000
     1.0000   1.0000   1.0000   0.0000

          k = 0.0000 0.1000-0.5000 (  2690 PWs)   bands (ev):

   -70.4153 -70.4153 -36.5269 -36.5269 -36.4301 -36.4301 -36.3999 -36.3999
    13.0571  13.0571  14.6261  14.6261  15.4670  15.4670  15.9160  15.9160
    16.7815  16.7815  17.7812  17.7812

     occupation numbers 
     1.0000   1.0000   1.0000   1.0000   1.0000   1.0000   1.0000   1.0000
     1.0000   1.0000   1.0000   1.0000   1.0000   1.0000   1.0000   1.0000
     1.0000   1.0000   0.0217   0.0217

          k = 0.0000 0.2000 0.2000 (  2674 PWs)   bands (ev):

   -70.4562 -70.3779 -36.6032 -36.5190 -36.4764 -36.4300 -36.3443 -36.3008
    10.7581  13.3907  13.5933  14.9671  15.2252  16.1365  16.2342  16.3098
    16.5336  16.5965  17.7613  23.6996

     occupation numbers 
     1.0000   1.0000   1.0000   1.0000   1.0000   1.0000   1.0000   1.0000
     1.0000   1.0000   1.0000   1.0000   1.0000   1.0000   1.0000   1.0000
     1.0000   1.0000   0.0349   0.0000

          k = 0.0000 0.2000 0.3000 (  2675 PWs)   bands (ev):

   -70.4441 -70.3872 -36.6118 -36.4938 -36.4864 -36.4360 -36.3668 -36.3081
    11.5521  13.5089  13.9831  14.8583  15.1785  15.7259  16.2342  16.2811
    16.5067  16.6596  17.7149  21.7071

     occupation numbers 
     1.0000   1.0000   1.0000   1.0000   1.0000   1.0000   1.0000   1.0000
     1.0000   1.0000   1.0000   1.0000   1.0000   1.0000   1.0000   1.0000
     1.0000   1.0000   0.0917   0.0000

          k = 0.0000 0.2000 0.4000 (  2682 PWs)   bands (ev):

   -70.4295 -70.3996 -36.6047 -36.5389 -36.4627 -36.3959 -36.3958 -36.3285
    12.4164  13.4564  14.4004  14.8674  15.0738  15.3056  16.1550  16.1990
    16.8803  17.0006  17.5233  19.5845

     occupation numbers 
     1.0000   1.0000   1.0000   1.0000   1.0000   1.0000   1.0000   1.0000
     1.0000   1.0000   1.0000   1.0000   1.0000   1.0000   1.0000   1.0000
     1.0000   1.0000   0.7457   0.0000

          k = 0.0000 0.2000-0.5000 (  2688 PWs)   bands (ev):

   -70.4141 -70.4141 -36.5800 -36.5800 -36.4289 -36.4289 -36.3589 -36.3589
    13.0981  13.0981  14.7906  14.7906  15.0146  15.0146  16.1838  16.1838
    17.2309  17.2309  17.9343  17.9343

     occupation numbers 
     1.0000   1.0000   1.0000   1.0000   1.0000   1.0000   1.0000   1.0000
     1.0000   1.0000   1.0000   1.0000   1.0000   1.0000   1.0000   1.0000
     0.9999   0.9999   0.0002   0.0002

          k = 0.0000 0.3000 0.3000 (  2670 PWs)   bands (ev):

   -70.4350 -70.3936 -36.6347 -36.5440 -36.4751 -36.3938 -36.3828 -36.3006
    12.1280  13.4218  14.4674  14.6465  15.2399  15.3494  16.1775  16.4208
    16.5886  16.9257  17.8416  21.4307

     occupation numbers 
     1.0000   1.0000   1.0000   1.0000   1.0000   1.0000   1.0000   1.0000
     1.0000   1.0000   1.0000   1.0000   1.0000   1.0000   1.0000   1.0000
     1.0000   1.0000   0.0040   0.0000

          k = 0.0000 0.3000 0.4000 (  2669 PWs)   bands (ev):

   -70.4240 -70.4023 -36.6408 -36.5932 -36.4521 -36.4036 -36.3566 -36.3075
    12.6325  13.2413  14.5648  14.8646  14.9790  15.5879  16.2467  16.4795
    16.8932  17.3033  17.7973  19.8310

     occupation numbers 
     1.0000   1.0000   1.0000   1.0000   1.0000   1.0000   1.0000   1.0000
     1.0000   1.0000   1.0000   1.0000   1.0000   1.0000   1.0000   1.0000
     1.0000   0.9984   0.0144   0.0000

          k = 0.0000 0.3000-0.5000 (  2672 PWs)   bands (ev):

   -70.4127 -70.4127 -36.6268 -36.6268 -36.4274 -36.4274 -36.3270 -36.3270
    12.9857  12.9857  14.6355  14.6355  15.4001  15.4001  16.4010  16.4010
    17.6059  17.6059  18.0968  18.0968

     occupation numbers 
     1.0000   1.0000   1.0000   1.0000   1.0000   1.0000   1.0000   1.0000
     1.0000   1.0000   1.0000   1.0000   1.0000   1.0000   1.0000   1.0000
     0.4218   0.4218   0.0000   0.0000

          k = 0.0000 0.4000 0.4000 (  2684 PWs)   bands (ev):

   -70.4177 -70.4063 -36.6602 -36.6353 -36.4394 -36.4139 -36.3264 -36.3005
    12.7431  13.0141  14.3970  14.5485  15.6507  16.3852  16.3906  16.6474
    16.8827  17.6380  17.9072  19.3701

     occupation numbers 
     1.0000   1.0000   1.0000   1.0000   1.0000   1.0000   1.0000   1.0000
     1.0000   1.0000   1.0000   1.0000   1.0000   1.0000   1.0000   1.0000
     1.0000   0.2975   0.0004   0.0000

          k = 0.0000 0.4000-0.5000 (  2668 PWs)   bands (ev):

   -70.4116 -70.4116 -36.6586 -36.6586 -36.4262 -36.4262 -36.3071 -36.3071
    12.8475  12.8475  14.3891  14.3891  16.2100  16.2100  16.5299  16.5299
    17.8486  17.8486  18.1278  18.1278

     occupation numbers 
     1.0000   1.0000   1.0000   1.0000   1.0000   1.0000   1.0000   1.0000
     1.0000   1.0000   1.0000   1.0000   1.0000   1.0000   1.0000   1.0000
     0.0033   0.0033   0.0000   0.0000

          k = 0.0000-0.5000-0.5000 (  2680 PWs)   bands (ev):

   -70.4112 -70.4112 -36.6699 -36.6699 -36.4257 -36.4257 -36.3005 -36.3005
    12.7916  12.7916  14.3040  14.3040  16.5601  16.5601  16.6734  16.6734
    17.9323  17.9323  18.0493  18.0493

     occupation numbers 
     1.0000   1.0000   1.0000   1.0000   1.0000   1.0000   1.0000   1.0000
     1.0000   1.0000   1.0000   1.0000   1.0000   1.0000   1.0000   1.0000
     0.0002   0.0002   0.0000   0.0000

          k = 0.1000 0.1000 0.1000 (  2677 PWs)   bands (ev):

   -70.4703 -70.3673 -36.5705 -36.5705 -36.5205 -36.3584 -36.3073 -36.3073
     9.8405  13.1407  13.1407  15.2189  15.2189  15.7157  16.4408  16.4408
    16.8548  17.5318  17.5318  26.2830

     occupation numbers 
     1.0000   1.0000   1.0000   1.0000   1.0000   1.0000   1.0000   1.0000
     1.0000   1.0000   1.0000   1.0000   1.0000   1.0000   1.0000   1.0000
     1.0000   0.7165   0.7165   0.0000

          k = 0.1000 0.1000 0.2000 (  2678 PWs)   bands (ev):

   -70.4615 -70.3739 -36.5833 -36.5499 -36.4890 -36.4011 -36.3260 -36.3096
    10.4083  13.3594  13.3679  15.1076  15.1677  15.9961  16.2698  16.3472
    16.5547  17.1265  17.5697  23.9483

     occupation numbers 
     1.0000   1.0000   1.0000   1.0000   1.0000   1.0000   1.0000   1.0000
     1.0000   1.0000   1.0000   1.0000   1.0000   1.0000   1.0000   1.0000
     1.0000   1.0000   0.5708   0.0000

          k = 0.1000 0.1000 0.3000 (  2693 PWs)   bands (ev):

   -70.4482 -70.3845 -36.5851 -36.5181 -36.4538 -36.4521 -36.3554 -36.3243
    11.2746  13.5968  13.6976  15.0785  15.0929  15.8757  16.0446  16.3289
    16.6505  16.7291  17.4372  21.5093

     occupation numbers 
     1.0000   1.0000   1.0000   1.0000   1.0000   1.0000   1.0000   1.0000
     1.0000   1.0000   1.0000   1.0000   1.0000   1.0000   1.0000   1.0000
     1.0000   1.0000   0.9402   0.0000

          k = 0.1000 0.1000 0.4000 (  2678 PWs)   bands (ev):

   -70.4320 -70.3985 -36.5727 -36.5026 -36.4786 -36.4170 -36.3930 -36.3492
    12.2780  13.5892  14.1138  14.8893  15.1999  15.5585  15.8983  16.2358
    16.6436  17.0919  17.1910  19.4242

     occupation numbers 
     1.0000   1.0000   1.0000   1.0000   1.0000   1.0000   1.0000   1.0000
     1.0000   1.0000   1.0000   1.0000   1.0000   1.0000   1.0000   1.0000
     1.0000   1.0000   1.0000   0.0000

          k = 0.1000 0.1000-0.5000 (  2672 PWs)   bands (ev):

   -70.4148 -70.4148 -36.5446 -36.5446 -36.4354 -36.4354 -36.3811 -36.3811
    13.1377  13.1377  14.5433  14.5433  15.3741  15.3741  15.9646  15.9646
    16.9066  16.9066  17.9283  17.9283

     occupation numbers 
     1.0000   1.0000   1.0000   1.0000   1.0000   1.0000   1.0000   1.0000
     1.0000   1.0000   1.0000   1.0000   1.0000   1.0000   1.0000   1.0000
     1.0000   1.0000   0.0002   0.0002

          k = 0.1000 0.2000 0.2000 (  2691 PWs)   bands (ev):

   -70.4539 -70.3793 -36.5954 -36.5418 -36.4530 -36.4468 -36.3377 -36.3078
    10.9397  13.4987  13.6407  14.9294  15.0643  15.8220  16.3387  16.3712
    16.5138  16.9139  17.5908  24.0365

     occupation numbers 
     1.0000   1.0000   1.0000   1.0000   1.0000   1.0000   1.0000   1.0000
     1.0000   1.0000   1.0000   1.0000   1.0000   1.0000   1.0000   1.0000
     1.0000   1.0000   0.4839   0.0000

          k = 0.1000 0.2000 0.3000 (  2684 PWs)   bands (ev):

   -70.4423 -70.3882 -36.6062 -36.5139 -36.4986 -36.4166 -36.3634 -36.3130
    11.7224  13.6367  13.9901  14.8104  15.0061  15.3949  16.2601  16.5450
    16.6314  16.7937  17.5553  22.0101

     occupation numbers 
     1.0000   1.0000   1.0000   1.0000   1.0000   1.0000   1.0000   1.0000
     1.0000   1.0000   1.0000   1.0000   1.0000   1.0000   1.0000   1.0000
     1.0000   1.0000   0.6288   0.0000

          k = 0.1000 0.2000 0.4000 (  2675 PWs)   bands (ev):

   -70.4284 -70.3999 -36.6032 -36.5466 -36.4771 -36.3976 -36.3823 -36.3284
    12.5632  13.5878  14.3131  14.7299  15.0294  15.1816  16.1861  16.2877
    16.8136  17.3535  17.3737  19.9039

     occupation numbers 
     1.0000   1.0000   1.0000   1.0000   1.0000   1.0000   1.0000   1.0000
     1.0000   1.0000   1.0000   1.0000   1.0000   1.0000   1.0000   1.0000
     1.0000   0.9924   0.9867   0.0000

          k = 0.1000 0.2000-0.5000 (  2686 PWs)   bands (ev):

   -70.4137 -70.4137 -36.5830 -36.5830 -36.4369 -36.4369 -36.3522 -36.3522
    13.2224  13.2224  14.5731  14.5731  15.1016  15.1016  16.1968  16.1968
    17.0867  17.0867  18.3060  18.3060

     occupation numbers 
     1.0000   1.0000   1.0000   1.0000   1.0000   1.0000   1.0000   1.0000
     1.0000   1.0000   1.0000   1.0000   1.0000   1.0000   1.0000   1.0000
     1.0000   1.0000   0.0000   0.0000

          k = 0.1000 0.3000 0.3000 (  2669 PWs)   bands (ev):

   -70.4335 -70.3942 -36.6262 -36.5492 -36.4934 -36.3816 -36.3810 -36.3084
    12.3023  13.5508  14.4662  14.6109  15.0074  15.1129  16.3728  16.4214
    16.5896  17.2623  17.6311  21.8393

     occupation numbers 
     1.0000   1.0000   1.0000   1.0000   1.0000   1.0000   1.0000   1.0000
     1.0000   1.0000   1.0000   1.0000   1.0000   1.0000   1.0000   1.0000
     1.0000   0.9996   0.3230   0.0000

          k = 0.1000 0.3000 0.4000 (  2666 PWs)   bands (ev):

   -70.4231 -70.4024 -36.6333 -36.5929 -36.4653 -36.4055 -36.3518 -36.3138
    12.7936  13.3704  14.5223  14.6886  15.0043  15.3765  16.3404  16.4418
    16.7547  17.5307  17.8190  20.2966

     occupation numbers 
     1.0000   1.0000   1.0000   1.0000   1.0000   1.0000   1.0000   1.0000
     1.0000   1.0000   1.0000   1.0000   1.0000   1.0000   1.0000   1.0000
     1.0000   0.7205   0.0079   0.0000

          k = 0.1000 0.3000-0.5000 (  2672 PWs)   bands (ev):

   -70.4123 -70.4123 -36.6223 -36.6223 -36.4346 -36.4346 -36.3287 -36.3287
    13.1245  13.1245  14.5532  14.5532  15.3405  15.3405  16.4133  16.4133
    17.1966  17.1966  18.7519  18.7519

     occupation numbers 
     1.0000   1.0000   1.0000   1.0000   1.0000   1.0000   1.0000   1.0000
     1.0000   1.0000   1.0000   1.0000   1.0000   1.0000   1.0000   1.0000
     1.0000   1.0000   0.0000   0.0000

          k = 0.1000 0.4000 0.4000 (  2670 PWs)   bands (ev):

   -70.4170 -70.4062 -36.6510 -36.6300 -36.4490 -36.4171 -36.3286 -36.3089
    12.8950  13.1435  14.3729  14.4942  15.5734  16.1186  16.4378  16.5720
    16.6515  17.5052  18.3526  20.0379

     occupation numbers 
     1.0000   1.0000   1.0000   1.0000   1.0000   1.0000   1.0000   1.0000
     1.0000   1.0000   1.0000   1.0000   1.0000   1.0000   1.0000   1.0000
     1.0000   0.8021   0.0000   0.0000

          k = 0.1000 0.4000-0.5000 (  2668 PWs)   bands (ev):

   -70.4112 -70.4112 -36.6504 -36.6504 -36.4321 -36.4321 -36.3140 -36.3140
    12.9854  12.9854  14.3609  14.3609  16.0923  16.0923  16.5407  16.5407
    17.1475  17.1475  19.1196  19.1196

     occupation numbers 
     1.0000   1.0000   1.0000   1.0000   1.0000   1.0000   1.0000   1.0000
     1.0000   1.0000   1.0000   1.0000   1.0000   1.0000   1.0000   1.0000
     1.0000   1.0000   0.0000   0.0000

          k = 0.1000-0.5000-0.5000 (  2684 PWs)   bands (ev):

   -70.4107 -70.4107 -36.6605 -36.6605 -36.4310 -36.4310 -36.3091 -36.3091
    12.9286  12.9286  14.2856  14.2856  16.5774  16.5774  16.6766  16.6766
    16.8917  16.8917  19.2726  19.2726

     occupation numbers 
     1.0000   1.0000   1.0000   1.0000   1.0000   1.0000   1.0000   1.0000
     1.0000   1.0000   1.0000   1.0000   1.0000   1.0000   1.0000   1.0000
     1.0000   1.0000   0.0000   0.0000

          k = 0.2000 0.2000 0.2000 (  2683 PWs)   bands (ev):

   -70.4472 -70.3838 -36.5730 -36.5730 -36.4846 -36.4186 -36.3283 -36.3283
    11.4536  13.7740  13.7740  14.8295  14.8295  15.2833  16.4561  16.4561
    16.8023  17.1965  17.1965  24.9291

     occupation numbers 
     1.0000   1.0000   1.0000   1.0000   1.0000   1.0000   1.0000   1.0000
     1.0000   1.0000   1.0000   1.0000   1.0000   1.0000   1.0000   1.0000
     1.0000   1.0000   1.0000   0.0000

          k = 0.2000 0.2000 0.3000 (  2673 PWs)   bands (ev):

   -70.4372 -70.3911 -36.5955 -36.5384 -36.5281 -36.3872 -36.3605 -36.3249
    12.1893  13.9671  14.0088  14.6956  14.7346  14.9253  16.3734  16.6025
    16.7775  17.2834  17.3149  22.7035

     occupation numbers 
     1.0000   1.0000   1.0000   1.0000   1.0000   1.0000   1.0000   1.0000
     1.0000   1.0000   1.0000   1.0000   1.0000   1.0000   1.0000   1.0000
     1.0000   0.9992   0.9977   0.0000

          k = 0.2000 0.2000 0.4000 (  2679 PWs)   bands (ev):

   -70.4251 -70.4009 -36.6033 -36.5670 -36.4952 -36.4017 -36.3612 -36.3293
    12.9258  13.8520  14.1810  14.5465  14.8575  14.9752  16.3039  16.4654
    16.7638  17.1829  17.9654  20.5958

     occupation numbers 
     1.0000   1.0000   1.0000   1.0000   1.0000   1.0000   1.0000   1.0000
     1.0000   1.0000   1.0000   1.0000   1.0000   1.0000   1.0000   1.0000
     1.0000   1.0000   0.0000   0.0000

          k = 0.2000 0.2000-0.5000 (  2676 PWs)   bands (ev):

   -70.4126 -70.4126 -36.5936 -36.5936 -36.4481 -36.4481 -36.3416 -36.3416
    13.4674  13.4674  14.3785  14.3785  15.0329  15.0329  16.3132  16.3132
    16.9675  16.9675  18.9883  18.9883

     occupation numbers 
     1.0000   1.0000   1.0000   1.0000   1.0000   1.0000   1.0000   1.0000
     1.0000   1.0000   1.0000   1.0000   1.0000   1.0000   1.0000   1.0000
     1.0000   1.0000   0.0000   0.0000

          k = 0.2000 0.3000 0.3000 (  2676 PWs)   bands (ev):

   -70.4295 -70.3960 -36.6015 -36.5631 -36.5289 -36.3755 -36.3627 -36.3311
    12.7877  13.9009  14.4551  14.5219  14.5986  14.6994  16.4826  16.5880
    16.6728  17.2176  17.9192  22.8488

     occupation numbers 
     1.0000   1.0000   1.0000   1.0000   1.0000   1.0000   1.0000   1.0000
     1.0000   1.0000   1.0000   1.0000   1.0000   1.0000   1.0000   1.0000
     1.0000   0.9999   0.0003   0.0000

          k = 0.2000 0.3000 0.4000 (  2679 PWs)   bands (ev):

   -70.4204 -70.4028 -36.6127 -36.5931 -36.4934 -36.4092 -36.3455 -36.3318
    13.2332  13.7017  14.4267  14.4285  14.9240  14.9320  16.4750  16.5265
    16.7019  17.1292  18.6496  21.2779

     occupation numbers 
     1.0000   1.0000   1.0000   1.0000   1.0000   1.0000   1.0000   1.0000
     1.0000   1.0000   1.0000   1.0000   1.0000   1.0000   1.0000   1.0000
     1.0000   1.0000   0.0000   0.0000

          k = 0.2000 0.3000-0.5000 (  2666 PWs)   bands (ev):

   -70.4112 -70.4112 -36.6109 -36.6109 -36.4508 -36.4508 -36.3355 -36.3355
    13.4822  13.4822  14.3955  14.3955  15.1201  15.1201  16.4770  16.4770
    16.9066  16.9066  19.7207  19.7207

     occupation numbers 
     1.0000   1.0000   1.0000   1.0000   1.0000   1.0000   1.0000   1.0000
     1.0000   1.0000   1.0000   1.0000   1.0000   1.0000   1.0000   1.0000
     1.0000   1.0000   0.0000   0.0000

          k = 0.2000 0.4000 0.4000 (  2655 PWs)   bands (ev):

   -70.4151 -70.4058 -36.6245 -36.6156 -36.4734 -36.4242 -36.3370 -36.3335
    13.3156  13.4855  14.3170  14.3856  15.3296  15.4223  16.5560  16.5777
    16.6614  17.0376  19.4232  21.3111

     occupation numbers 
     1.0000   1.0000   1.0000   1.0000   1.0000   1.0000   1.0000   1.0000
     1.0000   1.0000   1.0000   1.0000   1.0000   1.0000   1.0000   1.0000
     1.0000   1.0000   0.0000   0.0000

          k = 0.2000 0.4000-0.5000 (  2666 PWs)   bands (ev):

   -70.4100 -70.4100 -36.6269 -36.6269 -36.4473 -36.4473 -36.3342 -36.3342
    13.3594  13.3594  14.3014  14.3014  15.6425  15.6425  16.5859  16.5859
    16.8046  16.8046  20.3910  20.3910

     occupation numbers 
     1.0000   1.0000   1.0000   1.0000   1.0000   1.0000   1.0000   1.0000
     1.0000   1.0000   1.0000   1.0000   1.0000   1.0000   1.0000   1.0000
     1.0000   1.0000   0.0000   0.0000

          k = 0.2000-0.5000-0.5000 (  2684 PWs)   bands (ev):

   -70.4096 -70.4096 -36.6333 -36.6333 -36.4450 -36.4450 -36.3344 -36.3344
    13.3041  13.3041  14.2458  14.2458  15.9874  15.9874  16.6208  16.6208
    16.6851  16.6851  20.7230  20.7230

     occupation numbers 
     1.0000   1.0000   1.0000   1.0000   1.0000   1.0000   1.0000   1.0000
     1.0000   1.0000   1.0000   1.0000   1.0000   1.0000   1.0000   1.0000
     1.0000   1.0000   0.0000   0.0000

          k = 0.3000 0.3000 0.3000 (  2662 PWs)   bands (ev):

   -70.4235 -70.3992 -36.5807 -36.5634 -36.5634 -36.3669 -36.3669 -36.3500
    13.4245  14.1745  14.4214  14.4214  14.4218  14.4218  16.5782  16.5782
    16.8636  16.8636  18.6722  24.1940

     occupation numbers 
     1.0000   1.0000   1.0000   1.0000   1.0000   1.0000   1.0000   1.0000
     1.0000   1.0000   1.0000   1.0000   1.0000   1.0000   1.0000   1.0000
     1.0000   1.0000   0.0000   0.0000

          k = 0.3000 0.3000 0.4000 (  2677 PWs)   bands (ev):

   -70.4166 -70.4038 -36.5949 -36.5881 -36.5158 -36.4125 -36.3571 -36.3459
    13.7536  13.9309  14.3520  14.3718  14.6036  14.8097  16.5657  16.6565
    16.6776  16.8896  19.5553  22.3647

     occupation numbers 
     1.0000   1.0000   1.0000   1.0000   1.0000   1.0000   1.0000   1.0000
     1.0000   1.0000   1.0000   1.0000   1.0000   1.0000   1.0000   1.0000
     1.0000   1.0000   0.0000   0.0000

          k = 0.3000 0.3000-0.5000 (  2668 PWs)   bands (ev):

   -70.4098 -70.4098 -36.5987 -36.5987 -36.4638 -36.4638 -36.3491 -36.3491
    13.8002  13.8002  14.3376  14.3376  14.9140  14.9140  16.5760  16.5760
    16.7906  16.7906  20.7448  20.7448

     occupation numbers 
     1.0000   1.0000   1.0000   1.0000   1.0000   1.0000   1.0000   1.0000
     1.0000   1.0000   1.0000   1.0000   1.0000   1.0000   1.0000   1.0000
     1.0000   1.0000   0.0000   0.0000

          k = 0.3000 0.4000 0.4000 (  2660 PWs)   bands (ev):

   -70.4125 -70.4057 -36.5961 -36.5836 -36.5037 -36.4281 -36.3721 -36.3538
    13.8537  13.8884  14.2707  14.3842  14.8370  14.9721  16.6336  16.6658
    16.6716  16.8030  20.5567  22.8274

     occupation numbers 
     1.0000   1.0000   1.0000   1.0000   1.0000   1.0000   1.0000   1.0000
     1.0000   1.0000   1.0000   1.0000   1.0000   1.0000   1.0000   1.0000
     1.0000   1.0000   0.0000   0.0000

          k = 0.3000 0.4000-0.5000 (  2662 PWs)   bands (ev):

   -70.4087 -70.4087 -36.5924 -36.5924 -36.4652 -36.4652 -36.3655 -36.3655
    13.8283  13.8283  14.2857  14.2857  15.0986  15.0986  16.6474  16.6474
    16.7272  16.7273  21.7462  21.7462

     occupation numbers 
     1.0000   1.0000   1.0000   1.0000   1.0000   1.0000   1.0000   1.0000
     1.0000   1.0000   1.0000   1.0000   1.0000   1.0000   1.0000   1.0000
     1.0000   1.0000   0.0000   0.0000

          k = 0.3000-0.5000-0.5000 (  2660 PWs)   bands (ev):

   -70.4082 -70.4082 -36.5913 -36.5913 -36.4621 -36.4621 -36.3740 -36.3740
    13.8084  13.8084  14.2247  14.2247  15.2807  15.2807  16.6690  16.6690
    16.6956  16.6956  22.3324  22.3324

     occupation numbers 
     1.0000   1.0000   1.0000   1.0000   1.0000   1.0000   1.0000   1.0000
     1.0000   1.0000   1.0000   1.0000   1.0000   1.0000   1.0000   1.0000
     1.0000   1.0000   0.0000   0.0000

          k = 0.4000 0.4000 0.4000 (  2650 PWs)   bands (ev):

   -70.4097 -70.4062 -36.5761 -36.5324 -36.5324 -36.4212 -36.4212 -36.3773
    13.9923  14.2837  14.2837  14.5619  14.6335  14.6335  16.6794  16.6794
    16.7158  16.7158  21.7599  24.5205

     occupation numbers 
     1.0000   1.0000   1.0000   1.0000   1.0000   1.0000   1.0000   1.0000
     1.0000   1.0000   1.0000   1.0000   1.0000   1.0000   1.0000   1.0000
     1.0000   1.0000   0.0000   0.0000

          k = 0.4000 0.4000-0.5000 (  2654 PWs)   bands (ev):

   -70.4075 -70.4075 -36.5561 -36.5561 -36.4765 -36.4765 -36.4023 -36.4023
    14.1065  14.1065  14.3979  14.3979  14.7523  14.7523  16.6885  16.6885
    16.7084  16.7084  23.1153  23.1153

     occupation numbers 
     1.0000   1.0000   1.0000   1.0000   1.0000   1.0000   1.0000   1.0000
     1.0000   1.0000   1.0000   1.0000   1.0000   1.0000   1.0000   1.0000
     1.0000   1.0000   0.0000   0.0000

          k = 0.4000-0.5000-0.5000 (  2668 PWs)   bands (ev):

   -70.4071 -70.4071 -36.5388 -36.5388 -36.4760 -36.4760 -36.4246 -36.4246
    14.2582  14.2582  14.2739  14.2739  14.7698  14.7698  16.6994  16.6994
    16.7042  16.7042  24.0883  24.0883

     occupation numbers 
     1.0000   1.0000   1.0000   1.0000   1.0000   1.0000   1.0000   1.0000
     1.0000   1.0000   1.0000   1.0000   1.0000   1.0000   1.0000   1.0000
     1.0000   1.0000   0.0000   0.0000

          k =-0.5000-0.5000-0.5000 (  2608 PWs)   bands (ev):

   -70.4067 -70.4067 -36.4813 -36.4813 -36.4813 -36.4813 -36.4813 -36.4813
    14.4426  14.4426  14.4426  14.4426  14.4426  14.4426  16.7074  16.7074
    16.7074  16.7074  25.9785  25.9785

     occupation numbers 
     1.0000   1.0000   1.0000   1.0000   1.0000   1.0000   1.0000   1.0000
     1.0000   1.0000   1.0000   1.0000   1.0000   1.0000   1.0000   1.0000
     1.0000   1.0000   0.0000   0.0000

 ------ SPIN DOWN ----------


          k = 0.0000 0.0000 0.0000 (  2721 PWs)   bands (ev):

   -67.7997 -67.6692 -33.9617 -33.9617 -33.9617 -33.6668 -33.6668 -33.6668
     9.3773  14.7374  14.7374  17.2836  17.2836  17.2836  19.3011  19.3011
    19.8993  19.8993  19.8993  27.4522

     occupation numbers 
     1.0000   1.0000   1.0000   1.0000   1.0000   1.0000   1.0000   1.0000
     1.0000   1.0000   1.0000   0.9992   0.9992   0.9992   0.0000   0.0000
     0.0000   0.0000   0.0000   0.0000

          k = 0.0000 0.0000 0.1000 (  2673 PWs)   bands (ev):

   -67.7960 -67.6720 -33.9607 -33.9540 -33.9540 -33.6805 -33.6736 -33.6736
     9.5813  14.8024  14.8394  17.2746  17.2746  17.3440  19.1835  19.3454
    19.6780  19.6780  19.8317  26.3495

     occupation numbers 
     1.0000   1.0000   1.0000   1.0000   1.0000   1.0000   1.0000   1.0000
     1.0000   1.0000   1.0000   0.9994   0.9994   0.9942   0.0000   0.0000
     0.0000   0.0000   0.0000   0.0000

          k = 0.0000 0.0000 0.2000 (  2677 PWs)   bands (ev):

   -67.7856 -67.6800 -33.9562 -33.9320 -33.9320 -33.7181 -33.6934 -33.6934
    10.1780  14.9354  15.1385  17.2631  17.2631  17.5203  18.8419  19.1528
    19.1528  19.4657  19.6365  24.2497

     occupation numbers 
     1.0000   1.0000   1.0000   1.0000   1.0000   1.0000   1.0000   1.0000
     1.0000   1.0000   1.0000   0.9996   0.9996   0.7556   0.0000   0.0000
     0.0000   0.0000   0.0000   0.0000

          k = 0.0000 0.0000 0.3000 (  2701 PWs)   bands (ev):

   -67.7696 -67.6929 -33.9439 -33.8980 -33.8980 -33.7712 -33.7247 -33.7247
    11.1189  14.9391  15.6137  17.2894  17.2894  17.7979  18.3113  18.5549
    18.5549  19.3354  19.6319  22.2642

     occupation numbers 
     1.0000   1.0000   1.0000   1.0000   1.0000   1.0000   1.0000   1.0000
     1.0000   1.0000   1.0000   0.9990   0.9990   0.0142   0.0000   0.0000
     0.0000   0.0000   0.0000   0.0000

          k = 0.0000 0.0000 0.4000 (  2670 PWs)   bands (ev):

   -67.7502 -67.7099 -33.9193 -33.8558 -33.8558 -33.8287 -33.7646 -33.7646
    12.3053  14.5144  16.2284  17.4022  17.4022  17.6494  18.0305  18.0305
    18.1529  18.9612  19.8314  20.8653

     occupation numbers 
     1.0000   1.0000   1.0000   1.0000   1.0000   1.0000   1.0000   1.0000
     1.0000   1.0000   1.0000   0.9725   0.9725   0.2579   0.0000   0.0000
     0.0000   0.0000   0.0000   0.0000

          k = 0.0000 0.0000-0.5000 (  2666 PWs)   bands (ev):

   -67.7296 -67.7296 -33.8803 -33.8803 -33.8098 -33.8098 -33.8098 -33.8098
    13.5458  13.5458  16.9296  16.9296  17.6424  17.6424  17.6424  17.6424
    18.5534  18.5534  20.1507  20.1507

     occupation numbers 
     1.0000   1.0000   1.0000   1.0000   1.0000   1.0000   1.0000   1.0000
     1.0000   1.0000   1.0000   1.0000   0.2819   0.2819   0.2818   0.2818
     0.0000   0.0000   0.0000   0.0000

          k = 0.0000 0.1000 0.1000 (  2668 PWs)   bands (ev):

   -67.7925 -67.6745 -33.9728 -33.9467 -33.9340 -33.7069 -33.6800 -33.6668
     9.7823  14.8939  14.9113  17.1543  17.2535  17.5151  19.1679  19.3111
    19.3344  19.4600  19.9269  26.4848

     occupation numbers 
     1.0000   1.0000   1.0000   1.0000   1.0000   1.0000   1.0000   1.0000
     1.0000   1.0000   1.0000   1.0000   0.9997   0.7723   0.0000   0.0000
     0.0000   0.0000   0.0000   0.0000

          k = 0.0000 0.1000 0.2000 (  2675 PWs)   bands (ev):

   -67.7825 -67.6821 -33.9791 -33.9257 -33.9030 -33.7535 -33.6988 -33.6754
    10.3695  15.0344  15.1877  17.0568  17.2080  17.7748  18.7713  18.9092
    18.9629  19.4140  19.8519  24.5278

     occupation numbers 
     1.0000   1.0000   1.0000   1.0000   1.0000   1.0000   1.0000   1.0000
     1.0000   1.0000   1.0000   1.0000   1.0000   0.0254   0.0000   0.0000
     0.0000   0.0000   0.0000   0.0000

          k = 0.0000 0.1000 0.3000 (  2688 PWs)   bands (ev):

   -67.7673 -67.6943 -33.9741 -33.8933 -33.8647 -33.8106 -33.7284 -33.6992
    11.2921  15.0294  15.6296  17.0307  17.1665  18.0981  18.1864  18.4574
    18.4824  19.5904  19.6134  22.4869

     occupation numbers 
     1.0000   1.0000   1.0000   1.0000   1.0000   1.0000   1.0000   1.0000
     1.0000   1.0000   1.0000   1.0000   1.0000   0.0000   0.0000   0.0000
     0.0000   0.0000   0.0000   0.0000

          k = 0.0000 0.1000 0.4000 (  2684 PWs)   bands (ev):

   -67.7488 -67.7104 -33.9546 -33.8688 -33.8530 -33.8213 -33.7663 -33.7343
    12.4485  14.5950  16.1792  17.0818  17.1094  17.6861  18.0593  18.1111
    18.4735  19.2712  19.8035  20.9813

     occupation numbers 
     1.0000   1.0000   1.0000   1.0000   1.0000   1.0000   1.0000   1.0000
     1.0000   1.0000   1.0000   1.0000   1.0000   0.1511   0.0000   0.0000
     0.0000   0.0000   0.0000   0.0000

          k = 0.0000 0.1000-0.5000 (  2690 PWs)   bands (ev):

   -67.7291 -67.7291 -33.9189 -33.9189 -33.8092 -33.8092 -33.7765 -33.7765
    13.6497  13.6497  16.7356  16.7356  17.3230  17.3230  17.9394  17.9394
    18.8765  18.8765  20.1647  20.1647

     occupation numbers 
     1.0000   1.0000   1.0000   1.0000   1.0000   1.0000   1.0000   1.0000
     1.0000   1.0000   1.0000   1.0000   0.9970   0.9970   0.0001   0.0001
     0.0000   0.0000   0.0000   0.0000

          k = 0.0000 0.2000 0.2000 (  2674 PWs)   bands (ev):

   -67.7738 -67.6884 -34.0020 -33.9075 -33.8610 -33.8109 -33.7145 -33.6668
    10.9253  15.2158  15.3664  16.8270  17.0911  18.1569  18.1706  18.5804
    18.9783  19.3501  19.9995  24.5857

     occupation numbers 
     1.0000   1.0000   1.0000   1.0000   1.0000   1.0000   1.0000   1.0000
     1.0000   1.0000   1.0000   1.0000   1.0000   0.0000   0.0000   0.0000
     0.0000   0.0000   0.0000   0.0000

          k = 0.0000 0.2000 0.3000 (  2675 PWs)   bands (ev):

   -67.7606 -67.6985 -34.0121 -33.8796 -33.8738 -33.8164 -33.7394 -33.6750
    11.7853  15.1465  15.7617  16.6893  16.9800  17.5969  18.3221  18.5684
    18.7981  19.4848  19.9429  22.8857

     occupation numbers 
     1.0000   1.0000   1.0000   1.0000   1.0000   1.0000   1.0000   1.0000
     1.0000   1.0000   1.0000   1.0000   1.0000   0.4587   0.0000   0.0000
     0.0000   0.0000   0.0000   0.0000

          k = 0.0000 0.2000 0.4000 (  2682 PWs)   bands (ev):

   -67.7446 -67.7120 -34.0048 -33.9322 -33.8451 -33.7721 -33.7714 -33.6976
    12.8332  14.7031  16.2167  16.6801  16.8605  17.1347  18.3152  18.5577
    18.9867  19.7190  19.7196  21.2230

     occupation numbers 
     1.0000   1.0000   1.0000   1.0000   1.0000   1.0000   1.0000   1.0000
     1.0000   1.0000   1.0000   1.0000   1.0000   1.0000   0.0000   0.0000
     0.0000   0.0000   0.0000   0.0000

          k = 0.0000 0.2000-0.5000 (  2688 PWs)   bands (ev):

   -67.7278 -67.7278 -33.9777 -33.9777 -33.8078 -33.8078 -33.7313 -33.7313
    13.8805  13.8805  16.6178  16.6178  16.8252  16.8252  18.4141  18.4141
    19.3835  19.3835  20.1828  20.1828

     occupation numbers 
     1.0000   1.0000   1.0000   1.0000   1.0000   1.0000   1.0000   1.0000
     1.0000   1.0000   1.0000   1.0000   1.0000   1.0000   0.0000   0.0000
     0.0000   0.0000   0.0000   0.0000

          k = 0.0000 0.3000 0.3000 (  2670 PWs)   bands (ev):

   -67.7505 -67.7054 -34.0379 -33.9379 -33.8588 -33.7699 -33.7569 -33.6668
    12.5129  14.9907  16.1551  16.4432  16.9062  17.0576  18.3631  18.9934
    19.0394  19.4255  20.0900  22.5722

     occupation numbers 
     1.0000   1.0000   1.0000   1.0000   1.0000   1.0000   1.0000   1.0000
     1.0000   1.0000   1.0000   1.0000   1.0000   1.0000   0.0000   0.0000
     0.0000   0.0000   0.0000   0.0000

          k = 0.0000 0.3000 0.4000 (  2669 PWs)   bands (ev):

   -67.7386 -67.7149 -34.0451 -33.9926 -33.8333 -33.7797 -33.7288 -33.6745
    13.3230  14.6032  16.3398  16.6176  16.6481  16.9579  18.5836  18.9422
    19.4674  19.5906  20.0366  21.2683

     occupation numbers 
     1.0000   1.0000   1.0000   1.0000   1.0000   1.0000   1.0000   1.0000
     1.0000   1.0000   1.0000   1.0000   1.0000   1.0000   0.0000   0.0000
     0.0000   0.0000   0.0000   0.0000

          k = 0.0000 0.3000-0.5000 (  2672 PWs)   bands (ev):

   -67.7263 -67.7263 -34.0299 -34.0299 -33.8060 -33.8060 -33.6960 -33.6960
    14.0458  14.0458  16.4051  16.4051  16.9243  16.9243  18.8147  18.8147
    19.8142  19.8142  20.1203  20.1203

     occupation numbers 
     1.0000   1.0000   1.0000   1.0000   1.0000   1.0000   1.0000   1.0000
     1.0000   1.0000   1.0000   1.0000   1.0000   1.0000   0.0000   0.0000
     0.0000   0.0000   0.0000   0.0000

          k = 0.0000 0.4000 0.4000 (  2684 PWs)   bands (ev):

   -67.7317 -67.7192 -34.0669 -34.0395 -33.8192 -33.7910 -33.6954 -33.6668
    13.7521  14.3564  16.1476  16.3025  17.2249  17.3822  18.8603  19.1103
    19.5104  19.8514  20.1639  20.7122

     occupation numbers 
     1.0000   1.0000   1.0000   1.0000   1.0000   1.0000   1.0000   1.0000
     1.0000   1.0000   1.0000   1.0000   0.9999   0.9833   0.0000   0.0000
     0.0000   0.0000   0.0000   0.0000

          k = 0.0000 0.4000-0.5000 (  2668 PWs)   bands (ev):

   -67.7250 -67.7250 -34.0654 -34.0654 -33.8046 -33.8046 -33.6741 -33.6741
    14.0763  14.0763  16.1322  16.1322  17.6189  17.6189  19.0658  19.0658
    19.8469  19.8469  20.0951  20.0951

     occupation numbers 
     1.0000   1.0000   1.0000   1.0000   1.0000   1.0000   1.0000   1.0000
     1.0000   1.0000   1.0000   1.0000   0.3696   0.3696   0.0000   0.0000
     0.0000   0.0000   0.0000   0.0000

          k = 0.0000-0.5000-0.5000 (  2680 PWs)   bands (ev):

   -67.7245 -67.7245 -34.0780 -34.0780 -33.8040 -33.8040 -33.6668 -33.6668
    14.0687  14.0687  16.0379  16.0379  18.1166  18.1166  19.1491  19.1491
    19.5490  19.5490  20.1923  20.1923

     occupation numbers 
     1.0000   1.0000   1.0000   1.0000   1.0000   1.0000   1.0000   1.0000
     1.0000   1.0000   1.0000   1.0000   0.0000   0.0000   0.0000   0.0000
     0.0000   0.0000   0.0000   0.0000

          k = 0.1000 0.1000 0.1000 (  2677 PWs)   bands (ev):

   -67.7892 -67.6769 -33.9649 -33.9649 -33.9094 -33.7309 -33.6739 -33.6739
     9.9806  14.9835  14.9835  17.1288  17.1288  17.6874  18.8673  19.2230
    19.2230  19.7115  19.7115  26.8806

     occupation numbers 
     1.0000   1.0000   1.0000   1.0000   1.0000   1.0000   1.0000   1.0000
     1.0000   1.0000   1.0000   1.0000   1.0000   0.1480   0.0000   0.0000
     0.0000   0.0000   0.0000   0.0000

          k = 0.1000 0.1000 0.2000 (  2678 PWs)   bands (ev):

   -67.7796 -67.6841 -33.9797 -33.9421 -33.8746 -33.7786 -33.6945 -33.6765
    10.5594  15.1310  15.2429  16.9865  17.0635  17.9894  18.2625  18.9715
    19.2131  19.3670  19.7670  24.8188

     occupation numbers 
     1.0000   1.0000   1.0000   1.0000   1.0000   1.0000   1.0000   1.0000
     1.0000   1.0000   1.0000   1.0000   1.0000   0.0000   0.0000   0.0000
     0.0000   0.0000   0.0000   0.0000

          k = 0.1000 0.1000 0.3000 (  2693 PWs)   bands (ev):

   -67.7650 -67.6956 -33.9823 -33.9069 -33.8358 -33.8355 -33.7269 -33.6928
    11.4657  15.1308  15.6420  16.9321  16.9774  17.7487  18.3494  18.6042
    18.6742  19.5556  19.6255  22.7375

     occupation numbers 
     1.0000   1.0000   1.0000   1.0000   1.0000   1.0000   1.0000   1.0000
     1.0000   1.0000   1.0000   1.0000   1.0000   0.0463   0.0000   0.0000
     0.0000   0.0000   0.0000   0.0000

          k = 0.1000 0.1000 0.4000 (  2678 PWs)   bands (ev):

   -67.7473 -67.7108 -33.9692 -33.8918 -33.8631 -33.7952 -33.7685 -33.7203
    12.5949  14.6877  16.1210  16.8479  17.0014  17.4243  18.2393  18.2599
    18.7415  19.3803  19.7857  21.1520

     occupation numbers 
     1.0000   1.0000   1.0000   1.0000   1.0000   1.0000   1.0000   1.0000
     1.0000   1.0000   1.0000   1.0000   1.0000   0.9545   0.0000   0.0000
     0.0000   0.0000   0.0000   0.0000

          k = 0.1000 0.1000-0.5000 (  2672 PWs)   bands (ev):

   -67.7286 -67.7286 -33.9384 -33.9384 -33.8153 -33.8153 -33.7556 -33.7556
    13.7610  13.7610  16.5688  16.5688  17.1866  17.1866  18.0877  18.0877
    19.0973  19.0973  20.2157  20.2157

     occupation numbers 
     1.0000   1.0000   1.0000   1.0000   1.0000   1.0000   1.0000   1.0000
     1.0000   1.0000   1.0000   1.0000   1.0000   1.0000   0.0000   0.0000
     0.0000   0.0000   0.0000   0.0000

          k = 0.1000 0.2000 0.2000 (  2691 PWs)   bands (ev):

   -67.7712 -67.6900 -33.9934 -33.9333 -33.8348 -33.8295 -33.7074 -33.6745
    11.1100  15.3220  15.4185  16.7798  16.9229  17.6533  18.3797  18.9914
    19.0404  19.3134  19.7948  24.9616

     occupation numbers 
     1.0000   1.0000   1.0000   1.0000   1.0000   1.0000   1.0000   1.0000
     1.0000   1.0000   1.0000   1.0000   1.0000   0.2452   0.0000   0.0000
     0.0000   0.0000   0.0000   0.0000

          k = 0.1000 0.2000 0.3000 (  2684 PWs)   bands (ev):

   -67.7586 -67.6995 -34.0058 -33.9023 -33.8872 -33.7947 -33.7358 -33.6804
    11.9593  15.2765  15.7612  16.6312  16.8027  17.2106  18.6394  18.8066
    18.8716  19.4667  19.7704  23.2116

     occupation numbers 
     1.0000   1.0000   1.0000   1.0000   1.0000   1.0000   1.0000   1.0000
     1.0000   1.0000   1.0000   1.0000   1.0000   1.0000   0.0000   0.0000
     0.0000   0.0000   0.0000   0.0000

          k = 0.1000 0.2000 0.4000 (  2675 PWs)   bands (ev):

   -67.7433 -67.7123 -34.0030 -33.9406 -33.8616 -33.7736 -33.7569 -33.6974
    12.9883  14.8268  16.1216  16.5564  16.7444  16.9859  18.4692  18.6253
    19.2194  19.6194  19.7457  21.5176

     occupation numbers 
     1.0000   1.0000   1.0000   1.0000   1.0000   1.0000   1.0000   1.0000
     1.0000   1.0000   1.0000   1.0000   1.0000   1.0000   0.0000   0.0000
     0.0000   0.0000   0.0000   0.0000

          k = 0.1000 0.2000-0.5000 (  2686 PWs)   bands (ev):

   -67.7273 -67.7273 -33.9810 -33.9810 -33.8170 -33.8170 -33.7237 -33.7237
    14.0119  14.0119  16.4059  16.4059  16.8286  16.8286  18.4807  18.4807
    19.4450  19.4450  20.3728  20.3728

     occupation numbers 
     1.0000   1.0000   1.0000   1.0000   1.0000   1.0000   1.0000   1.0000
     1.0000   1.0000   1.0000   1.0000   1.0000   1.0000   0.0000   0.0000
     0.0000   0.0000   0.0000   0.0000

          k = 0.1000 0.3000 0.3000 (  2669 PWs)   bands (ev):

   -67.7490 -67.7061 -34.0284 -33.9436 -33.8796 -33.7561 -33.7551 -33.6754
    12.6854  15.1250  16.1390  16.3930  16.7172  16.7944  18.5895  19.0357
    19.3126  19.4199  19.8755  23.0027

     occupation numbers 
     1.0000   1.0000   1.0000   1.0000   1.0000   1.0000   1.0000   1.0000
     1.0000   1.0000   1.0000   1.0000   1.0000   1.0000   0.0000   0.0000
     0.0000   0.0000   0.0000   0.0000

          k = 0.1000 0.3000 0.4000 (  2666 PWs)   bands (ev):

   -67.7375 -67.7150 -34.0367 -33.9923 -33.8483 -33.7821 -33.7232 -33.6814
    13.4876  14.7391  16.2811  16.4080  16.6500  16.7629  18.6993  18.9747
    19.5086  19.8133  19.8613  21.7324

     occupation numbers 
     1.0000   1.0000   1.0000   1.0000   1.0000   1.0000   1.0000   1.0000
     1.0000   1.0000   1.0000   1.0000   1.0000   1.0000   0.0000   0.0000
     0.0000   0.0000   0.0000   0.0000

          k = 0.1000 0.3000-0.5000 (  2672 PWs)   bands (ev):

   -67.7258 -67.7258 -34.0248 -34.0248 -33.8144 -33.8144 -33.6978 -33.6978
    14.1941  14.1941  16.3009  16.3009  16.8046  16.8046  18.8573  18.8573
    19.6449  19.6449  20.5903  20.5903

     occupation numbers 
     1.0000   1.0000   1.0000   1.0000   1.0000   1.0000   1.0000   1.0000
     1.0000   1.0000   1.0000   1.0000   1.0000   1.0000   0.0000   0.0000
     0.0000   0.0000   0.0000   0.0000

          k = 0.1000 0.4000 0.4000 (  2670 PWs)   bands (ev):

   -67.7309 -67.7191 -34.0567 -34.0335 -33.8302 -33.7948 -33.6977 -33.6761
    13.9145  14.4953  16.1053  16.2276  17.0723  17.1050  18.9340  19.1391
    19.5140  19.8267  20.2535  21.3907

     occupation numbers 
     1.0000   1.0000   1.0000   1.0000   1.0000   1.0000   1.0000   1.0000
     1.0000   1.0000   1.0000   1.0000   1.0000   1.0000   0.0000   0.0000
     0.0000   0.0000   0.0000   0.0000

          k = 0.1000 0.4000-0.5000 (  2668 PWs)   bands (ev):

   -67.7245 -67.7245 -34.0562 -34.0562 -33.8114 -33.8114 -33.6818 -33.6818
    14.2257  14.2257  16.0843  16.0843  17.3515  17.3515  19.1027  19.1027
    19.6401  19.6401  20.7387  20.7387

     occupation numbers 
     1.0000   1.0000   1.0000   1.0000   1.0000   1.0000   1.0000   1.0000
     1.0000   1.0000   1.0000   1.0000   0.9928   0.9928   0.0000   0.0000
     0.0000   0.0000   0.0000   0.0000

          k = 0.1000-0.5000-0.5000 (  2684 PWs)   bands (ev):

   -67.7240 -67.7240 -34.0675 -34.0675 -33.8101 -33.8101 -33.6764 -33.6764
    14.2164  14.2164  16.0000  16.0000  17.7128  17.7128  19.1848  19.1848
    19.5534  19.5534  20.7770  20.7770

     occupation numbers 
     1.0000   1.0000   1.0000   1.0000   1.0000   1.0000   1.0000   1.0000
     1.0000   1.0000   1.0000   1.0000   0.0954   0.0954   0.0000   0.0000
     0.0000   0.0000   0.0000   0.0000

          k = 0.2000 0.2000 0.2000 (  2683 PWs)   bands (ev):

   -67.7639 -67.6948 -33.9684 -33.9684 -33.8715 -33.7967 -33.6972 -33.6972
    11.6425  15.5625  15.5625  16.6553  16.6553  17.0066  18.8241  19.2047
    19.2047  19.3616  19.3616  25.9085

     occupation numbers 
     1.0000   1.0000   1.0000   1.0000   1.0000   1.0000   1.0000   1.0000
     1.0000   1.0000   1.0000   1.0000   1.0000   1.0000   0.0000   0.0000
     0.0000   0.0000   0.0000   0.0000

          k = 0.2000 0.2000 0.3000 (  2673 PWs)   bands (ev):

   -67.7529 -67.7027 -33.9940 -33.9300 -33.9200 -33.7621 -33.7329 -33.6935
    12.4528  15.5853  15.7631  16.4926  16.4935  16.6566  18.9622  19.0365
    19.3062  19.4311  19.5189  23.9037

     occupation numbers 
     1.0000   1.0000   1.0000   1.0000   1.0000   1.0000   1.0000   1.0000
     1.0000   1.0000   1.0000   1.0000   1.0000   1.0000   0.0000   0.0000
     0.0000   0.0000   0.0000   0.0000

          k = 0.2000 0.2000 0.4000 (  2679 PWs)   bands (ev):

   -67.7398 -67.7134 -34.0032 -33.9633 -33.8821 -33.7785 -33.7334 -33.6984
    13.4088  15.0849  15.9723  16.3250  16.5048  16.6968  18.7372  18.8489
    19.4880  19.5315  19.9945  22.1245

     occupation numbers 
     1.0000   1.0000   1.0000   1.0000   1.0000   1.0000   1.0000   1.0000
     1.0000   1.0000   1.0000   1.0000   1.0000   1.0000   0.0000   0.0000
     0.0000   0.0000   0.0000   0.0000

          k = 0.2000 0.2000-0.5000 (  2676 PWs)   bands (ev):

   -67.7261 -67.7261 -33.9927 -33.9927 -33.8298 -33.8298 -33.7119 -33.7119
    14.3292  14.3292  16.1578  16.1578  16.6410  16.6410  18.7180  18.7180
    19.5204  19.5204  20.8484  20.8484

     occupation numbers 
     1.0000   1.0000   1.0000   1.0000   1.0000   1.0000   1.0000   1.0000
     1.0000   1.0000   1.0000   1.0000   1.0000   1.0000   0.0000   0.0000
     0.0000   0.0000   0.0000   0.0000

          k = 0.2000 0.3000 0.3000 (  2676 PWs)   bands (ev):

   -67.7445 -67.7080 -34.0009 -33.9588 -33.9196 -33.7495 -33.7350 -33.7006
    13.1718  15.4805  16.0894  16.2644  16.3047  16.3662  18.9728  19.1708
    19.3981  19.5178  19.8947  24.0033

     occupation numbers 
     1.0000   1.0000   1.0000   1.0000   1.0000   1.0000   1.0000   1.0000
     1.0000   1.0000   1.0000   1.0000   1.0000   1.0000   0.0000   0.0000
     0.0000   0.0000   0.0000   0.0000

          k = 0.2000 0.3000 0.4000 (  2679 PWs)   bands (ev):

   -67.7346 -67.7154 -34.0138 -33.9923 -33.8802 -33.7868 -33.7161 -33.7013
    13.9429  15.0877  16.1003  16.1366  16.3831  16.4839  18.9523  19.1062
    19.5098  19.5579  20.5259  22.6492

     occupation numbers 
     1.0000   1.0000   1.0000   1.0000   1.0000   1.0000   1.0000   1.0000
     1.0000   1.0000   1.0000   1.0000   1.0000   1.0000   0.0000   0.0000
     0.0000   0.0000   0.0000   0.0000

          k = 0.2000 0.3000-0.5000 (  2666 PWs)   bands (ev):

   -67.7245 -67.7245 -34.0119 -34.0119 -33.8329 -33.8329 -33.7053 -33.7053
    14.5871  14.5871  16.0809  16.0809  16.5201  16.5201  19.0091  19.0091
    19.5586  19.5586  21.3878  21.3878

     occupation numbers 
     1.0000   1.0000   1.0000   1.0000   1.0000   1.0000   1.0000   1.0000
     1.0000   1.0000   1.0000   1.0000   1.0000   1.0000   0.0000   0.0000
     0.0000   0.0000   0.0000   0.0000

          k = 0.2000 0.4000 0.4000 (  2655 PWs)   bands (ev):

   -67.7288 -67.7187 -34.0272 -34.0173 -33.8579 -33.8032 -33.7070 -33.7034
    14.3676  14.8652  15.9991  16.0580  16.5798  16.7121  19.1142  19.2411
    19.5215  19.5857  21.1114  22.5538

     occupation numbers 
     1.0000   1.0000   1.0000   1.0000   1.0000   1.0000   1.0000   1.0000
     1.0000   1.0000   1.0000   1.0000   1.0000   1.0000   0.0000   0.0000
     0.0000   0.0000   0.0000   0.0000

          k = 0.2000 0.4000-0.5000 (  2666 PWs)   bands (ev):

   -67.7232 -67.7232 -34.0300 -34.0300 -33.8288 -33.8288 -33.7041 -33.7041
    14.6341  14.6341  15.9688  15.9688  16.8224  16.8224  19.2168  19.2168
    19.5665  19.5665  21.8136  21.8136

     occupation numbers 
     1.0000   1.0000   1.0000   1.0000   1.0000   1.0000   1.0000   1.0000
     1.0000   1.0000   1.0000   1.0000   1.0000   1.0000   0.0000   0.0000
     0.0000   0.0000   0.0000   0.0000

          k = 0.2000-0.5000-0.5000 (  2684 PWs)   bands (ev):

   -67.7228 -67.7228 -34.0372 -34.0372 -33.8261 -33.8261 -33.7044 -33.7044
    14.6214  14.6214  15.9062  15.9062  17.0458  17.0458  19.2834  19.2834
    19.5649  19.5649  21.9846  21.9846

     occupation numbers 
     1.0000   1.0000   1.0000   1.0000   1.0000   1.0000   1.0000   1.0000
     1.0000   1.0000   1.0000   1.0000   1.0000   1.0000   0.0000   0.0000
     0.0000   0.0000   0.0000   0.0000

          k = 0.3000 0.3000 0.3000 (  2662 PWs)   bands (ev):

   -67.7380 -67.7114 -33.9784 -33.9585 -33.9585 -33.7402 -33.7402 -33.7210
    13.8644  15.7377  16.0142  16.0142  16.1096  16.1096  19.2776  19.2776
    19.3519  19.3519  20.5602  25.2869

     occupation numbers 
     1.0000   1.0000   1.0000   1.0000   1.0000   1.0000   1.0000   1.0000
     1.0000   1.0000   1.0000   1.0000   1.0000   1.0000   0.0000   0.0000
     0.0000   0.0000   0.0000   0.0000

          k = 0.3000 0.3000 0.4000 (  2677 PWs)   bands (ev):

   -67.7304 -67.7165 -33.9941 -33.9863 -33.9056 -33.7908 -33.7294 -33.7166
    14.5482  15.3756  15.9458  15.9848  16.0884  16.2821  19.1932  19.2838
    19.4614  19.5018  21.2896  23.6214

     occupation numbers 
     1.0000   1.0000   1.0000   1.0000   1.0000   1.0000   1.0000   1.0000
     1.0000   1.0000   1.0000   1.0000   1.0000   1.0000   0.0000   0.0000
     0.0000   0.0000   0.0000   0.0000

          k = 0.3000 0.3000-0.5000 (  2668 PWs)   bands (ev):

   -67.7230 -67.7230 -33.9983 -33.9983 -33.8478 -33.8478 -33.7204 -33.7204
    15.0192  15.0192  15.9277  15.9277  16.2649  16.2649  19.2159  19.2159
    19.5409  19.5409  22.2484  22.2484

     occupation numbers 
     1.0000   1.0000   1.0000   1.0000   1.0000   1.0000   1.0000   1.0000
     1.0000   1.0000   1.0000   1.0000   1.0000   1.0000   0.0000   0.0000
     0.0000   0.0000   0.0000   0.0000

          k = 0.3000 0.4000 0.4000 (  2660 PWs)   bands (ev):

   -67.7259 -67.7185 -33.9955 -33.9815 -33.8922 -33.8081 -33.7462 -33.7256
    15.0004  15.2965  15.8815  15.9323  16.1040  16.3222  19.3224  19.3877
    19.5021  19.5255  22.0931  23.9497

     occupation numbers 
     1.0000   1.0000   1.0000   1.0000   1.0000   1.0000   1.0000   1.0000
     1.0000   1.0000   1.0000   1.0000   1.0000   1.0000   0.0000   0.0000
     0.0000   0.0000   0.0000   0.0000

          k = 0.3000 0.4000-0.5000 (  2662 PWs)   bands (ev):

   -67.7217 -67.7217 -33.9914 -33.9914 -33.8493 -33.8493 -33.7389 -33.7389
    15.1684  15.1684  15.8590  15.8590  16.3307  16.3307  19.3726  19.3726
    19.5565  19.5565  23.0353  23.0353

     occupation numbers 
     1.0000   1.0000   1.0000   1.0000   1.0000   1.0000   1.0000   1.0000
     1.0000   1.0000   1.0000   1.0000   1.0000   1.0000   0.0000   0.0000
     0.0000   0.0000   0.0000   0.0000

          k = 0.3000-0.5000-0.5000 (  2660 PWs)   bands (ev):

   -67.7212 -67.7212 -33.9903 -33.9903 -33.8458 -33.8458 -33.7485 -33.7485
    15.1645  15.1645  15.8075  15.8075  16.4742  16.4742  19.4181  19.4181
    19.5792  19.5792  23.4498  23.4498

     occupation numbers 
     1.0000   1.0000   1.0000   1.0000   1.0000   1.0000   1.0000   1.0000
     1.0000   1.0000   1.0000   1.0000   1.0000   1.0000   0.0000   0.0000
     0.0000   0.0000   0.0000   0.0000

          k = 0.4000 0.4000 0.4000 (  2650 PWs)   bands (ev):

   -67.7229 -67.7190 -33.9733 -33.9246 -33.9246 -33.8008 -33.8008 -33.7518
    15.4875  15.5755  15.8146  15.8146  16.0197  16.0197  19.4916  19.4916
    19.5202  19.5202  23.1139  25.5242

     occupation numbers 
     1.0000   1.0000   1.0000   1.0000   1.0000   1.0000   1.0000   1.0000
     1.0000   1.0000   1.0000   1.0000   1.0000   1.0000   0.0000   0.0000
     0.0000   0.0000   0.0000   0.0000

          k = 0.4000 0.4000-0.5000 (  2654 PWs)   bands (ev):

   -67.7205 -67.7205 -33.9510 -33.9510 -33.8623 -33.8623 -33.7798 -33.7798
    15.5508  15.5508  15.8505  15.8505  16.0274  16.0274  19.5056  19.5056
    19.5670  19.5670  24.2598  24.2598

     occupation numbers 
     1.0000   1.0000   1.0000   1.0000   1.0000   1.0000   1.0000   1.0000
     1.0000   1.0000   1.0000   1.0000   1.0000   1.0000   0.0000   0.0000
     0.0000   0.0000   0.0000   0.0000

          k = 0.4000-0.5000-0.5000 (  2668 PWs)   bands (ev):

   -67.7200 -67.7200 -33.9318 -33.9318 -33.8617 -33.8617 -33.8047 -33.8047
    15.6454  15.6454  15.7666  15.7666  16.0699  16.0699  19.5425  19.5425
    19.5907  19.5907  25.0860  25.0860

     occupation numbers 
     1.0000   1.0000   1.0000   1.0000   1.0000   1.0000   1.0000   1.0000
     1.0000   1.0000   1.0000   1.0000   1.0000   1.0000   0.0000   0.0000
     0.0000   0.0000   0.0000   0.0000

          k =-0.5000-0.5000-0.5000 (  2608 PWs)   bands (ev):

   -67.7195 -67.7195 -33.8678 -33.8678 -33.8678 -33.8678 -33.8678 -33.8678
    15.8406  15.8406  15.8406  15.8406  15.8406  15.8406  19.5952  19.5952
    19.5952  19.5952  26.8584  26.8584

     occupation numbers 
     1.0000   1.0000   1.0000   1.0000   1.0000   1.0000   1.0000   1.0000
     1.0000   1.0000   1.0000   1.0000   1.0000   1.0000   0.0000   0.0000
     0.0000   0.0000   0.0000   0.0000

     the Fermi energy is    17.5869 ev

!    total energy              =    -658.54072621 Ry
     total all-electron energy =     -5091.133792 Ry
     estimated scf accuracy    <          1.5E-11 Ry
     smearing contrib. (-TS)   =      -0.00132612 Ry
     internal energy E=F+TS    =    -658.53940009 Ry

     The total energy is F=E-TS. E is the sum of the following terms:
     one-electron contribution =    -225.21009838 Ry
     hartree contribution      =     132.13187202 Ry
     xc contribution           =     -55.48391589 Ry
     ewald contribution        =    -344.39296900 Ry
     one-center paw contrib.   =    -165.58428884 Ry
      -> PAW hartree energy AE =     182.95745559 Ry
      -> PAW hartree energy PS =    -181.65959204 Ry
      -> PAW xc energy AE      =    -110.15918411 Ry
      -> PAW xc energy PS      =      26.06917613 Ry
      -> total E_H with PAW    =     133.42973558 Ry
      -> total E_XC with PAW   =    -139.57392388 Ry

     total magnetization       =     4.43 Bohr mag/cell
     absolute magnetization    =     4.70 Bohr mag/cell

     convergence has been achieved in   8 iterations

     Writing all to output data dir ./out/Fe.save/ :
     XML data file, charge density, pseudopotentials, collected wavefunctions

     init_run     :      0.96s CPU      1.08s WALL (       1 calls)
     electrons    :     34.28s CPU     35.66s WALL (       1 calls)

     Called by init_run:
     wfcinit      :      0.36s CPU      0.39s WALL (       1 calls)
     potinit      :      0.31s CPU      0.36s WALL (       1 calls)
     hinit0       :      0.25s CPU      0.28s WALL (       1 calls)

     Called by electrons:
     c_bands      :     27.32s CPU     28.04s WALL (       9 calls)
     sum_band     :      4.39s CPU      4.54s WALL (       9 calls)
     v_of_rho     :      0.10s CPU      0.11s WALL (       9 calls)
     v_h          :      0.00s CPU      0.00s WALL (       9 calls)
     v_xc         :      0.09s CPU      0.11s WALL (       9 calls)
     newd         :      0.18s CPU      0.20s WALL (       9 calls)
     PAW_pot      :      2.58s CPU      3.09s WALL (       9 calls)
     mix_rho      :      0.02s CPU      0.02s WALL (       9 calls)

     Called by c_bands:
     init_us_2    :      0.41s CPU      0.42s WALL (    2016 calls)
     cegterg      :     26.27s CPU     26.96s WALL (    1008 calls)

     Called by sum_band:
     sum_band:wei :      0.02s CPU      0.02s WALL (       9 calls)
     sum_band:loo :      4.03s CPU      4.17s WALL (       9 calls)
     sum_band:buf :      0.05s CPU      0.05s WALL (    1008 calls)
     sum_band:ini :      0.19s CPU      0.19s WALL (    1008 calls)
     sum_band:cal :      0.76s CPU      0.79s WALL (    1008 calls)
     sum_band:bec :      0.03s CPU      0.04s WALL (    1008 calls)
     addusdens    :      0.30s CPU      0.31s WALL (       9 calls)
                                        0.00s GPU  (       9 calls)
     addusd:skk   :      0.00s CPU      0.00s WALL (       9 calls)
                                        0.00s GPU  (       9 calls)

     Called by *egterg:
     cdiaghg      :      1.95s CPU      1.98s WALL (    2505 calls)
     cegterg:over :      2.11s CPU      2.16s WALL (    1721 calls)
     cegterg:upda :      0.87s CPU      0.89s WALL (    1721 calls)
     cegterg:last :      2.01s CPU      2.03s WALL (    1641 calls)
     h_psi        :     16.06s CPU     16.50s WALL (    2729 calls)
     s_psi        :      1.50s CPU      1.54s WALL (    2729 calls)
     g_psi        :      0.14s CPU      0.14s WALL (    1721 calls)

     Called by h_psi:
     h_psi:calbec :      1.73s CPU      1.80s WALL (    2729 calls)
     vloc_psi     :     12.71s CPU     13.05s WALL (    2729 calls)
     add_vuspsi   :      1.51s CPU      1.55s WALL (    2729 calls)

     General routines
     calbec       :      2.48s CPU      2.58s WALL (    3737 calls)
     fft          :      0.22s CPU      0.24s WALL (     189 calls)
     ffts         :      0.00s CPU      0.00s WALL (      18 calls)
     fftw         :     13.46s CPU     13.85s WALL (  106794 calls)

     Parallel routines

     PAW routines
     PAW_pot      :      2.58s CPU      3.09s WALL (       9 calls)
     PAW_symme    :      0.02s CPU      0.02s WALL (      17 calls)

     PWSCF        :     35.69s CPU     37.48s WALL


   This run was terminated on:  18:31:33  15Apr2024            

=------------------------------------------------------------------------------=
   JOB DONE.
=------------------------------------------------------------------------------=
