### Running on host: unam-asus

     Program PWSCF v.7.2 starts on 16Feb2024 at 11:15:53 

     This program is part of the open-source Quantum ESPRESSO suite
     for quantum simulation of materials; please cite
         "P. Giannozzi et al., J. Phys.:Condens. Matter 21 395502 (2009);
         "P. Giannozzi et al., J. Phys.:Condens. Matter 29 465901 (2017);
         "P. Giannozzi et al., J. Chem. Phys. 152 154105 (2020);
          URL http://www.quantum-espresso.org", 
     in publications or presentations arising from this work. More details at
     http://www.quantum-espresso.org/quote

     Parallel version (MPI), running on    10 processors

     MPI processes distributed on     1 nodes
     2092 MiB available memory on the printing compute node when the environment starts

     Reading input from scf.13.in

     Current dimensions of program PWSCF are:
     Max number of different atomic species (ntypx) = 10
     Max number of k-points (npk) =  40000
     Max angular momentum in pseudopotentials (lmaxx) =  4
     file S.pbe-n-kjpaw_psl.1.0.0.UPF: wavefunction(s)  3S 3P renormalized

     R & G space division:  proc/nbgrp/npool/nimage =      10
     Subspace diagonalization in iterative solution of the eigenvalue problem:
     a serial algorithm will be used


     Parallelization info
     --------------------
     sticks:   dense  smooth     PW     G-vecs:    dense   smooth      PW
     Min        1054    1054    261                81638    81638   10173
     Max        1055    1055    262                81641    81641   10178
     Sum       10545   10545   2617               816403   816403  101769

     Using Slab Decomposition



     bravais-lattice index     =            1
     lattice parameter (alat)  =      24.5664  a.u.
     unit-cell volume          =   14826.0909 (a.u.)^3
     number of atoms/cell      =            2
     number of atomic types    =            1
     number of electrons       =        12.00
     number of Kohn-Sham states=            6
     kinetic-energy cutoff     =      55.0000  Ry
     charge density cutoff     =     220.0000  Ry
     scf convergence threshold =      4.0E-07
     mixing beta               =       0.7000
     number of iterations used =            8  plain     mixing
     Exchange-correlation= SLA  PW   PBX  PBC
                           (   1   4   3   4   0   0   0)

     celldm(1)=  24.566440  celldm(2)=   0.000000  celldm(3)=   0.000000
     celldm(4)=   0.000000  celldm(5)=   0.000000  celldm(6)=   0.000000

     crystal axes: (cart. coord. in units of alat)
               a(1) = (   1.000000   0.000000   0.000000 )  
               a(2) = (   0.000000   1.000000   0.000000 )  
               a(3) = (   0.000000   0.000000   1.000000 )  

     reciprocal axes: (cart. coord. in units 2 pi/alat)
               b(1) = (  1.000000  0.000000  0.000000 )  
               b(2) = (  0.000000  1.000000  0.000000 )  
               b(3) = (  0.000000  0.000000  1.000000 )  


     PseudoPot. # 1 for S  read from file:
     /home/abdul/git_repo/ZnS_Cu-Vacancy/pseudo/QE/S.pbe-n-kjpaw_psl.1.0.0.UPF
     MD5 check sum: fb45dfebcf3e72a4e1bd4a866ec2e262
     Pseudo is Projector augmented-wave + core cor, Zval =  6.0
     Generated using &quot;atomic&quot; code by A. Dal Corso  v.6.3
     Shape of augmentation charge: PSQ
     Using radial grid of 1151 points,  6 beta functions with: 
                l(1) =   0
                l(2) =   0
                l(3) =   1
                l(4) =   1
                l(5) =   2
                l(6) =   2
     Q(r) pseudized with 0 coefficients 


     atomic species   valence    mass     pseudopotential
        S              6.00    65.38000     S ( 1.00)

      8 Sym. Ops. (no inversion) found


                                    s                        frac. trans.

      isym =  1     identity                                     

 cryst.   s( 1) = (     1          0          0      )
                  (     0          1          0      )
                  (     0          0          1      )

 cart.    s( 1) = (  1.0000000  0.0000000  0.0000000 )
                  (  0.0000000  1.0000000  0.0000000 )
                  (  0.0000000  0.0000000  1.0000000 )


      isym =  2     180 deg rotation - cart. axis [1,0,0]        

 cryst.   s( 2) = (     1          0          0      )
                  (     0         -1          0      )
                  (     0          0         -1      )

 cart.    s( 2) = (  1.0000000  0.0000000  0.0000000 )
                  (  0.0000000 -1.0000000  0.0000000 )
                  (  0.0000000  0.0000000 -1.0000000 )


      isym =  3      90 deg rotation - cart. axis [-1,0,0]       

 cryst.   s( 3) = (     1          0          0      )
                  (     0          0         -1      )
                  (     0          1          0      )

 cart.    s( 3) = (  1.0000000  0.0000000  0.0000000 )
                  (  0.0000000  0.0000000  1.0000000 )
                  (  0.0000000 -1.0000000  0.0000000 )


      isym =  4      90 deg rotation - cart. axis [1,0,0]        

 cryst.   s( 4) = (     1          0          0      )
                  (     0          0          1      )
                  (     0         -1          0      )

 cart.    s( 4) = (  1.0000000  0.0000000  0.0000000 )
                  (  0.0000000  0.0000000 -1.0000000 )
                  (  0.0000000  1.0000000  0.0000000 )


      isym =  5     inv. 180 deg rotation - cart. axis [0,0,1]   

 cryst.   s( 5) = (     1          0          0      )
                  (     0          1          0      )
                  (     0          0         -1      )

 cart.    s( 5) = (  1.0000000  0.0000000  0.0000000 )
                  (  0.0000000  1.0000000  0.0000000 )
                  (  0.0000000  0.0000000 -1.0000000 )


      isym =  6     inv. 180 deg rotation - cart. axis [0,1,0]   

 cryst.   s( 6) = (     1          0          0      )
                  (     0         -1          0      )
                  (     0          0          1      )

 cart.    s( 6) = (  1.0000000  0.0000000  0.0000000 )
                  (  0.0000000 -1.0000000  0.0000000 )
                  (  0.0000000  0.0000000  1.0000000 )


      isym =  7     inv. 180 deg rotation - cart. axis [0,1,1]   

 cryst.   s( 7) = (     1          0          0      )
                  (     0          0         -1      )
                  (     0         -1          0      )

 cart.    s( 7) = (  1.0000000  0.0000000  0.0000000 )
                  (  0.0000000  0.0000000 -1.0000000 )
                  (  0.0000000 -1.0000000  0.0000000 )


      isym =  8     inv. 180 deg rotation - cart. axis [0,1,-1]  

 cryst.   s( 8) = (     1          0          0      )
                  (     0          0          1      )
                  (     0          1          0      )

 cart.    s( 8) = (  1.0000000  0.0000000  0.0000000 )
                  (  0.0000000  0.0000000  1.0000000 )
                  (  0.0000000  1.0000000  0.0000000 )


     point group C_4v (4mm) 
     there are  5 classes
     the character table:

       E     2C4   C2    2s_v  2s_d 
A_1    1.00  1.00  1.00  1.00  1.00
A_2    1.00  1.00  1.00 -1.00 -1.00
B_1    1.00 -1.00  1.00  1.00 -1.00
B_2    1.00 -1.00  1.00 -1.00  1.00
E      2.00  0.00 -2.00  0.00  0.00

     the symmetry operations in each class and the name of the first element:

     E        1
          identity                                               
     2C4      3    4
           90 deg rotation - cart. axis [-1,0,0]                 
     C2       2
          180 deg rotation - cart. axis [1,0,0]                  
     2s_v     5    6
          inv. 180 deg rotation - cart. axis [0,0,1]             
     2s_d     7    8
          inv. 180 deg rotation - cart. axis [0,1,1]             

   Cartesian axes

     site n.     atom                  positions (alat units)
         1           S   tau(   1) = (   0.0000000   0.0000000   0.0000000  )
         2           S   tau(   2) = (   0.1453846   0.0000000   0.0000000  )

   Crystallographic axes

     site n.     atom                  positions (cryst. coord.)
         1           S   tau(   1) = (  0.0000000  0.0000000  0.0000000  )
         2           S   tau(   2) = (  0.1453846  0.0000000  0.0000000  )

     number of k points=     1
                       cart. coord. in units 2pi/alat
        k(    1) = (   0.0000000   0.0000000   0.0000000), wk =   2.0000000

                       cryst. coord.
        k(    1) = (   0.0000000   0.0000000   0.0000000), wk =   2.0000000

     Dense  grid:   816403 G-vectors     FFT dimensions: ( 120, 120, 120)

     Dynamical RAM for                 wfc:       0.93 MB

     Dynamical RAM for     wfc (w. buffer):       0.93 MB

     Dynamical RAM for           str. fact:       1.25 MB

     Dynamical RAM for           local pot:       0.00 MB

     Dynamical RAM for          nlocal pot:       5.61 MB

     Dynamical RAM for                qrad:       1.19 MB

     Dynamical RAM for          rho,v,vnew:       7.69 MB

     Dynamical RAM for               rhoin:       2.56 MB

     Dynamical RAM for            rho*nmix:      19.93 MB

     Dynamical RAM for           G-vectors:       5.29 MB

     Dynamical RAM for          h,s,v(r/c):       0.01 MB

     Dynamical RAM for          <psi|beta>:       0.00 MB

     Dynamical RAM for                 psi:       1.87 MB

     Dynamical RAM for                hpsi:       1.87 MB

     Dynamical RAM for                spsi:       1.87 MB

     Dynamical RAM for      wfcinit/wfcrot:       1.87 MB

     Dynamical RAM for           addusdens:     234.20 MB

     Estimated static dynamical RAM per process >      33.62 MB

     Estimated max dynamical RAM per process >     287.74 MB

     Estimated total dynamical RAM >       2.81 GB

     The initial density is read from file :
     ./out/S.save/charge-density


     starting charge      19.8077, renormalised to      12.0000

     negative rho (up, down):  7.242E-04 0.000E+00
     Starting wfcs from file
     Checking if some PAW data can be deallocated... 

     total cpu time spent up to now is        5.6 secs

     Self-consistent Calculation

     iteration #  1     ecut=    55.00 Ry     beta= 0.70
     Davidson diagonalization with overlap

---- Real-time Memory Report at c_bands before calling an iterative solver
           296 MiB given to the printing process from OS
             0 MiB allocation reported by mallinfo(arena+hblkhd)
          2426 MiB available memory on the node where the printing process lives
------------------
     ethr =  1.00E-05,  avg # of iterations = 15.0

     negative rho (up, down):  8.754E-04 0.000E+00

     total cpu time spent up to now is       15.4 secs

     total energy              =    -130.49425276 Ry
     estimated scf accuracy    <       5.66510998 Ry

     iteration #  2     ecut=    55.00 Ry     beta= 0.70
     Davidson diagonalization with overlap

---- Real-time Memory Report at c_bands before calling an iterative solver
           315 MiB given to the printing process from OS
             0 MiB allocation reported by mallinfo(arena+hblkhd)
          2205 MiB available memory on the node where the printing process lives
------------------
     ethr =  1.00E-02,  avg # of iterations =  6.0

     negative rho (up, down):  9.257E-04 0.000E+00

     total cpu time spent up to now is       23.9 secs

     total energy              =    -131.60314842 Ry
     estimated scf accuracy    <       3.47652937 Ry

     iteration #  3     ecut=    55.00 Ry     beta= 0.70
     Davidson diagonalization with overlap

---- Real-time Memory Report at c_bands before calling an iterative solver
           318 MiB given to the printing process from OS
             0 MiB allocation reported by mallinfo(arena+hblkhd)
          2296 MiB available memory on the node where the printing process lives
------------------
     ethr =  1.00E-02,  avg # of iterations =  5.0

     negative rho (up, down):  9.944E-04 0.000E+00

     total cpu time spent up to now is       32.7 secs

     total energy              =    -132.35100678 Ry
     estimated scf accuracy    <       0.44793651 Ry

     iteration #  4     ecut=    55.00 Ry     beta= 0.70
     Davidson diagonalization with overlap

---- Real-time Memory Report at c_bands before calling an iterative solver
           320 MiB given to the printing process from OS
             0 MiB allocation reported by mallinfo(arena+hblkhd)
          2237 MiB available memory on the node where the printing process lives
------------------
     ethr =  3.73E-03,  avg # of iterations =  4.0

     negative rho (up, down):  1.084E-03 0.000E+00

     total cpu time spent up to now is       39.4 secs

     total energy              =    -132.44960909 Ry
     estimated scf accuracy    <       0.01723692 Ry

     iteration #  5     ecut=    55.00 Ry     beta= 0.70
     Davidson diagonalization with overlap

---- Real-time Memory Report at c_bands before calling an iterative solver
           323 MiB given to the printing process from OS
             0 MiB allocation reported by mallinfo(arena+hblkhd)
          2253 MiB available memory on the node where the printing process lives
------------------
     ethr =  1.44E-04,  avg # of iterations =  2.0

     negative rho (up, down):  1.139E-03 0.000E+00

     total cpu time spent up to now is       46.7 secs

     total energy              =    -132.45282823 Ry
     estimated scf accuracy    <       0.00278342 Ry

     iteration #  6     ecut=    55.00 Ry     beta= 0.70
     Davidson diagonalization with overlap

---- Real-time Memory Report at c_bands before calling an iterative solver
           325 MiB given to the printing process from OS
             0 MiB allocation reported by mallinfo(arena+hblkhd)
          2252 MiB available memory on the node where the printing process lives
------------------
     ethr =  2.32E-05,  avg # of iterations =  5.0

     negative rho (up, down):  1.154E-03 0.000E+00

     total cpu time spent up to now is       54.3 secs

     total energy              =    -132.45331615 Ry
     estimated scf accuracy    <       0.00173721 Ry

     iteration #  7     ecut=    55.00 Ry     beta= 0.70
     Davidson diagonalization with overlap

---- Real-time Memory Report at c_bands before calling an iterative solver
           328 MiB given to the printing process from OS
             0 MiB allocation reported by mallinfo(arena+hblkhd)
          2243 MiB available memory on the node where the printing process lives
------------------
     ethr =  1.45E-05,  avg # of iterations =  3.0

     negative rho (up, down):  1.154E-03 0.000E+00

     total cpu time spent up to now is       61.7 secs

     total energy              =    -132.45384798 Ry
     estimated scf accuracy    <       0.00013772 Ry

     iteration #  8     ecut=    55.00 Ry     beta= 0.70
     Davidson diagonalization with overlap

---- Real-time Memory Report at c_bands before calling an iterative solver
           330 MiB given to the printing process from OS
             0 MiB allocation reported by mallinfo(arena+hblkhd)
          2237 MiB available memory on the node where the printing process lives
------------------
     ethr =  1.15E-06,  avg # of iterations =  2.0

     negative rho (up, down):  1.153E-03 0.000E+00

     total cpu time spent up to now is       68.9 secs

     total energy              =    -132.45384757 Ry
     estimated scf accuracy    <       0.00004939 Ry

     iteration #  9     ecut=    55.00 Ry     beta= 0.70
     Davidson diagonalization with overlap

---- Real-time Memory Report at c_bands before calling an iterative solver
           333 MiB given to the printing process from OS
             0 MiB allocation reported by mallinfo(arena+hblkhd)
          2322 MiB available memory on the node where the printing process lives
------------------
     ethr =  4.12E-07,  avg # of iterations =  5.0

     negative rho (up, down):  1.153E-03 0.000E+00

     total cpu time spent up to now is       76.4 secs

     total energy              =    -132.45385558 Ry
     estimated scf accuracy    <       0.00000252 Ry

     iteration # 10     ecut=    55.00 Ry     beta= 0.70
     Davidson diagonalization with overlap

---- Real-time Memory Report at c_bands before calling an iterative solver
           335 MiB given to the printing process from OS
             0 MiB allocation reported by mallinfo(arena+hblkhd)
          2340 MiB available memory on the node where the printing process lives
------------------
     ethr =  2.10E-08,  avg # of iterations =  3.0

     negative rho (up, down):  1.153E-03 0.000E+00

     total cpu time spent up to now is       83.4 secs

     total energy              =    -132.45385387 Ry
     estimated scf accuracy    <       0.00000481 Ry

     iteration # 11     ecut=    55.00 Ry     beta= 0.70
     Davidson diagonalization with overlap

---- Real-time Memory Report at c_bands before calling an iterative solver
           335 MiB given to the printing process from OS
             0 MiB allocation reported by mallinfo(arena+hblkhd)
          2327 MiB available memory on the node where the printing process lives
------------------
     ethr =  2.10E-08,  avg # of iterations =  6.0

     negative rho (up, down):  1.153E-03 0.000E+00

     total cpu time spent up to now is       91.1 secs

     total energy              =    -132.45385496 Ry
     estimated scf accuracy    <       0.00000051 Ry

     iteration # 12     ecut=    55.00 Ry     beta= 0.70
     Davidson diagonalization with overlap

---- Real-time Memory Report at c_bands before calling an iterative solver
           335 MiB given to the printing process from OS
             0 MiB allocation reported by mallinfo(arena+hblkhd)
          2353 MiB available memory on the node where the printing process lives
------------------
     ethr =  4.24E-09,  avg # of iterations =  2.0

     negative rho (up, down):  1.153E-03 0.000E+00

     total cpu time spent up to now is       97.6 secs

     End of self-consistent calculation

          k = 0.0000 0.0000 0.0000 (101769 PWs)   bands (ev):

   -20.6544 -15.0250  -9.5468  -8.6571  -8.6571  -5.0524

     occupation numbers 
     1.0000   1.0000   1.0000   1.0000   1.0000   1.0000

     highest occupied level (ev):    -5.0524

!    total energy              =    -132.45385488 Ry
     total all-electron energy =     -1596.656096 Ry
     estimated scf accuracy    <       0.00000015 Ry

     The total energy is the sum of the following terms:
     one-electron contribution =     -71.05074638 Ry
     hartree contribution      =      37.12374471 Ry
     xc contribution           =      -9.93097142 Ry
     ewald contribution        =       3.66170328 Ry
     one-center paw contrib.   =     -92.25758507 Ry
      -> PAW hartree energy AE =      11.02925493 Ry
      -> PAW hartree energy PS =     -10.97454741 Ry
      -> PAW xc energy AE      =     -50.33176952 Ry
      -> PAW xc energy PS      =       4.14820178 Ry
      -> total E_H with PAW    =      37.17845223 Ry
      -> total E_XC with PAW   =     -56.11453916 Ry

     convergence has been achieved in  12 iterations

     Writing all to output data dir ./out/S.save/

     init_run     :      4.65s CPU      5.45s WALL (       1 calls)
     electrons    :     80.36s CPU     92.09s WALL (       1 calls)

     Called by init_run:
     wfcinit      :      0.02s CPU      0.02s WALL (       1 calls)
     potinit      :      0.68s CPU      0.79s WALL (       1 calls)
     hinit0       :      0.76s CPU      0.79s WALL (       1 calls)

     Called by electrons:
     c_bands      :     14.34s CPU     14.95s WALL (      12 calls)
     sum_band     :     35.46s CPU     41.57s WALL (      12 calls)
     v_of_rho     :      6.94s CPU      7.67s WALL (      13 calls)
     v_h          :      0.70s CPU      0.77s WALL (      13 calls)
     v_xc         :      6.24s CPU      6.90s WALL (      13 calls)
     newd         :     21.34s CPU     25.94s WALL (      13 calls)
     PAW_pot      :      1.54s CPU      1.62s WALL (      13 calls)
     mix_rho      :      2.92s CPU      3.07s WALL (      12 calls)

     Called by c_bands:
     init_us_2    :      0.20s CPU      0.21s WALL (      24 calls)
     init_us_2:cp :      0.20s CPU      0.21s WALL (      24 calls)
     cegterg      :     13.95s CPU     14.51s WALL (      12 calls)

     Called by sum_band:
     sum_band:wei :      0.00s CPU      0.00s WALL (      12 calls)
     sum_band:loo :      1.93s CPU      2.01s WALL (      12 calls)
     sum_band:buf :      0.00s CPU      0.00s WALL (      12 calls)
     sum_band:ini :      0.10s CPU      0.10s WALL (      12 calls)
     sum_band:cal :      0.30s CPU      0.31s WALL (      12 calls)
     sum_band:bec :      0.00s CPU      0.00s WALL (      12 calls)
     addusdens    :     29.12s CPU     34.85s WALL (      12 calls)
                                        0.00s GPU  (      12 calls)
     addusd:skk   :      0.04s CPU      0.04s WALL (      12 calls)
                                        0.00s GPU  (      12 calls)

     Called by *egterg:
     cdiaghg      :      0.01s CPU      0.03s WALL (      69 calls)
     cegterg:over :      0.37s CPU      0.37s WALL (      58 calls)
     cegterg:upda :      0.18s CPU      0.19s WALL (      58 calls)
     cegterg:last :      0.63s CPU      0.64s WALL (      39 calls)
     h_psi        :     11.51s CPU     12.01s WALL (      70 calls)
     s_psi        :      0.92s CPU      0.95s WALL (      70 calls)
     g_psi        :      0.03s CPU      0.03s WALL (      58 calls)

     Called by h_psi:
     h_psi:calbec :      1.08s CPU      1.12s WALL (      70 calls)
     vloc_psi     :      9.32s CPU      9.76s WALL (      70 calls)
     add_vuspsi   :      1.04s CPU      1.07s WALL (      70 calls)

     General routines
     calbec       :      1.39s CPU      1.42s WALL (      82 calls)
     fft          :      5.24s CPU      5.92s WALL (     143 calls)
     ffts         :      0.34s CPU      0.41s WALL (      12 calls)
     fftw         :      7.67s CPU      8.08s WALL (     610 calls)

     Parallel routines

     PAW routines
     PAW_pot      :      1.54s CPU      1.62s WALL (      13 calls)
     PAW_symme    :      0.04s CPU      0.05s WALL (      24 calls)

     PWSCF        :   1m25.18s CPU   1m37.79s WALL


   This run was terminated on:  11:17:31  16Feb2024            

=------------------------------------------------------------------------------=
   JOB DONE.
=------------------------------------------------------------------------------=
