### Running on host: unam-asus

     Program PWSCF v.7.2 starts on 16Feb2024 at  0:38:44 

     This program is part of the open-source Quantum ESPRESSO suite
     for quantum simulation of materials; please cite
         "P. Giannozzi et al., J. Phys.:Condens. Matter 21 395502 (2009);
         "P. Giannozzi et al., J. Phys.:Condens. Matter 29 465901 (2017);
         "P. Giannozzi et al., J. Chem. Phys. 152 154105 (2020);
          URL http://www.quantum-espresso.org", 
     in publications or presentations arising from this work. More details at
     http://www.quantum-espresso.org/quote

     Parallel version (MPI), running on    10 processors

     MPI processes distributed on     1 nodes
     899 MiB available memory on the printing compute node when the environment starts

     Reading input from scf.280.in

     Current dimensions of program PWSCF are:
     Max number of different atomic species (ntypx) = 10
     Max number of k-points (npk) =  40000
     Max angular momentum in pseudopotentials (lmaxx) =  4
     file Zn.pbe-dnl-kjpaw_psl.1.0.0.UPF: wavefunction(s)  4S 3D renormalized
     Message from routine setup:
     using ibrav=0 with symmetry is DISCOURAGED, use correct ibrav instead

     R & G space division:  proc/nbgrp/npool/nimage =      10
     Subspace diagonalization in iterative solution of the eigenvalue problem:
     a serial algorithm will be used


     Parallelization info
     --------------------
     sticks:   dense  smooth     PW     G-vecs:    dense   smooth      PW
     Min          47      47     15                 1539     1539     263
     Max          48      48     16                 1543     1543     266
     Sum         475     475    151                15415    15415    2637

     Using Slab Decomposition



     bravais-lattice index     =            0
     lattice parameter (alat)  =       4.9404  a.u.
     unit-cell volume          =     194.6564 (a.u.)^3
     number of atoms/cell      =            2
     number of atomic types    =            1
     number of electrons       =        24.00
     number of Kohn-Sham states=           16
     kinetic-energy cutoff     =      70.0000  Ry
     charge density cutoff     =     280.0000  Ry
     scf convergence threshold =      4.0E-06
     mixing beta               =       0.7000
     number of iterations used =            8  plain     mixing
     Exchange-correlation= SLA  PW   PBX  PBC
                           (   1   4   3   4   0   0   0)

     celldm(1)=   4.940424  celldm(2)=   0.000000  celldm(3)=   0.000000
     celldm(4)=   0.000000  celldm(5)=   0.000000  celldm(6)=   0.000000

     crystal axes: (cart. coord. in units of alat)
               a(1) = (   1.000000   0.000000   0.000000 )  
               a(2) = (  -0.500000   0.866025   0.000000 )  
               a(3) = (   0.000000   0.000000   1.863998 )  

     reciprocal axes: (cart. coord. in units 2 pi/alat)
               b(1) = (  1.000000  0.577350 -0.000000 )  
               b(2) = (  0.000000  1.154701  0.000000 )  
               b(3) = (  0.000000 -0.000000  0.536481 )  


     PseudoPot. # 1 for Zn read from file:
     /home/abdul/git_repo/ZnS_Cu-Vacancy/pseudo/QE/Zn.pbe-dnl-kjpaw_psl.1.0.0.UPF
     MD5 check sum: c608214d9520ac179f507641260889e3
     Pseudo is Projector augmented-wave + core cor, Zval = 12.0
     Generated using &quot;atomic&quot; code by A. Dal Corso  v.6.2.2
     Shape of augmentation charge: PSQ
     Using radial grid of 1201 points,  6 beta functions with: 
                l(1) =   0
                l(2) =   0
                l(3) =   1
                l(4) =   1
                l(5) =   2
                l(6) =   2
     Q(r) pseudized with 0 coefficients 


     atomic species   valence    mass     pseudopotential
        Zn            12.00    65.38000     Zn( 1.00)

     24 Sym. Ops., with inversion, found (12 have fractional translation)


                                    s                        frac. trans.

      isym =  1     identity                                     

 cryst.   s( 1) = (     1          0          0      )
                  (     0          1          0      )
                  (     0          0          1      )

 cart.    s( 1) = (  1.0000000  0.0000000  0.0000000 )
                  (  0.0000000  1.0000000  0.0000000 )
                  (  0.0000000  0.0000000  1.0000000 )


      isym =  2     180 deg rotation - cart. axis [0,0,1]        

 cryst.   s( 2) = (    -1          0          0      )    f =(  0.0000000 )
                  (     0         -1          0      )       (  0.0000000 )
                  (     0          0          1      )       ( -0.5000000 )

 cart.    s( 2) = ( -1.0000000  0.0000000  0.0000000 )    f =(  0.0000000 )
                  (  0.0000000 -1.0000000  0.0000000 )       (  0.0000000 )
                  (  0.0000000  0.0000000  1.0000000 )       ( -0.9319989 )


      isym =  3     180 deg rotation - cart. axis [0,1,0]        

 cryst.   s( 3) = (    -1          0          0      )    f =(  0.0000000 )
                  (     1          1          0      )       (  0.0000000 )
                  (     0          0         -1      )       (  0.5000000 )

 cart.    s( 3) = ( -1.0000000  0.0000000  0.0000000 )    f =(  0.0000000 )
                  (  0.0000000  1.0000000  0.0000000 )       (  0.0000000 )
                  (  0.0000000  0.0000000 -1.0000000 )       (  0.9319989 )


      isym =  4     180 deg rotation - cart. axis [1,0,0]        

 cryst.   s( 4) = (     1          0          0      )
                  (    -1         -1          0      )
                  (     0          0         -1      )

 cart.    s( 4) = (  1.0000000  0.0000000  0.0000000 )
                  (  0.0000000 -1.0000000  0.0000000 )
                  (  0.0000000  0.0000000 -1.0000000 )


      isym =  5      60 deg rotation - cryst. axis [0,0,1]       

 cryst.   s( 5) = (     1          1          0      )    f =(  0.0000000 )
                  (    -1          0          0      )       ( -0.0000000 )
                  (     0          0          1      )       ( -0.5000000 )

 cart.    s( 5) = (  0.5000000 -0.8660254  0.0000000 )    f =(  0.0000000 )
                  (  0.8660254  0.5000000  0.0000000 )       ( -0.0000000 )
                  (  0.0000000  0.0000000  1.0000000 )       ( -0.9319989 )


      isym =  6      60 deg rotation - cryst. axis [0,0,-1]      

 cryst.   s( 6) = (     0         -1          0      )    f =(  0.0000000 )
                  (     1          1          0      )       ( -0.0000000 )
                  (     0          0          1      )       ( -0.5000000 )

 cart.    s( 6) = (  0.5000000  0.8660254  0.0000000 )    f =(  0.0000000 )
                  ( -0.8660254  0.5000000  0.0000000 )       ( -0.0000000 )
                  (  0.0000000  0.0000000  1.0000000 )       ( -0.9319989 )


      isym =  7     120 deg rotation - cryst. axis [0,0,1]       

 cryst.   s( 7) = (     0          1          0      )
                  (    -1         -1          0      )
                  (     0          0          1      )

 cart.    s( 7) = ( -0.5000000 -0.8660254  0.0000000 )
                  (  0.8660254 -0.5000000  0.0000000 )
                  (  0.0000000  0.0000000  1.0000000 )


      isym =  8     120 deg rotation - cryst. axis [0,0,-1]      

 cryst.   s( 8) = (    -1         -1          0      )
                  (     1          0          0      )
                  (     0          0          1      )

 cart.    s( 8) = ( -0.5000000  0.8660254  0.0000000 )
                  ( -0.8660254 -0.5000000  0.0000000 )
                  (  0.0000000  0.0000000  1.0000000 )


      isym =  9     180 deg rotation - cryst. axis [1,-1,0]      

 cryst.   s( 9) = (     0         -1          0      )    f =(  0.0000000 )
                  (    -1          0          0      )       (  0.0000000 )
                  (     0          0         -1      )       (  0.5000000 )

 cart.    s( 9) = (  0.5000000 -0.8660254  0.0000000 )    f =(  0.0000000 )
                  ( -0.8660254 -0.5000000  0.0000000 )       (  0.0000000 )
                  (  0.0000000  0.0000000 -1.0000000 )       (  0.9319989 )


      isym = 10     180 deg rotation - cryst. axis [2,1,0]       

 cryst.   s(10) = (     1          1          0      )    f =(  0.0000000 )
                  (     0         -1          0      )       ( -0.0000000 )
                  (     0          0         -1      )       (  0.5000000 )

 cart.    s(10) = (  0.5000000  0.8660254  0.0000000 )    f =(  0.0000000 )
                  (  0.8660254 -0.5000000  0.0000000 )       ( -0.0000000 )
                  (  0.0000000  0.0000000 -1.0000000 )       (  0.9319989 )


      isym = 11     180 deg rotation - cryst. axis [0,1,0]       

 cryst.   s(11) = (    -1         -1          0      )
                  (     0          1          0      )
                  (     0          0         -1      )

 cart.    s(11) = ( -0.5000000 -0.8660254  0.0000000 )
                  ( -0.8660254  0.5000000  0.0000000 )
                  (  0.0000000  0.0000000 -1.0000000 )


      isym = 12     180 deg rotation - cryst. axis [1,1,0]       

 cryst.   s(12) = (     0          1          0      )
                  (     1          0          0      )
                  (     0          0         -1      )

 cart.    s(12) = ( -0.5000000  0.8660254  0.0000000 )
                  (  0.8660254  0.5000000  0.0000000 )
                  (  0.0000000  0.0000000 -1.0000000 )


      isym = 13     inversion                                    

 cryst.   s(13) = (    -1          0          0      )
                  (     0         -1          0      )
                  (     0          0         -1      )

 cart.    s(13) = ( -1.0000000  0.0000000  0.0000000 )
                  (  0.0000000 -1.0000000  0.0000000 )
                  (  0.0000000  0.0000000 -1.0000000 )


      isym = 14     inv. 180 deg rotation - cart. axis [0,0,1]   

 cryst.   s(14) = (     1          0          0      )    f =(  0.0000000 )
                  (     0          1          0      )       (  0.0000000 )
                  (     0          0         -1      )       (  0.5000000 )

 cart.    s(14) = (  1.0000000  0.0000000  0.0000000 )    f =(  0.0000000 )
                  (  0.0000000  1.0000000  0.0000000 )       (  0.0000000 )
                  (  0.0000000  0.0000000 -1.0000000 )       (  0.9319989 )


      isym = 15     inv. 180 deg rotation - cart. axis [0,1,0]   

 cryst.   s(15) = (     1          0          0      )    f =(  0.0000000 )
                  (    -1         -1          0      )       (  0.0000000 )
                  (     0          0          1      )       ( -0.5000000 )

 cart.    s(15) = (  1.0000000  0.0000000  0.0000000 )    f =(  0.0000000 )
                  (  0.0000000 -1.0000000  0.0000000 )       (  0.0000000 )
                  (  0.0000000  0.0000000  1.0000000 )       ( -0.9319989 )


      isym = 16     inv. 180 deg rotation - cart. axis [1,0,0]   

 cryst.   s(16) = (    -1          0          0      )
                  (     1          1          0      )
                  (     0          0          1      )

 cart.    s(16) = ( -1.0000000  0.0000000  0.0000000 )
                  (  0.0000000  1.0000000  0.0000000 )
                  (  0.0000000  0.0000000  1.0000000 )


      isym = 17     inv.  60 deg rotation - cryst. axis [0,0,1]  

 cryst.   s(17) = (    -1         -1          0      )    f =(  0.0000000 )
                  (     1          0          0      )       (  0.0000000 )
                  (     0          0         -1      )       (  0.5000000 )

 cart.    s(17) = ( -0.5000000  0.8660254  0.0000000 )    f =(  0.0000000 )
                  ( -0.8660254 -0.5000000  0.0000000 )       (  0.0000000 )
                  (  0.0000000  0.0000000 -1.0000000 )       (  0.9319989 )


      isym = 18     inv.  60 deg rotation - cryst. axis [0,0,-1] 

 cryst.   s(18) = (     0          1          0      )    f =(  0.0000000 )
                  (    -1         -1          0      )       ( -0.0000000 )
                  (     0          0         -1      )       (  0.5000000 )

 cart.    s(18) = ( -0.5000000 -0.8660254  0.0000000 )    f =(  0.0000000 )
                  (  0.8660254 -0.5000000  0.0000000 )       ( -0.0000000 )
                  (  0.0000000  0.0000000 -1.0000000 )       (  0.9319989 )


      isym = 19     inv. 120 deg rotation - cryst. axis [0,0,1]  

 cryst.   s(19) = (     0         -1          0      )
                  (     1          1          0      )
                  (     0          0         -1      )

 cart.    s(19) = (  0.5000000  0.8660254  0.0000000 )
                  ( -0.8660254  0.5000000  0.0000000 )
                  (  0.0000000  0.0000000 -1.0000000 )


      isym = 20     inv. 120 deg rotation - cryst. axis [0,0,-1] 

 cryst.   s(20) = (     1          1          0      )
                  (    -1          0          0      )
                  (     0          0         -1      )

 cart.    s(20) = (  0.5000000 -0.8660254  0.0000000 )
                  (  0.8660254  0.5000000  0.0000000 )
                  (  0.0000000  0.0000000 -1.0000000 )


      isym = 21     inv. 180 deg rotation - cryst. axis [1,-1,0] 

 cryst.   s(21) = (     0          1          0      )    f =(  0.0000000 )
                  (     1          0          0      )       ( -0.0000000 )
                  (     0          0          1      )       ( -0.5000000 )

 cart.    s(21) = ( -0.5000000  0.8660254  0.0000000 )    f =(  0.0000000 )
                  (  0.8660254  0.5000000  0.0000000 )       ( -0.0000000 )
                  (  0.0000000  0.0000000  1.0000000 )       ( -0.9319989 )


      isym = 22     inv. 180 deg rotation - cryst. axis [2,1,0]  

 cryst.   s(22) = (    -1         -1          0      )    f =(  0.0000000 )
                  (     0          1          0      )       ( -0.0000000 )
                  (     0          0          1      )       ( -0.5000000 )

 cart.    s(22) = ( -0.5000000 -0.8660254  0.0000000 )    f =(  0.0000000 )
                  ( -0.8660254  0.5000000  0.0000000 )       ( -0.0000000 )
                  (  0.0000000  0.0000000  1.0000000 )       ( -0.9319989 )


      isym = 23     inv. 180 deg rotation - cryst. axis [0,1,0]  

 cryst.   s(23) = (     1          1          0      )
                  (     0         -1          0      )
                  (     0          0          1      )

 cart.    s(23) = (  0.5000000  0.8660254  0.0000000 )
                  (  0.8660254 -0.5000000  0.0000000 )
                  (  0.0000000  0.0000000  1.0000000 )


      isym = 24     inv. 180 deg rotation - cryst. axis [1,1,0]  

 cryst.   s(24) = (     0         -1          0      )
                  (    -1          0          0      )
                  (     0          0          1      )

 cart.    s(24) = (  0.5000000 -0.8660254  0.0000000 )
                  ( -0.8660254 -0.5000000  0.0000000 )
                  (  0.0000000  0.0000000  1.0000000 )


   Cartesian axes

     site n.     atom                  positions (alat units)
         1           Zn  tau(   1) = (  -0.0000000   0.5773503   0.4659995  )
         2           Zn  tau(   2) = (   0.5000000   0.2886751   1.3979984  )

   Crystallographic axes

     site n.     atom                  positions (cryst. coord.)
         1           Zn  tau(   1) = (  0.3333333  0.6666667  0.2500000  )
         2           Zn  tau(   2) = (  0.6666667  0.3333333  0.7500000  )

     number of k points=    96  Gaussian smearing, width (Ry)=  0.0073
                       cart. coord. in units 2pi/alat
        k(    1) = (   0.0000000   0.0000000   0.0000000), wk =   0.0014577
        k(    2) = (   0.0000000   0.0000000   0.0766402), wk =   0.0029155
        k(    3) = (   0.0000000   0.0000000   0.1532804), wk =   0.0029155
        k(    4) = (   0.0000000   0.0000000   0.2299206), wk =   0.0029155
        k(    5) = (   0.0000000   0.0824786   0.0000000), wk =   0.0087464
        k(    6) = (   0.0000000   0.0824786   0.0766402), wk =   0.0174927
        k(    7) = (   0.0000000   0.0824786   0.1532804), wk =   0.0174927
        k(    8) = (   0.0000000   0.0824786   0.2299206), wk =   0.0174927
        k(    9) = (   0.0000000   0.1649572   0.0000000), wk =   0.0087464
        k(   10) = (   0.0000000   0.1649572   0.0766402), wk =   0.0174927
        k(   11) = (   0.0000000   0.1649572   0.1532804), wk =   0.0174927
        k(   12) = (   0.0000000   0.1649572   0.2299206), wk =   0.0174927
        k(   13) = (   0.0000000   0.2474358   0.0000000), wk =   0.0087464
        k(   14) = (   0.0000000   0.2474358   0.0766402), wk =   0.0174927
        k(   15) = (   0.0000000   0.2474358   0.1532804), wk =   0.0174927
        k(   16) = (   0.0000000   0.2474358   0.2299206), wk =   0.0174927
        k(   17) = (   0.0000000   0.3299144   0.0000000), wk =   0.0087464
        k(   18) = (   0.0000000   0.3299144   0.0766402), wk =   0.0174927
        k(   19) = (   0.0000000   0.3299144   0.1532804), wk =   0.0174927
        k(   20) = (   0.0000000   0.3299144   0.2299206), wk =   0.0174927
        k(   21) = (   0.0000000   0.4123930   0.0000000), wk =   0.0087464
        k(   22) = (   0.0000000   0.4123930   0.0766402), wk =   0.0174927
        k(   23) = (   0.0000000   0.4123930   0.1532804), wk =   0.0174927
        k(   24) = (   0.0000000   0.4123930   0.2299206), wk =   0.0174927
        k(   25) = (   0.0000000   0.4948717   0.0000000), wk =   0.0087464
        k(   26) = (   0.0000000   0.4948717   0.0766402), wk =   0.0174927
        k(   27) = (   0.0000000   0.4948717   0.1532804), wk =   0.0174927
        k(   28) = (   0.0000000   0.4948717   0.2299206), wk =   0.0174927
        k(   29) = (   0.0000000  -0.5773503   0.0000000), wk =   0.0043732
        k(   30) = (   0.0000000  -0.5773503   0.0766402), wk =   0.0087464
        k(   31) = (   0.0000000  -0.5773503   0.1532804), wk =   0.0087464
        k(   32) = (   0.0000000  -0.5773503   0.2299206), wk =   0.0087464
        k(   33) = (   0.0714286   0.1237179   0.0000000), wk =   0.0087464
        k(   34) = (   0.0714286   0.1237179   0.0766402), wk =   0.0174927
        k(   35) = (   0.0714286   0.1237179   0.1532804), wk =   0.0174927
        k(   36) = (   0.0714286   0.1237179   0.2299206), wk =   0.0174927
        k(   37) = (   0.0714286   0.2061965   0.0000000), wk =   0.0174927
        k(   38) = (   0.0714286   0.2061965   0.0766402), wk =   0.0349854
        k(   39) = (   0.0714286   0.2061965   0.1532804), wk =   0.0349854
        k(   40) = (   0.0714286   0.2061965   0.2299206), wk =   0.0349854
        k(   41) = (   0.0714286   0.2886751   0.0000000), wk =   0.0174927
        k(   42) = (   0.0714286   0.2886751   0.0766402), wk =   0.0349854
        k(   43) = (   0.0714286   0.2886751   0.1532804), wk =   0.0349854
        k(   44) = (   0.0714286   0.2886751   0.2299206), wk =   0.0349854
        k(   45) = (   0.0714286   0.3711537   0.0000000), wk =   0.0174927
        k(   46) = (   0.0714286   0.3711537   0.0766402), wk =   0.0349854
        k(   47) = (   0.0714286   0.3711537   0.1532804), wk =   0.0349854
        k(   48) = (   0.0714286   0.3711537   0.2299206), wk =   0.0349854
        k(   49) = (   0.0714286   0.4536324   0.0000000), wk =   0.0174927
        k(   50) = (   0.0714286   0.4536324   0.0766402), wk =   0.0349854
        k(   51) = (   0.0714286   0.4536324   0.1532804), wk =   0.0349854
        k(   52) = (   0.0714286   0.4536324   0.2299206), wk =   0.0349854
        k(   53) = (   0.0714286   0.5361110   0.0000000), wk =   0.0174927
        k(   54) = (   0.0714286   0.5361110   0.0766402), wk =   0.0349854
        k(   55) = (   0.0714286   0.5361110   0.1532804), wk =   0.0349854
        k(   56) = (   0.0714286   0.5361110   0.2299206), wk =   0.0349854
        k(   57) = (   0.1428571   0.2474358   0.0000000), wk =   0.0087464
        k(   58) = (   0.1428571   0.2474358   0.0766402), wk =   0.0174927
        k(   59) = (   0.1428571   0.2474358   0.1532804), wk =   0.0174927
        k(   60) = (   0.1428571   0.2474358   0.2299206), wk =   0.0174927
        k(   61) = (   0.1428571   0.3299144   0.0000000), wk =   0.0174927
        k(   62) = (   0.1428571   0.3299144   0.0766402), wk =   0.0349854
        k(   63) = (   0.1428571   0.3299144   0.1532804), wk =   0.0349854
        k(   64) = (   0.1428571   0.3299144   0.2299206), wk =   0.0349854
        k(   65) = (   0.1428571   0.4123930   0.0000000), wk =   0.0174927
        k(   66) = (   0.1428571   0.4123930   0.0766402), wk =   0.0349854
        k(   67) = (   0.1428571   0.4123930   0.1532804), wk =   0.0349854
        k(   68) = (   0.1428571   0.4123930   0.2299206), wk =   0.0349854
        k(   69) = (   0.1428571   0.4948717   0.0000000), wk =   0.0174927
        k(   70) = (   0.1428571   0.4948717   0.0766402), wk =   0.0349854
        k(   71) = (   0.1428571   0.4948717   0.1532804), wk =   0.0349854
        k(   72) = (   0.1428571   0.4948717   0.2299206), wk =   0.0349854
        k(   73) = (   0.1428571   0.5773503   0.0000000), wk =   0.0087464
        k(   74) = (   0.1428571   0.5773503   0.0766402), wk =   0.0174927
        k(   75) = (   0.1428571   0.5773503   0.1532804), wk =   0.0174927
        k(   76) = (   0.1428571   0.5773503   0.2299206), wk =   0.0174927
        k(   77) = (   0.2142857   0.3711537   0.0000000), wk =   0.0087464
        k(   78) = (   0.2142857   0.3711537   0.0766402), wk =   0.0174927
        k(   79) = (   0.2142857   0.3711537   0.1532804), wk =   0.0174927
        k(   80) = (   0.2142857   0.3711537   0.2299206), wk =   0.0174927
        k(   81) = (   0.2142857   0.4536324   0.0000000), wk =   0.0174927
        k(   82) = (   0.2142857   0.4536324   0.0766402), wk =   0.0349854
        k(   83) = (   0.2142857   0.4536324   0.1532804), wk =   0.0349854
        k(   84) = (   0.2142857   0.4536324   0.2299206), wk =   0.0349854
        k(   85) = (   0.2142857   0.5361110   0.0000000), wk =   0.0174927
        k(   86) = (   0.2142857   0.5361110   0.0766402), wk =   0.0349854
        k(   87) = (   0.2142857   0.5361110   0.1532804), wk =   0.0349854
        k(   88) = (   0.2142857   0.5361110   0.2299206), wk =   0.0349854
        k(   89) = (   0.2857143   0.4948717   0.0000000), wk =   0.0087464
        k(   90) = (   0.2857143   0.4948717   0.0766402), wk =   0.0174927
        k(   91) = (   0.2857143   0.4948717   0.1532804), wk =   0.0174927
        k(   92) = (   0.2857143   0.4948717   0.2299206), wk =   0.0174927
        k(   93) = (   0.2857143   0.5773503   0.0000000), wk =   0.0087464
        k(   94) = (   0.2857143   0.5773503   0.0766402), wk =   0.0174927
        k(   95) = (   0.2857143   0.5773503   0.1532804), wk =   0.0174927
        k(   96) = (   0.2857143   0.5773503   0.2299206), wk =   0.0174927

                       cryst. coord.
        k(    1) = (   0.0000000   0.0000000   0.0000000), wk =   0.0014577
        k(    2) = (   0.0000000   0.0000000   0.1428571), wk =   0.0029155
        k(    3) = (   0.0000000   0.0000000   0.2857143), wk =   0.0029155
        k(    4) = (   0.0000000   0.0000000   0.4285714), wk =   0.0029155
        k(    5) = (   0.0000000   0.0714286   0.0000000), wk =   0.0087464
        k(    6) = (   0.0000000   0.0714286   0.1428571), wk =   0.0174927
        k(    7) = (   0.0000000   0.0714286   0.2857143), wk =   0.0174927
        k(    8) = (   0.0000000   0.0714286   0.4285714), wk =   0.0174927
        k(    9) = (   0.0000000   0.1428571   0.0000000), wk =   0.0087464
        k(   10) = (   0.0000000   0.1428571   0.1428571), wk =   0.0174927
        k(   11) = (   0.0000000   0.1428571   0.2857143), wk =   0.0174927
        k(   12) = (   0.0000000   0.1428571   0.4285714), wk =   0.0174927
        k(   13) = (   0.0000000   0.2142857   0.0000000), wk =   0.0087464
        k(   14) = (   0.0000000   0.2142857   0.1428571), wk =   0.0174927
        k(   15) = (   0.0000000   0.2142857   0.2857143), wk =   0.0174927
        k(   16) = (   0.0000000   0.2142857   0.4285714), wk =   0.0174927
        k(   17) = (   0.0000000   0.2857143   0.0000000), wk =   0.0087464
        k(   18) = (   0.0000000   0.2857143   0.1428571), wk =   0.0174927
        k(   19) = (   0.0000000   0.2857143   0.2857143), wk =   0.0174927
        k(   20) = (   0.0000000   0.2857143   0.4285714), wk =   0.0174927
        k(   21) = (   0.0000000   0.3571429   0.0000000), wk =   0.0087464
        k(   22) = (   0.0000000   0.3571429   0.1428571), wk =   0.0174927
        k(   23) = (   0.0000000   0.3571429   0.2857143), wk =   0.0174927
        k(   24) = (   0.0000000   0.3571429   0.4285714), wk =   0.0174927
        k(   25) = (   0.0000000   0.4285714   0.0000000), wk =   0.0087464
        k(   26) = (   0.0000000   0.4285714   0.1428571), wk =   0.0174927
        k(   27) = (   0.0000000   0.4285714   0.2857143), wk =   0.0174927
        k(   28) = (   0.0000000   0.4285714   0.4285714), wk =   0.0174927
        k(   29) = (   0.0000000  -0.5000000   0.0000000), wk =   0.0043732
        k(   30) = (   0.0000000  -0.5000000   0.1428571), wk =   0.0087464
        k(   31) = (   0.0000000  -0.5000000   0.2857143), wk =   0.0087464
        k(   32) = (   0.0000000  -0.5000000   0.4285714), wk =   0.0087464
        k(   33) = (   0.0714286   0.0714286   0.0000000), wk =   0.0087464
        k(   34) = (   0.0714286   0.0714286   0.1428571), wk =   0.0174927
        k(   35) = (   0.0714286   0.0714286   0.2857143), wk =   0.0174927
        k(   36) = (   0.0714286   0.0714286   0.4285714), wk =   0.0174927
        k(   37) = (   0.0714286   0.1428571   0.0000000), wk =   0.0174927
        k(   38) = (   0.0714286   0.1428571   0.1428571), wk =   0.0349854
        k(   39) = (   0.0714286   0.1428571   0.2857143), wk =   0.0349854
        k(   40) = (   0.0714286   0.1428571   0.4285714), wk =   0.0349854
        k(   41) = (   0.0714286   0.2142857   0.0000000), wk =   0.0174927
        k(   42) = (   0.0714286   0.2142857   0.1428571), wk =   0.0349854
        k(   43) = (   0.0714286   0.2142857   0.2857143), wk =   0.0349854
        k(   44) = (   0.0714286   0.2142857   0.4285714), wk =   0.0349854
        k(   45) = (   0.0714286   0.2857143   0.0000000), wk =   0.0174927
        k(   46) = (   0.0714286   0.2857143   0.1428571), wk =   0.0349854
        k(   47) = (   0.0714286   0.2857143   0.2857143), wk =   0.0349854
        k(   48) = (   0.0714286   0.2857143   0.4285714), wk =   0.0349854
        k(   49) = (   0.0714286   0.3571429   0.0000000), wk =   0.0174927
        k(   50) = (   0.0714286   0.3571429   0.1428571), wk =   0.0349854
        k(   51) = (   0.0714286   0.3571429   0.2857143), wk =   0.0349854
        k(   52) = (   0.0714286   0.3571429   0.4285714), wk =   0.0349854
        k(   53) = (   0.0714286   0.4285714   0.0000000), wk =   0.0174927
        k(   54) = (   0.0714286   0.4285714   0.1428571), wk =   0.0349854
        k(   55) = (   0.0714286   0.4285714   0.2857143), wk =   0.0349854
        k(   56) = (   0.0714286   0.4285714   0.4285714), wk =   0.0349854
        k(   57) = (   0.1428571   0.1428571   0.0000000), wk =   0.0087464
        k(   58) = (   0.1428571   0.1428571   0.1428571), wk =   0.0174927
        k(   59) = (   0.1428571   0.1428571   0.2857143), wk =   0.0174927
        k(   60) = (   0.1428571   0.1428571   0.4285714), wk =   0.0174927
        k(   61) = (   0.1428571   0.2142857   0.0000000), wk =   0.0174927
        k(   62) = (   0.1428571   0.2142857   0.1428571), wk =   0.0349854
        k(   63) = (   0.1428571   0.2142857   0.2857143), wk =   0.0349854
        k(   64) = (   0.1428571   0.2142857   0.4285714), wk =   0.0349854
        k(   65) = (   0.1428571   0.2857143   0.0000000), wk =   0.0174927
        k(   66) = (   0.1428571   0.2857143   0.1428571), wk =   0.0349854
        k(   67) = (   0.1428571   0.2857143   0.2857143), wk =   0.0349854
        k(   68) = (   0.1428571   0.2857143   0.4285714), wk =   0.0349854
        k(   69) = (   0.1428571   0.3571429   0.0000000), wk =   0.0174927
        k(   70) = (   0.1428571   0.3571429   0.1428571), wk =   0.0349854
        k(   71) = (   0.1428571   0.3571429   0.2857143), wk =   0.0349854
        k(   72) = (   0.1428571   0.3571429   0.4285714), wk =   0.0349854
        k(   73) = (   0.1428571   0.4285714   0.0000000), wk =   0.0087464
        k(   74) = (   0.1428571   0.4285714   0.1428571), wk =   0.0174927
        k(   75) = (   0.1428571   0.4285714   0.2857143), wk =   0.0174927
        k(   76) = (   0.1428571   0.4285714   0.4285714), wk =   0.0174927
        k(   77) = (   0.2142857   0.2142857   0.0000000), wk =   0.0087464
        k(   78) = (   0.2142857   0.2142857   0.1428571), wk =   0.0174927
        k(   79) = (   0.2142857   0.2142857   0.2857143), wk =   0.0174927
        k(   80) = (   0.2142857   0.2142857   0.4285714), wk =   0.0174927
        k(   81) = (   0.2142857   0.2857143   0.0000000), wk =   0.0174927
        k(   82) = (   0.2142857   0.2857143   0.1428571), wk =   0.0349854
        k(   83) = (   0.2142857   0.2857143   0.2857143), wk =   0.0349854
        k(   84) = (   0.2142857   0.2857143   0.4285714), wk =   0.0349854
        k(   85) = (   0.2142857   0.3571429   0.0000000), wk =   0.0174927
        k(   86) = (   0.2142857   0.3571429   0.1428571), wk =   0.0349854
        k(   87) = (   0.2142857   0.3571429   0.2857143), wk =   0.0349854
        k(   88) = (   0.2142857   0.3571429   0.4285714), wk =   0.0349854
        k(   89) = (   0.2857143   0.2857143   0.0000000), wk =   0.0087464
        k(   90) = (   0.2857143   0.2857143   0.1428571), wk =   0.0174927
        k(   91) = (   0.2857143   0.2857143   0.2857143), wk =   0.0174927
        k(   92) = (   0.2857143   0.2857143   0.4285714), wk =   0.0174927
        k(   93) = (   0.2857143   0.3571429   0.0000000), wk =   0.0087464
        k(   94) = (   0.2857143   0.3571429   0.1428571), wk =   0.0174927
        k(   95) = (   0.2857143   0.3571429   0.2857143), wk =   0.0174927
        k(   96) = (   0.2857143   0.3571429   0.4285714), wk =   0.0174927

     Dense  grid:    15415 G-vectors     FFT dimensions: (  27,  27,  50)

     Dynamical RAM for                 wfc:       0.05 MB

     Dynamical RAM for     wfc (w. buffer):       4.55 MB

     Dynamical RAM for           str. fact:       0.02 MB

     Dynamical RAM for           local pot:       0.00 MB

     Dynamical RAM for          nlocal pot:       0.11 MB

     Dynamical RAM for                qrad:       1.34 MB

     Dynamical RAM for          rho,v,vnew:       0.15 MB

     Dynamical RAM for               rhoin:       0.05 MB

     Dynamical RAM for            rho*nmix:       0.38 MB

     Dynamical RAM for           G-vectors:       0.10 MB

     Dynamical RAM for          h,s,v(r/c):       0.05 MB

     Dynamical RAM for          <psi|beta>:       0.01 MB

     Dynamical RAM for                 psi:       0.09 MB

     Dynamical RAM for                hpsi:       0.09 MB

     Dynamical RAM for                spsi:       0.09 MB

     Dynamical RAM for      wfcinit/wfcrot:       0.10 MB

     Dynamical RAM for           addusdens:       4.43 MB

     Estimated static dynamical RAM per process >       6.51 MB

     Estimated max dynamical RAM per process >      11.31 MB

     Estimated total dynamical RAM >     113.14 MB

     Check: negative core charge=   -0.000003

     The initial density is read from file :
     ./out/Zn.save/charge-density

     Starting wfcs from file
     Checking if some PAW data can be deallocated... 

     total cpu time spent up to now is        0.6 secs

     Self-consistent Calculation

     iteration #  1     ecut=    70.00 Ry     beta= 0.70
     Davidson diagonalization with overlap

---- Real-time Memory Report at c_bands before calling an iterative solver
            46 MiB given to the printing process from OS
             0 MiB allocation reported by mallinfo(arena+hblkhd)
           677 MiB available memory on the node where the printing process lives
------------------
     ethr =  1.00E-05,  avg # of iterations =  1.0

     Threshold (ethr) on eigenvalues was too large:
     Diagonalizing with lowered threshold

     Davidson diagonalization with overlap

---- Real-time Memory Report at c_bands before calling an iterative solver
            48 MiB given to the printing process from OS
             0 MiB allocation reported by mallinfo(arena+hblkhd)
           675 MiB available memory on the node where the printing process lives
------------------
     ethr =  1.20E-09,  avg # of iterations =  1.0

     total cpu time spent up to now is        3.3 secs

     End of self-consistent calculation

          k = 0.0000 0.0000 0.0000 (  1933 PWs)   bands (ev):

     1.0672   3.0907   3.8954   4.1568   4.1568   4.2120   4.2120   4.5837
     4.5837   4.8104   4.8104   7.9811   8.8860  25.8235  29.4369  30.0635

     occupation numbers 
     1.0000   1.0000   1.0000   1.0000   1.0000   1.0000   1.0000   1.0000
     1.0000   1.0000   1.0000   1.0000   1.0000   0.0000   0.0000   0.0000

          k = 0.0000 0.0000 0.0766 (  1951 PWs)   bands (ev):

     1.1947   3.0705   3.8973   4.1553   4.1553   4.2060   4.2060   4.5993
     4.5993   4.8025   4.8025   6.6466  10.5050  23.8301  30.1924  30.1924

     occupation numbers 
     1.0000   1.0000   1.0000   1.0000   1.0000   1.0000   1.0000   1.0000
     1.0000   1.0000   1.0000   1.0000   1.0000   0.0000   0.0000   0.0000

          k = 0.0000 0.0000 0.1533 (  1962 PWs)   bands (ev):

     1.5644   2.9738   3.9174   4.1542   4.1542   4.1907   4.1907   4.6396
     4.6396   4.7788   4.7788   5.2856  12.7517  20.8660  30.5656  30.5656

     occupation numbers 
     1.0000   1.0000   1.0000   1.0000   1.0000   1.0000   1.0000   1.0000
     1.0000   1.0000   1.0000   1.0000   0.0000   0.0000   0.0000   0.0000

          k = 0.0000 0.0000 0.2299 (  1962 PWs)   bands (ev):

     2.1181   2.6722   4.0185   4.1595   4.1595   4.1729   4.1729   4.3895
     4.6909   4.6909   4.7402   4.7402  15.2508  17.9681  31.1221  31.1221

     occupation numbers 
     1.0000   1.0000   1.0000   1.0000   1.0000   1.0000   1.0000   1.0000
     1.0000   1.0000   1.0000   1.0000   0.0000   0.0000   0.0000   0.0000

          k = 0.0000 0.0825 0.0000 (  1947 PWs)   bands (ev):

     1.2246   3.1640   3.9128   4.1398   4.1936   4.1962   4.2495   4.5464
     4.5682   4.7086   4.8122   8.2467   8.9631  25.9986  27.3968  28.6878

     occupation numbers 
     1.0000   1.0000   1.0000   1.0000   1.0000   1.0000   1.0000   1.0000
     1.0000   1.0000   1.0000   1.0000   1.0000   0.0000   0.0000   0.0000

          k = 0.0000 0.0825 0.0766 (  1940 PWs)   bands (ev):

     1.3512   3.1484   3.9135   4.1359   4.1860   4.1941   4.2433   4.5660
     4.5851   4.6900   4.8036   6.8530  10.6489  23.9775  27.5511  28.8235

     occupation numbers 
     1.0000   1.0000   1.0000   1.0000   1.0000   1.0000   1.0000   1.0000
     1.0000   1.0000   1.0000   1.0000   1.0000   0.0000   0.0000   0.0000

          k = 0.0000 0.0825 0.1533 (  1956 PWs)   bands (ev):

     1.7178   3.0680   3.9272   4.1315   4.1666   4.1921   4.2278   4.5831
     4.6284   4.6416   4.7777   5.5352  12.8999  21.0106  27.9353  29.2267

     occupation numbers 
     1.0000   1.0000   1.0000   1.0000   1.0000   1.0000   1.0000   1.0000
     1.0000   1.0000   1.0000   1.0000   0.0000   0.0000   0.0000   0.0000

          k = 0.0000 0.0825 0.2299 (  1956 PWs)   bands (ev):

     2.2633   2.7958   4.0045   4.1366   4.1421   4.1968   4.2100   4.2990
     4.6832   4.7117   4.7360   4.8746  15.3983  18.1140  28.5616  29.4201

     occupation numbers 
     1.0000   1.0000   1.0000   1.0000   1.0000   1.0000   1.0000   1.0000
     1.0000   1.0000   1.0000   1.0000   0.0000   0.0000   0.0000   0.0000

          k = 0.0000 0.1650 0.0000 (  1943 PWs)   bands (ev):

     1.6864   3.3510   3.9437   4.1034   4.1759   4.3081   4.3557   4.3819
     4.5272   4.5471   4.8147   8.9563   9.2132  23.9051  26.4843  26.9425

     occupation numbers 
     1.0000   1.0000   1.0000   1.0000   1.0000   1.0000   1.0000   1.0000
     1.0000   1.0000   1.0000   1.0000   1.0000   0.0000   0.0000   0.0000

          k = 0.0000 0.1650 0.0766 (  1936 PWs)   bands (ev):

     1.8092   3.3471   3.9453   4.0916   4.1555   4.3038   4.3487   4.3877
     4.5487   4.5554   4.8042   7.3702  11.0888  23.9457  24.5197  27.0863

     occupation numbers 
     1.0000   1.0000   1.0000   1.0000   1.0000   1.0000   1.0000   1.0000
     1.0000   1.0000   1.0000   1.0000   1.0000   0.0000   0.0000   0.0000

          k = 0.0000 0.1650 0.1533 (  1939 PWs)   bands (ev):

     2.1616   3.3094   3.9483   4.0723   4.1142   4.2984   4.3322   4.3335
     4.6008   4.6220   4.7733   6.0194  13.3440  21.4251  24.4648  27.0986

     occupation numbers 
     1.0000   1.0000   1.0000   1.0000   1.0000   1.0000   1.0000   1.0000
     1.0000   1.0000   1.0000   1.0000   0.0000   0.0000   0.0000   0.0000

          k = 0.0000 0.1650 0.2299 (  1940 PWs)   bands (ev):

     2.6714   3.1239   3.9663   4.0342   4.1041   4.1907   4.3012   4.3140
     4.6641   4.7247   4.7845   5.1610  15.8368  18.5437  25.0986  25.9839

     occupation numbers 
     1.0000   1.0000   1.0000   1.0000   1.0000   1.0000   1.0000   1.0000
     1.0000   1.0000   1.0000   1.0000   0.0000   0.0000   0.0000   0.0000

          k = 0.0000 0.2474 0.0000 (  1937 PWs)   bands (ev):

     2.3990   3.5269   3.9813   4.0646   4.1230   4.2890   4.4318   4.4726
     4.4743   4.5128   4.8139   9.6887   9.9821  20.5581  25.4047  26.5378

     occupation numbers 
     1.0000   1.0000   1.0000   1.0000   1.0000   1.0000   1.0000   1.0000
     1.0000   1.0000   1.0000   1.0000   1.0000   0.0000   0.0000   0.0000

          k = 0.0000 0.2474 0.0766 (  1928 PWs)   bands (ev):

     2.5065   3.5341   3.9789   4.0383   4.1133   4.2793   4.4462   4.4830
     4.4969   4.5280   4.8016   8.1048  11.8366  20.6814  25.0335  25.1430

     occupation numbers 
     1.0000   1.0000   1.0000   1.0000   1.0000   1.0000   1.0000   1.0000
     1.0000   1.0000   1.0000   1.0000   0.5930   0.0000   0.0000   0.0000

          k = 0.0000 0.2474 0.1533 (  1930 PWs)   bands (ev):

     2.8027   3.5387   3.9534   3.9770   4.1129   4.2518   4.4368   4.4830
     4.5845   4.6379   4.7665   6.6855  14.0782  20.9827  22.2529  23.8104

     occupation numbers 
     1.0000   1.0000   1.0000   1.0000   1.0000   1.0000   1.0000   1.0000
     1.0000   1.0000   1.0000   1.0000   0.0000   0.0000   0.0000   0.0000

          k = 0.0000 0.2474 0.2299 (  1930 PWs)   bands (ev):

     3.1851   3.4607   3.9081   3.9209   4.1501   4.2051   4.4439   4.4619
     4.6500   4.7136   4.9654   5.6217  16.5495  19.2076  21.8187  22.6848

     occupation numbers 
     1.0000   1.0000   1.0000   1.0000   1.0000   1.0000   1.0000   1.0000
     1.0000   1.0000   1.0000   1.0000   0.0000   0.0000   0.0000   0.0000

          k = 0.0000 0.3299 0.0000 (  1929 PWs)   bands (ev):

     3.1136   3.5363   3.8942   4.0732   4.2016   4.3209   4.4160   4.6544
     4.6652   4.6928   4.8091  10.4528  11.2543  17.4475  23.2626  24.0542

     occupation numbers 
     1.0000   1.0000   1.0000   1.0000   1.0000   1.0000   1.0000   1.0000
     1.0000   1.0000   1.0000   1.0000   1.0000   0.0000   0.0000   0.0000

          k = 0.0000 0.3299 0.0766 (  1923 PWs)   bands (ev):

     3.1612   3.5445   3.8876   4.0247   4.1746   4.4303   4.4706   4.6636
     4.6673   4.6850   4.7990   9.0719  12.8829  17.5747  22.0831  24.2966

     occupation numbers 
     1.0000   1.0000   1.0000   1.0000   1.0000   1.0000   1.0000   1.0000
     1.0000   1.0000   1.0000   1.0000   0.0000   0.0000   0.0000   0.0000

          k = 0.0000 0.3299 0.1533 (  1925 PWs)   bands (ev):

     3.2784   3.5554   3.8612   3.9087   4.2629   4.4704   4.5405   4.6434
     4.6910   4.7736   4.9164   7.6167  15.0751  17.9479  20.7580  23.0186

     occupation numbers 
     1.0000   1.0000   1.0000   1.0000   1.0000   1.0000   1.0000   1.0000
     1.0000   1.0000   1.0000   1.0000   0.0000   0.0000   0.0000   0.0000

          k = 0.0000 0.3299 0.2299 (  1930 PWs)   bands (ev):

     3.4142   3.5209   3.8267   3.8423   4.3776   4.4764   4.5281   4.5908
     4.7139   4.7429   5.5207   6.4246  17.4317  18.4830  19.7096  20.4083

     occupation numbers 
     1.0000   1.0000   1.0000   1.0000   1.0000   1.0000   1.0000   1.0000
     1.0000   1.0000   1.0000   1.0000   0.0000   0.0000   0.0000   0.0000

          k = 0.0000 0.4124 0.0000 (  1920 PWs)   bands (ev):

     3.3596   3.4702   3.7277   4.1965   4.2239   4.3675   4.4562   4.8025
     4.8421   4.8618   5.6796  11.4901  12.7353  14.6757  20.4233  21.4347

     occupation numbers 
     1.0000   1.0000   1.0000   1.0000   1.0000   1.0000   1.0000   1.0000
     1.0000   1.0000   1.0000   1.0000   0.0000   0.0000   0.0000   0.0000

          k = 0.0000 0.4124 0.0766 (  1923 PWs)   bands (ev):

     3.3561   3.4658   3.7476   4.0482   4.2882   4.3866   4.5830   4.7724
     4.8445   4.8682   5.7636  10.2897  14.1083  14.8413  19.3111  22.6667

     occupation numbers 
     1.0000   1.0000   1.0000   1.0000   1.0000   1.0000   1.0000   1.0000
     1.0000   1.0000   1.0000   1.0000   0.0000   0.0000   0.0000   0.0000

          k = 0.0000 0.4124 0.1533 (  1918 PWs)   bands (ev):

     3.3614   3.4661   3.7611   3.8736   4.4206   4.4410   4.7023   4.7033
     4.8509   4.8718   6.0823   8.8582  15.1002  16.1618  18.1856  23.3988

     occupation numbers 
     1.0000   1.0000   1.0000   1.0000   1.0000   1.0000   1.0000   1.0000
     1.0000   1.0000   1.0000   1.0000   0.0000   0.0000   0.0000   0.0000

          k = 0.0000 0.4124 0.2299 (  1928 PWs)   bands (ev):

     3.3979   3.4474   3.7526   3.7727   4.5215   4.5761   4.6144   4.6892
     4.8596   4.8677   6.7155   7.6520  15.7278  16.4859  19.0948  21.4576

     occupation numbers 
     1.0000   1.0000   1.0000   1.0000   1.0000   1.0000   1.0000   1.0000
     1.0000   1.0000   1.0000   1.0000   0.0000   0.0000   0.0000   0.0000

          k = 0.0000 0.4949 0.0000 (  1894 PWs)   bands (ev):

     3.3466   3.4277   3.6289   4.1574   4.2890   4.3349   4.6087   4.7970
     4.9654   4.9850   7.2985  11.4718  13.5866  14.3585  17.8977  19.1148

     occupation numbers 
     1.0000   1.0000   1.0000   1.0000   1.0000   1.0000   1.0000   1.0000
     1.0000   1.0000   1.0000   1.0000   0.0000   0.0000   0.0000   0.0000

          k = 0.0000 0.4949 0.0766 (  1913 PWs)   bands (ev):

     3.3496   3.3957   3.6645   4.0327   4.3521   4.3561   4.6994   4.7715
     4.9669   4.9851   7.3995  11.1711  12.8501  15.3826  17.2289  20.3364

     occupation numbers 
     1.0000   1.0000   1.0000   1.0000   1.0000   1.0000   1.0000   1.0000
     1.0000   1.0000   1.0000   1.0000   0.0000   0.0000   0.0000   0.0000

          k = 0.0000 0.4949 0.1533 (  1913 PWs)   bands (ev):

     3.3381   3.3860   3.6952   3.8469   4.4164   4.5004   4.7026   4.8030
     4.9708   4.9840   7.7258  10.2118  12.8026  15.0294  18.3461  22.0404

     occupation numbers 
     1.0000   1.0000   1.0000   1.0000   1.0000   1.0000   1.0000   1.0000
     1.0000   1.0000   1.0000   1.0000   0.0000   0.0000   0.0000   0.0000

          k = 0.0000 0.4949 0.2299 (  1918 PWs)   bands (ev):

     3.3490   3.3796   3.6978   3.7282   4.5054   4.6073   4.6751   4.7954
     4.9758   4.9807   8.3139   9.1640  13.2889  14.0696  20.4680  22.3890

     occupation numbers 
     1.0000   1.0000   1.0000   1.0000   1.0000   1.0000   1.0000   1.0000
     1.0000   1.0000   1.0000   1.0000   0.0000   0.0000   0.0000   0.0000

          k = 0.0000-0.5774 0.0000 (  1902 PWs)   bands (ev):

     3.3272   3.4127   3.5964   4.1337   4.3219   4.3234   4.6575   4.7949
     5.0093   5.0306   8.9170   9.7457  14.6342  15.5055  16.2976  17.7346

     occupation numbers 
     1.0000   1.0000   1.0000   1.0000   1.0000   1.0000   1.0000   1.0000
     1.0000   1.0000   1.0000   1.0000   0.0000   0.0000   0.0000   0.0000

          k = 0.0000-0.5774 0.0766 (  1910 PWs)   bands (ev):

     3.3363   3.3692   3.6369   4.0215   4.3453   4.3762   4.7412   4.7697
     5.0108   5.0297   9.0193   9.7921  13.9825  14.2833  17.8017  18.6167

     occupation numbers 
     1.0000   1.0000   1.0000   1.0000   1.0000   1.0000   1.0000   1.0000
     1.0000   1.0000   1.0000   1.0000   0.0000   0.0000   0.0000   0.0000

          k = 0.0000-0.5774 0.1533 (  1904 PWs)   bands (ev):

     3.3255   3.3542   3.6723   3.8362   4.4073   4.5247   4.7005   4.8390
     5.0143   5.0271   9.3144   9.9078  12.9427  13.0780  19.8360  20.3462

     occupation numbers 
     1.0000   1.0000   1.0000   1.0000   1.0000   1.0000   1.0000   1.0000
     1.0000   1.0000   1.0000   1.0000   0.0000   0.0000   0.0000   0.0000

          k = 0.0000-0.5774 0.2299 (  1930 PWs)   bands (ev):

     3.3286   3.3539   3.6783   3.7127   4.4989   4.6034   4.7045   4.8289
     5.0187   5.0232   9.7169   9.9614  12.2502  12.3157  21.8018  22.0440

     occupation numbers 
     1.0000   1.0000   1.0000   1.0000   1.0000   1.0000   1.0000   1.0000
     1.0000   1.0000   1.0000   1.0000   0.0000   0.0000   0.0000   0.0000

          k = 0.0714 0.1237 0.0000 (  1935 PWs)   bands (ev):

     1.5348   3.2964   3.9368   4.1159   4.1570   4.2769   4.3293   4.4662
     4.4931   4.6104   4.8104   8.7310   9.1270  25.6628  25.7586  26.3337

     occupation numbers 
     1.0000   1.0000   1.0000   1.0000   1.0000   1.0000   1.0000   1.0000
     1.0000   1.0000   1.0000   1.0000   1.0000   0.0000   0.0000   0.0000

          k = 0.0714 0.1237 0.0766 (  1936 PWs)   bands (ev):

     1.6591   3.2890   3.9378   4.1042   4.1458   4.2732   4.3223   4.4615
     4.5251   4.6081   4.8009   7.2092  10.9412  24.2463  25.7955  25.9507

     occupation numbers 
     1.0000   1.0000   1.0000   1.0000   1.0000   1.0000   1.0000   1.0000
     1.0000   1.0000   1.0000   1.0000   1.0000   0.0000   0.0000   0.0000

          k = 0.0714 0.1237 0.1533 (  1948 PWs)   bands (ev):

     2.0174   3.2384   3.9435   4.0885   4.1157   4.2677   4.3061   4.3943
     4.6098   4.6260   4.7734   5.8750  13.1963  21.2925  26.1909  26.3229

     occupation numbers 
     1.0000   1.0000   1.0000   1.0000   1.0000   1.0000   1.0000   1.0000
     1.0000   1.0000   1.0000   1.0000   0.0000   0.0000   0.0000   0.0000

          k = 0.0714 0.1237 0.2299 (  1943 PWs)   bands (ev):

     2.5418   3.0244   3.9787   4.0659   4.1008   4.2017   4.2798   4.2886
     4.6732   4.7192   4.7639   5.0730  15.6915  18.4023  26.8383  26.9454

     occupation numbers 
     1.0000   1.0000   1.0000   1.0000   1.0000   1.0000   1.0000   1.0000
     1.0000   1.0000   1.0000   1.0000   0.0000   0.0000   0.0000   0.0000

          k = 0.0714 0.2062 0.0000 (  1936 PWs)   bands (ev):

     2.1293   3.4981   3.9417   4.0807   4.1649   4.2293   4.4129   4.4272
     4.4879   4.5458   4.8048   9.4924   9.5890  22.2958  24.2154  26.8495

     occupation numbers 
     1.0000   1.0000   1.0000   1.0000   1.0000   1.0000   1.0000   1.0000
     1.0000   1.0000   1.0000   1.0000   1.0000   0.0000   0.0000   0.0000

          k = 0.0714 0.2062 0.0766 (  1927 PWs)   bands (ev):

     2.2454   3.5032   3.9492   4.0569   4.1201   4.2395   4.4138   4.4603
     4.4834   4.5662   4.7951   7.8227  11.5376  22.4129  24.2894  24.9213

     occupation numbers 
     1.0000   1.0000   1.0000   1.0000   1.0000   1.0000   1.0000   1.0000
     1.0000   1.0000   1.0000   1.0000   1.0000   0.0000   0.0000   0.0000

          k = 0.0714 0.2062 0.1533 (  1935 PWs)   bands (ev):

     2.5737   3.4987   3.9617   4.0048   4.0532   4.2086   4.4019   4.4595
     4.5927   4.6206   4.7697   6.4284  13.7870  21.7714  22.9205  24.7779

     occupation numbers 
     1.0000   1.0000   1.0000   1.0000   1.0000   1.0000   1.0000   1.0000
     1.0000   1.0000   1.0000   1.0000   0.0000   0.0000   0.0000   0.0000

          k = 0.0714 0.2062 0.2299 (  1940 PWs)   bands (ev):

     3.0266   3.3863   3.9362   3.9491   4.0576   4.1290   4.4126   4.4351
     4.6600   4.7088   4.8903   5.4367  16.2698  18.9602  23.5110  24.3965

     occupation numbers 
     1.0000   1.0000   1.0000   1.0000   1.0000   1.0000   1.0000   1.0000
     1.0000   1.0000   1.0000   1.0000   0.0000   0.0000   0.0000   0.0000

          k = 0.0714 0.2887 0.0000 (  1933 PWs)   bands (ev):

     2.8919   3.6014   3.9919   4.0096   4.0544   4.3243   4.3264   4.4720
     4.6138   4.7371   4.7973  10.1220  10.7284  19.0672  22.9544  24.8699

     occupation numbers 
     1.0000   1.0000   1.0000   1.0000   1.0000   1.0000   1.0000   1.0000
     1.0000   1.0000   1.0000   1.0000   1.0000   0.0000   0.0000   0.0000

          k = 0.0714 0.2887 0.0766 (  1923 PWs)   bands (ev):

     2.9740   3.6130   3.9582   4.0122   4.0451   4.2946   4.4256   4.4692
     4.6306   4.7150   4.8080   8.6676  12.4411  19.1940  23.0801  23.6872

     occupation numbers 
     1.0000   1.0000   1.0000   1.0000   1.0000   1.0000   1.0000   1.0000
     1.0000   1.0000   1.0000   1.0000   0.0000   0.0000   0.0000   0.0000

          k = 0.0714 0.2887 0.1533 (  1927 PWs)   bands (ev):

     3.1847   3.6334   3.8938   3.9489   4.0987   4.2638   4.4725   4.6072
     4.6363   4.7105   4.8679   7.2246  14.6605  19.5576  22.3419  22.6507

     occupation numbers 
     1.0000   1.0000   1.0000   1.0000   1.0000   1.0000   1.0000   1.0000
     1.0000   1.0000   1.0000   1.0000   0.0000   0.0000   0.0000   0.0000

          k = 0.0714 0.2887 0.2299 (  1935 PWs)   bands (ev):

     3.4249   3.5924   3.8550   3.8918   4.1598   4.2175   4.5100   4.5701
     4.6997   4.7294   5.2714   6.0783  17.0996  19.5368  20.5567  21.2330

     occupation numbers 
     1.0000   1.0000   1.0000   1.0000   1.0000   1.0000   1.0000   1.0000
     1.0000   1.0000   1.0000   1.0000   0.0000   0.0000   0.0000   0.0000

          k = 0.0714 0.3712 0.0000 (  1923 PWs)   bands (ev):

     3.3788   3.5491   3.8046   4.1408   4.2440   4.2615   4.3981   4.6065
     4.7885   4.7920   5.3062  11.0606  12.1002  16.1033  21.8829  22.0000

     occupation numbers 
     1.0000   1.0000   1.0000   1.0000   1.0000   1.0000   1.0000   1.0000
     1.0000   1.0000   1.0000   1.0000   0.0002   0.0000   0.0000   0.0000

          k = 0.0714 0.3712 0.0766 (  1925 PWs)   bands (ev):

     3.3854   3.5552   3.8185   4.0279   4.2088   4.4055   4.4748   4.6005
     4.7589   4.8042   5.3641   9.7744  13.6210  16.2317  20.7553  22.1050

     occupation numbers 
     1.0000   1.0000   1.0000   1.0000   1.0000   1.0000   1.0000   1.0000
     1.0000   1.0000   1.0000   1.0000   0.0000   0.0000   0.0000   0.0000

          k = 0.0714 0.3712 0.1533 (  1924 PWs)   bands (ev):

     3.4152   3.5659   3.8196   3.8858   4.2908   4.4483   4.5561   4.6807
     4.7005   4.8245   5.6189   8.3277  15.7432  16.6162  19.4648  22.4830

     occupation numbers 
     1.0000   1.0000   1.0000   1.0000   1.0000   1.0000   1.0000   1.0000
     1.0000   1.0000   1.0000   1.0000   0.0000   0.0000   0.0000   0.0000

          k = 0.0714 0.3712 0.2299 (  1926 PWs)   bands (ev):

     3.4751   3.5425   3.7960   3.8167   4.4035   4.4866   4.5245   4.5945
     4.7967   4.8309   6.2074   7.1256  17.1904  17.6149  18.8963  20.9789

     occupation numbers 
     1.0000   1.0000   1.0000   1.0000   1.0000   1.0000   1.0000   1.0000
     1.0000   1.0000   1.0000   1.0000   0.0000   0.0000   0.0000   0.0000

          k = 0.0714 0.4536 0.0000 (  1925 PWs)   bands (ev):

     3.4164   3.4963   3.6799   4.1788   4.2534   4.3398   4.4905   4.7803
     4.8345   4.9218   6.6094  12.0423  13.6641  13.7250  19.2153  20.3253

     occupation numbers 
     1.0000   1.0000   1.0000   1.0000   1.0000   1.0000   1.0000   1.0000
     1.0000   1.0000   1.0000   0.0038   0.0000   0.0000   0.0000   0.0000

          k = 0.0714 0.4536 0.0766 (  1917 PWs)   bands (ev):

     3.4143   3.4722   3.7177   4.0376   4.2969   4.3772   4.6023   4.7529
     4.8318   4.9255   6.7076  11.0626  13.5976  15.0497  18.1944  21.4190

     occupation numbers 
     1.0000   1.0000   1.0000   1.0000   1.0000   1.0000   1.0000   1.0000
     1.0000   1.0000   1.0000   1.0000   0.0000   0.0000   0.0000   0.0000

          k = 0.0714 0.4536 0.1533 (  1915 PWs)   bands (ev):

     3.4026   3.4697   3.7478   3.8606   4.3644   4.4882   4.6805   4.7246
     4.8341   4.9310   7.0346   9.7078  13.9484  16.1130  17.8877  21.8356

     occupation numbers 
     1.0000   1.0000   1.0000   1.0000   1.0000   1.0000   1.0000   1.0000
     1.0000   1.0000   1.0000   1.0000   0.0000   0.0000   0.0000   0.0000

          k = 0.0714 0.4536 0.2299 (  1921 PWs)   bands (ev):

     3.4211   3.4599   3.7417   3.7583   4.4664   4.5772   4.6181   4.7109
     4.8817   4.9206   7.6428   8.5431  14.5497  15.3631  19.8342  22.0135

     occupation numbers 
     1.0000   1.0000   1.0000   1.0000   1.0000   1.0000   1.0000   1.0000
     1.0000   1.0000   1.0000   1.0000   0.0000   0.0000   0.0000   0.0000

          k = 0.0714 0.5361 0.0000 (  1910 PWs)   bands (ev):

     3.3781   3.4690   3.6185   4.1426   4.3079   4.3162   4.6042   4.7753
     4.9509   4.9808   8.3787  10.6171  14.3203  15.2484  16.9415  18.2735

     occupation numbers 
     1.0000   1.0000   1.0000   1.0000   1.0000   1.0000   1.0000   1.0000
     1.0000   1.0000   1.0000   1.0000   0.0000   0.0000   0.0000   0.0000

          k = 0.0714 0.5361 0.0766 (  1913 PWs)   bands (ev):

     3.3867   3.4220   3.6670   4.0281   4.2985   4.3975   4.6944   4.7485
     4.9475   4.9799   8.4812  10.6323  13.3762  15.1415  17.4185  19.3884

     occupation numbers 
     1.0000   1.0000   1.0000   1.0000   1.0000   1.0000   1.0000   1.0000
     1.0000   1.0000   1.0000   1.0000   0.0000   0.0000   0.0000   0.0000

          k = 0.0714 0.5361 0.1533 (  1914 PWs)   bands (ev):

     3.3742   3.4104   3.7060   3.8469   4.3531   4.5421   4.6742   4.8110
     4.9360   4.9748   8.7957  10.5246  12.5031  14.0785  19.2487  21.1885

     occupation numbers 
     1.0000   1.0000   1.0000   1.0000   1.0000   1.0000   1.0000   1.0000
     1.0000   1.0000   1.0000   1.0000   0.0000   0.0000   0.0000   0.0000

          k = 0.0714 0.5361 0.2299 (  1915 PWs)   bands (ev):

     3.3807   3.4098   3.7067   3.7311   4.4535   4.5688   4.7053   4.8196
     4.9380   4.9603   9.3229   9.9954  12.4866  13.1114  21.3108  22.1432

     occupation numbers 
     1.0000   1.0000   1.0000   1.0000   1.0000   1.0000   1.0000   1.0000
     1.0000   1.0000   1.0000   1.0000   0.0000   0.0000   0.0000   0.0000

          k = 0.1429 0.2474 0.0000 (  1933 PWs)   bands (ev):

     2.8051   3.6814   3.8827   4.0418   4.0654   4.1898   4.3053   4.5125
     4.6075   4.7569   4.7819  10.0188  10.5495  20.8384  21.0394  26.6179

     occupation numbers 
     1.0000   1.0000   1.0000   1.0000   1.0000   1.0000   1.0000   1.0000
     1.0000   1.0000   1.0000   1.0000   1.0000   0.0000   0.0000   0.0000

          k = 0.1429 0.2474 0.0766 (  1927 PWs)   bands (ev):

     2.8996   3.6969   3.8933   3.9840   4.0978   4.1189   4.4104   4.4877
     4.6374   4.7109   4.8158   8.5362  12.2948  20.9734  21.1564  25.3902

     occupation numbers 
     1.0000   1.0000   1.0000   1.0000   1.0000   1.0000   1.0000   1.0000
     1.0000   1.0000   1.0000   1.0000   0.0000   0.0000   0.0000   0.0000

          k = 0.1429 0.2474 0.1533 (  1929 PWs)   bands (ev):

     3.1515   3.7347   3.8950   3.9252   4.0230   4.0976   4.4705   4.5970
     4.6495   4.6832   4.8862   7.1022  14.5216  21.3759  21.3946  22.7515

     occupation numbers 
     1.0000   1.0000   1.0000   1.0000   1.0000   1.0000   1.0000   1.0000
     1.0000   1.0000   1.0000   1.0000   0.0000   0.0000   0.0000   0.0000

          k = 0.1429 0.2474 0.2299 (  1933 PWs)   bands (ev):

     3.4592   3.6915   3.8555   3.9279   3.9818   4.0480   4.5001   4.5631
     4.7174   4.7206   5.2260   5.9819  16.9770  19.6031  22.0371  22.3490

     occupation numbers 
     1.0000   1.0000   1.0000   1.0000   1.0000   1.0000   1.0000   1.0000
     1.0000   1.0000   1.0000   1.0000   0.0000   0.0000   0.0000   0.0000

          k = 0.1429 0.3299 0.0000 (  1929 PWs)   bands (ev):

     3.4681   3.7069   3.8727   3.9510   4.0936   4.2228   4.3228   4.4436
     4.7588   4.7821   5.2718  10.8522  11.7779  17.8417  19.8523  23.6755

     occupation numbers 
     1.0000   1.0000   1.0000   1.0000   1.0000   1.0000   1.0000   1.0000
     1.0000   1.0000   1.0000   1.0000   0.8567   0.0000   0.0000   0.0000

          k = 0.1429 0.3299 0.0766 (  1932 PWs)   bands (ev):

     3.4926   3.7227   3.8539   3.9581   4.0595   4.2381   4.4145   4.4388
     4.7293   4.7972   5.3196   9.5257  13.3505  17.9714  19.9828  22.4842

     occupation numbers 
     1.0000   1.0000   1.0000   1.0000   1.0000   1.0000   1.0000   1.0000
     1.0000   1.0000   1.0000   1.0000   0.0000   0.0000   0.0000   0.0000

          k = 0.1429 0.3299 0.1533 (  1924 PWs)   bands (ev):

     3.5526   3.7630   3.7988   3.9628   4.0529   4.2128   4.4394   4.6313
     4.6556   4.8246   5.5204   8.0832  15.5255  18.3529  20.3582  21.1539

     occupation numbers 
     1.0000   1.0000   1.0000   1.0000   1.0000   1.0000   1.0000   1.0000
     1.0000   1.0000   1.0000   1.0000   0.0000   0.0000   0.0000   0.0000

          k = 0.1429 0.3299 0.2299 (  1925 PWs)   bands (ev):

     3.6280   3.7083   3.8431   3.9140   4.1040   4.1633   4.4831   4.5636
     4.7857   4.8334   6.0314   6.9029  17.8703  18.9136  20.0766  20.5132

     occupation numbers 
     1.0000   1.0000   1.0000   1.0000   1.0000   1.0000   1.0000   1.0000
     1.0000   1.0000   1.0000   1.0000   0.0000   0.0000   0.0000   0.0000

          k = 0.1429 0.4124 0.0000 (  1935 PWs)   bands (ev):

     3.5950   3.6523   3.7485   4.1697   4.2014   4.2477   4.3593   4.5403
     4.7399   4.8976   6.3119  11.9824  13.2348  15.0588  19.0401  20.8465

     occupation numbers 
     1.0000   1.0000   1.0000   1.0000   1.0000   1.0000   1.0000   1.0000
     1.0000   1.0000   1.0000   0.0339   0.0000   0.0000   0.0000   0.0000

          k = 0.1429 0.4124 0.0766 (  1928 PWs)   bands (ev):

     3.5838   3.6316   3.8024   4.0075   4.2002   4.3735   4.4400   4.5364
     4.7109   4.9060   6.4035  10.7949  14.6046  15.2220  19.1703  19.7205

     occupation numbers 
     1.0000   1.0000   1.0000   1.0000   1.0000   1.0000   1.0000   1.0000
     1.0000   1.0000   1.0000   1.0000   0.0000   0.0000   0.0000   0.0000

          k = 0.1429 0.4124 0.1533 (  1920 PWs)   bands (ev):

     3.5591   3.6491   3.8215   3.8855   4.2326   4.4090   4.4973   4.6315
     4.6751   4.9182   6.7132   9.3815  15.5178  16.6382  18.5476  19.5772

     occupation numbers 
     1.0000   1.0000   1.0000   1.0000   1.0000   1.0000   1.0000   1.0000
     1.0000   1.0000   1.0000   1.0000   0.0000   0.0000   0.0000   0.0000

          k = 0.1429 0.4124 0.2299 (  1912 PWs)   bands (ev):

     3.5771   3.6301   3.7990   3.8411   4.3232   4.4129   4.4843   4.5428
     4.8277   4.9031   7.3053   8.2021  16.1509  16.9368  19.4150  20.1789

     occupation numbers 
     1.0000   1.0000   1.0000   1.0000   1.0000   1.0000   1.0000   1.0000
     1.0000   1.0000   1.0000   1.0000   0.0000   0.0000   0.0000   0.0000

          k = 0.1429 0.4949 0.0000 (  1918 PWs)   bands (ev):

     3.5249   3.6242   3.6752   4.1486   4.2846   4.2978   4.4318   4.7272
     4.7481   4.9308   7.8907  12.0327  13.9688  14.8564  18.2764  18.5747

     occupation numbers 
     1.0000   1.0000   1.0000   1.0000   1.0000   1.0000   1.0000   1.0000
     1.0000   1.0000   1.0000   0.0056   0.0000   0.0000   0.0000   0.0000

          k = 0.1429 0.4949 0.0766 (  1924 PWs)   bands (ev):

     3.5327   3.5590   3.7551   4.0288   4.2341   4.3916   4.5418   4.6967
     4.7414   4.9338   7.9987  11.7837  13.1927  15.9003  17.5812  18.6857

     occupation numbers 
     1.0000   1.0000   1.0000   1.0000   1.0000   1.0000   1.0000   1.0000
     1.0000   1.0000   1.0000   0.8374   0.0000   0.0000   0.0000   0.0000

          k = 0.1429 0.4949 0.1533 (  1924 PWs)   bands (ev):

     3.5077   3.5669   3.8053   3.8650   4.2503   4.5053   4.6071   4.6969
     4.7256   4.9329   8.3356  10.8262  13.1596  15.4908  18.7195  19.0911

     occupation numbers 
     1.0000   1.0000   1.0000   1.0000   1.0000   1.0000   1.0000   1.0000
     1.0000   1.0000   1.0000   1.0000   0.0000   0.0000   0.0000   0.0000

          k = 0.1429 0.4949 0.2299 (  1915 PWs)   bands (ev):

     3.5210   3.5645   3.7768   3.7921   4.3499   4.4804   4.6093   4.6754
     4.8273   4.9037   8.9254   9.7728  13.6810  14.4926  19.7365  20.3961

     occupation numbers 
     1.0000   1.0000   1.0000   1.0000   1.0000   1.0000   1.0000   1.0000
     1.0000   1.0000   1.0000   1.0000   0.0000   0.0000   0.0000   0.0000

          k = 0.1429 0.5774 0.0000 (  1918 PWs)   bands (ev):

     3.4980   3.6080   3.6511   4.1478   4.2511   4.3300   4.4943   4.7227
     4.8680   4.8911   9.5797  10.1771  15.1525  16.0435  16.6292  18.0748

     occupation numbers 
     1.0000   1.0000   1.0000   1.0000   1.0000   1.0000   1.0000   1.0000
     1.0000   1.0000   1.0000   1.0000   0.0000   0.0000   0.0000   0.0000

          k = 0.1429 0.5774 0.0766 (  1926 PWs)   bands (ev):

     3.5101   3.5331   3.7367   4.0375   4.2149   4.4183   4.5832   4.6921
     4.8649   4.8890   9.6935  10.2455  14.4637  14.7148  18.2149  18.5319

     occupation numbers 
     1.0000   1.0000   1.0000   1.0000   1.0000   1.0000   1.0000   1.0000
     1.0000   1.0000   1.0000   1.0000   0.0000   0.0000   0.0000   0.0000

          k = 0.1429 0.5774 0.1533 (  1917 PWs)   bands (ev):

     3.4880   3.5369   3.7889   3.8682   4.2360   4.5631   4.5991   4.7078
     4.8552   4.8756  10.0167  10.4346  13.3680  13.4556  18.9196  20.2870

     occupation numbers 
     1.0000   1.0000   1.0000   1.0000   1.0000   1.0000   1.0000   1.0000
     1.0000   1.0000   1.0000   1.0000   0.0000   0.0000   0.0000   0.0000

          k = 0.1429 0.5774 0.2299 (  1912 PWs)   bands (ev):

     3.5000   3.5396   3.7705   3.7751   4.3402   4.4752   4.7040   4.7692
     4.8382   4.8382  10.4431  10.6190  12.5887  12.6337  19.5804  20.4362

     occupation numbers 
     1.0000   1.0000   1.0000   1.0000   1.0000   1.0000   1.0000   1.0000
     1.0000   1.0000   1.0000   1.0000   0.0000   0.0000   0.0000   0.0000

          k = 0.2143 0.3712 0.0000 (  1921 PWs)   bands (ev):

     3.7576   3.7846   3.8306   3.9760   4.1515   4.1621   4.3784   4.3862
     4.7160   4.8930   6.2418  11.9155  13.0902  16.7974  17.0207  22.6557

     occupation numbers 
     1.0000   1.0000   1.0000   1.0000   1.0000   1.0000   1.0000   1.0000
     1.0000   1.0000   1.0000   0.1896   0.0000   0.0000   0.0000   0.0000

          k = 0.2143 0.3712 0.0766 (  1923 PWs)   bands (ev):

     3.7455   3.7721   3.8784   3.8875   4.1482   4.2215   4.3746   4.4603
     4.6869   4.9031   6.3303  10.6940  14.5417  16.9314  17.1499  21.4254

     occupation numbers 
     1.0000   1.0000   1.0000   1.0000   1.0000   1.0000   1.0000   1.0000
     1.0000   1.0000   1.0000   1.0000   0.0000   0.0000   0.0000   0.0000

          k = 0.2143 0.3712 0.1533 (  1928 PWs)   bands (ev):

     3.7102   3.7613   3.8309   3.9602   4.1153   4.2257   4.3826   4.6064
     4.6599   4.9176   6.6299   9.2744  16.6178  17.3344  17.5285  20.0506

     occupation numbers 
     1.0000   1.0000   1.0000   1.0000   1.0000   1.0000   1.0000   1.0000
     1.0000   1.0000   1.0000   1.0000   0.0000   0.0000   0.0000   0.0000

          k = 0.2143 0.3712 0.2299 (  1923 PWs)   bands (ev):

     3.6962   3.7104   3.8942   3.9607   4.1280   4.1841   4.4278   4.5112
     4.8230   4.9029   7.2094   8.0977  17.9786  18.1098  18.4105  18.8988

     occupation numbers 
     1.0000   1.0000   1.0000   1.0000   1.0000   1.0000   1.0000   1.0000
     1.0000   1.0000   1.0000   1.0000   0.0000   0.0000   0.0000   0.0000

          k = 0.2143 0.4536 0.0000 (  1925 PWs)   bands (ev):

     3.7242   3.7317   3.8153   4.1230   4.1903   4.2698   4.2913   4.5255
     4.6824   4.9137   7.6708  13.1283  14.4172  14.6268  16.2684  20.0572

     occupation numbers 
     1.0000   1.0000   1.0000   1.0000   1.0000   1.0000   1.0000   1.0000
     1.0000   1.0000   1.0000   0.0000   0.0000   0.0000   0.0000   0.0000

          k = 0.2143 0.4536 0.0766 (  1927 PWs)   bands (ev):

     3.6935   3.7400   3.8711   3.9894   4.1860   4.3188   4.3628   4.5521
     4.6517   4.9207   7.7806  12.1097  14.3903  15.9642  16.4049  18.9744

     occupation numbers 
     1.0000   1.0000   1.0000   1.0000   1.0000   1.0000   1.0000   1.0000
     1.0000   1.0000   1.0000   0.0001   0.0000   0.0000   0.0000   0.0000

          k = 0.2143 0.4536 0.1533 (  1926 PWs)   bands (ev):

     3.6636   3.7787   3.8366   3.9608   4.1457   4.3513   4.4139   4.5726
     4.6783   4.9270   8.1240  10.7570  14.7584  16.7765  17.0933  18.4383

     occupation numbers 
     1.0000   1.0000   1.0000   1.0000   1.0000   1.0000   1.0000   1.0000
     1.0000   1.0000   1.0000   1.0000   0.0000   0.0000   0.0000   0.0000

          k = 0.2143 0.4536 0.2299 (  1919 PWs)   bands (ev):

     3.6733   3.7269   3.8583   3.9308   4.2119   4.3134   4.4372   4.4900
     4.8183   4.9015   8.7288   9.6105  15.3846  16.2320  17.4456  18.2764

     occupation numbers 
     1.0000   1.0000   1.0000   1.0000   1.0000   1.0000   1.0000   1.0000
     1.0000   1.0000   1.0000   1.0000   0.0000   0.0000   0.0000   0.0000

          k = 0.2143 0.5361 0.0000 (  1920 PWs)   bands (ev):

     3.6837   3.7082   3.7975   4.1401   4.2076   4.2925   4.3309   4.6643
     4.6919   4.8514   9.4694  11.6098  15.2000  15.9303  16.2504  17.7511

     occupation numbers 
     1.0000   1.0000   1.0000   1.0000   1.0000   1.0000   1.0000   1.0000
     1.0000   1.0000   1.0000   0.9997   0.0000   0.0000   0.0000   0.0000

          k = 0.2143 0.5361 0.0766 (  1923 PWs)   bands (ev):

     3.6661   3.6984   3.8665   4.0346   4.1457   4.3700   4.4097   4.6322
     4.6978   4.8577   9.5842  11.6805  14.2014  15.9634  16.2108  18.1687

     occupation numbers 
     1.0000   1.0000   1.0000   1.0000   1.0000   1.0000   1.0000   1.0000
     1.0000   1.0000   1.0000   0.9927   0.0000   0.0000   0.0000   0.0000

          k = 0.2143 0.5361 0.1533 (  1922 PWs)   bands (ev):

     3.6386   3.7350   3.8876   3.9425   4.1084   4.4279   4.4982   4.5711
     4.7279   4.8651   9.9292  11.7407  13.1840  14.9432  16.4819  18.9819

     occupation numbers 
     1.0000   1.0000   1.0000   1.0000   1.0000   1.0000   1.0000   1.0000
     1.0000   1.0000   1.0000   0.9443   0.0000   0.0000   0.0000   0.0000

          k = 0.2143 0.5361 0.2299 (  1917 PWs)   bands (ev):

     3.6604   3.7257   3.8387   3.9010   4.2085   4.3479   4.5369   4.5608
     4.7935   4.8483  10.4987  11.2328  13.1857  13.9088  17.1287  18.0073

     occupation numbers 
     1.0000   1.0000   1.0000   1.0000   1.0000   1.0000   1.0000   1.0000
     1.0000   1.0000   1.0000   1.0000   0.0000   0.0000   0.0000   0.0000

          k = 0.2857 0.4949 0.0000 (  1935 PWs)   bands (ev):

     3.7412   3.8320   3.9005   4.1120   4.1502   4.2104   4.3163   4.5847
     4.6375   4.8428   9.3562  13.3948  13.7641  15.2514  16.2301  19.3729

     occupation numbers 
     1.0000   1.0000   1.0000   1.0000   1.0000   1.0000   1.0000   1.0000
     1.0000   1.0000   1.0000   0.0000   0.0000   0.0000   0.0000   0.0000

          k = 0.2857 0.4949 0.0766 (  1929 PWs)   bands (ev):

     3.7390   3.8423   3.9320   3.9971   4.1659   4.2457   4.3414   4.6052
     4.6150   4.8518   9.4742  13.2450  13.8983  14.4006  17.2161  18.2814

     occupation numbers 
     1.0000   1.0000   1.0000   1.0000   1.0000   1.0000   1.0000   1.0000
     1.0000   1.0000   1.0000   0.0000   0.0000   0.0000   0.0000   0.0000

          k = 0.2857 0.4949 0.1533 (  1921 PWs)   bands (ev):

     3.7407   3.8571   3.9035   4.0142   4.0863   4.2846   4.3755   4.5277
     4.6994   4.8645   9.8321  12.3433  14.2936  14.3294  16.8459  16.9036

     occupation numbers 
     1.0000   1.0000   1.0000   1.0000   1.0000   1.0000   1.0000   1.0000
     1.0000   1.0000   1.0000   0.0000   0.0000   0.0000   0.0000   0.0000

          k = 0.2857 0.4949 0.2299 (  1919 PWs)   bands (ev):

     3.7579   3.7995   3.9370   4.0043   4.1286   4.2360   4.4076   4.4523
     4.7936   4.8516  10.4376  11.2898  14.8550  14.9118  15.8069  15.8735

     occupation numbers 
     1.0000   1.0000   1.0000   1.0000   1.0000   1.0000   1.0000   1.0000
     1.0000   1.0000   1.0000   1.0000   0.0000   0.0000   0.0000   0.0000

          k = 0.2857 0.5774 0.0000 (  1922 PWs)   bands (ev):

     3.7500   3.8708   3.9335   4.1182   4.1369   4.1486   4.3457   4.6207
     4.6734   4.7484  11.2772  11.4092  13.4784  16.6142  17.5809  17.7868

     occupation numbers 
     1.0000   1.0000   1.0000   1.0000   1.0000   1.0000   1.0000   1.0000
     1.0000   1.0000   1.0000   1.0000   0.0000   0.0000   0.0000   0.0000

          k = 0.2857 0.5774 0.0766 (  1921 PWs)   bands (ev):

     3.7595   3.8777   3.9371   4.0398   4.1248   4.2057   4.3619   4.5880
     4.6922   4.7641  11.4065  11.5094  13.5890  15.8735  16.0805  17.9683

     occupation numbers 
     1.0000   1.0000   1.0000   1.0000   1.0000   1.0000   1.0000   1.0000
     1.0000   1.0000   1.0000   1.0000   0.0000   0.0000   0.0000   0.0000

          k = 0.2857 0.5774 0.1533 (  1915 PWs)   bands (ev):

     3.7786   3.8868   3.9581   3.9599   4.1104   4.2366   4.3872   4.5089
     4.7400   4.7950  11.7753  11.8059  13.8324  14.6962  14.8877  16.7555

     occupation numbers 
     1.0000   1.0000   1.0000   1.0000   1.0000   1.0000   1.0000   1.0000
     1.0000   1.0000   0.8648   0.7484   0.0000   0.0000   0.0000   0.0000

          k = 0.2857 0.5774 0.2299 (  1915 PWs)   bands (ev):

     3.8040   3.8477   3.9541   3.9720   4.1412   4.2103   4.4058   4.4368
     4.7889   4.8096  12.2343  12.2634  13.5550  13.7228  14.8717  15.6762

     occupation numbers 
     1.0000   1.0000   1.0000   1.0000   1.0000   1.0000   1.0000   1.0000
     1.0000   1.0000   0.0000   0.0000   0.0000   0.0000   0.0000   0.0000

     the Fermi energy is    11.8533 ev

!    total energy              =    -487.44558830 Ry
     total all-electron energy =     -7184.239634 Ry
     estimated scf accuracy    <       0.00000029 Ry
     smearing contrib. (-TS)   =      -0.00019530 Ry
     internal energy E=F+TS    =    -487.44539300 Ry

     The total energy is F=E-TS. E is the sum of the following terms:
     one-electron contribution =    -111.39519533 Ry
     hartree contribution      =      89.55816695 Ry
     xc contribution           =     -94.40560252 Ry
     ewald contribution        =    -180.32404734 Ry
     one-center paw contrib.   =    -190.87871476 Ry
      -> PAW hartree energy AE =     122.78159406 Ry
      -> PAW hartree energy PS =    -122.16078550 Ry
      -> PAW xc energy AE      =    -143.13034678 Ry
      -> PAW xc energy PS      =      47.07018083 Ry
      -> total E_H with PAW    =      90.17897551 Ry
      -> total E_XC with PAW   =    -190.46576846 Ry

     convergence has been achieved in   1 iterations

     Writing all to output data dir ./out/Zn.save/

     init_run     :      0.37s CPU      0.44s WALL (       1 calls)
     electrons    :      2.59s CPU      2.71s WALL (       1 calls)

     Called by init_run:
     wfcinit      :      0.12s CPU      0.14s WALL (       1 calls)
     potinit      :      0.10s CPU      0.13s WALL (       1 calls)
     hinit0       :      0.13s CPU      0.13s WALL (       1 calls)

     Called by electrons:
     c_bands      :      2.10s CPU      2.17s WALL (       2 calls)
     sum_band     :      0.39s CPU      0.40s WALL (       2 calls)
     v_of_rho     :      0.01s CPU      0.01s WALL (       2 calls)
     v_h          :      0.00s CPU      0.00s WALL (       2 calls)
     v_xc         :      0.01s CPU      0.01s WALL (       2 calls)
     newd         :      0.02s CPU      0.03s WALL (       2 calls)
     PAW_pot      :      0.18s CPU      0.24s WALL (       2 calls)
     mix_rho      :      0.00s CPU      0.00s WALL (       2 calls)

     Called by c_bands:
     init_us_2    :      0.04s CPU      0.04s WALL (     384 calls)
     init_us_2:cp :      0.04s CPU      0.04s WALL (     384 calls)
     cegterg      :      2.00s CPU      2.07s WALL (     192 calls)

     Called by sum_band:
     sum_band:wei :      0.00s CPU      0.00s WALL (       2 calls)
     sum_band:loo :      0.37s CPU      0.37s WALL (       2 calls)
     sum_band:buf :      0.01s CPU      0.01s WALL (     192 calls)
     sum_band:ini :      0.02s CPU      0.02s WALL (     192 calls)
     sum_band:cal :      0.06s CPU      0.07s WALL (     192 calls)
     sum_band:bec :      0.00s CPU      0.00s WALL (     192 calls)
     addusdens    :      0.02s CPU      0.03s WALL (       2 calls)
                                        0.00s GPU  (       2 calls)
     addusd:skk   :      0.00s CPU      0.00s WALL (       2 calls)
                                        0.00s GPU  (       2 calls)

     Called by *egterg:
     cdiaghg      :      0.10s CPU      0.10s WALL (     192 calls)
     cegterg:over :      0.20s CPU      0.21s WALL (     192 calls)
     cegterg:upda :      0.05s CPU      0.05s WALL (     192 calls)
     cegterg:last :      0.05s CPU      0.05s WALL (     192 calls)
     h_psi        :      1.36s CPU      1.41s WALL (     384 calls)
     s_psi        :      0.12s CPU      0.12s WALL (     384 calls)
     g_psi        :      0.01s CPU      0.01s WALL (     192 calls)

     Called by h_psi:
     h_psi:calbec :      0.15s CPU      0.15s WALL (     384 calls)
     vloc_psi     :      1.09s CPU      1.12s WALL (     384 calls)
     add_vuspsi   :      0.12s CPU      0.12s WALL (     384 calls)

     General routines
     calbec       :      0.21s CPU      0.22s WALL (     576 calls)
     fft          :      0.06s CPU      0.06s WALL (      23 calls)
     ffts         :      0.00s CPU      0.00s WALL (       2 calls)
     fftw         :      1.20s CPU      1.23s WALL (   15360 calls)

     Parallel routines

     PAW routines
     PAW_pot      :      0.18s CPU      0.24s WALL (       2 calls)
     PAW_symme    :      0.00s CPU      0.00s WALL (       3 calls)

     PWSCF        :      3.21s CPU      3.44s WALL


   This run was terminated on:   0:38:47  16Feb2024            

=------------------------------------------------------------------------------=
   JOB DONE.
=------------------------------------------------------------------------------=
