### Running on host: unam-asus

     Program PWSCF v.7.3.1 starts on 16Apr2024 at  7: 2:20 

     This program is part of the open-source Quantum ESPRESSO suite
     for quantum simulation of materials; please cite
         "P. Giannozzi et al., J. Phys.:Condens. Matter 21 395502 (2009);
         "P. Giannozzi et al., J. Phys.:Condens. Matter 29 465901 (2017);
         "P. Giannozzi et al., J. Chem. Phys. 152 154105 (2020);
          URL http://www.quantum-espresso.org", 
     in publications or presentations arising from this work. More details at
     http://www.quantum-espresso.org/quote

     Parallel version (MPI), running on    10 processors

     MPI processes distributed on     1 nodes
     967 MiB available memory on the printing compute node when the environment starts

     Reading input from scf.m-p.degauss-0.05.in

     Current dimensions of program PWSCF are:
     Max number of different atomic species (ntypx) = 10
     Max number of k-points (npk) =  40000
     Max angular momentum in pseudopotentials (lmaxx) =  4
     file Fe.pbe-spn-kjpaw_psl.1.0.0.UPF: wavefunction(s)  3P 3D renormalized
     Found identity + ( -0.5000 -0.5000 -0.5000) symmetry
     This is a supercell, fractional translations are disabled
     Message from routine setup:
     using ibrav=0 with symmetry is DISCOURAGED, use correct ibrav instead

     R & G space division:  proc/nbgrp/npool/nimage =      10
     Subspace diagonalization in iterative solution of the eigenvalue problem:
     a serial algorithm will be used


     Parallelization info
     --------------------
     sticks:   dense  smooth     PW     G-vecs:    dense   smooth      PW
     Min         161      94     28                 4947     2136     356
     Max         162      95     30                 4952     2138     358
     Sum        1617     941    285                49509    21367    3575

     Using Slab Decomposition



     bravais-lattice index     =            0
     lattice parameter (alat)  =       5.4104  a.u.
     unit-cell volume          =     158.3714 (a.u.)^3
     number of atoms/cell      =            2
     number of atomic types    =            1
     number of electrons       =        32.00
     number of Kohn-Sham states=           20
     kinetic-energy cutoff     =     100.0000  Ry
     charge density cutoff     =     700.0000  Ry
     scf convergence threshold =      4.0E-10
     mixing beta               =       0.4000
     number of iterations used =            8  plain     mixing
     Exchange-correlation= SLA  PW   PBX  PBC
                           (   1   4   3   4   0   0   0)

     celldm(1)=   5.410353  celldm(2)=   0.000000  celldm(3)=   0.000000
     celldm(4)=   0.000000  celldm(5)=   0.000000  celldm(6)=   0.000000

     crystal axes: (cart. coord. in units of alat)
               a(1) = (   1.000000   0.000000   0.000000 )  
               a(2) = (   0.000000   1.000000   0.000000 )  
               a(3) = (   0.000000   0.000000   1.000000 )  

     reciprocal axes: (cart. coord. in units 2 pi/alat)
               b(1) = (  1.000000  0.000000  0.000000 )  
               b(2) = (  0.000000  1.000000  0.000000 )  
               b(3) = (  0.000000  0.000000  1.000000 )  


     PseudoPot. # 1 for Fe read from file:
     /home/abdul/git_repo/ZnS/pseudo/QE/Fe.pbe-spn-kjpaw_psl.1.0.0.UPF
     MD5 check sum: fc81f059e5c5069939230b1155715ae8
     Pseudo is Projector augmented-wave + core cor, Zval = 16.0
     Generated using &quot;atomic&quot; code by A. Dal Corso  v.6.3
     Shape of augmentation charge: PSQ
     Using radial grid of 1191 points,  6 beta functions with: 
                l(1) =   0
                l(2) =   0
                l(3) =   1
                l(4) =   1
                l(5) =   2
                l(6) =   2
     Q(r) pseudized with 0 coefficients 


     atomic species   valence    mass     pseudopotential
     Fe               16.00    55.84500     Fe( 1.00)

     Starting magnetic structure 
     atomic species   magnetization
     Fe              0.312

     48 Sym. Ops., with inversion, found


                                    s                        frac. trans.

      isym =  1     identity                                     

 cryst.   s( 1) = (     1          0          0      )
                  (     0          1          0      )
                  (     0          0          1      )

 cart.    s( 1) = (  1.0000000  0.0000000  0.0000000 )
                  (  0.0000000  1.0000000  0.0000000 )
                  (  0.0000000  0.0000000  1.0000000 )


      isym =  2     180 deg rotation - cart. axis [0,0,1]        

 cryst.   s( 2) = (    -1          0          0      )
                  (     0         -1          0      )
                  (     0          0          1      )

 cart.    s( 2) = ( -1.0000000  0.0000000  0.0000000 )
                  (  0.0000000 -1.0000000  0.0000000 )
                  (  0.0000000  0.0000000  1.0000000 )


      isym =  3     180 deg rotation - cart. axis [0,1,0]        

 cryst.   s( 3) = (    -1          0          0      )
                  (     0          1          0      )
                  (     0          0         -1      )

 cart.    s( 3) = ( -1.0000000  0.0000000  0.0000000 )
                  (  0.0000000  1.0000000  0.0000000 )
                  (  0.0000000  0.0000000 -1.0000000 )


      isym =  4     180 deg rotation - cart. axis [1,0,0]        

 cryst.   s( 4) = (     1          0          0      )
                  (     0         -1          0      )
                  (     0          0         -1      )

 cart.    s( 4) = (  1.0000000  0.0000000  0.0000000 )
                  (  0.0000000 -1.0000000  0.0000000 )
                  (  0.0000000  0.0000000 -1.0000000 )


      isym =  5     180 deg rotation - cart. axis [1,1,0]        

 cryst.   s( 5) = (     0          1          0      )
                  (     1          0          0      )
                  (     0          0         -1      )

 cart.    s( 5) = (  0.0000000  1.0000000  0.0000000 )
                  (  1.0000000  0.0000000  0.0000000 )
                  (  0.0000000  0.0000000 -1.0000000 )


      isym =  6     180 deg rotation - cart. axis [1,-1,0]       

 cryst.   s( 6) = (     0         -1          0      )
                  (    -1          0          0      )
                  (     0          0         -1      )

 cart.    s( 6) = (  0.0000000 -1.0000000  0.0000000 )
                  ( -1.0000000  0.0000000  0.0000000 )
                  (  0.0000000  0.0000000 -1.0000000 )


      isym =  7      90 deg rotation - cart. axis [0,0,-1]       

 cryst.   s( 7) = (     0         -1          0      )
                  (     1          0          0      )
                  (     0          0          1      )

 cart.    s( 7) = (  0.0000000  1.0000000  0.0000000 )
                  ( -1.0000000  0.0000000  0.0000000 )
                  (  0.0000000  0.0000000  1.0000000 )


      isym =  8      90 deg rotation - cart. axis [0,0,1]        

 cryst.   s( 8) = (     0          1          0      )
                  (    -1          0          0      )
                  (     0          0          1      )

 cart.    s( 8) = (  0.0000000 -1.0000000  0.0000000 )
                  (  1.0000000  0.0000000  0.0000000 )
                  (  0.0000000  0.0000000  1.0000000 )


      isym =  9     180 deg rotation - cart. axis [1,0,1]        

 cryst.   s( 9) = (     0          0          1      )
                  (     0         -1          0      )
                  (     1          0          0      )

 cart.    s( 9) = (  0.0000000  0.0000000  1.0000000 )
                  (  0.0000000 -1.0000000  0.0000000 )
                  (  1.0000000  0.0000000  0.0000000 )


      isym = 10     180 deg rotation - cart. axis [-1,0,1]       

 cryst.   s(10) = (     0          0         -1      )
                  (     0         -1          0      )
                  (    -1          0          0      )

 cart.    s(10) = (  0.0000000  0.0000000 -1.0000000 )
                  (  0.0000000 -1.0000000  0.0000000 )
                  ( -1.0000000  0.0000000  0.0000000 )


      isym = 11      90 deg rotation - cart. axis [0,1,0]        

 cryst.   s(11) = (     0          0         -1      )
                  (     0          1          0      )
                  (     1          0          0      )

 cart.    s(11) = (  0.0000000  0.0000000  1.0000000 )
                  (  0.0000000  1.0000000  0.0000000 )
                  ( -1.0000000  0.0000000  0.0000000 )


      isym = 12      90 deg rotation - cart. axis [0,-1,0]       

 cryst.   s(12) = (     0          0          1      )
                  (     0          1          0      )
                  (    -1          0          0      )

 cart.    s(12) = (  0.0000000  0.0000000 -1.0000000 )
                  (  0.0000000  1.0000000  0.0000000 )
                  (  1.0000000  0.0000000  0.0000000 )


      isym = 13     180 deg rotation - cart. axis [0,1,1]        

 cryst.   s(13) = (    -1          0          0      )
                  (     0          0          1      )
                  (     0          1          0      )

 cart.    s(13) = ( -1.0000000  0.0000000  0.0000000 )
                  (  0.0000000  0.0000000  1.0000000 )
                  (  0.0000000  1.0000000  0.0000000 )


      isym = 14     180 deg rotation - cart. axis [0,1,-1]       

 cryst.   s(14) = (    -1          0          0      )
                  (     0          0         -1      )
                  (     0         -1          0      )

 cart.    s(14) = ( -1.0000000  0.0000000  0.0000000 )
                  (  0.0000000  0.0000000 -1.0000000 )
                  (  0.0000000 -1.0000000  0.0000000 )


      isym = 15      90 deg rotation - cart. axis [-1,0,0]       

 cryst.   s(15) = (     1          0          0      )
                  (     0          0         -1      )
                  (     0          1          0      )

 cart.    s(15) = (  1.0000000  0.0000000  0.0000000 )
                  (  0.0000000  0.0000000  1.0000000 )
                  (  0.0000000 -1.0000000  0.0000000 )


      isym = 16      90 deg rotation - cart. axis [1,0,0]        

 cryst.   s(16) = (     1          0          0      )
                  (     0          0          1      )
                  (     0         -1          0      )

 cart.    s(16) = (  1.0000000  0.0000000  0.0000000 )
                  (  0.0000000  0.0000000 -1.0000000 )
                  (  0.0000000  1.0000000  0.0000000 )


      isym = 17     120 deg rotation - cart. axis [-1,-1,-1]     

 cryst.   s(17) = (     0          0          1      )
                  (     1          0          0      )
                  (     0          1          0      )

 cart.    s(17) = (  0.0000000  1.0000000  0.0000000 )
                  (  0.0000000  0.0000000  1.0000000 )
                  (  1.0000000  0.0000000  0.0000000 )


      isym = 18     120 deg rotation - cart. axis [-1,1,1]       

 cryst.   s(18) = (     0          0         -1      )
                  (    -1          0          0      )
                  (     0          1          0      )

 cart.    s(18) = (  0.0000000 -1.0000000  0.0000000 )
                  (  0.0000000  0.0000000  1.0000000 )
                  ( -1.0000000  0.0000000  0.0000000 )


      isym = 19     120 deg rotation - cart. axis [1,1,-1]       

 cryst.   s(19) = (     0          0         -1      )
                  (     1          0          0      )
                  (     0         -1          0      )

 cart.    s(19) = (  0.0000000  1.0000000  0.0000000 )
                  (  0.0000000  0.0000000 -1.0000000 )
                  ( -1.0000000  0.0000000  0.0000000 )


      isym = 20     120 deg rotation - cart. axis [1,-1,1]       

 cryst.   s(20) = (     0          0          1      )
                  (    -1          0          0      )
                  (     0         -1          0      )

 cart.    s(20) = (  0.0000000 -1.0000000  0.0000000 )
                  (  0.0000000  0.0000000 -1.0000000 )
                  (  1.0000000  0.0000000  0.0000000 )


      isym = 21     120 deg rotation - cart. axis [1,1,1]        

 cryst.   s(21) = (     0          1          0      )
                  (     0          0          1      )
                  (     1          0          0      )

 cart.    s(21) = (  0.0000000  0.0000000  1.0000000 )
                  (  1.0000000  0.0000000  0.0000000 )
                  (  0.0000000  1.0000000  0.0000000 )


      isym = 22     120 deg rotation - cart. axis [-1,1,-1]      

 cryst.   s(22) = (     0         -1          0      )
                  (     0          0         -1      )
                  (     1          0          0      )

 cart.    s(22) = (  0.0000000  0.0000000  1.0000000 )
                  ( -1.0000000  0.0000000  0.0000000 )
                  (  0.0000000 -1.0000000  0.0000000 )


      isym = 23     120 deg rotation - cart. axis [1,-1,-1]      

 cryst.   s(23) = (     0         -1          0      )
                  (     0          0          1      )
                  (    -1          0          0      )

 cart.    s(23) = (  0.0000000  0.0000000 -1.0000000 )
                  ( -1.0000000  0.0000000  0.0000000 )
                  (  0.0000000  1.0000000  0.0000000 )


      isym = 24     120 deg rotation - cart. axis [-1,-1,1]      

 cryst.   s(24) = (     0          1          0      )
                  (     0          0         -1      )
                  (    -1          0          0      )

 cart.    s(24) = (  0.0000000  0.0000000 -1.0000000 )
                  (  1.0000000  0.0000000  0.0000000 )
                  (  0.0000000 -1.0000000  0.0000000 )


      isym = 25     inversion                                    

 cryst.   s(25) = (    -1          0          0      )
                  (     0         -1          0      )
                  (     0          0         -1      )

 cart.    s(25) = ( -1.0000000  0.0000000  0.0000000 )
                  (  0.0000000 -1.0000000  0.0000000 )
                  (  0.0000000  0.0000000 -1.0000000 )


      isym = 26     inv. 180 deg rotation - cart. axis [0,0,1]   

 cryst.   s(26) = (     1          0          0      )
                  (     0          1          0      )
                  (     0          0         -1      )

 cart.    s(26) = (  1.0000000  0.0000000  0.0000000 )
                  (  0.0000000  1.0000000  0.0000000 )
                  (  0.0000000  0.0000000 -1.0000000 )


      isym = 27     inv. 180 deg rotation - cart. axis [0,1,0]   

 cryst.   s(27) = (     1          0          0      )
                  (     0         -1          0      )
                  (     0          0          1      )

 cart.    s(27) = (  1.0000000  0.0000000  0.0000000 )
                  (  0.0000000 -1.0000000  0.0000000 )
                  (  0.0000000  0.0000000  1.0000000 )


      isym = 28     inv. 180 deg rotation - cart. axis [1,0,0]   

 cryst.   s(28) = (    -1          0          0      )
                  (     0          1          0      )
                  (     0          0          1      )

 cart.    s(28) = ( -1.0000000  0.0000000  0.0000000 )
                  (  0.0000000  1.0000000  0.0000000 )
                  (  0.0000000  0.0000000  1.0000000 )


      isym = 29     inv. 180 deg rotation - cart. axis [1,1,0]   

 cryst.   s(29) = (     0         -1          0      )
                  (    -1          0          0      )
                  (     0          0          1      )

 cart.    s(29) = (  0.0000000 -1.0000000  0.0000000 )
                  ( -1.0000000  0.0000000  0.0000000 )
                  (  0.0000000  0.0000000  1.0000000 )


      isym = 30     inv. 180 deg rotation - cart. axis [1,-1,0]  

 cryst.   s(30) = (     0          1          0      )
                  (     1          0          0      )
                  (     0          0          1      )

 cart.    s(30) = (  0.0000000  1.0000000  0.0000000 )
                  (  1.0000000  0.0000000  0.0000000 )
                  (  0.0000000  0.0000000  1.0000000 )


      isym = 31     inv.  90 deg rotation - cart. axis [0,0,-1]  

 cryst.   s(31) = (     0          1          0      )
                  (    -1          0          0      )
                  (     0          0         -1      )

 cart.    s(31) = (  0.0000000 -1.0000000  0.0000000 )
                  (  1.0000000  0.0000000  0.0000000 )
                  (  0.0000000  0.0000000 -1.0000000 )


      isym = 32     inv.  90 deg rotation - cart. axis [0,0,1]   

 cryst.   s(32) = (     0         -1          0      )
                  (     1          0          0      )
                  (     0          0         -1      )

 cart.    s(32) = (  0.0000000  1.0000000  0.0000000 )
                  ( -1.0000000  0.0000000  0.0000000 )
                  (  0.0000000  0.0000000 -1.0000000 )


      isym = 33     inv. 180 deg rotation - cart. axis [1,0,1]   

 cryst.   s(33) = (     0          0         -1      )
                  (     0          1          0      )
                  (    -1          0          0      )

 cart.    s(33) = (  0.0000000  0.0000000 -1.0000000 )
                  (  0.0000000  1.0000000  0.0000000 )
                  ( -1.0000000  0.0000000  0.0000000 )


      isym = 34     inv. 180 deg rotation - cart. axis [-1,0,1]  

 cryst.   s(34) = (     0          0          1      )
                  (     0          1          0      )
                  (     1          0          0      )

 cart.    s(34) = (  0.0000000  0.0000000  1.0000000 )
                  (  0.0000000  1.0000000  0.0000000 )
                  (  1.0000000  0.0000000  0.0000000 )


      isym = 35     inv.  90 deg rotation - cart. axis [0,1,0]   

 cryst.   s(35) = (     0          0          1      )
                  (     0         -1          0      )
                  (    -1          0          0      )

 cart.    s(35) = (  0.0000000  0.0000000 -1.0000000 )
                  (  0.0000000 -1.0000000  0.0000000 )
                  (  1.0000000  0.0000000  0.0000000 )


      isym = 36     inv.  90 deg rotation - cart. axis [0,-1,0]  

 cryst.   s(36) = (     0          0         -1      )
                  (     0         -1          0      )
                  (     1          0          0      )

 cart.    s(36) = (  0.0000000  0.0000000  1.0000000 )
                  (  0.0000000 -1.0000000  0.0000000 )
                  ( -1.0000000  0.0000000  0.0000000 )


      isym = 37     inv. 180 deg rotation - cart. axis [0,1,1]   

 cryst.   s(37) = (     1          0          0      )
                  (     0          0         -1      )
                  (     0         -1          0      )

 cart.    s(37) = (  1.0000000  0.0000000  0.0000000 )
                  (  0.0000000  0.0000000 -1.0000000 )
                  (  0.0000000 -1.0000000  0.0000000 )


      isym = 38     inv. 180 deg rotation - cart. axis [0,1,-1]  

 cryst.   s(38) = (     1          0          0      )
                  (     0          0          1      )
                  (     0          1          0      )

 cart.    s(38) = (  1.0000000  0.0000000  0.0000000 )
                  (  0.0000000  0.0000000  1.0000000 )
                  (  0.0000000  1.0000000  0.0000000 )


      isym = 39     inv.  90 deg rotation - cart. axis [-1,0,0]  

 cryst.   s(39) = (    -1          0          0      )
                  (     0          0          1      )
                  (     0         -1          0      )

 cart.    s(39) = ( -1.0000000  0.0000000  0.0000000 )
                  (  0.0000000  0.0000000 -1.0000000 )
                  (  0.0000000  1.0000000  0.0000000 )


      isym = 40     inv.  90 deg rotation - cart. axis [1,0,0]   

 cryst.   s(40) = (    -1          0          0      )
                  (     0          0         -1      )
                  (     0          1          0      )

 cart.    s(40) = ( -1.0000000  0.0000000  0.0000000 )
                  (  0.0000000  0.0000000  1.0000000 )
                  (  0.0000000 -1.0000000  0.0000000 )


      isym = 41     inv. 120 deg rotation - cart. axis [-1,-1,-1]

 cryst.   s(41) = (     0          0         -1      )
                  (    -1          0          0      )
                  (     0         -1          0      )

 cart.    s(41) = (  0.0000000 -1.0000000  0.0000000 )
                  (  0.0000000  0.0000000 -1.0000000 )
                  ( -1.0000000  0.0000000  0.0000000 )


      isym = 42     inv. 120 deg rotation - cart. axis [-1,1,1]  

 cryst.   s(42) = (     0          0          1      )
                  (     1          0          0      )
                  (     0         -1          0      )

 cart.    s(42) = (  0.0000000  1.0000000  0.0000000 )
                  (  0.0000000  0.0000000 -1.0000000 )
                  (  1.0000000  0.0000000  0.0000000 )


      isym = 43     inv. 120 deg rotation - cart. axis [1,1,-1]  

 cryst.   s(43) = (     0          0          1      )
                  (    -1          0          0      )
                  (     0          1          0      )

 cart.    s(43) = (  0.0000000 -1.0000000  0.0000000 )
                  (  0.0000000  0.0000000  1.0000000 )
                  (  1.0000000  0.0000000  0.0000000 )


      isym = 44     inv. 120 deg rotation - cart. axis [1,-1,1]  

 cryst.   s(44) = (     0          0         -1      )
                  (     1          0          0      )
                  (     0          1          0      )

 cart.    s(44) = (  0.0000000  1.0000000  0.0000000 )
                  (  0.0000000  0.0000000  1.0000000 )
                  ( -1.0000000  0.0000000  0.0000000 )


      isym = 45     inv. 120 deg rotation - cart. axis [1,1,1]   

 cryst.   s(45) = (     0         -1          0      )
                  (     0          0         -1      )
                  (    -1          0          0      )

 cart.    s(45) = (  0.0000000  0.0000000 -1.0000000 )
                  ( -1.0000000  0.0000000  0.0000000 )
                  (  0.0000000 -1.0000000  0.0000000 )


      isym = 46     inv. 120 deg rotation - cart. axis [-1,1,-1] 

 cryst.   s(46) = (     0          1          0      )
                  (     0          0          1      )
                  (    -1          0          0      )

 cart.    s(46) = (  0.0000000  0.0000000 -1.0000000 )
                  (  1.0000000  0.0000000  0.0000000 )
                  (  0.0000000  1.0000000  0.0000000 )


      isym = 47     inv. 120 deg rotation - cart. axis [1,-1,-1] 

 cryst.   s(47) = (     0          1          0      )
                  (     0          0         -1      )
                  (     1          0          0      )

 cart.    s(47) = (  0.0000000  0.0000000  1.0000000 )
                  (  1.0000000  0.0000000  0.0000000 )
                  (  0.0000000 -1.0000000  0.0000000 )


      isym = 48     inv. 120 deg rotation - cart. axis [-1,-1,1] 

 cryst.   s(48) = (     0         -1          0      )
                  (     0          0          1      )
                  (     1          0          0      )

 cart.    s(48) = (  0.0000000  0.0000000  1.0000000 )
                  ( -1.0000000  0.0000000  0.0000000 )
                  (  0.0000000  1.0000000  0.0000000 )


   Cartesian axes

     site n.     atom                  positions (alat units)
         1        Fe     tau(   1) = (   0.0000000   0.0000000   0.0000000  )
         2        Fe     tau(   2) = (   0.5000000   0.5000000   0.5000000  )

   Crystallographic axes

     site n.     atom                  positions (cryst. coord.)
         1        Fe     tau(   1) = (  0.0000000  0.0000000  0.0000000  )
         2        Fe     tau(   2) = (  0.5000000  0.5000000  0.5000000  )

     number of k points=    56  Methfessel-Paxton smearing, width (Ry)=  0.0500
                       cart. coord. in units 2pi/alat
        k(    1) = (   0.0000000   0.0000000   0.0000000), wk =   0.0010000
        k(    2) = (   0.0000000   0.0000000   0.1000000), wk =   0.0060000
        k(    3) = (   0.0000000   0.0000000   0.2000000), wk =   0.0060000
        k(    4) = (   0.0000000   0.0000000   0.3000000), wk =   0.0060000
        k(    5) = (   0.0000000   0.0000000   0.4000000), wk =   0.0060000
        k(    6) = (   0.0000000   0.0000000  -0.5000000), wk =   0.0030000
        k(    7) = (   0.0000000   0.1000000   0.1000000), wk =   0.0120000
        k(    8) = (   0.0000000   0.1000000   0.2000000), wk =   0.0240000
        k(    9) = (   0.0000000   0.1000000   0.3000000), wk =   0.0240000
        k(   10) = (   0.0000000   0.1000000   0.4000000), wk =   0.0240000
        k(   11) = (   0.0000000   0.1000000  -0.5000000), wk =   0.0120000
        k(   12) = (   0.0000000   0.2000000   0.2000000), wk =   0.0120000
        k(   13) = (   0.0000000   0.2000000   0.3000000), wk =   0.0240000
        k(   14) = (   0.0000000   0.2000000   0.4000000), wk =   0.0240000
        k(   15) = (   0.0000000   0.2000000  -0.5000000), wk =   0.0120000
        k(   16) = (   0.0000000   0.3000000   0.3000000), wk =   0.0120000
        k(   17) = (   0.0000000   0.3000000   0.4000000), wk =   0.0240000
        k(   18) = (   0.0000000   0.3000000  -0.5000000), wk =   0.0120000
        k(   19) = (   0.0000000   0.4000000   0.4000000), wk =   0.0120000
        k(   20) = (   0.0000000   0.4000000  -0.5000000), wk =   0.0120000
        k(   21) = (   0.0000000  -0.5000000  -0.5000000), wk =   0.0030000
        k(   22) = (   0.1000000   0.1000000   0.1000000), wk =   0.0080000
        k(   23) = (   0.1000000   0.1000000   0.2000000), wk =   0.0240000
        k(   24) = (   0.1000000   0.1000000   0.3000000), wk =   0.0240000
        k(   25) = (   0.1000000   0.1000000   0.4000000), wk =   0.0240000
        k(   26) = (   0.1000000   0.1000000  -0.5000000), wk =   0.0120000
        k(   27) = (   0.1000000   0.2000000   0.2000000), wk =   0.0240000
        k(   28) = (   0.1000000   0.2000000   0.3000000), wk =   0.0480000
        k(   29) = (   0.1000000   0.2000000   0.4000000), wk =   0.0480000
        k(   30) = (   0.1000000   0.2000000  -0.5000000), wk =   0.0240000
        k(   31) = (   0.1000000   0.3000000   0.3000000), wk =   0.0240000
        k(   32) = (   0.1000000   0.3000000   0.4000000), wk =   0.0480000
        k(   33) = (   0.1000000   0.3000000  -0.5000000), wk =   0.0240000
        k(   34) = (   0.1000000   0.4000000   0.4000000), wk =   0.0240000
        k(   35) = (   0.1000000   0.4000000  -0.5000000), wk =   0.0240000
        k(   36) = (   0.1000000  -0.5000000  -0.5000000), wk =   0.0060000
        k(   37) = (   0.2000000   0.2000000   0.2000000), wk =   0.0080000
        k(   38) = (   0.2000000   0.2000000   0.3000000), wk =   0.0240000
        k(   39) = (   0.2000000   0.2000000   0.4000000), wk =   0.0240000
        k(   40) = (   0.2000000   0.2000000  -0.5000000), wk =   0.0120000
        k(   41) = (   0.2000000   0.3000000   0.3000000), wk =   0.0240000
        k(   42) = (   0.2000000   0.3000000   0.4000000), wk =   0.0480000
        k(   43) = (   0.2000000   0.3000000  -0.5000000), wk =   0.0240000
        k(   44) = (   0.2000000   0.4000000   0.4000000), wk =   0.0240000
        k(   45) = (   0.2000000   0.4000000  -0.5000000), wk =   0.0240000
        k(   46) = (   0.2000000  -0.5000000  -0.5000000), wk =   0.0060000
        k(   47) = (   0.3000000   0.3000000   0.3000000), wk =   0.0080000
        k(   48) = (   0.3000000   0.3000000   0.4000000), wk =   0.0240000
        k(   49) = (   0.3000000   0.3000000  -0.5000000), wk =   0.0120000
        k(   50) = (   0.3000000   0.4000000   0.4000000), wk =   0.0240000
        k(   51) = (   0.3000000   0.4000000  -0.5000000), wk =   0.0240000
        k(   52) = (   0.3000000  -0.5000000  -0.5000000), wk =   0.0060000
        k(   53) = (   0.4000000   0.4000000   0.4000000), wk =   0.0080000
        k(   54) = (   0.4000000   0.4000000  -0.5000000), wk =   0.0120000
        k(   55) = (   0.4000000  -0.5000000  -0.5000000), wk =   0.0060000
        k(   56) = (  -0.5000000  -0.5000000  -0.5000000), wk =   0.0010000

                       cryst. coord.
        k(    1) = (   0.0000000   0.0000000   0.0000000), wk =   0.0010000
        k(    2) = (   0.0000000   0.0000000   0.1000000), wk =   0.0060000
        k(    3) = (   0.0000000   0.0000000   0.2000000), wk =   0.0060000
        k(    4) = (   0.0000000   0.0000000   0.3000000), wk =   0.0060000
        k(    5) = (   0.0000000   0.0000000   0.4000000), wk =   0.0060000
        k(    6) = (   0.0000000   0.0000000  -0.5000000), wk =   0.0030000
        k(    7) = (   0.0000000   0.1000000   0.1000000), wk =   0.0120000
        k(    8) = (   0.0000000   0.1000000   0.2000000), wk =   0.0240000
        k(    9) = (   0.0000000   0.1000000   0.3000000), wk =   0.0240000
        k(   10) = (   0.0000000   0.1000000   0.4000000), wk =   0.0240000
        k(   11) = (   0.0000000   0.1000000  -0.5000000), wk =   0.0120000
        k(   12) = (   0.0000000   0.2000000   0.2000000), wk =   0.0120000
        k(   13) = (   0.0000000   0.2000000   0.3000000), wk =   0.0240000
        k(   14) = (   0.0000000   0.2000000   0.4000000), wk =   0.0240000
        k(   15) = (   0.0000000   0.2000000  -0.5000000), wk =   0.0120000
        k(   16) = (   0.0000000   0.3000000   0.3000000), wk =   0.0120000
        k(   17) = (   0.0000000   0.3000000   0.4000000), wk =   0.0240000
        k(   18) = (   0.0000000   0.3000000  -0.5000000), wk =   0.0120000
        k(   19) = (   0.0000000   0.4000000   0.4000000), wk =   0.0120000
        k(   20) = (   0.0000000   0.4000000  -0.5000000), wk =   0.0120000
        k(   21) = (   0.0000000  -0.5000000  -0.5000000), wk =   0.0030000
        k(   22) = (   0.1000000   0.1000000   0.1000000), wk =   0.0080000
        k(   23) = (   0.1000000   0.1000000   0.2000000), wk =   0.0240000
        k(   24) = (   0.1000000   0.1000000   0.3000000), wk =   0.0240000
        k(   25) = (   0.1000000   0.1000000   0.4000000), wk =   0.0240000
        k(   26) = (   0.1000000   0.1000000  -0.5000000), wk =   0.0120000
        k(   27) = (   0.1000000   0.2000000   0.2000000), wk =   0.0240000
        k(   28) = (   0.1000000   0.2000000   0.3000000), wk =   0.0480000
        k(   29) = (   0.1000000   0.2000000   0.4000000), wk =   0.0480000
        k(   30) = (   0.1000000   0.2000000  -0.5000000), wk =   0.0240000
        k(   31) = (   0.1000000   0.3000000   0.3000000), wk =   0.0240000
        k(   32) = (   0.1000000   0.3000000   0.4000000), wk =   0.0480000
        k(   33) = (   0.1000000   0.3000000  -0.5000000), wk =   0.0240000
        k(   34) = (   0.1000000   0.4000000   0.4000000), wk =   0.0240000
        k(   35) = (   0.1000000   0.4000000  -0.5000000), wk =   0.0240000
        k(   36) = (   0.1000000  -0.5000000  -0.5000000), wk =   0.0060000
        k(   37) = (   0.2000000   0.2000000   0.2000000), wk =   0.0080000
        k(   38) = (   0.2000000   0.2000000   0.3000000), wk =   0.0240000
        k(   39) = (   0.2000000   0.2000000   0.4000000), wk =   0.0240000
        k(   40) = (   0.2000000   0.2000000  -0.5000000), wk =   0.0120000
        k(   41) = (   0.2000000   0.3000000   0.3000000), wk =   0.0240000
        k(   42) = (   0.2000000   0.3000000   0.4000000), wk =   0.0480000
        k(   43) = (   0.2000000   0.3000000  -0.5000000), wk =   0.0240000
        k(   44) = (   0.2000000   0.4000000   0.4000000), wk =   0.0240000
        k(   45) = (   0.2000000   0.4000000  -0.5000000), wk =   0.0240000
        k(   46) = (   0.2000000  -0.5000000  -0.5000000), wk =   0.0060000
        k(   47) = (   0.3000000   0.3000000   0.3000000), wk =   0.0080000
        k(   48) = (   0.3000000   0.3000000   0.4000000), wk =   0.0240000
        k(   49) = (   0.3000000   0.3000000  -0.5000000), wk =   0.0120000
        k(   50) = (   0.3000000   0.4000000   0.4000000), wk =   0.0240000
        k(   51) = (   0.3000000   0.4000000  -0.5000000), wk =   0.0240000
        k(   52) = (   0.3000000  -0.5000000  -0.5000000), wk =   0.0060000
        k(   53) = (   0.4000000   0.4000000   0.4000000), wk =   0.0080000
        k(   54) = (   0.4000000   0.4000000  -0.5000000), wk =   0.0120000
        k(   55) = (   0.4000000  -0.5000000  -0.5000000), wk =   0.0060000
        k(   56) = (  -0.5000000  -0.5000000  -0.5000000), wk =   0.0010000

     Dense  grid:    49509 G-vectors     FFT dimensions: (  45,  45,  45)

     Smooth grid:    21367 G-vectors     FFT dimensions: (  36,  36,  36)

     Dynamical RAM for                 wfc:       0.08 MB

     Dynamical RAM for     wfc (w. buffer):       9.21 MB

     Dynamical RAM for           str. fact:       0.08 MB

     Dynamical RAM for           local pot:       0.00 MB

     Dynamical RAM for          nlocal pot:       0.15 MB

     Dynamical RAM for                qrad:       2.12 MB

     Dynamical RAM for          rho,v,vnew:       0.92 MB

     Dynamical RAM for               rhoin:       0.31 MB

     Dynamical RAM for            rho*nmix:       2.42 MB

     Dynamical RAM for           G-vectors:       0.30 MB

     Dynamical RAM for          h,s,v(r/c):       0.07 MB

     Dynamical RAM for          <psi|beta>:       0.01 MB

     Dynamical RAM for                 psi:       0.16 MB

     Dynamical RAM for                hpsi:       0.16 MB

     Dynamical RAM for                spsi:       0.16 MB

     Dynamical RAM for      wfcinit/wfcrot:       0.17 MB

     Dynamical RAM for           addusdens:      14.27 MB

     Estimated static dynamical RAM per process >      13.69 MB

     Estimated max dynamical RAM per process >      30.38 MB

     Estimated total dynamical RAM >     303.77 MB
     Generating pointlists ...
     new r_m :   0.3572 (alat units)  1.9328 (a.u.) for type    1

     The initial density is read from file :
     ./out/Fe.save/charge-density


     negative rho (up, down):  0.000E+00 1.220E-04
     Starting wfcs from file
     Checking if some PAW data can be deallocated... 

     total cpu time spent up to now is        1.5 secs

     Self-consistent Calculation

     iteration #  1     ecut=   100.00 Ry     beta= 0.40
     Davidson diagonalization with overlap

---- Real-time Memory Report at c_bands before calling an iterative solver
            61 MiB given to the printing process from OS
             0 MiB allocation reported by mallinfo(arena+hblkhd)
           647 MiB available memory on the node where the printing process lives
------------------
     ethr =  1.00E-05,  avg # of iterations =  1.0

     Threshold (ethr) on eigenvalues was too large:
     Diagonalizing with lowered threshold

     Davidson diagonalization with overlap

---- Real-time Memory Report at c_bands before calling an iterative solver
            70 MiB given to the printing process from OS
             0 MiB allocation reported by mallinfo(arena+hblkhd)
           566 MiB available memory on the node where the printing process lives
------------------
     ethr =  2.90E-07,  avg # of iterations =  1.0

     negative rho (up, down):  0.000E+00 1.222E-04

     total cpu time spent up to now is        8.7 secs

     total energy              =    -658.53766027 Ry
     estimated scf accuracy    <       0.00009292 Ry

     total magnetization       =     4.48 Bohr mag/cell
     absolute magnetization    =     4.74 Bohr mag/cell

     iteration #  2     ecut=   100.00 Ry     beta= 0.40
     Davidson diagonalization with overlap

---- Real-time Memory Report at c_bands before calling an iterative solver
            75 MiB given to the printing process from OS
             0 MiB allocation reported by mallinfo(arena+hblkhd)
           526 MiB available memory on the node where the printing process lives
------------------
     ethr =  2.90E-07,  avg # of iterations =  2.0

     negative rho (up, down):  0.000E+00 1.218E-04

     total cpu time spent up to now is       14.1 secs

     total energy              =    -658.53767977 Ry
     estimated scf accuracy    <       0.00003074 Ry

     total magnetization       =     4.48 Bohr mag/cell
     absolute magnetization    =     4.74 Bohr mag/cell

     iteration #  3     ecut=   100.00 Ry     beta= 0.40
     Davidson diagonalization with overlap

---- Real-time Memory Report at c_bands before calling an iterative solver
            76 MiB given to the printing process from OS
             0 MiB allocation reported by mallinfo(arena+hblkhd)
           346 MiB available memory on the node where the printing process lives
------------------
     ethr =  9.60E-08,  avg # of iterations =  1.1

     negative rho (up, down):  0.000E+00 1.215E-04

     total cpu time spent up to now is       18.1 secs

     total energy              =    -658.53769022 Ry
     estimated scf accuracy    <       0.00001594 Ry

     total magnetization       =     4.47 Bohr mag/cell
     absolute magnetization    =     4.74 Bohr mag/cell

     iteration #  4     ecut=   100.00 Ry     beta= 0.40
     Davidson diagonalization with overlap

---- Real-time Memory Report at c_bands before calling an iterative solver
            76 MiB given to the printing process from OS
             0 MiB allocation reported by mallinfo(arena+hblkhd)
           354 MiB available memory on the node where the printing process lives
------------------
     ethr =  4.98E-08,  avg # of iterations =  2.4

     negative rho (up, down):  0.000E+00 1.211E-04

     total cpu time spent up to now is       22.5 secs

     total energy              =    -658.53768536 Ry
     estimated scf accuracy    <       0.00026551 Ry

     total magnetization       =     4.47 Bohr mag/cell
     absolute magnetization    =     4.73 Bohr mag/cell

     iteration #  5     ecut=   100.00 Ry     beta= 0.40
     Davidson diagonalization with overlap

---- Real-time Memory Report at c_bands before calling an iterative solver
            77 MiB given to the printing process from OS
             0 MiB allocation reported by mallinfo(arena+hblkhd)
           465 MiB available memory on the node where the printing process lives
------------------
     ethr =  4.98E-08,  avg # of iterations =  1.9

     negative rho (up, down):  0.000E+00 1.204E-04

     total cpu time spent up to now is       26.7 secs

     total energy              =    -658.53769841 Ry
     estimated scf accuracy    <       0.00000317 Ry

     total magnetization       =     4.46 Bohr mag/cell
     absolute magnetization    =     4.73 Bohr mag/cell

     iteration #  6     ecut=   100.00 Ry     beta= 0.40
     Davidson diagonalization with overlap

---- Real-time Memory Report at c_bands before calling an iterative solver
            77 MiB given to the printing process from OS
             0 MiB allocation reported by mallinfo(arena+hblkhd)
           462 MiB available memory on the node where the printing process lives
------------------
     ethr =  9.90E-09,  avg # of iterations =  3.4

     negative rho (up, down):  0.000E+00 1.196E-04

     total cpu time spent up to now is       32.2 secs

     total energy              =    -658.53770004 Ry
     estimated scf accuracy    <       0.00000421 Ry

     total magnetization       =     4.46 Bohr mag/cell
     absolute magnetization    =     4.72 Bohr mag/cell

     iteration #  7     ecut=   100.00 Ry     beta= 0.40
     Davidson diagonalization with overlap

---- Real-time Memory Report at c_bands before calling an iterative solver
            77 MiB given to the printing process from OS
             0 MiB allocation reported by mallinfo(arena+hblkhd)
           457 MiB available memory on the node where the printing process lives
------------------
     ethr =  9.90E-09,  avg # of iterations =  1.8

     negative rho (up, down):  0.000E+00 1.195E-04

     total cpu time spent up to now is       36.3 secs

     total energy              =    -658.53770103 Ry
     estimated scf accuracy    <       0.00000013 Ry

     total magnetization       =     4.46 Bohr mag/cell
     absolute magnetization    =     4.72 Bohr mag/cell

     iteration #  8     ecut=   100.00 Ry     beta= 0.40
     Davidson diagonalization with overlap

---- Real-time Memory Report at c_bands before calling an iterative solver
            77 MiB given to the printing process from OS
             0 MiB allocation reported by mallinfo(arena+hblkhd)
           458 MiB available memory on the node where the printing process lives
------------------
     ethr =  4.20E-10,  avg # of iterations =  3.1

     negative rho (up, down):  0.000E+00 1.193E-04

     total cpu time spent up to now is       41.1 secs

     total energy              =    -658.53770108 Ry
     estimated scf accuracy    <       0.00000002 Ry

     total magnetization       =     4.46 Bohr mag/cell
     absolute magnetization    =     4.72 Bohr mag/cell

     iteration #  9     ecut=   100.00 Ry     beta= 0.40
     Davidson diagonalization with overlap

---- Real-time Memory Report at c_bands before calling an iterative solver
            78 MiB given to the printing process from OS
             0 MiB allocation reported by mallinfo(arena+hblkhd)
           453 MiB available memory on the node where the printing process lives
------------------
     ethr =  5.30E-11,  avg # of iterations =  2.7

     negative rho (up, down):  0.000E+00 1.193E-04

     total cpu time spent up to now is       45.9 secs

     total energy              =    -658.53770110 Ry
     estimated scf accuracy    <          8.9E-09 Ry

     total magnetization       =     4.45 Bohr mag/cell
     absolute magnetization    =     4.72 Bohr mag/cell

     iteration # 10     ecut=   100.00 Ry     beta= 0.40
     Davidson diagonalization with overlap

---- Real-time Memory Report at c_bands before calling an iterative solver
            78 MiB given to the printing process from OS
             0 MiB allocation reported by mallinfo(arena+hblkhd)
           444 MiB available memory on the node where the printing process lives
------------------
     ethr =  2.79E-11,  avg # of iterations =  2.8

     negative rho (up, down):  0.000E+00 1.193E-04

     total cpu time spent up to now is       50.5 secs

     total energy              =    -658.53770110 Ry
     estimated scf accuracy    <          3.0E-09 Ry

     total magnetization       =     4.45 Bohr mag/cell
     absolute magnetization    =     4.72 Bohr mag/cell

     iteration # 11     ecut=   100.00 Ry     beta= 0.40
     Davidson diagonalization with overlap

---- Real-time Memory Report at c_bands before calling an iterative solver
            78 MiB given to the printing process from OS
             0 MiB allocation reported by mallinfo(arena+hblkhd)
           443 MiB available memory on the node where the printing process lives
------------------
     ethr =  9.37E-12,  avg # of iterations =  1.2

     negative rho (up, down):  0.000E+00 1.192E-04

     total cpu time spent up to now is       54.2 secs

     total energy              =    -658.53770110 Ry
     estimated scf accuracy    <          7.8E-10 Ry

     total magnetization       =     4.45 Bohr mag/cell
     absolute magnetization    =     4.72 Bohr mag/cell

     iteration # 12     ecut=   100.00 Ry     beta= 0.40
     Davidson diagonalization with overlap

---- Real-time Memory Report at c_bands before calling an iterative solver
            78 MiB given to the printing process from OS
             0 MiB allocation reported by mallinfo(arena+hblkhd)
           436 MiB available memory on the node where the printing process lives
------------------
     ethr =  2.44E-12,  avg # of iterations =  2.1

     negative rho (up, down):  0.000E+00 1.192E-04

     Magnetic moment per site  (integrated on atomic sphere of radius R)
     atom   1 (R=0.357)  charge= 14.4170  magn=  2.2838
     atom   2 (R=0.357)  charge= 14.4172  magn=  2.2838

     total cpu time spent up to now is       58.5 secs

     End of self-consistent calculation

 ------ SPIN UP ------------


          k = 0.0000 0.0000 0.0000 (  2721 PWs)   bands (ev):

   -70.4905 -70.3708 -36.5778 -36.5778 -36.5778 -36.3111 -36.3111 -36.3111
     9.2411  12.8746  12.8746  15.3419  15.3419  15.3419  16.4732  16.4732
    17.6702  17.6702  17.6702  27.1970

     occupation numbers 
     1.0000   1.0000   1.0000   1.0000   1.0000   1.0000   1.0000   1.0000
     1.0000   1.0000   1.0000   1.0000   1.0000   1.0000   1.0228   1.0228
     0.3714   0.3714   0.3714  -0.0000

          k = 0.0000 0.0000 0.1000 (  2673 PWs)   bands (ev):

   -70.4871 -70.3733 -36.5767 -36.5709 -36.5709 -36.3231 -36.3172 -36.3172
     9.4438  12.9593  12.9606  15.3407  15.3407  15.3963  16.3847  16.5079
    17.5048  17.5048  17.6107  25.8735

     occupation numbers 
     1.0000   1.0000   1.0000   1.0000   1.0000   1.0000   1.0000   1.0000
     1.0000   1.0000   1.0000   1.0000   1.0000   1.0000   1.0170   1.0252
     0.5752   0.5752   0.4439  -0.0000

          k = 0.0000 0.0000 0.2000 (  2677 PWs)   bands (ev):

   -70.4775 -70.3807 -36.5720 -36.5510 -36.5510 -36.3565 -36.3352 -36.3352
    10.0335  13.1807  13.2066  15.3492  15.3492  15.5548  16.1271  16.6074
    17.0917  17.0917  17.4387  23.4463

     occupation numbers 
     1.0000   1.0000   1.0000   1.0000   1.0000   1.0000   1.0000   1.0000
     1.0000   1.0000   1.0000   1.0000   1.0000   1.0001   1.0054   1.0315
     0.9586   0.9586   0.6548  -0.0000

          k = 0.0000 0.0000 0.3000 (  2701 PWs)   bands (ev):

   -70.4629 -70.3926 -36.5601 -36.5203 -36.5203 -36.4038 -36.3635 -36.3635
    10.9468  13.4157  13.5959  15.3989  15.3989  15.7237  15.8039  16.5913
    16.5913  16.7716  17.1728  21.0397

     occupation numbers 
     1.0000   1.0000   1.0000   1.0000   1.0000   1.0000   1.0000   1.0000
     1.0000   1.0000   1.0000   1.0000   1.0000   1.0004   1.0008   1.0305
     1.0305   1.0349   0.9095  -0.0000

          k = 0.0000 0.0000 0.4000 (  2670 PWs)   bands (ev):

   -70.4452 -70.4082 -36.5373 -36.4822 -36.4822 -36.4552 -36.3998 -36.3998
    12.0357  13.4457  14.0930  15.2141  15.5279  15.5279  16.1217  16.1280
    16.1280  16.8414  17.0616  19.0354

     occupation numbers 
     1.0000   1.0000   1.0000   1.0000   1.0000   1.0000   1.0000   1.0000
     1.0000   1.0000   1.0000   1.0000   1.0001   1.0001   1.0053   1.0055
     1.0055   1.0306   0.9733  -0.0046

          k = 0.0000 0.0000-0.5000 (  2666 PWs)   bands (ev):

   -70.4263 -70.4262 -36.5018 -36.5017 -36.4407 -36.4407 -36.4406 -36.4406
    12.9907  12.9907  14.6511  14.6511  15.7671  15.7671  15.7671  15.7671
    16.4789  16.4790  17.7071  17.7072

     occupation numbers 
     1.0000   1.0000   1.0000   1.0000   1.0000   1.0000   1.0000   1.0000
     1.0000   1.0000   1.0000   1.0000   1.0006   1.0006   1.0006   1.0006
     1.0232   1.0232   0.3279   0.3279

          k = 0.0000 0.1000 0.1000 (  2668 PWs)   bands (ev):

   -70.4839 -70.3757 -36.5876 -36.5643 -36.5526 -36.3469 -36.3231 -36.3110
     9.6429  13.0364  13.0508  15.2359  15.3273  15.5530  16.3783  16.4821
    17.2207  17.3402  17.6947  25.9398

     occupation numbers 
     1.0000   1.0000   1.0000   1.0000   1.0000   1.0000   1.0000   1.0000
     1.0000   1.0000   1.0000   1.0000   1.0000   1.0001   1.0166   1.0234
     0.8738   0.7640   0.3424  -0.0000

          k = 0.0000 0.1000 0.2000 (  2675 PWs)   bands (ev):

   -70.4747 -70.3827 -36.5928 -36.5453 -36.5246 -36.3885 -36.3401 -36.3188
    10.2208  13.2463  13.2963  15.1621  15.3005  15.7896  16.1975  16.5675
    16.7541  16.9387  17.6322  23.6885

     occupation numbers 
     1.0000   1.0000   1.0000   1.0000   1.0000   1.0000   1.0000   1.0000
     1.0000   1.0000   1.0000   1.0000   1.0000   1.0007   1.0077   1.0291
     1.0353   1.0149   0.4174  -0.0000

          k = 0.0000 0.1000 0.3000 (  2688 PWs)   bands (ev):

   -70.4608 -70.3939 -36.5877 -36.5161 -36.4898 -36.4396 -36.3669 -36.3402
    11.1088  13.4785  13.6592  15.1592  15.2561  15.9302  16.0826  16.2515
    16.4825  16.7356  17.4274  21.2615

     occupation numbers 
     1.0000   1.0000   1.0000   1.0000   1.0000   1.0000   1.0000   1.0000
     1.0000   1.0000   1.0000   1.0000   1.0000   1.0018   1.0043   1.0099
     1.0234   1.0355   0.6679  -0.0000

          k = 0.0000 0.1000 0.4000 (  2684 PWs)   bands (ev):

   -70.4438 -70.4086 -36.5696 -36.4918 -36.4797 -36.4506 -36.4013 -36.3719
    12.1512  13.4955  14.1158  15.0457  15.2528  15.8043  15.8095  16.1236
    16.4202  17.0422  17.1284  19.2002

     occupation numbers 
     1.0000   1.0000   1.0000   1.0000   1.0000   1.0000   1.0000   1.0000
     1.0000   1.0000   1.0000   1.0000   1.0000   1.0008   1.0008   1.0053
     1.0193   0.9817   0.9382  -0.0018

          k = 0.0000 0.1000-0.5000 (  2690 PWs)   bands (ev):

   -70.4259 -70.4258 -36.5370 -36.5369 -36.4402 -36.4401 -36.4100 -36.4100
    13.0515  13.0515  14.6106  14.6107  15.4654  15.4654  15.9116  15.9116
    16.7796  16.7796  17.7662  17.7663

     occupation numbers 
     1.0000   1.0000   1.0000   1.0000   1.0000   1.0000   1.0000   1.0000
     1.0000   1.0000   1.0000   1.0000   1.0001   1.0001   1.0016   1.0016
     1.0346   1.0346   0.2619   0.2619

          k = 0.0000 0.2000 0.2000 (  2674 PWs)   bands (ev):

   -70.4667 -70.3884 -36.6132 -36.5290 -36.4864 -36.4400 -36.3544 -36.3109
    10.7567  13.3766  13.5790  14.9656  15.2210  16.1347  16.2324  16.2928
    16.5133  16.5936  17.7592  23.6942

     occupation numbers 
     1.0000   1.0000   1.0000   1.0000   1.0000   1.0000   1.0000   1.0000
     1.0000   1.0000   1.0000   1.0000   1.0000   1.0056   1.0091   1.0119
     1.0255   1.0307   0.2695  -0.0000

          k = 0.0000 0.2000 0.3000 (  2675 PWs)   bands (ev):

   -70.4547 -70.3977 -36.6218 -36.5038 -36.4964 -36.4460 -36.3769 -36.3182
    11.5504  13.4964  13.9688  14.8568  15.1720  15.7242  16.2201  16.2764
    16.5048  16.6395  17.7128  21.7006

     occupation numbers 
     1.0000   1.0000   1.0000   1.0000   1.0000   1.0000   1.0000   1.0000
     1.0000   1.0000   1.0000   1.0000   1.0000   1.0004   1.0086   1.0111
     1.0250   1.0331   0.3214  -0.0000

          k = 0.0000 0.2000 0.4000 (  2682 PWs)   bands (ev):

   -70.4401 -70.4101 -36.6147 -36.5489 -36.4727 -36.4060 -36.4059 -36.3386
    12.4135  13.4472  14.3860  14.8659  15.0627  15.3040  16.1478  16.1895
    16.8784  16.9822  17.5212  19.5758

     occupation numbers 
     1.0000   1.0000   1.0000   1.0000   1.0000   1.0000   1.0000   1.0000
     1.0000   1.0000   1.0000   1.0000   1.0000   1.0000   1.0060   1.0074
     1.0261   1.0033   0.5549  -0.0001

          k = 0.0000 0.2000-0.5000 (  2688 PWs)   bands (ev):

   -70.4247 -70.4246 -36.5900 -36.5900 -36.4390 -36.4389 -36.3690 -36.3690
    13.0926  13.0927  14.7767  14.7767  15.0130  15.0130  16.1751  16.1752
    17.2289  17.2289  17.9215  17.9215

     occupation numbers 
     1.0000   1.0000   1.0000   1.0000   1.0000   1.0000   1.0000   1.0000
     1.0000   1.0000   1.0000   1.0000   1.0000   1.0000   1.0069   1.0069
     0.8672   0.8672   0.1174   0.1173

          k = 0.0000 0.3000 0.3000 (  2670 PWs)   bands (ev):

   -70.4455 -70.4041 -36.6447 -36.5540 -36.4851 -36.4039 -36.3929 -36.3107
    12.1258  13.4115  14.4531  14.6450  15.2383  15.3427  16.1698  16.4077
    16.5683  16.9238  17.8395  21.4241

     occupation numbers 
     1.0000   1.0000   1.0000   1.0000   1.0000   1.0000   1.0000   1.0000
     1.0000   1.0000   1.0000   1.0000   1.0000   1.0000   1.0067   1.0185
     1.0291   1.0182   0.1878  -0.0000

          k = 0.0000 0.3000 0.4000 (  2669 PWs)   bands (ev):

   -70.4346 -70.4128 -36.6507 -36.6032 -36.4621 -36.4136 -36.3667 -36.3176
    12.6289  13.2335  14.5634  14.8631  14.9646  15.5774  16.2362  16.4682
    16.8767  17.3013  17.7951  19.8236

     occupation numbers 
     1.0000   1.0000   1.0000   1.0000   1.0000   1.0000   1.0000   1.0000
     1.0000   1.0000   1.0000   1.0000   1.0000   1.0001   1.0093   1.0225
     1.0264   0.8028   0.2316  -0.0000

          k = 0.0000 0.3000-0.5000 (  2672 PWs)   bands (ev):

   -70.4233 -70.4232 -36.6368 -36.6368 -36.4375 -36.4374 -36.3371 -36.3371
    12.9802  12.9802  14.6340  14.6340  15.3861  15.3862  16.3891  16.3891
    17.6038  17.6038  18.0871  18.0871

     occupation numbers 
     1.0000   1.0000   1.0000   1.0000   1.0000   1.0000   1.0000   1.0000
     1.0000   1.0000   1.0000   1.0000   1.0000   1.0000   1.0173   1.0173
     0.4524   0.4524   0.0190   0.0190

          k = 0.0000 0.4000 0.4000 (  2684 PWs)   bands (ev):

   -70.4283 -70.4169 -36.6702 -36.6452 -36.4494 -36.4239 -36.3365 -36.3106
    12.7385  13.0076  14.3956  14.5471  15.6355  16.3726  16.3762  16.6269
    16.8804  17.6360  17.9050  19.3638

     occupation numbers 
     1.0000   1.0000   1.0000   1.0000   1.0000   1.0000   1.0000   1.0000
     1.0000   1.0000   1.0000   1.0000   1.0002   1.0163   1.0165   1.0325
     1.0258   0.4128   0.1304  -0.0006

          k = 0.0000 0.4000-0.5000 (  2668 PWs)   bands (ev):

   -70.4222 -70.4221 -36.6686 -36.6686 -36.4363 -36.4362 -36.3173 -36.3173
    12.8420  12.8420  14.3877  14.3877  16.1936  16.1936  16.5158  16.5159
    17.8465  17.8465  18.1224  18.1224

     occupation numbers 
     1.0000   1.0000   1.0000   1.0000   1.0000   1.0000   1.0000   1.0000
     1.0000   1.0000   1.0000   1.0000   1.0076   1.0076   1.0257   1.0257
     0.1813   0.1813   0.0053   0.0053

          k = 0.0000-0.5000-0.5000 (  2680 PWs)   bands (ev):

   -70.4217 -70.4217 -36.6799 -36.6799 -36.4358 -36.4357 -36.3106 -36.3106
    12.7861  12.7862  14.3025  14.3025  16.5460  16.5460  16.6528  16.6529
    17.9302  17.9302  18.0481  18.0481

     occupation numbers 
     1.0000   1.0000   1.0000   1.0000   1.0000   1.0000   1.0000   1.0000
     1.0000   1.0000   1.0000   1.0000   1.0277   1.0277   1.0337   1.0337
     0.1107   0.1107   0.0369   0.0369

          k = 0.1000 0.1000 0.1000 (  2677 PWs)   bands (ev):

   -70.4808 -70.3779 -36.5804 -36.5804 -36.5305 -36.3685 -36.3174 -36.3174
     9.8392  13.1262  13.1262  15.2171  15.2171  15.7139  16.4209  16.4209
    16.8529  17.5297  17.5297  26.2797

     occupation numbers 
     1.0000   1.0000   1.0000   1.0000   1.0000   1.0000   1.0000   1.0000
     1.0000   1.0000   1.0000   1.0000   1.0000   1.0004   1.0193   1.0193
     1.0294   0.5445   0.5445  -0.0000

          k = 0.1000 0.1000 0.2000 (  2678 PWs)   bands (ev):

   -70.4720 -70.3845 -36.5933 -36.5599 -36.4990 -36.4112 -36.3361 -36.3197
    10.4069  13.3446  13.3538  15.1058  15.1650  15.9943  16.2512  16.3454
    16.5346  17.1242  17.5675  23.9435

     occupation numbers 
     1.0000   1.0000   1.0000   1.0000   1.0000   1.0000   1.0000   1.0000
     1.0000   1.0000   1.0000   1.0000   1.0000   1.0026   1.0099   1.0147
     1.0270   0.9407   0.4975  -0.0000

          k = 0.1000 0.1000 0.3000 (  2693 PWs)   bands (ev):

   -70.4587 -70.3951 -36.5951 -36.5281 -36.4639 -36.4621 -36.3655 -36.3345
    11.2730  13.5841  13.6827  15.0732  15.0912  15.8735  16.0292  16.3270
    16.6479  16.7091  17.4347  21.5027

     occupation numbers 
     1.0000   1.0000   1.0000   1.0000   1.0000   1.0000   1.0000   1.0000
     1.0000   1.0000   1.0000   1.0000   1.0000   1.0012   1.0032   1.0137
     1.0335   1.0353   0.6594  -0.0000

          k = 0.1000 0.1000 0.4000 (  2678 PWs)   bands (ev):

   -70.4425 -70.4091 -36.5827 -36.5126 -36.4886 -36.4271 -36.4031 -36.3593
    12.2753  13.5797  14.0990  14.8792  15.1982  15.5556  15.8886  16.2325
    16.6390  17.0755  17.1878  19.4151

     occupation numbers 
     1.0000   1.0000   1.0000   1.0000   1.0000   1.0000   1.0000   1.0000
     1.0000   1.0000   1.0000   1.0000   1.0000   1.0001   1.0014   1.0091
     1.0331   0.9667   0.8989  -0.0004

          k = 0.1000 0.1000-0.5000 (  2672 PWs)   bands (ev):

   -70.4254 -70.4253 -36.5546 -36.5546 -36.4455 -36.4454 -36.3913 -36.3912
    13.1323  13.1323  14.5295  14.5295  15.3716  15.3716  15.9594  15.9594
    16.9018  16.9018  17.9159  17.9159

     occupation numbers 
     1.0000   1.0000   1.0000   1.0000   1.0000   1.0000   1.0000   1.0000
     1.0000   1.0000   1.0000   1.0000   1.0000   1.0000   1.0021   1.0021
     1.0224   1.0224   0.1217   0.1217

          k = 0.1000 0.2000 0.2000 (  2691 PWs)   bands (ev):

   -70.4644 -70.3899 -36.6054 -36.5518 -36.4630 -36.4569 -36.3478 -36.3179
    10.9384  13.4846  13.6265  14.9275  15.0607  15.8201  16.3237  16.3666
    16.4939  16.9110  17.5883  24.0312

     occupation numbers 
     1.0000   1.0000   1.0000   1.0000   1.0000   1.0000   1.0000   1.0000
     1.0000   1.0000   1.0000   1.0000   1.0000   1.0009   1.0135   1.0159
     1.0242   1.0207   0.4716  -0.0000

          k = 0.1000 0.2000 0.3000 (  2684 PWs)   bands (ev):

   -70.4529 -70.3987 -36.6161 -36.5239 -36.5086 -36.4267 -36.3735 -36.3232
    11.7207  13.6242  13.9762  14.8081  15.0012  15.3926  16.2449  16.5408
    16.6130  16.7902  17.5524  22.0039

     occupation numbers 
     1.0000   1.0000   1.0000   1.0000   1.0000   1.0000   1.0000   1.0000
     1.0000   1.0000   1.0000   1.0000   1.0000   1.0000   1.0096   1.0274
     1.0318   1.0342   0.5163  -0.0000

          k = 0.1000 0.2000 0.4000 (  2675 PWs)   bands (ev):

   -70.4389 -70.4104 -36.6132 -36.5566 -36.4871 -36.4077 -36.3924 -36.3385
    12.5605  13.5790  14.3001  14.7243  15.0245  15.1782  16.1749  16.2812
    16.7986  17.3476  17.3696  19.8964

     occupation numbers 
     1.0000   1.0000   1.0000   1.0000   1.0000   1.0000   1.0000   1.0000
     1.0000   1.0000   1.0000   1.0000   1.0000   1.0000   1.0069   1.0113
     1.0338   0.7562   0.7329  -0.0000

          k = 0.1000 0.2000-0.5000 (  2686 PWs)   bands (ev):

   -70.4243 -70.4242 -36.5930 -36.5930 -36.4470 -36.4468 -36.3623 -36.3623
    13.2173  13.2173  14.5627  14.5627  15.0976  15.0976  16.1882  16.1882
    17.0786  17.0786  18.2978  18.2979

     occupation numbers 
     1.0000   1.0000   1.0000   1.0000   1.0000   1.0000   1.0000   1.0000
     1.0000   1.0000   1.0000   1.0000   1.0000   1.0000   1.0074   1.0074
     0.9652   0.9652  -0.0314  -0.0314

          k = 0.1000 0.3000 0.3000 (  2669 PWs)   bands (ev):

   -70.4441 -70.4047 -36.6362 -36.5592 -36.5034 -36.3917 -36.3911 -36.3185
    12.3002  13.5406  14.4523  14.6092  15.0050  15.1076  16.3657  16.4068
    16.5694  17.2603  17.6278  21.8333

     occupation numbers 
     1.0000   1.0000   1.0000   1.0000   1.0000   1.0000   1.0000   1.0000
     1.0000   1.0000   1.0000   1.0000   1.0000   1.0000   1.0159   1.0184
     1.0292   0.8405   0.4228  -0.0000

          k = 0.1000 0.3000 0.4000 (  2666 PWs)   bands (ev):

   -70.4336 -70.4129 -36.6432 -36.6029 -36.4753 -36.4156 -36.3619 -36.3239
    12.7901  13.3630  14.5204  14.6839  14.9933  15.3695  16.3302  16.4296
    16.7366  17.5262  17.8163  20.2906

     occupation numbers 
     1.0000   1.0000   1.0000   1.0000   1.0000   1.0000   1.0000   1.0000
     1.0000   1.0000   1.0000   1.0000   1.0000   1.0000   1.0138   1.0199
     1.0355   0.5488   0.2103  -0.0000

          k = 0.1000 0.3000-0.5000 (  2672 PWs)   bands (ev):

   -70.4229 -70.4228 -36.6323 -36.6323 -36.4448 -36.4446 -36.3388 -36.3388
    13.1193  13.1193  14.5506  14.5507  15.3293  15.3294  16.4015  16.4015
    17.1877  17.1877  18.7467  18.7468

     occupation numbers 
     1.0000   1.0000   1.0000   1.0000   1.0000   1.0000   1.0000   1.0000
     1.0000   1.0000   1.0000   1.0000   1.0000   1.0000   1.0181   1.0181
     0.8990   0.8990  -0.0170  -0.0170

          k = 0.1000 0.4000 0.4000 (  2670 PWs)   bands (ev):

   -70.4276 -70.4167 -36.6610 -36.6399 -36.4590 -36.4272 -36.3387 -36.3190
    12.8906  13.1373  14.3714  14.4924  15.5597  16.1130  16.4251  16.5605
    16.6311  17.4997  18.3506  20.0334

     occupation numbers 
     1.0000   1.0000   1.0000   1.0000   1.0000   1.0000   1.0000   1.0000
     1.0000   1.0000   1.0000   1.0000   1.0001   1.0050   1.0196   1.0287
     1.0327   0.5814  -0.0346  -0.0000

          k = 0.1000 0.4000-0.5000 (  2668 PWs)   bands (ev):

   -70.4217 -70.4217 -36.6603 -36.6603 -36.4422 -36.4421 -36.3242 -36.3242
    12.9801  12.9801  14.3594  14.3594  16.0794  16.0795  16.5268  16.5269
    17.1389  17.1389  19.1168  19.1168

     occupation numbers 
     1.0000   1.0000   1.0000   1.0000   1.0000   1.0000   1.0000   1.0000
     1.0000   1.0000   1.0000   1.0000   1.0042   1.0042   1.0264   1.0264
     0.9318   0.9318  -0.0029  -0.0029

          k = 0.1000-0.5000-0.5000 (  2684 PWs)   bands (ev):

   -70.4213 -70.4212 -36.6705 -36.6705 -36.4412 -36.4410 -36.3192 -36.3192
    12.9233  12.9233  14.2842  14.2842  16.5629  16.5629  16.6561  16.6561
    16.8901  16.8901  19.2709  19.2709

     occupation numbers 
     1.0000   1.0000   1.0000   1.0000   1.0000   1.0000   1.0000   1.0000
     1.0000   1.0000   1.0000   1.0000   1.0288   1.0288   1.0338   1.0338
     1.0244   1.0244  -0.0011  -0.0011

          k = 0.2000 0.2000 0.2000 (  2683 PWs)   bands (ev):

   -70.4577 -70.3943 -36.5830 -36.5830 -36.4947 -36.4287 -36.3384 -36.3384
    11.4523  13.7601  13.7601  14.8266  14.8266  15.2817  16.4376  16.4376
    16.8004  17.1931  17.1931  24.9241

     occupation numbers 
     1.0000   1.0000   1.0000   1.0000   1.0000   1.0000   1.0000   1.0000
     1.0000   1.0000   1.0000   1.0000   1.0000   1.0000   1.0204   1.0204
     1.0337   0.8950   0.8950  -0.0000

          k = 0.2000 0.2000 0.3000 (  2673 PWs)   bands (ev):

   -70.4477 -70.4016 -36.6055 -36.5484 -36.5381 -36.3973 -36.3706 -36.3350
    12.1879  13.9539  13.9970  14.6911  14.7325  14.9225  16.3569  16.5833
    16.7726  17.2790  17.3127  22.6981

     occupation numbers 
     1.0000   1.0000   1.0000   1.0000   1.0000   1.0000   1.0000   1.0000
     1.0000   1.0000   1.0000   1.0000   1.0000   1.0000   1.0153   1.0301
     1.0349   0.8238   0.7917  -0.0000

          k = 0.2000 0.2000 0.4000 (  2679 PWs)   bands (ev):

   -70.4357 -70.4114 -36.6133 -36.5770 -36.5053 -36.4118 -36.3713 -36.3394
    12.9233  13.8455  14.1693  14.5398  14.8560  14.9697  16.2903  16.4583
    16.7459  17.1759  17.9620  20.5900

     occupation numbers 
     1.0000   1.0000   1.0000   1.0000   1.0000   1.0000   1.0000   1.0000
     1.0000   1.0000   1.0000   1.0000   1.0000   1.0000   1.0117   1.0218
     1.0354   0.9074   0.0878  -0.0000

          k = 0.2000 0.2000-0.5000 (  2676 PWs)   bands (ev):

   -70.4232 -70.4231 -36.6036 -36.6036 -36.4582 -36.4581 -36.3517 -36.3517
    13.4634  13.4634  14.3691  14.3692  15.0295  15.0295  16.3029  16.3030
    16.9549  16.9549  18.9831  18.9831

     occupation numbers 
     1.0000   1.0000   1.0000   1.0000   1.0000   1.0000   1.0000   1.0000
     1.0000   1.0000   1.0000   1.0000   1.0000   1.0000   1.0124   1.0124
     1.0110   1.0110  -0.0060  -0.0060

          k = 0.2000 0.3000 0.3000 (  2676 PWs)   bands (ev):

   -70.4400 -70.4065 -36.6115 -36.5731 -36.5389 -36.3856 -36.3728 -36.3413
    12.7860  13.8915  14.4425  14.5196  14.5952  14.6953  16.4660  16.5686
    16.6655  17.2119  17.9172  22.8439

     occupation numbers 
     1.0000   1.0000   1.0000   1.0000   1.0000   1.0000   1.0000   1.0000
     1.0000   1.0000   1.0000   1.0000   1.0000   1.0000   1.0223   1.0292
     1.0342   0.8808   0.1207  -0.0000

          k = 0.2000 0.3000 0.4000 (  2679 PWs)   bands (ev):

   -70.4310 -70.4134 -36.6227 -36.6031 -36.5034 -36.4193 -36.3556 -36.3419
    13.2303  13.6958  14.4226  14.4237  14.9149  14.9287  16.4600  16.5162
    16.6828  17.1207  18.6471  21.2734

     occupation numbers 
     1.0000   1.0000   1.0000   1.0000   1.0000   1.0000   1.0000   1.0000
     1.0000   1.0000   1.0000   1.0000   1.0000   1.0000   1.0219   1.0257
     1.0347   0.9427  -0.0235  -0.0000

          k = 0.2000 0.3000-0.5000 (  2666 PWs)   bands (ev):

   -70.4218 -70.4217 -36.6208 -36.6208 -36.4609 -36.4608 -36.3457 -36.3456
    13.4780  13.4780  14.3910  14.3910  15.1143  15.1143  16.4642  16.4643
    16.8923  16.8923  19.7171  19.7171

     occupation numbers 
     1.0000   1.0000   1.0000   1.0000   1.0000   1.0000   1.0000   1.0000
     1.0000   1.0000   1.0000   1.0000   1.0000   1.0000   1.0222   1.0222
     1.0240   1.0240  -0.0000  -0.0000

          k = 0.2000 0.4000 0.4000 (  2655 PWs)   bands (ev):

   -70.4256 -70.4164 -36.6345 -36.6255 -36.4834 -36.4343 -36.3471 -36.3436
    13.3116  13.4803  14.3153  14.3830  15.3200  15.4198  16.5427  16.5622
    16.6411  17.0269  19.4211  21.3078

     occupation numbers 
     1.0000   1.0000   1.0000   1.0000   1.0000   1.0000   1.0000   1.0000
     1.0000   1.0000   1.0000   1.0000   1.0000   1.0000   1.0275   1.0288
     1.0332   0.9879  -0.0004  -0.0000

          k = 0.2000 0.4000-0.5000 (  2666 PWs)   bands (ev):

   -70.4206 -70.4206 -36.6369 -36.6369 -36.4574 -36.4573 -36.3443 -36.3443
    13.3547  13.3547  14.2996  14.2996  15.6371  15.6371  16.5711  16.5711
    16.7881  16.7881  20.3886  20.3886

     occupation numbers 
     1.0000   1.0000   1.0000   1.0000   1.0000   1.0000   1.0000   1.0000
     1.0000   1.0000   1.0000   1.0000   1.0002   1.0002   1.0293   1.0293
     1.0343   1.0343  -0.0000  -0.0000

          k = 0.2000-0.5000-0.5000 (  2684 PWs)   bands (ev):

   -70.4202 -70.4201 -36.6433 -36.6433 -36.4551 -36.4549 -36.3445 -36.3445
    13.2994  13.2994  14.2443  14.2443  15.9859  15.9859  16.6053  16.6053
    16.6645  16.6646  20.7212  20.7212

     occupation numbers 
     1.0000   1.0000   1.0000   1.0000   1.0000   1.0000   1.0000   1.0000
     1.0000   1.0000   1.0000   1.0000   1.0025   1.0025   1.0313   1.0313
     1.0341   1.0341  -0.0000  -0.0000

          k = 0.3000 0.3000 0.3000 (  2662 PWs)   bands (ev):

   -70.4340 -70.4097 -36.5907 -36.5734 -36.5734 -36.3770 -36.3770 -36.3601
    13.4232  14.1731  14.4114  14.4114  14.4183  14.4183  16.5599  16.5599
    16.8548  16.8548  18.6701  24.1899

     occupation numbers 
     1.0000   1.0000   1.0000   1.0000   1.0000   1.0000   1.0000   1.0000
     1.0000   1.0000   1.0000   1.0000   1.0000   1.0000   1.0286   1.0286
     1.0292   1.0292  -0.0220  -0.0000

          k = 0.3000 0.3000 0.4000 (  2677 PWs)   bands (ev):

   -70.4272 -70.4144 -36.6049 -36.5981 -36.5258 -36.4226 -36.3672 -36.3560
    13.7514  13.9287  14.3479  14.3639  14.6021  14.8026  16.5489  16.6445
    16.6583  16.8775  19.5531  22.3611

     occupation numbers 
     1.0000   1.0000   1.0000   1.0000   1.0000   1.0000   1.0000   1.0000
     1.0000   1.0000   1.0000   1.0000   1.0000   1.0000   1.0279   1.0333
     1.0339   1.0263  -0.0001  -0.0000

          k = 0.3000 0.3000-0.5000 (  2668 PWs)   bands (ev):

   -70.4204 -70.4203 -36.6086 -36.6086 -36.4739 -36.4738 -36.3592 -36.3592
    13.7978  13.7978  14.3319  14.3319  14.9109  14.9109  16.5612  16.5612
    16.7737  16.7737  20.7419  20.7419

     occupation numbers 
     1.0000   1.0000   1.0000   1.0000   1.0000   1.0000   1.0000   1.0000
     1.0000   1.0000   1.0000   1.0000   1.0000   1.0000   1.0287   1.0287
     1.0348   1.0348  -0.0000  -0.0000

          k = 0.3000 0.4000 0.4000 (  2660 PWs)   bands (ev):

   -70.4230 -70.4163 -36.6061 -36.5936 -36.5137 -36.4381 -36.3822 -36.3639
    13.8511  13.8852  14.2688  14.3799  14.8351  14.9663  16.6161  16.6508
    16.6517  16.7878  20.5546  22.8246

     occupation numbers 
     1.0000   1.0000   1.0000   1.0000   1.0000   1.0000   1.0000   1.0000
     1.0000   1.0000   1.0000   1.0000   1.0000   1.0000   1.0319   1.0336
     1.0336   1.0343  -0.0000  -0.0000

          k = 0.3000 0.4000-0.5000 (  2662 PWs)   bands (ev):

   -70.4192 -70.4192 -36.6023 -36.6023 -36.4753 -36.4751 -36.3756 -36.3756
    13.8252  13.8252  14.2832  14.2832  15.0959  15.0959  16.6307  16.6307
    16.7083  16.7083  21.7439  21.7439

     occupation numbers 
     1.0000   1.0000   1.0000   1.0000   1.0000   1.0000   1.0000   1.0000
     1.0000   1.0000   1.0000   1.0000   1.0000   1.0000   1.0327   1.0327
     1.0353   1.0353  -0.0000  -0.0000

          k = 0.3000-0.5000-0.5000 (  2660 PWs)   bands (ev):

   -70.4188 -70.4187 -36.6013 -36.6013 -36.4723 -36.4721 -36.3841 -36.3841
    13.8047  13.8047  14.2233  14.2233  15.2792  15.2792  16.6517  16.6517
    16.6750  16.6751  22.3305  22.3305

     occupation numbers 
     1.0000   1.0000   1.0000   1.0000   1.0000   1.0000   1.0000   1.0000
     1.0000   1.0000   1.0000   1.0000   1.0000   1.0000   1.0336   1.0336
     1.0345   1.0345  -0.0000  -0.0000

          k = 0.4000 0.4000 0.4000 (  2650 PWs)   bands (ev):

   -70.4203 -70.4167 -36.5861 -36.5425 -36.5425 -36.4313 -36.4313 -36.3874
    13.9909  14.2815  14.2815  14.5605  14.6297  14.6297  16.6599  16.6599
    16.6982  16.6982  21.7578  24.5181

     occupation numbers 
     1.0000   1.0000   1.0000   1.0000   1.0000   1.0000   1.0000   1.0000
     1.0000   1.0000   1.0000   1.0000   1.0000   1.0000   1.0340   1.0340
     1.0351   1.0351  -0.0000  -0.0000

          k = 0.4000 0.4000-0.5000 (  2654 PWs)   bands (ev):

   -70.4181 -70.4181 -36.5661 -36.5661 -36.4866 -36.4864 -36.4124 -36.4124
    14.1049  14.1049  14.3951  14.3952  14.7505  14.7505  16.6697  16.6697
    16.6886  16.6886  23.1132  23.1132

     occupation numbers 
     1.0000   1.0000   1.0000   1.0000   1.0000   1.0000   1.0000   1.0000
     1.0000   1.0000   1.0000   1.0000   1.0000   1.0000   1.0343   1.0343
     1.0349   1.0349  -0.0000  -0.0000

          k = 0.4000-0.5000-0.5000 (  2668 PWs)   bands (ev):

   -70.4177 -70.4176 -36.5488 -36.5488 -36.4861 -36.4860 -36.4346 -36.4346
    14.2560  14.2560  14.2725  14.2725  14.7684  14.7684  16.6799  16.6800
    16.6836  16.6836  24.0864  24.0864

     occupation numbers 
     1.0000   1.0000   1.0000   1.0000   1.0000   1.0000   1.0000   1.0000
     1.0000   1.0000   1.0000   1.0000   1.0000   1.0000   1.0346   1.0346
     1.0347   1.0347  -0.0000  -0.0000

          k =-0.5000-0.5000-0.5000 (  2608 PWs)   bands (ev):

   -70.4173 -70.4172 -36.4914 -36.4914 -36.4914 -36.4913 -36.4913 -36.4913
    14.4412  14.4412  14.4412  14.4413  14.4413  14.4413  16.6868  16.6868
    16.6869  16.6869  25.9766  25.9766

     occupation numbers 
     1.0000   1.0000   1.0000   1.0000   1.0000   1.0000   1.0000   1.0000
     1.0000   1.0000   1.0000   1.0000   1.0000   1.0000   1.0348   1.0348
     1.0348   1.0348  -0.0000  -0.0000

 ------ SPIN DOWN ----------


          k = 0.0000 0.0000 0.0000 (  2721 PWs)   bands (ev):

   -67.7975 -67.6670 -33.9596 -33.9596 -33.9596 -33.6647 -33.6647 -33.6647
     9.3785  14.7504  14.7504  17.2759  17.2759  17.2759  19.3200  19.3200
    19.8908  19.8908  19.8908  27.4510

     occupation numbers 
     1.0000   1.0000   1.0000   1.0000   1.0000   1.0000   1.0000   1.0000
     1.0000   1.0000   1.0000   0.8266   0.8266   0.8266  -0.0008  -0.0008
    -0.0000  -0.0000  -0.0000  -0.0000

          k = 0.0000 0.0000 0.1000 (  2673 PWs)   bands (ev):

   -67.7939 -67.6698 -33.9586 -33.9520 -33.9520 -33.6783 -33.6714 -33.6714
     9.5824  14.8152  14.8525  17.2668  17.2668  17.3362  19.2022  19.3644
    19.6697  19.6697  19.8232  26.3504

     occupation numbers 
     1.0000   1.0000   1.0000   1.0000   1.0000   1.0000   1.0000   1.0000
     1.0000   1.0000   1.0000   0.8348   0.8348   0.7680  -0.0017  -0.0006
    -0.0001  -0.0001  -0.0000  -0.0000

          k = 0.0000 0.0000 0.2000 (  2677 PWs)   bands (ev):

   -67.7834 -67.6778 -33.9541 -33.9299 -33.9299 -33.7159 -33.6913 -33.6913
    10.1792  14.9473  15.1520  17.2554  17.2554  17.5125  18.8601  19.1449
    19.1449  19.4847  19.6280  24.2538

     occupation numbers 
     1.0000   1.0000   1.0000   1.0000   1.0000   1.0000   1.0000   1.0000
     1.0000   1.0000   1.0000   0.8448   0.8448   0.5657  -0.0108  -0.0025
    -0.0025  -0.0002  -0.0001  -0.0000

          k = 0.0000 0.0000 0.3000 (  2701 PWs)   bands (ev):

   -67.7674 -67.6907 -33.9418 -33.8959 -33.8959 -33.7690 -33.7225 -33.7225
    11.1202  14.9488  15.6277  17.2819  17.2819  17.7900  18.3287  18.5474
    18.5474  19.3270  19.6508  22.2720

     occupation numbers 
     1.0000   1.0000   1.0000   1.0000   1.0000   1.0000   1.0000   1.0000
     1.0000   1.0000   1.0002   0.8211   0.8211   0.2369  -0.0336  -0.0301
    -0.0301  -0.0008  -0.0001  -0.0000

          k = 0.0000 0.0000 0.4000 (  2670 PWs)   bands (ev):

   -67.7480 -67.7077 -33.9172 -33.8537 -33.8537 -33.8265 -33.7625 -33.7625
    12.3071  14.5206  16.2430  17.3949  17.3949  17.6658  18.0232  18.0232
    18.1449  18.9530  19.8497  20.8777

     occupation numbers 
     1.0000   1.0000   1.0000   1.0000   1.0000   1.0000   1.0000   1.0000
     1.0000   1.0000   1.0095   0.7050   0.7050   0.3767   0.0500   0.0500
    -0.0021  -0.0070  -0.0000  -0.0000

          k = 0.0000 0.0000-0.5000 (  2666 PWs)   bands (ev):

   -67.7274 -67.7274 -33.8782 -33.8781 -33.8077 -33.8077 -33.8076 -33.8076
    13.5490  13.5490  16.9451  16.9451  17.6351  17.6351  17.6351  17.6351
    18.5453  18.5453  20.1670  20.1671

     occupation numbers 
     1.0000   1.0000   1.0000   1.0000   1.0000   1.0000   1.0000   1.0000
     1.0000   1.0000   1.0134   1.0134   0.4139   0.4139   0.4139   0.4139
    -0.0302  -0.0302  -0.0000  -0.0000

          k = 0.0000 0.1000 0.1000 (  2668 PWs)   bands (ev):

   -67.7904 -67.6723 -33.9707 -33.9447 -33.9319 -33.7047 -33.6779 -33.6646
     9.7834  14.9067  14.9243  17.1466  17.2460  17.5073  19.1864  19.3264
    19.3300  19.4521  19.9184  26.4865

     occupation numbers 
     1.0000   1.0000   1.0000   1.0000   1.0000   1.0000   1.0000   1.0000
     1.0000   1.0000   1.0000   0.9270   0.8530   0.5721  -0.0019  -0.0008
    -0.0008  -0.0003  -0.0000  -0.0000

          k = 0.0000 0.1000 0.2000 (  2675 PWs)   bands (ev):

   -67.7803 -67.6799 -33.9770 -33.9236 -33.9009 -33.7513 -33.6966 -33.6733
    10.3706  15.0462  15.2007  17.0492  17.2011  17.7670  18.7635  18.9268
    18.9559  19.4328  19.8434  24.5318

     occupation numbers 
     1.0000   1.0000   1.0000   1.0000   1.0000   1.0000   1.0000   1.0000
     1.0000   1.0000   1.0000   0.9788   0.8890   0.2611  -0.0160  -0.0080
    -0.0069  -0.0004  -0.0000  -0.0000

          k = 0.0000 0.1000 0.3000 (  2688 PWs)   bands (ev):

   -67.7651 -67.6921 -33.9720 -33.8912 -33.8626 -33.8085 -33.7262 -33.6970
    11.2934  15.0388  15.6428  17.0233  17.1613  18.0901  18.1789  18.4517
    18.4977  19.6050  19.6092  22.4942

     occupation numbers 
     1.0000   1.0000   1.0000   1.0000   1.0000   1.0000   1.0000   1.0000
     1.0000   1.0000   1.0002   0.9893   0.9174   0.0177  -0.0117  -0.0346
    -0.0328  -0.0001  -0.0001  -0.0000

          k = 0.0000 0.1000 0.4000 (  2684 PWs)   bands (ev):

   -67.7466 -67.7082 -33.9525 -33.8667 -33.8509 -33.8192 -33.7642 -33.7321
    12.4502  14.6008  16.1920  17.0824  17.1020  17.6788  18.0680  18.1069
    18.4655  19.2629  19.8218  20.9931

     occupation numbers 
     1.0000   1.0000   1.0000   1.0000   1.0000   1.0000   1.0000   1.0000
     1.0000   1.0000   1.0075   0.9634   0.9532   0.3612   0.0273   0.0110
    -0.0342  -0.0012  -0.0000  -0.0000

          k = 0.0000 0.1000-0.5000 (  2690 PWs)   bands (ev):

   -67.7269 -67.7269 -33.9167 -33.9167 -33.8071 -33.8071 -33.7743 -33.7743
    13.6527  13.6527  16.7454  16.7455  17.3157  17.3157  17.9384  17.9384
    18.8684  18.8684  20.1807  20.1808

     occupation numbers 
     1.0000   1.0000   1.0000   1.0000   1.0000   1.0000   1.0000   1.0000
     1.0000   1.0000   1.0354   1.0354   0.7888   0.7888   0.1046   0.1046
    -0.0104  -0.0104  -0.0000  -0.0000

          k = 0.0000 0.2000 0.2000 (  2674 PWs)   bands (ev):

   -67.7716 -67.6862 -33.9999 -33.9054 -33.8589 -33.8087 -33.7123 -33.6646
    10.9264  15.2272  15.3783  16.8196  17.0858  18.1489  18.1631  18.5757
    18.9942  19.3689  19.9909  24.5911

     occupation numbers 
     1.0000   1.0000   1.0000   1.0000   1.0000   1.0000   1.0000   1.0000
     1.0000   1.0000   1.0000   1.0325   0.9616  -0.0034  -0.0075  -0.0283
    -0.0057  -0.0006  -0.0000  -0.0000

          k = 0.0000 0.2000 0.3000 (  2675 PWs)   bands (ev):

   -67.7584 -67.6963 -34.0100 -33.8775 -33.8716 -33.8143 -33.7372 -33.6728
    11.7864  15.1547  15.7732  16.6819  16.9771  17.5896  18.3209  18.5603
    18.8115  19.5035  19.9344  22.8928

     occupation numbers 
     1.0000   1.0000   1.0000   1.0000   1.0000   1.0000   1.0000   1.0000
     1.0000   1.0000   1.0006   1.0347   1.0048   0.4700  -0.0331  -0.0293
    -0.0132  -0.0002  -0.0000  -0.0000

          k = 0.0000 0.2000 0.4000 (  2682 PWs)   bands (ev):

   -67.7424 -67.7098 -34.0027 -33.9301 -33.8430 -33.7700 -33.7692 -33.6955
    12.8345  14.7075  16.2271  16.6729  16.8619  17.1275  18.3169  18.5664
    18.9785  19.7106  19.7378  21.2336

     occupation numbers 
     1.0000   1.0000   1.0000   1.0000   1.0000   1.0000   1.0000   1.0000
     1.0000   1.0000   1.0089   1.0344   1.0283   0.9387  -0.0329  -0.0289
    -0.0062  -0.0000  -0.0000  -0.0000

          k = 0.0000 0.2000-0.5000 (  2688 PWs)   bands (ev):

   -67.7256 -67.7256 -33.9756 -33.9756 -33.8057 -33.8057 -33.7291 -33.7291
    13.8827  13.8827  16.6248  16.6248  16.8180  16.8180  18.4181  18.4181
    19.3751  19.3751  20.1983  20.1984

     occupation numbers 
     1.0000   1.0000   1.0000   1.0000   1.0000   1.0000   1.0000   1.0000
     1.0000   1.0000   1.0324   1.0324   1.0326   1.0326  -0.0353  -0.0353
    -0.0005  -0.0005  -0.0000  -0.0000

          k = 0.0000 0.3000 0.3000 (  2670 PWs)   bands (ev):

   -67.7483 -67.7032 -34.0358 -33.9358 -33.8567 -33.7677 -33.7547 -33.6646
    12.5137  14.9959  16.1655  16.4360  16.9049  17.0505  18.3666  19.0054
    19.0312  19.4442  20.0814  22.5807

     occupation numbers 
     1.0000   1.0000   1.0000   1.0000   1.0000   1.0000   1.0000   1.0000
     1.0000   1.0000   1.0066   1.0203   1.0219   0.9782  -0.0351  -0.0054
    -0.0047  -0.0003  -0.0000  -0.0000

          k = 0.0000 0.3000 0.4000 (  2669 PWs)   bands (ev):

   -67.7364 -67.7127 -34.0429 -33.9905 -33.8312 -33.7776 -33.7266 -33.6723
    13.3238  14.6058  16.3327  16.6267  16.6410  16.9593  18.5901  18.9518
    19.4590  19.6090  20.0280  21.2790

     occupation numbers 
     1.0000   1.0000   1.0000   1.0000   1.0000   1.0000   1.0000   1.0000
     1.0000   1.0000   1.0140   1.0325   1.0332   1.0098  -0.0274  -0.0071
    -0.0003  -0.0001  -0.0000  -0.0000

          k = 0.0000 0.3000-0.5000 (  2672 PWs)   bands (ev):

   -67.7241 -67.7240 -34.0278 -34.0278 -33.8039 -33.8039 -33.6939 -33.6939
    14.0470  14.0470  16.3980  16.3980  16.9302  16.9302  18.8222  18.8222
    19.8056  19.8056  20.1354  20.1354

     occupation numbers 
     1.0000   1.0000   1.0000   1.0000   1.0000   1.0000   1.0000   1.0000
     1.0000   1.0000   1.0179   1.0179   1.0168   1.0168  -0.0127  -0.0127
    -0.0000  -0.0000  -0.0000  -0.0000

          k = 0.0000 0.4000 0.4000 (  2684 PWs)   bands (ev):

   -67.7295 -67.7170 -34.0648 -34.0374 -33.8171 -33.7889 -33.6932 -33.6646
    13.7526  14.3577  16.1406  16.2955  17.2324  17.3835  18.8694  19.1204
    19.5292  19.8428  20.1552  20.7244

     occupation numbers 
     1.0000   1.0000   1.0000   1.0000   1.0000   1.0000   1.0000   1.0000
     1.0000   1.0000   1.0058   1.0120   0.8643   0.7177  -0.0104  -0.0029
    -0.0002  -0.0000  -0.0000  -0.0000

          k = 0.0000 0.4000-0.5000 (  2668 PWs)   bands (ev):

   -67.7228 -67.7228 -34.0633 -34.0633 -33.8024 -33.8024 -33.6720 -33.6720
    14.0770  14.0770  16.1252  16.1252  17.6231  17.6231  19.0756  19.0757
    19.8630  19.8631  20.0865  20.0865

     occupation numbers 
     1.0000   1.0000   1.0000   1.0000   1.0000   1.0000   1.0000   1.0000
     1.0000   1.0000   1.0054   1.0054   0.4287   0.4287  -0.0037  -0.0037
    -0.0000  -0.0000  -0.0000  -0.0000

          k = 0.0000-0.5000-0.5000 (  2680 PWs)   bands (ev):

   -67.7223 -67.7223 -34.0759 -34.0759 -33.8019 -33.8019 -33.6646 -33.6646
    14.0692  14.0692  16.0310  16.0310  18.1177  18.1177  19.1599  19.1599
    19.5678  19.5679  20.1836  20.1836

[...]
    11.4669  15.1400  15.6545  16.9249  16.9728  17.7424  18.3415  18.6190
    18.6683  19.5743  19.6183  22.7439

     occupation numbers 
     1.0000   1.0000   1.0000   1.0000   1.0000   1.0000   1.0000   1.0000
     1.0000   1.0000   1.0003   1.0180   1.0061   0.2879  -0.0342  -0.0254
    -0.0221  -0.0001  -0.0001  -0.0000

          k = 0.1000 0.1000 0.4000 (  2678 PWs)   bands (ev):

   -67.7451 -67.7086 -33.9670 -33.8897 -33.8610 -33.7931 -33.7663 -33.7182
    12.5964  14.6931  16.1322  16.8478  16.9943  17.4185  18.2487  18.2563
    18.7337  19.3742  19.8037  21.1620

     occupation numbers 
     1.0000   1.0000   1.0000   1.0000   1.0000   1.0000   1.0000   1.0000
     1.0000   1.0000   1.0056   1.0299   0.9995   0.6782  -0.0256  -0.0267
    -0.0178  -0.0006  -0.0000  -0.0000

          k = 0.1000 0.1000-0.5000 (  2672 PWs)   bands (ev):

   -67.7264 -67.7264 -33.9362 -33.9362 -33.8132 -33.8132 -33.7535 -33.7535
    13.7637  13.7637  16.5757  16.5757  17.1799  17.1800  18.0891  18.0891
    19.0908  19.0908  20.2304  20.2305

     occupation numbers 
     1.0000   1.0000   1.0000   1.0000   1.0000   1.0000   1.0000   1.0000
     1.0000   1.0000   1.0296   1.0296   0.9045   0.9045   0.0181   0.0181
    -0.0034  -0.0034  -0.0000  -0.0000

          k = 0.1000 0.2000 0.2000 (  2691 PWs)   bands (ev):

   -67.7690 -67.6878 -33.9913 -33.9312 -33.8326 -33.8273 -33.7052 -33.6724
    11.1110  15.3333  15.4301  16.7727  16.9174  17.6467  18.3718  18.9859
    19.0567  19.3317  19.7874  24.9663

     occupation numbers 
     1.0000   1.0000   1.0000   1.0000   1.0000   1.0000   1.0000   1.0000
     1.0000   1.0000   1.0000   1.0349   1.0195   0.3998  -0.0352  -0.0060
    -0.0041  -0.0007  -0.0000  -0.0000

          k = 0.1000 0.2000 0.3000 (  2684 PWs)   bands (ev):

   -67.7564 -67.6973 -34.0037 -33.9002 -33.8851 -33.7926 -33.7336 -33.6783
    11.9603  15.2844  15.7721  16.6244  16.7989  17.2050  18.6369  18.8009
    18.8833  19.4851  19.7640  23.2172

     occupation numbers 
     1.0000   1.0000   1.0000   1.0000   1.0000   1.0000   1.0000   1.0000
     1.0000   1.0000   1.0006   1.0324   1.0338   0.8861  -0.0242  -0.0138
    -0.0097  -0.0002  -0.0000  -0.0000

          k = 0.1000 0.2000 0.4000 (  2675 PWs)   bands (ev):

   -67.7411 -67.7101 -34.0009 -33.9385 -33.8594 -33.7714 -33.7548 -33.6952
    12.9895  14.8307  16.1302  16.5528  16.7410  16.9806  18.4703  18.6353
    19.2136  19.6156  19.7617  21.5249

     occupation numbers 
     1.0000   1.0000   1.0000   1.0000   1.0000   1.0000   1.0000   1.0000
     1.0000   1.0000   1.0055   1.0282   1.0354   1.0038  -0.0340  -0.0243
    -0.0016  -0.0001  -0.0000  -0.0000

          k = 0.1000 0.2000-0.5000 (  2686 PWs)   bands (ev):

   -67.7252 -67.7251 -33.9789 -33.9789 -33.8148 -33.8148 -33.7215 -33.7215
    14.0138  14.0138  16.4095  16.4095  16.8234  16.8234  18.4857  18.4857
    19.4434  19.4434  20.3825  20.3826

     occupation numbers 
     1.0000   1.0000   1.0000   1.0000   1.0000   1.0000   1.0000   1.0000
     1.0000   1.0000   1.0186   1.0186   1.0322   1.0322  -0.0334  -0.0334
    -0.0003  -0.0003  -0.0000  -0.0000

          k = 0.1000 0.3000 0.3000 (  2669 PWs)   bands (ev):

   -67.7468 -67.7039 -34.0263 -33.9414 -33.8775 -33.7540 -33.7530 -33.6732
    12.6862  15.1297  16.1486  16.3862  16.7150  16.7888  18.5920  19.0486
    19.3046  19.4384  19.8701  23.0088

     occupation numbers 
     1.0000   1.0000   1.0000   1.0000   1.0000   1.0000   1.0000   1.0000
     1.0000   1.0000   1.0061   1.0171   1.0354   1.0343  -0.0273  -0.0043
    -0.0009  -0.0003  -0.0000  -0.0000

          k = 0.1000 0.3000 0.4000 (  2666 PWs)   bands (ev):

   -67.7353 -67.7128 -34.0346 -33.9901 -33.8462 -33.7800 -33.7211 -33.6792
    13.4882  14.7412  16.2745  16.4084  16.6511  16.7625  18.7055  18.9855
    19.5210  19.8114  19.8593  21.7378

     occupation numbers 
     1.0000   1.0000   1.0000   1.0000   1.0000   1.0000   1.0000   1.0000
     1.0000   1.0000   1.0110   1.0185   1.0336   1.0351  -0.0196  -0.0060
    -0.0002  -0.0000  -0.0000  -0.0000

          k = 0.1000 0.3000-0.5000 (  2672 PWs)   bands (ev):

   -67.7236 -67.7236 -34.0227 -34.0227 -33.8122 -33.8122 -33.6956 -33.6956
    14.1950  14.1950  16.2955  16.2955  16.8071  16.8071  18.8654  18.8654
    19.6507  19.6507  20.5927  20.5927

     occupation numbers 
     1.0000   1.0000   1.0000   1.0000   1.0000   1.0000   1.0000   1.0000
     1.0000   1.0000   1.0120   1.0120   1.0333   1.0333  -0.0106  -0.0105
    -0.0001  -0.0001  -0.0000  -0.0000

          k = 0.1000 0.4000 0.4000 (  2670 PWs)   bands (ev):

   -67.7287 -67.7168 -34.0546 -34.0314 -33.8280 -33.7927 -33.6956 -33.6739
    13.9147  14.4962  16.0984  16.2211  17.0778  17.1047  18.9434  19.1502
    19.5327  19.8298  20.2459  21.3932

     occupation numbers 
     1.0000   1.0000   1.0000   1.0000   1.0000   1.0000   1.0000   1.0000
     1.0000   1.0000   1.0047   1.0086   0.9656   0.9517  -0.0074  -0.0024
    -0.0002  -0.0000  -0.0000  -0.0000

          k = 0.1000 0.4000-0.5000 (  2668 PWs)   bands (ev):

   -67.7223 -67.7223 -34.0541 -34.0541 -33.8092 -33.8092 -33.6796 -33.6796
    14.2260  14.2260  16.0775  16.0775  17.3532  17.3532  19.1131  19.1131
    19.6537  19.6538  20.7348  20.7348

     occupation numbers 
     1.0000   1.0000   1.0000   1.0000   1.0000   1.0000   1.0000   1.0000
     1.0000   1.0000   1.0042   1.0042   0.7504   0.7504  -0.0030  -0.0030
    -0.0001  -0.0001  -0.0000  -0.0000

          k = 0.1000-0.5000-0.5000 (  2684 PWs)   bands (ev):

   -67.7218 -67.7218 -34.0654 -34.0654 -33.8080 -33.8080 -33.6742 -33.6742
    14.2166  14.2166  15.9932  15.9932  17.7120  17.7120  19.1961  19.1961
    19.5722  19.5723  20.7702  20.7702

     occupation numbers 
     1.0000   1.0000   1.0000   1.0000   1.0000   1.0000   1.0000   1.0000
     1.0000   1.0000   1.0026   1.0026   0.3223   0.3223  -0.0018  -0.0018
    -0.0001  -0.0001  -0.0000  -0.0000

          k = 0.2000 0.2000 0.2000 (  2683 PWs)   bands (ev):

   -67.7617 -67.6926 -33.9663 -33.9663 -33.8694 -33.7946 -33.6950 -33.6950
    11.6434  15.5733  15.5733  16.6493  16.6493  17.0001  18.8162  19.2217
    19.2217  19.3567  19.3567  25.9119

     occupation numbers 
     1.0000   1.0000   1.0000   1.0000   1.0000   1.0000   1.0000   1.0000
     1.0000   1.0001   1.0001   1.0335   1.0335   0.9976  -0.0130  -0.0015
    -0.0015  -0.0006  -0.0006  -0.0000

          k = 0.2000 0.2000 0.3000 (  2673 PWs)   bands (ev):

   -67.7507 -67.7005 -33.9919 -33.9279 -33.9178 -33.7599 -33.7307 -33.6913
    12.4536  15.5919  15.7720  16.4872  16.4885  16.6524  18.9605  19.0513
    19.3013  19.4459  19.5161  23.9076

     occupation numbers 
     1.0000   1.0000   1.0000   1.0000   1.0000   1.0000   1.0000   1.0000
     1.0000   1.0002   1.0006   1.0238   1.0238   1.0337  -0.0068  -0.0042
    -0.0009  -0.0003  -0.0002  -0.0000

          k = 0.2000 0.2000 0.4000 (  2679 PWs)   bands (ev):

   -67.7376 -67.7111 -34.0011 -33.9611 -33.8800 -33.7763 -33.7312 -33.6962
    13.4095  15.0870  15.9782  16.3236  16.4983  16.6935  18.7397  18.8605
    19.4977  19.5333  19.9953  22.1280

     occupation numbers 
     1.0000   1.0000   1.0000   1.0000   1.0000   1.0000   1.0000   1.0000
     1.0000   1.0000   1.0024   1.0135   1.0245   1.0350  -0.0174  -0.0108
    -0.0002  -0.0002  -0.0000  -0.0000

          k = 0.2000 0.2000-0.5000 (  2676 PWs)   bands (ev):

   -67.7239 -67.7239 -33.9906 -33.9906 -33.8277 -33.8277 -33.7097 -33.7097
    14.3301  14.3301  16.1598  16.1598  16.6354  16.6354  18.7253  18.7254
    19.5276  19.5276  20.8504  20.8504

     occupation numbers 
     1.0000   1.0000   1.0000   1.0000   1.0000   1.0000   1.0000   1.0000
     1.0000   1.0000   1.0064   1.0064   1.0329   1.0329  -0.0183  -0.0183
    -0.0002  -0.0002  -0.0000  -0.0000

          k = 0.2000 0.3000 0.3000 (  2676 PWs)   bands (ev):

   -67.7423 -67.7058 -33.9988 -33.9567 -33.9175 -33.7473 -33.7328 -33.6984
    13.1722  15.4834  16.0968  16.2583  16.3015  16.3625  18.9753  19.1854
    19.4158  19.5177  19.8871  24.0066

     occupation numbers 
     1.0000   1.0000   1.0000   1.0000   1.0000   1.0000   1.0000   1.0000
     1.0000   1.0001   1.0046   1.0102   1.0123   1.0157  -0.0063  -0.0019
    -0.0004  -0.0002  -0.0000  -0.0000

          k = 0.2000 0.3000 0.4000 (  2679 PWs)   bands (ev):

   -67.7324 -67.7132 -34.0117 -33.9902 -33.8780 -33.7846 -33.7139 -33.6991
    13.9430  15.0878  16.1006  16.1318  16.3797  16.4841  18.9590  19.1190
    19.5264  19.5629  20.5201  22.6507

     occupation numbers 
     1.0000   1.0000   1.0000   1.0000   1.0000   1.0000   1.0000   1.0000
     1.0000   1.0000   1.0047   1.0056   1.0167   1.0235  -0.0068  -0.0029
    -0.0002  -0.0001  -0.0000  -0.0000

          k = 0.2000 0.3000-0.5000 (  2666 PWs)   bands (ev):

   -67.7223 -67.7223 -34.0098 -34.0098 -33.8308 -33.8307 -33.7032 -33.7031
    14.5868  14.5868  16.0784  16.0784  16.5176  16.5176  19.0191  19.0191
    19.5707  19.5707  21.3859  21.3859

     occupation numbers 
     1.0000   1.0000   1.0000   1.0000   1.0000   1.0000   1.0000   1.0000
     1.0000   1.0000   1.0042   1.0042   1.0258   1.0258  -0.0050  -0.0050
    -0.0001  -0.0001  -0.0000  -0.0000

          k = 0.2000 0.4000 0.4000 (  2655 PWs)   bands (ev):

   -67.7266 -67.7165 -34.0250 -34.0152 -33.8557 -33.8011 -33.7048 -33.7012
    14.3671  14.8647  15.9927  16.0527  16.5776  16.7139  19.1244  19.2541
    19.5400  19.5956  21.1049  22.5532

     occupation numbers 
     1.0000   1.0000   1.0000   1.0000   1.0000   1.0000   1.0000   1.0000
     1.0000   1.0000   1.0026   1.0036   1.0297   1.0353  -0.0028  -0.0013
    -0.0002  -0.0001  -0.0000  -0.0000

          k = 0.2000 0.4000-0.5000 (  2666 PWs)   bands (ev):

   -67.7211 -67.7210 -34.0278 -34.0278 -33.8267 -33.8267 -33.7019 -33.7019
    14.6334  14.6334  15.9626  15.9626  16.8212  16.8212  19.2288  19.2289
    19.5827  19.5828  21.8095  21.8095

     occupation numbers 
     1.0000   1.0000   1.0000   1.0000   1.0000   1.0000   1.0000   1.0000
     1.0000   1.0000   1.0021   1.0021   1.0323   1.0323  -0.0015  -0.0015
    -0.0001  -0.0001  -0.0000  -0.0000

          k = 0.2000-0.5000-0.5000 (  2684 PWs)   bands (ev):

   -67.7206 -67.7205 -34.0350 -34.0350 -33.8240 -33.8240 -33.7022 -33.7022
    14.6207  14.6207  15.8997  15.8997  17.0433  17.0433  19.2960  19.2960
    19.5837  19.5838  21.9796  21.9796

     occupation numbers 
     1.0000   1.0000   1.0000   1.0000   1.0000   1.0000   1.0000   1.0000
     1.0000   1.0000   1.0015   1.0015   0.9813   0.9813  -0.0010  -0.0009
    -0.0001  -0.0001  -0.0000  -0.0000

          k = 0.3000 0.3000 0.3000 (  2662 PWs)   bands (ev):

   -67.7358 -67.7092 -33.9763 -33.9564 -33.9564 -33.7381 -33.7381 -33.7189
    13.8643  15.7317  16.0184  16.0184  16.1047  16.1047  19.2826  19.2826
    19.3684  19.3684  20.5530  25.2886

     occupation numbers 
     1.0000   1.0000   1.0000   1.0000   1.0000   1.0000   1.0000   1.0000
     1.0000   1.0005   1.0030   1.0030   1.0048   1.0048  -0.0010  -0.0010
    -0.0006  -0.0006  -0.0000  -0.0000

          k = 0.3000 0.3000 0.4000 (  2677 PWs)   bands (ev):

   -67.7282 -67.7143 -33.9920 -33.9842 -33.9034 -33.7887 -33.7272 -33.7145
    14.5473  15.3719  15.9470  15.9814  16.0828  16.2813  19.2024  19.2986
    19.4711  19.5192  21.2835  23.6212

     occupation numbers 
     1.0000   1.0000   1.0000   1.0000   1.0000   1.0000   1.0000   1.0000
     1.0000   1.0000   1.0020   1.0024   1.0043   1.0113  -0.0017  -0.0009
    -0.0003  -0.0002  -0.0000  -0.0000

          k = 0.3000 0.3000-0.5000 (  2668 PWs)   bands (ev):

   -67.7208 -67.7207 -33.9962 -33.9962 -33.8456 -33.8456 -33.7182 -33.7182
    15.0171  15.0171  15.9263  15.9263  16.2604  16.2604  19.2283  19.2283
    19.5560  19.5560  22.2451  22.2451

     occupation numbers 
     1.0000   1.0000   1.0000   1.0000   1.0000   1.0000   1.0000   1.0000
     1.0000   1.0000   1.0017   1.0017   1.0103   1.0103  -0.0015  -0.0015
    -0.0001  -0.0001  -0.0000  -0.0000

          k = 0.3000 0.4000 0.4000 (  2660 PWs)   bands (ev):

   -67.7237 -67.7163 -33.9934 -33.9794 -33.8901 -33.8059 -33.7440 -33.7234
    14.9987  15.2930  15.8758  15.9290  16.1004  16.3213  19.3349  19.4031
    19.5158  19.5437  22.0875  23.9483

     occupation numbers 
     1.0000   1.0000   1.0000   1.0000   1.0000   1.0000   1.0000   1.0000
     1.0000   1.0000   1.0012   1.0017   1.0047   1.0133  -0.0007  -0.0004
    -0.0002  -0.0002  -0.0000  -0.0000

          k = 0.3000 0.4000-0.5000 (  2662 PWs)   bands (ev):

   -67.7195 -67.7195 -33.9893 -33.9893 -33.8472 -33.8471 -33.7367 -33.7367
    15.1658  15.1658  15.8540  15.8540  16.3276  16.3276  19.3870  19.3870
    19.5739  19.5739  23.0315  23.0315

     occupation numbers 
     1.0000   1.0000   1.0000   1.0000   1.0000   1.0000   1.0000   1.0000
     1.0000   1.0000   1.0011   1.0011   1.0137   1.0137  -0.0005  -0.0005
    -0.0001  -0.0001  -0.0000  -0.0000

          k = 0.3000-0.5000-0.5000 (  2660 PWs)   bands (ev):

   -67.7190 -67.7190 -33.9882 -33.9882 -33.8437 -33.8437 -33.7463 -33.7463
    15.1622  15.1622  15.8014  15.8014  16.4706  16.4706  19.4331  19.4331
    19.5980  19.5981  23.4459  23.4459

     occupation numbers 
     1.0000   1.0000   1.0000   1.0000   1.0000   1.0000   1.0000   1.0000
     1.0000   1.0000   1.0008   1.0008   1.0226   1.0226  -0.0004  -0.0004
    -0.0001  -0.0001  -0.0000  -0.0000

          k = 0.4000 0.4000 0.4000 (  2650 PWs)   bands (ev):

   -67.7207 -67.7168 -33.9711 -33.9224 -33.9224 -33.7987 -33.7987 -33.7497
    15.4818  15.5728  15.8096  15.8096  16.0171  16.0171  19.5073  19.5073
    19.5379  19.5379  23.1091  25.5226

     occupation numbers 
     1.0000   1.0000   1.0000   1.0000   1.0000   1.0000   1.0000   1.0000
     1.0001   1.0001   1.0008   1.0008   1.0030   1.0030  -0.0002  -0.0002
    -0.0002  -0.0002  -0.0000  -0.0000

          k = 0.4000 0.4000-0.5000 (  2654 PWs)   bands (ev):

   -67.7183 -67.7182 -33.9489 -33.9489 -33.8601 -33.8601 -33.7776 -33.7776
    15.5460  15.5460  15.8465  15.8465  16.0233  16.0233  19.5226  19.5226
    19.5851  19.5852  24.2565  24.2565

     occupation numbers 
     1.0000   1.0000   1.0000   1.0000   1.0000   1.0000   1.0000   1.0000
     1.0001   1.0001   1.0010   1.0010   1.0031   1.0031  -0.0002  -0.0002
    -0.0001  -0.0001  -0.0000  -0.0000

          k = 0.4000-0.5000-0.5000 (  2668 PWs)   bands (ev):

   -67.7178 -67.7178 -33.9297 -33.9297 -33.8596 -33.8596 -33.8025 -33.8025
    15.6413  15.6413  15.7610  15.7610  16.0655  16.0655  19.5601  19.5601
    19.6096  19.6097  25.0830  25.0830

     occupation numbers 
     1.0000   1.0000   1.0000   1.0000   1.0000   1.0000   1.0000   1.0000
     1.0002   1.0002   1.0006   1.0006   1.0039   1.0039  -0.0001  -0.0001
    -0.0001  -0.0001  -0.0000  -0.0000

          k =-0.5000-0.5000-0.5000 (  2608 PWs)   bands (ev):

   -67.7173 -67.7173 -33.8657 -33.8657 -33.8657 -33.8656 -33.8656 -33.8656
    15.8356  15.8356  15.8356  15.8356  15.8356  15.8356  19.6141  19.6141
    19.6141  19.6141  26.8561  26.8562

     occupation numbers 
     1.0000   1.0000   1.0000   1.0000   1.0000   1.0000   1.0000   1.0000
     1.0010   1.0010   1.0010   1.0010   1.0010   1.0010  -0.0001  -0.0001
    -0.0001  -0.0001  -0.0000  -0.0000

     the Fermi energy is    17.5655 ev

!    total energy              =    -658.53770110 Ry
     total all-electron energy =     -5091.130767 Ry
     estimated scf accuracy    <          1.1E-10 Ry
     smearing contrib. (-TS)   =       0.00836580 Ry
     internal energy E=F+TS    =    -658.54606690 Ry

     The total energy is F=E-TS. E is the sum of the following terms:
     one-electron contribution =    -225.20474659 Ry
     hartree contribution      =     132.12165175 Ry
     xc contribution           =     -55.48565041 Ry
     ewald contribution        =    -344.39296900 Ry
     one-center paw contrib.   =    -165.58435265 Ry
      -> PAW hartree energy AE =     182.94530184 Ry
      -> PAW hartree energy PS =    -181.64746261 Ry
      -> PAW xc energy AE      =    -110.15961407 Ry
      -> PAW xc energy PS      =      26.06959776 Ry
      -> total E_H with PAW    =     133.41949098 Ry
      -> total E_XC with PAW   =    -139.57566672 Ry

     total magnetization       =     4.45 Bohr mag/cell
     absolute magnetization    =     4.72 Bohr mag/cell

     convergence has been achieved in  12 iterations

     Writing all to output data dir ./out/Fe.save/ :
     XML data file, charge density, pseudopotentials, collected wavefunctions

     init_run     :      1.17s CPU      1.33s WALL (       1 calls)
     electrons    :     55.78s CPU     57.07s WALL (       1 calls)

     Called by init_run:
     wfcinit      :      0.33s CPU      0.37s WALL (       1 calls)
     potinit      :      0.48s CPU      0.55s WALL (       1 calls)
     hinit0       :      0.25s CPU      0.27s WALL (       1 calls)

     Called by electrons:
     c_bands      :     42.95s CPU     43.90s WALL (      13 calls)
     sum_band     :      7.83s CPU      8.01s WALL (      13 calls)
     v_of_rho     :      0.31s CPU      0.34s WALL (      13 calls)
     v_h          :      0.01s CPU      0.01s WALL (      13 calls)
     v_xc         :      0.30s CPU      0.33s WALL (      13 calls)
     newd         :      0.79s CPU      0.81s WALL (      13 calls)
     PAW_pot      :      4.09s CPU      4.26s WALL (      13 calls)
     mix_rho      :      0.09s CPU      0.11s WALL (      13 calls)

     Called by c_bands:
     init_us_2    :      0.39s CPU      0.40s WALL (    2912 calls)
     cegterg      :     41.45s CPU     42.36s WALL (    1456 calls)

     Called by sum_band:
     sum_band:wei :      0.07s CPU      0.07s WALL (      13 calls)
     sum_band:loo :      6.51s CPU      6.64s WALL (      13 calls)
     sum_band:buf :      0.04s CPU      0.04s WALL (    1456 calls)
     sum_band:ini :      0.17s CPU      0.18s WALL (    1456 calls)
     sum_band:cal :      1.19s CPU      1.22s WALL (    1456 calls)
     sum_band:bec :      0.04s CPU      0.04s WALL (    1456 calls)
     addusdens    :      0.89s CPU      0.92s WALL (      13 calls)
                                        0.00s GPU  (      13 calls)
     addusd:skk   :      0.00s CPU      0.00s WALL (      13 calls)
                                        0.00s GPU  (      13 calls)

     Called by *egterg:
     cdiaghg      :      2.79s CPU      2.86s WALL (    4200 calls)
     cegterg:over :      4.02s CPU      4.09s WALL (    2968 calls)
     cegterg:upda :      1.09s CPU      1.11s WALL (    2968 calls)
     cegterg:last :      2.28s CPU      2.31s WALL (    2420 calls)
     h_psi        :     25.64s CPU     26.27s WALL (    4424 calls)
     s_psi        :      1.76s CPU      1.79s WALL (    4424 calls)
     g_psi        :      0.09s CPU      0.09s WALL (    2968 calls)

     Called by h_psi:
     h_psi:calbec :      2.83s CPU      2.90s WALL (    4424 calls)
     vloc_psi     :     20.95s CPU     21.47s WALL (    4424 calls)
     add_vuspsi   :      1.77s CPU      1.81s WALL (    4424 calls)

     General routines
     calbec       :      4.01s CPU      4.11s WALL (    5880 calls)
     fft          :      0.31s CPU      0.34s WALL (     321 calls)
     ffts         :      0.18s CPU      0.18s WALL (      52 calls)
     fftw         :     23.90s CPU     24.49s WALL (  161482 calls)
     interpolate  :      0.19s CPU      0.19s WALL (      26 calls)

     Parallel routines

     PAW routines
     PAW_pot      :      4.09s CPU      4.26s WALL (      13 calls)
     PAW_symme    :      0.03s CPU      0.03s WALL (      25 calls)

     PWSCF        :     57.42s CPU     59.12s WALL


   This run was terminated on:   7: 3:19  16Apr2024            

=------------------------------------------------------------------------------=
   JOB DONE.
=------------------------------------------------------------------------------=
