### Running on host: unam-asus

     Program PWSCF v.7.3.1 starts on 16Apr2024 at  7: 6:20 

     This program is part of the open-source Quantum ESPRESSO suite
     for quantum simulation of materials; please cite
         "P. Giannozzi et al., J. Phys.:Condens. Matter 21 395502 (2009);
         "P. Giannozzi et al., J. Phys.:Condens. Matter 29 465901 (2017);
         "P. Giannozzi et al., J. Chem. Phys. 152 154105 (2020);
          URL http://www.quantum-espresso.org", 
     in publications or presentations arising from this work. More details at
     http://www.quantum-espresso.org/quote

     Parallel version (MPI), running on    10 processors

     MPI processes distributed on     1 nodes
     888 MiB available memory on the printing compute node when the environment starts

     Reading input from scf.m-v.degauss-0.007.in

     Current dimensions of program PWSCF are:
     Max number of different atomic species (ntypx) = 10
     Max number of k-points (npk) =  40000
     Max angular momentum in pseudopotentials (lmaxx) =  4
     file Fe.pbe-spn-kjpaw_psl.1.0.0.UPF: wavefunction(s)  3P 3D renormalized
     Found identity + ( -0.5000 -0.5000 -0.5000) symmetry
     This is a supercell, fractional translations are disabled
     Message from routine setup:
     using ibrav=0 with symmetry is DISCOURAGED, use correct ibrav instead

     R & G space division:  proc/nbgrp/npool/nimage =      10
     Subspace diagonalization in iterative solution of the eigenvalue problem:
     a serial algorithm will be used


     Parallelization info
     --------------------
     sticks:   dense  smooth     PW     G-vecs:    dense   smooth      PW
     Min         161      94     28                 4947     2136     356
     Max         162      95     30                 4952     2138     358
     Sum        1617     941    285                49509    21367    3575

     Using Slab Decomposition



     bravais-lattice index     =            0
     lattice parameter (alat)  =       5.4104  a.u.
     unit-cell volume          =     158.3714 (a.u.)^3
     number of atoms/cell      =            2
     number of atomic types    =            1
     number of electrons       =        32.00
     number of Kohn-Sham states=           20
     kinetic-energy cutoff     =     100.0000  Ry
     charge density cutoff     =     700.0000  Ry
     scf convergence threshold =      4.0E-10
     mixing beta               =       0.4000
     number of iterations used =            8  plain     mixing
     Exchange-correlation= SLA  PW   PBX  PBC
                           (   1   4   3   4   0   0   0)

     celldm(1)=   5.410353  celldm(2)=   0.000000  celldm(3)=   0.000000
     celldm(4)=   0.000000  celldm(5)=   0.000000  celldm(6)=   0.000000

     crystal axes: (cart. coord. in units of alat)
               a(1) = (   1.000000   0.000000   0.000000 )  
               a(2) = (   0.000000   1.000000   0.000000 )  
               a(3) = (   0.000000   0.000000   1.000000 )  

     reciprocal axes: (cart. coord. in units 2 pi/alat)
               b(1) = (  1.000000  0.000000  0.000000 )  
               b(2) = (  0.000000  1.000000  0.000000 )  
               b(3) = (  0.000000  0.000000  1.000000 )  


     PseudoPot. # 1 for Fe read from file:
     /home/abdul/git_repo/ZnS/pseudo/QE/Fe.pbe-spn-kjpaw_psl.1.0.0.UPF
     MD5 check sum: fc81f059e5c5069939230b1155715ae8
     Pseudo is Projector augmented-wave + core cor, Zval = 16.0
     Generated using &quot;atomic&quot; code by A. Dal Corso  v.6.3
     Shape of augmentation charge: PSQ
     Using radial grid of 1191 points,  6 beta functions with: 
                l(1) =   0
                l(2) =   0
                l(3) =   1
                l(4) =   1
                l(5) =   2
                l(6) =   2
     Q(r) pseudized with 0 coefficients 


     atomic species   valence    mass     pseudopotential
     Fe               16.00    55.84500     Fe( 1.00)

     Starting magnetic structure 
     atomic species   magnetization
     Fe              0.312

     48 Sym. Ops., with inversion, found


                                    s                        frac. trans.

      isym =  1     identity                                     

 cryst.   s( 1) = (     1          0          0      )
                  (     0          1          0      )
                  (     0          0          1      )

 cart.    s( 1) = (  1.0000000  0.0000000  0.0000000 )
                  (  0.0000000  1.0000000  0.0000000 )
                  (  0.0000000  0.0000000  1.0000000 )


      isym =  2     180 deg rotation - cart. axis [0,0,1]        

 cryst.   s( 2) = (    -1          0          0      )
                  (     0         -1          0      )
                  (     0          0          1      )

 cart.    s( 2) = ( -1.0000000  0.0000000  0.0000000 )
                  (  0.0000000 -1.0000000  0.0000000 )
                  (  0.0000000  0.0000000  1.0000000 )


      isym =  3     180 deg rotation - cart. axis [0,1,0]        

 cryst.   s( 3) = (    -1          0          0      )
                  (     0          1          0      )
                  (     0          0         -1      )

 cart.    s( 3) = ( -1.0000000  0.0000000  0.0000000 )
                  (  0.0000000  1.0000000  0.0000000 )
                  (  0.0000000  0.0000000 -1.0000000 )


      isym =  4     180 deg rotation - cart. axis [1,0,0]        

 cryst.   s( 4) = (     1          0          0      )
                  (     0         -1          0      )
                  (     0          0         -1      )

 cart.    s( 4) = (  1.0000000  0.0000000  0.0000000 )
                  (  0.0000000 -1.0000000  0.0000000 )
                  (  0.0000000  0.0000000 -1.0000000 )


      isym =  5     180 deg rotation - cart. axis [1,1,0]        

 cryst.   s( 5) = (     0          1          0      )
                  (     1          0          0      )
                  (     0          0         -1      )

 cart.    s( 5) = (  0.0000000  1.0000000  0.0000000 )
                  (  1.0000000  0.0000000  0.0000000 )
                  (  0.0000000  0.0000000 -1.0000000 )


      isym =  6     180 deg rotation - cart. axis [1,-1,0]       

 cryst.   s( 6) = (     0         -1          0      )
                  (    -1          0          0      )
                  (     0          0         -1      )

 cart.    s( 6) = (  0.0000000 -1.0000000  0.0000000 )
                  ( -1.0000000  0.0000000  0.0000000 )
                  (  0.0000000  0.0000000 -1.0000000 )


      isym =  7      90 deg rotation - cart. axis [0,0,-1]       

 cryst.   s( 7) = (     0         -1          0      )
                  (     1          0          0      )
                  (     0          0          1      )

 cart.    s( 7) = (  0.0000000  1.0000000  0.0000000 )
                  ( -1.0000000  0.0000000  0.0000000 )
                  (  0.0000000  0.0000000  1.0000000 )


      isym =  8      90 deg rotation - cart. axis [0,0,1]        

 cryst.   s( 8) = (     0          1          0      )
                  (    -1          0          0      )
                  (     0          0          1      )

 cart.    s( 8) = (  0.0000000 -1.0000000  0.0000000 )
                  (  1.0000000  0.0000000  0.0000000 )
                  (  0.0000000  0.0000000  1.0000000 )


      isym =  9     180 deg rotation - cart. axis [1,0,1]        

 cryst.   s( 9) = (     0          0          1      )
                  (     0         -1          0      )
                  (     1          0          0      )

 cart.    s( 9) = (  0.0000000  0.0000000  1.0000000 )
                  (  0.0000000 -1.0000000  0.0000000 )
                  (  1.0000000  0.0000000  0.0000000 )


      isym = 10     180 deg rotation - cart. axis [-1,0,1]       

 cryst.   s(10) = (     0          0         -1      )
                  (     0         -1          0      )
                  (    -1          0          0      )

 cart.    s(10) = (  0.0000000  0.0000000 -1.0000000 )
                  (  0.0000000 -1.0000000  0.0000000 )
                  ( -1.0000000  0.0000000  0.0000000 )


      isym = 11      90 deg rotation - cart. axis [0,1,0]        

 cryst.   s(11) = (     0          0         -1      )
                  (     0          1          0      )
                  (     1          0          0      )

 cart.    s(11) = (  0.0000000  0.0000000  1.0000000 )
                  (  0.0000000  1.0000000  0.0000000 )
                  ( -1.0000000  0.0000000  0.0000000 )


      isym = 12      90 deg rotation - cart. axis [0,-1,0]       

 cryst.   s(12) = (     0          0          1      )
                  (     0          1          0      )
                  (    -1          0          0      )

 cart.    s(12) = (  0.0000000  0.0000000 -1.0000000 )
                  (  0.0000000  1.0000000  0.0000000 )
                  (  1.0000000  0.0000000  0.0000000 )


      isym = 13     180 deg rotation - cart. axis [0,1,1]        

 cryst.   s(13) = (    -1          0          0      )
                  (     0          0          1      )
                  (     0          1          0      )

 cart.    s(13) = ( -1.0000000  0.0000000  0.0000000 )
                  (  0.0000000  0.0000000  1.0000000 )
                  (  0.0000000  1.0000000  0.0000000 )


      isym = 14     180 deg rotation - cart. axis [0,1,-1]       

 cryst.   s(14) = (    -1          0          0      )
                  (     0          0         -1      )
                  (     0         -1          0      )

 cart.    s(14) = ( -1.0000000  0.0000000  0.0000000 )
                  (  0.0000000  0.0000000 -1.0000000 )
                  (  0.0000000 -1.0000000  0.0000000 )


      isym = 15      90 deg rotation - cart. axis [-1,0,0]       

 cryst.   s(15) = (     1          0          0      )
                  (     0          0         -1      )
                  (     0          1          0      )

 cart.    s(15) = (  1.0000000  0.0000000  0.0000000 )
                  (  0.0000000  0.0000000  1.0000000 )
                  (  0.0000000 -1.0000000  0.0000000 )


      isym = 16      90 deg rotation - cart. axis [1,0,0]        

 cryst.   s(16) = (     1          0          0      )
                  (     0          0          1      )
                  (     0         -1          0      )

 cart.    s(16) = (  1.0000000  0.0000000  0.0000000 )
                  (  0.0000000  0.0000000 -1.0000000 )
                  (  0.0000000  1.0000000  0.0000000 )


      isym = 17     120 deg rotation - cart. axis [-1,-1,-1]     

 cryst.   s(17) = (     0          0          1      )
                  (     1          0          0      )
                  (     0          1          0      )

 cart.    s(17) = (  0.0000000  1.0000000  0.0000000 )
                  (  0.0000000  0.0000000  1.0000000 )
                  (  1.0000000  0.0000000  0.0000000 )


      isym = 18     120 deg rotation - cart. axis [-1,1,1]       

 cryst.   s(18) = (     0          0         -1      )
                  (    -1          0          0      )
                  (     0          1          0      )

 cart.    s(18) = (  0.0000000 -1.0000000  0.0000000 )
                  (  0.0000000  0.0000000  1.0000000 )
                  ( -1.0000000  0.0000000  0.0000000 )


      isym = 19     120 deg rotation - cart. axis [1,1,-1]       

 cryst.   s(19) = (     0          0         -1      )
                  (     1          0          0      )
                  (     0         -1          0      )

 cart.    s(19) = (  0.0000000  1.0000000  0.0000000 )
                  (  0.0000000  0.0000000 -1.0000000 )
                  ( -1.0000000  0.0000000  0.0000000 )


      isym = 20     120 deg rotation - cart. axis [1,-1,1]       

 cryst.   s(20) = (     0          0          1      )
                  (    -1          0          0      )
                  (     0         -1          0      )

 cart.    s(20) = (  0.0000000 -1.0000000  0.0000000 )
                  (  0.0000000  0.0000000 -1.0000000 )
                  (  1.0000000  0.0000000  0.0000000 )


      isym = 21     120 deg rotation - cart. axis [1,1,1]        

 cryst.   s(21) = (     0          1          0      )
                  (     0          0          1      )
                  (     1          0          0      )

 cart.    s(21) = (  0.0000000  0.0000000  1.0000000 )
                  (  1.0000000  0.0000000  0.0000000 )
                  (  0.0000000  1.0000000  0.0000000 )


      isym = 22     120 deg rotation - cart. axis [-1,1,-1]      

 cryst.   s(22) = (     0         -1          0      )
                  (     0          0         -1      )
                  (     1          0          0      )

 cart.    s(22) = (  0.0000000  0.0000000  1.0000000 )
                  ( -1.0000000  0.0000000  0.0000000 )
                  (  0.0000000 -1.0000000  0.0000000 )


      isym = 23     120 deg rotation - cart. axis [1,-1,-1]      

 cryst.   s(23) = (     0         -1          0      )
                  (     0          0          1      )
                  (    -1          0          0      )

 cart.    s(23) = (  0.0000000  0.0000000 -1.0000000 )
                  ( -1.0000000  0.0000000  0.0000000 )
                  (  0.0000000  1.0000000  0.0000000 )


      isym = 24     120 deg rotation - cart. axis [-1,-1,1]      

 cryst.   s(24) = (     0          1          0      )
                  (     0          0         -1      )
                  (    -1          0          0      )

 cart.    s(24) = (  0.0000000  0.0000000 -1.0000000 )
                  (  1.0000000  0.0000000  0.0000000 )
                  (  0.0000000 -1.0000000  0.0000000 )


      isym = 25     inversion                                    

 cryst.   s(25) = (    -1          0          0      )
                  (     0         -1          0      )
                  (     0          0         -1      )

 cart.    s(25) = ( -1.0000000  0.0000000  0.0000000 )
                  (  0.0000000 -1.0000000  0.0000000 )
                  (  0.0000000  0.0000000 -1.0000000 )


      isym = 26     inv. 180 deg rotation - cart. axis [0,0,1]   

 cryst.   s(26) = (     1          0          0      )
                  (     0          1          0      )
                  (     0          0         -1      )

 cart.    s(26) = (  1.0000000  0.0000000  0.0000000 )
                  (  0.0000000  1.0000000  0.0000000 )
                  (  0.0000000  0.0000000 -1.0000000 )


      isym = 27     inv. 180 deg rotation - cart. axis [0,1,0]   

 cryst.   s(27) = (     1          0          0      )
                  (     0         -1          0      )
                  (     0          0          1      )

 cart.    s(27) = (  1.0000000  0.0000000  0.0000000 )
                  (  0.0000000 -1.0000000  0.0000000 )
                  (  0.0000000  0.0000000  1.0000000 )


      isym = 28     inv. 180 deg rotation - cart. axis [1,0,0]   

 cryst.   s(28) = (    -1          0          0      )
                  (     0          1          0      )
                  (     0          0          1      )

 cart.    s(28) = ( -1.0000000  0.0000000  0.0000000 )
                  (  0.0000000  1.0000000  0.0000000 )
                  (  0.0000000  0.0000000  1.0000000 )


      isym = 29     inv. 180 deg rotation - cart. axis [1,1,0]   

 cryst.   s(29) = (     0         -1          0      )
                  (    -1          0          0      )
                  (     0          0          1      )

 cart.    s(29) = (  0.0000000 -1.0000000  0.0000000 )
                  ( -1.0000000  0.0000000  0.0000000 )
                  (  0.0000000  0.0000000  1.0000000 )


      isym = 30     inv. 180 deg rotation - cart. axis [1,-1,0]  

 cryst.   s(30) = (     0          1          0      )
                  (     1          0          0      )
                  (     0          0          1      )

 cart.    s(30) = (  0.0000000  1.0000000  0.0000000 )
                  (  1.0000000  0.0000000  0.0000000 )
                  (  0.0000000  0.0000000  1.0000000 )


      isym = 31     inv.  90 deg rotation - cart. axis [0,0,-1]  

 cryst.   s(31) = (     0          1          0      )
                  (    -1          0          0      )
                  (     0          0         -1      )

 cart.    s(31) = (  0.0000000 -1.0000000  0.0000000 )
                  (  1.0000000  0.0000000  0.0000000 )
                  (  0.0000000  0.0000000 -1.0000000 )


      isym = 32     inv.  90 deg rotation - cart. axis [0,0,1]   

 cryst.   s(32) = (     0         -1          0      )
                  (     1          0          0      )
                  (     0          0         -1      )

 cart.    s(32) = (  0.0000000  1.0000000  0.0000000 )
                  ( -1.0000000  0.0000000  0.0000000 )
                  (  0.0000000  0.0000000 -1.0000000 )


      isym = 33     inv. 180 deg rotation - cart. axis [1,0,1]   

 cryst.   s(33) = (     0          0         -1      )
                  (     0          1          0      )
                  (    -1          0          0      )

 cart.    s(33) = (  0.0000000  0.0000000 -1.0000000 )
                  (  0.0000000  1.0000000  0.0000000 )
                  ( -1.0000000  0.0000000  0.0000000 )


      isym = 34     inv. 180 deg rotation - cart. axis [-1,0,1]  

 cryst.   s(34) = (     0          0          1      )
                  (     0          1          0      )
                  (     1          0          0      )

 cart.    s(34) = (  0.0000000  0.0000000  1.0000000 )
                  (  0.0000000  1.0000000  0.0000000 )
                  (  1.0000000  0.0000000  0.0000000 )


      isym = 35     inv.  90 deg rotation - cart. axis [0,1,0]   

 cryst.   s(35) = (     0          0          1      )
                  (     0         -1          0      )
                  (    -1          0          0      )

 cart.    s(35) = (  0.0000000  0.0000000 -1.0000000 )
                  (  0.0000000 -1.0000000  0.0000000 )
                  (  1.0000000  0.0000000  0.0000000 )


      isym = 36     inv.  90 deg rotation - cart. axis [0,-1,0]  

 cryst.   s(36) = (     0          0         -1      )
                  (     0         -1          0      )
                  (     1          0          0      )

 cart.    s(36) = (  0.0000000  0.0000000  1.0000000 )
                  (  0.0000000 -1.0000000  0.0000000 )
                  ( -1.0000000  0.0000000  0.0000000 )


      isym = 37     inv. 180 deg rotation - cart. axis [0,1,1]   

 cryst.   s(37) = (     1          0          0      )
                  (     0          0         -1      )
                  (     0         -1          0      )

 cart.    s(37) = (  1.0000000  0.0000000  0.0000000 )
                  (  0.0000000  0.0000000 -1.0000000 )
                  (  0.0000000 -1.0000000  0.0000000 )


      isym = 38     inv. 180 deg rotation - cart. axis [0,1,-1]  

 cryst.   s(38) = (     1          0          0      )
                  (     0          0          1      )
                  (     0          1          0      )

 cart.    s(38) = (  1.0000000  0.0000000  0.0000000 )
                  (  0.0000000  0.0000000  1.0000000 )
                  (  0.0000000  1.0000000  0.0000000 )


      isym = 39     inv.  90 deg rotation - cart. axis [-1,0,0]  

 cryst.   s(39) = (    -1          0          0      )
                  (     0          0          1      )
                  (     0         -1          0      )

 cart.    s(39) = ( -1.0000000  0.0000000  0.0000000 )
                  (  0.0000000  0.0000000 -1.0000000 )
                  (  0.0000000  1.0000000  0.0000000 )


      isym = 40     inv.  90 deg rotation - cart. axis [1,0,0]   

 cryst.   s(40) = (    -1          0          0      )
                  (     0          0         -1      )
                  (     0          1          0      )

 cart.    s(40) = ( -1.0000000  0.0000000  0.0000000 )
                  (  0.0000000  0.0000000  1.0000000 )
                  (  0.0000000 -1.0000000  0.0000000 )


      isym = 41     inv. 120 deg rotation - cart. axis [-1,-1,-1]

 cryst.   s(41) = (     0          0         -1      )
                  (    -1          0          0      )
                  (     0         -1          0      )

 cart.    s(41) = (  0.0000000 -1.0000000  0.0000000 )
                  (  0.0000000  0.0000000 -1.0000000 )
                  ( -1.0000000  0.0000000  0.0000000 )


      isym = 42     inv. 120 deg rotation - cart. axis [-1,1,1]  

 cryst.   s(42) = (     0          0          1      )
                  (     1          0          0      )
                  (     0         -1          0      )

 cart.    s(42) = (  0.0000000  1.0000000  0.0000000 )
                  (  0.0000000  0.0000000 -1.0000000 )
                  (  1.0000000  0.0000000  0.0000000 )


      isym = 43     inv. 120 deg rotation - cart. axis [1,1,-1]  

 cryst.   s(43) = (     0          0          1      )
                  (    -1          0          0      )
                  (     0          1          0      )

 cart.    s(43) = (  0.0000000 -1.0000000  0.0000000 )
                  (  0.0000000  0.0000000  1.0000000 )
                  (  1.0000000  0.0000000  0.0000000 )


      isym = 44     inv. 120 deg rotation - cart. axis [1,-1,1]  

 cryst.   s(44) = (     0          0         -1      )
                  (     1          0          0      )
                  (     0          1          0      )

 cart.    s(44) = (  0.0000000  1.0000000  0.0000000 )
                  (  0.0000000  0.0000000  1.0000000 )
                  ( -1.0000000  0.0000000  0.0000000 )


      isym = 45     inv. 120 deg rotation - cart. axis [1,1,1]   

 cryst.   s(45) = (     0         -1          0      )
                  (     0          0         -1      )
                  (    -1          0          0      )

 cart.    s(45) = (  0.0000000  0.0000000 -1.0000000 )
                  ( -1.0000000  0.0000000  0.0000000 )
                  (  0.0000000 -1.0000000  0.0000000 )


      isym = 46     inv. 120 deg rotation - cart. axis [-1,1,-1] 

 cryst.   s(46) = (     0          1          0      )
                  (     0          0          1      )
                  (    -1          0          0      )

 cart.    s(46) = (  0.0000000  0.0000000 -1.0000000 )
                  (  1.0000000  0.0000000  0.0000000 )
                  (  0.0000000  1.0000000  0.0000000 )


      isym = 47     inv. 120 deg rotation - cart. axis [1,-1,-1] 

 cryst.   s(47) = (     0          1          0      )
                  (     0          0         -1      )
                  (     1          0          0      )

 cart.    s(47) = (  0.0000000  0.0000000  1.0000000 )
                  (  1.0000000  0.0000000  0.0000000 )
                  (  0.0000000 -1.0000000  0.0000000 )


      isym = 48     inv. 120 deg rotation - cart. axis [-1,-1,1] 

 cryst.   s(48) = (     0         -1          0      )
                  (     0          0          1      )
                  (     1          0          0      )

 cart.    s(48) = (  0.0000000  0.0000000  1.0000000 )
                  ( -1.0000000  0.0000000  0.0000000 )
                  (  0.0000000  1.0000000  0.0000000 )


   Cartesian axes

     site n.     atom                  positions (alat units)
         1        Fe     tau(   1) = (   0.0000000   0.0000000   0.0000000  )
         2        Fe     tau(   2) = (   0.5000000   0.5000000   0.5000000  )

   Crystallographic axes

     site n.     atom                  positions (cryst. coord.)
         1        Fe     tau(   1) = (  0.0000000  0.0000000  0.0000000  )
         2        Fe     tau(   2) = (  0.5000000  0.5000000  0.5000000  )

     number of k points=    56  Marzari-Vanderbilt smearing, width (Ry)=  0.0070
                       cart. coord. in units 2pi/alat
        k(    1) = (   0.0000000   0.0000000   0.0000000), wk =   0.0010000
        k(    2) = (   0.0000000   0.0000000   0.1000000), wk =   0.0060000
        k(    3) = (   0.0000000   0.0000000   0.2000000), wk =   0.0060000
        k(    4) = (   0.0000000   0.0000000   0.3000000), wk =   0.0060000
        k(    5) = (   0.0000000   0.0000000   0.4000000), wk =   0.0060000
        k(    6) = (   0.0000000   0.0000000  -0.5000000), wk =   0.0030000
        k(    7) = (   0.0000000   0.1000000   0.1000000), wk =   0.0120000
        k(    8) = (   0.0000000   0.1000000   0.2000000), wk =   0.0240000
        k(    9) = (   0.0000000   0.1000000   0.3000000), wk =   0.0240000
        k(   10) = (   0.0000000   0.1000000   0.4000000), wk =   0.0240000
        k(   11) = (   0.0000000   0.1000000  -0.5000000), wk =   0.0120000
        k(   12) = (   0.0000000   0.2000000   0.2000000), wk =   0.0120000
        k(   13) = (   0.0000000   0.2000000   0.3000000), wk =   0.0240000
        k(   14) = (   0.0000000   0.2000000   0.4000000), wk =   0.0240000
        k(   15) = (   0.0000000   0.2000000  -0.5000000), wk =   0.0120000
        k(   16) = (   0.0000000   0.3000000   0.3000000), wk =   0.0120000
        k(   17) = (   0.0000000   0.3000000   0.4000000), wk =   0.0240000
        k(   18) = (   0.0000000   0.3000000  -0.5000000), wk =   0.0120000
        k(   19) = (   0.0000000   0.4000000   0.4000000), wk =   0.0120000
        k(   20) = (   0.0000000   0.4000000  -0.5000000), wk =   0.0120000
        k(   21) = (   0.0000000  -0.5000000  -0.5000000), wk =   0.0030000
        k(   22) = (   0.1000000   0.1000000   0.1000000), wk =   0.0080000
        k(   23) = (   0.1000000   0.1000000   0.2000000), wk =   0.0240000
        k(   24) = (   0.1000000   0.1000000   0.3000000), wk =   0.0240000
        k(   25) = (   0.1000000   0.1000000   0.4000000), wk =   0.0240000
        k(   26) = (   0.1000000   0.1000000  -0.5000000), wk =   0.0120000
        k(   27) = (   0.1000000   0.2000000   0.2000000), wk =   0.0240000
        k(   28) = (   0.1000000   0.2000000   0.3000000), wk =   0.0480000
        k(   29) = (   0.1000000   0.2000000   0.4000000), wk =   0.0480000
        k(   30) = (   0.1000000   0.2000000  -0.5000000), wk =   0.0240000
        k(   31) = (   0.1000000   0.3000000   0.3000000), wk =   0.0240000
        k(   32) = (   0.1000000   0.3000000   0.4000000), wk =   0.0480000
        k(   33) = (   0.1000000   0.3000000  -0.5000000), wk =   0.0240000
        k(   34) = (   0.1000000   0.4000000   0.4000000), wk =   0.0240000
        k(   35) = (   0.1000000   0.4000000  -0.5000000), wk =   0.0240000
        k(   36) = (   0.1000000  -0.5000000  -0.5000000), wk =   0.0060000
        k(   37) = (   0.2000000   0.2000000   0.2000000), wk =   0.0080000
        k(   38) = (   0.2000000   0.2000000   0.3000000), wk =   0.0240000
        k(   39) = (   0.2000000   0.2000000   0.4000000), wk =   0.0240000
        k(   40) = (   0.2000000   0.2000000  -0.5000000), wk =   0.0120000
        k(   41) = (   0.2000000   0.3000000   0.3000000), wk =   0.0240000
        k(   42) = (   0.2000000   0.3000000   0.4000000), wk =   0.0480000
        k(   43) = (   0.2000000   0.3000000  -0.5000000), wk =   0.0240000
        k(   44) = (   0.2000000   0.4000000   0.4000000), wk =   0.0240000
        k(   45) = (   0.2000000   0.4000000  -0.5000000), wk =   0.0240000
        k(   46) = (   0.2000000  -0.5000000  -0.5000000), wk =   0.0060000
        k(   47) = (   0.3000000   0.3000000   0.3000000), wk =   0.0080000
        k(   48) = (   0.3000000   0.3000000   0.4000000), wk =   0.0240000
        k(   49) = (   0.3000000   0.3000000  -0.5000000), wk =   0.0120000
        k(   50) = (   0.3000000   0.4000000   0.4000000), wk =   0.0240000
        k(   51) = (   0.3000000   0.4000000  -0.5000000), wk =   0.0240000
        k(   52) = (   0.3000000  -0.5000000  -0.5000000), wk =   0.0060000
        k(   53) = (   0.4000000   0.4000000   0.4000000), wk =   0.0080000
        k(   54) = (   0.4000000   0.4000000  -0.5000000), wk =   0.0120000
        k(   55) = (   0.4000000  -0.5000000  -0.5000000), wk =   0.0060000
        k(   56) = (  -0.5000000  -0.5000000  -0.5000000), wk =   0.0010000

                       cryst. coord.
        k(    1) = (   0.0000000   0.0000000   0.0000000), wk =   0.0010000
        k(    2) = (   0.0000000   0.0000000   0.1000000), wk =   0.0060000
        k(    3) = (   0.0000000   0.0000000   0.2000000), wk =   0.0060000
        k(    4) = (   0.0000000   0.0000000   0.3000000), wk =   0.0060000
        k(    5) = (   0.0000000   0.0000000   0.4000000), wk =   0.0060000
        k(    6) = (   0.0000000   0.0000000  -0.5000000), wk =   0.0030000
        k(    7) = (   0.0000000   0.1000000   0.1000000), wk =   0.0120000
        k(    8) = (   0.0000000   0.1000000   0.2000000), wk =   0.0240000
        k(    9) = (   0.0000000   0.1000000   0.3000000), wk =   0.0240000
        k(   10) = (   0.0000000   0.1000000   0.4000000), wk =   0.0240000
        k(   11) = (   0.0000000   0.1000000  -0.5000000), wk =   0.0120000
        k(   12) = (   0.0000000   0.2000000   0.2000000), wk =   0.0120000
        k(   13) = (   0.0000000   0.2000000   0.3000000), wk =   0.0240000
        k(   14) = (   0.0000000   0.2000000   0.4000000), wk =   0.0240000
        k(   15) = (   0.0000000   0.2000000  -0.5000000), wk =   0.0120000
        k(   16) = (   0.0000000   0.3000000   0.3000000), wk =   0.0120000
        k(   17) = (   0.0000000   0.3000000   0.4000000), wk =   0.0240000
        k(   18) = (   0.0000000   0.3000000  -0.5000000), wk =   0.0120000
        k(   19) = (   0.0000000   0.4000000   0.4000000), wk =   0.0120000
        k(   20) = (   0.0000000   0.4000000  -0.5000000), wk =   0.0120000
        k(   21) = (   0.0000000  -0.5000000  -0.5000000), wk =   0.0030000
        k(   22) = (   0.1000000   0.1000000   0.1000000), wk =   0.0080000
        k(   23) = (   0.1000000   0.1000000   0.2000000), wk =   0.0240000
        k(   24) = (   0.1000000   0.1000000   0.3000000), wk =   0.0240000
        k(   25) = (   0.1000000   0.1000000   0.4000000), wk =   0.0240000
        k(   26) = (   0.1000000   0.1000000  -0.5000000), wk =   0.0120000
        k(   27) = (   0.1000000   0.2000000   0.2000000), wk =   0.0240000
        k(   28) = (   0.1000000   0.2000000   0.3000000), wk =   0.0480000
        k(   29) = (   0.1000000   0.2000000   0.4000000), wk =   0.0480000
        k(   30) = (   0.1000000   0.2000000  -0.5000000), wk =   0.0240000
        k(   31) = (   0.1000000   0.3000000   0.3000000), wk =   0.0240000
        k(   32) = (   0.1000000   0.3000000   0.4000000), wk =   0.0480000
        k(   33) = (   0.1000000   0.3000000  -0.5000000), wk =   0.0240000
        k(   34) = (   0.1000000   0.4000000   0.4000000), wk =   0.0240000
        k(   35) = (   0.1000000   0.4000000  -0.5000000), wk =   0.0240000
        k(   36) = (   0.1000000  -0.5000000  -0.5000000), wk =   0.0060000
        k(   37) = (   0.2000000   0.2000000   0.2000000), wk =   0.0080000
        k(   38) = (   0.2000000   0.2000000   0.3000000), wk =   0.0240000
        k(   39) = (   0.2000000   0.2000000   0.4000000), wk =   0.0240000
        k(   40) = (   0.2000000   0.2000000  -0.5000000), wk =   0.0120000
        k(   41) = (   0.2000000   0.3000000   0.3000000), wk =   0.0240000
        k(   42) = (   0.2000000   0.3000000   0.4000000), wk =   0.0480000
        k(   43) = (   0.2000000   0.3000000  -0.5000000), wk =   0.0240000
        k(   44) = (   0.2000000   0.4000000   0.4000000), wk =   0.0240000
        k(   45) = (   0.2000000   0.4000000  -0.5000000), wk =   0.0240000
        k(   46) = (   0.2000000  -0.5000000  -0.5000000), wk =   0.0060000
        k(   47) = (   0.3000000   0.3000000   0.3000000), wk =   0.0080000
        k(   48) = (   0.3000000   0.3000000   0.4000000), wk =   0.0240000
        k(   49) = (   0.3000000   0.3000000  -0.5000000), wk =   0.0120000
        k(   50) = (   0.3000000   0.4000000   0.4000000), wk =   0.0240000
        k(   51) = (   0.3000000   0.4000000  -0.5000000), wk =   0.0240000
        k(   52) = (   0.3000000  -0.5000000  -0.5000000), wk =   0.0060000
        k(   53) = (   0.4000000   0.4000000   0.4000000), wk =   0.0080000
        k(   54) = (   0.4000000   0.4000000  -0.5000000), wk =   0.0120000
        k(   55) = (   0.4000000  -0.5000000  -0.5000000), wk =   0.0060000
        k(   56) = (  -0.5000000  -0.5000000  -0.5000000), wk =   0.0010000

     Dense  grid:    49509 G-vectors     FFT dimensions: (  45,  45,  45)

     Smooth grid:    21367 G-vectors     FFT dimensions: (  36,  36,  36)

     Dynamical RAM for                 wfc:       0.08 MB

     Dynamical RAM for     wfc (w. buffer):       9.21 MB

     Dynamical RAM for           str. fact:       0.08 MB

     Dynamical RAM for           local pot:       0.00 MB

     Dynamical RAM for          nlocal pot:       0.15 MB

     Dynamical RAM for                qrad:       2.12 MB

     Dynamical RAM for          rho,v,vnew:       0.92 MB

     Dynamical RAM for               rhoin:       0.31 MB

     Dynamical RAM for            rho*nmix:       2.42 MB

     Dynamical RAM for           G-vectors:       0.30 MB

     Dynamical RAM for          h,s,v(r/c):       0.07 MB

     Dynamical RAM for          <psi|beta>:       0.01 MB

     Dynamical RAM for                 psi:       0.16 MB

     Dynamical RAM for                hpsi:       0.16 MB

     Dynamical RAM for                spsi:       0.16 MB

     Dynamical RAM for      wfcinit/wfcrot:       0.17 MB

     Dynamical RAM for           addusdens:      14.27 MB

     Estimated static dynamical RAM per process >      13.69 MB

     Estimated max dynamical RAM per process >      30.38 MB

     Estimated total dynamical RAM >     303.77 MB
     Generating pointlists ...
     new r_m :   0.3572 (alat units)  1.9328 (a.u.) for type    1

     The initial density is read from file :
     ./out/Fe.save/charge-density


     negative rho (up, down):  0.000E+00 1.084E-04
     Starting wfcs from file
     Checking if some PAW data can be deallocated... 

     total cpu time spent up to now is        1.4 secs

     Self-consistent Calculation

     iteration #  1     ecut=   100.00 Ry     beta= 0.40
     Davidson diagonalization with overlap

---- Real-time Memory Report at c_bands before calling an iterative solver
            61 MiB given to the printing process from OS
             0 MiB allocation reported by mallinfo(arena+hblkhd)
           543 MiB available memory on the node where the printing process lives
------------------
     ethr =  1.00E-05,  avg # of iterations =  1.0

     negative rho (up, down):  0.000E+00 1.090E-04

     total cpu time spent up to now is        5.1 secs

     total energy              =    -658.53979951 Ry
     estimated scf accuracy    <       0.00040576 Ry

     total magnetization       =     4.38 Bohr mag/cell
     absolute magnetization    =     4.64 Bohr mag/cell

     iteration #  2     ecut=   100.00 Ry     beta= 0.40
     Davidson diagonalization with overlap

---- Real-time Memory Report at c_bands before calling an iterative solver
            75 MiB given to the printing process from OS
             0 MiB allocation reported by mallinfo(arena+hblkhd)
           456 MiB available memory on the node where the printing process lives
------------------
     ethr =  1.27E-06,  avg # of iterations =  1.2

     negative rho (up, down):  0.000E+00 1.113E-04

     total cpu time spent up to now is        8.9 secs

     total energy              =    -658.53987629 Ry
     estimated scf accuracy    <       0.00015723 Ry

     total magnetization       =     4.39 Bohr mag/cell
     absolute magnetization    =     4.65 Bohr mag/cell

     iteration #  3     ecut=   100.00 Ry     beta= 0.40
     Davidson diagonalization with overlap

---- Real-time Memory Report at c_bands before calling an iterative solver
            76 MiB given to the printing process from OS
             0 MiB allocation reported by mallinfo(arena+hblkhd)
           447 MiB available memory on the node where the printing process lives
------------------
     ethr =  4.91E-07,  avg # of iterations =  1.2

     negative rho (up, down):  0.000E+00 1.127E-04

     total cpu time spent up to now is       12.7 secs

     total energy              =    -658.53992416 Ry
     estimated scf accuracy    <       0.00010025 Ry

     total magnetization       =     4.42 Bohr mag/cell
     absolute magnetization    =     4.67 Bohr mag/cell

     iteration #  4     ecut=   100.00 Ry     beta= 0.40
     Davidson diagonalization with overlap

---- Real-time Memory Report at c_bands before calling an iterative solver
            76 MiB given to the printing process from OS
             0 MiB allocation reported by mallinfo(arena+hblkhd)
           441 MiB available memory on the node where the printing process lives
------------------
     ethr =  3.13E-07,  avg # of iterations =  2.2

     negative rho (up, down):  0.000E+00 1.136E-04

     total cpu time spent up to now is       17.0 secs

     total energy              =    -658.53992213 Ry
     estimated scf accuracy    <       0.00073803 Ry

     total magnetization       =     4.43 Bohr mag/cell
     absolute magnetization    =     4.68 Bohr mag/cell

     iteration #  5     ecut=   100.00 Ry     beta= 0.40
     Davidson diagonalization with overlap

---- Real-time Memory Report at c_bands before calling an iterative solver
            76 MiB given to the printing process from OS
             0 MiB allocation reported by mallinfo(arena+hblkhd)
           449 MiB available memory on the node where the printing process lives
------------------
     ethr =  3.13E-07,  avg # of iterations =  1.5

     negative rho (up, down):  0.000E+00 1.192E-04

     total cpu time spent up to now is       20.9 secs

     total energy              =    -658.53994874 Ry
     estimated scf accuracy    <       0.00002234 Ry

     total magnetization       =     4.44 Bohr mag/cell
     absolute magnetization    =     4.69 Bohr mag/cell

     iteration #  6     ecut=   100.00 Ry     beta= 0.40
     Davidson diagonalization with overlap

---- Real-time Memory Report at c_bands before calling an iterative solver
            77 MiB given to the printing process from OS
             0 MiB allocation reported by mallinfo(arena+hblkhd)
           441 MiB available memory on the node where the printing process lives
------------------
     ethr =  6.98E-08,  avg # of iterations =  2.8

     negative rho (up, down):  0.000E+00 1.189E-04

     total cpu time spent up to now is       26.3 secs

     total energy              =    -658.53998841 Ry
     estimated scf accuracy    <       0.00000715 Ry

     total magnetization       =     4.47 Bohr mag/cell
     absolute magnetization    =     4.72 Bohr mag/cell

     iteration #  7     ecut=   100.00 Ry     beta= 0.40
     Davidson diagonalization with overlap

---- Real-time Memory Report at c_bands before calling an iterative solver
            77 MiB given to the printing process from OS
             0 MiB allocation reported by mallinfo(arena+hblkhd)
           437 MiB available memory on the node where the printing process lives
------------------
     ethr =  2.23E-08,  avg # of iterations =  1.1

     negative rho (up, down):  0.000E+00 1.201E-04

     total cpu time spent up to now is       30.0 secs

     total energy              =    -658.53998873 Ry
     estimated scf accuracy    <       0.00000019 Ry

     total magnetization       =     4.46 Bohr mag/cell
     absolute magnetization    =     4.72 Bohr mag/cell

     iteration #  8     ecut=   100.00 Ry     beta= 0.40
     Davidson diagonalization with overlap

---- Real-time Memory Report at c_bands before calling an iterative solver
            77 MiB given to the printing process from OS
             0 MiB allocation reported by mallinfo(arena+hblkhd)
           431 MiB available memory on the node where the printing process lives
------------------
     ethr =  6.00E-10,  avg # of iterations =  3.6

     negative rho (up, down):  0.000E+00 1.192E-04

     total cpu time spent up to now is       35.3 secs

     total energy              =    -658.53998890 Ry
     estimated scf accuracy    <       0.00000037 Ry

     total magnetization       =     4.47 Bohr mag/cell
     absolute magnetization    =     4.73 Bohr mag/cell

     iteration #  9     ecut=   100.00 Ry     beta= 0.40
     Davidson diagonalization with overlap

---- Real-time Memory Report at c_bands before calling an iterative solver
            77 MiB given to the printing process from OS
             0 MiB allocation reported by mallinfo(arena+hblkhd)
           422 MiB available memory on the node where the printing process lives
------------------
     ethr =  6.00E-10,  avg # of iterations =  3.1

     negative rho (up, down):  0.000E+00 1.196E-04

     total cpu time spent up to now is       40.9 secs

     total energy              =    -658.53998937 Ry
     estimated scf accuracy    <       0.00000006 Ry

     total magnetization       =     4.46 Bohr mag/cell
     absolute magnetization    =     4.72 Bohr mag/cell

     iteration # 10     ecut=   100.00 Ry     beta= 0.40
     Davidson diagonalization with overlap

---- Real-time Memory Report at c_bands before calling an iterative solver
            78 MiB given to the printing process from OS
             0 MiB allocation reported by mallinfo(arena+hblkhd)
           424 MiB available memory on the node where the printing process lives
------------------
     ethr =  1.91E-10,  avg # of iterations =  2.7

     negative rho (up, down):  0.000E+00 1.195E-04

     total cpu time spent up to now is       45.4 secs

     total energy              =    -658.53998944 Ry
     estimated scf accuracy    <          6.6E-09 Ry

     total magnetization       =     4.46 Bohr mag/cell
     absolute magnetization    =     4.72 Bohr mag/cell

     iteration # 11     ecut=   100.00 Ry     beta= 0.40
     Davidson diagonalization with overlap

---- Real-time Memory Report at c_bands before calling an iterative solver
            78 MiB given to the printing process from OS
             0 MiB allocation reported by mallinfo(arena+hblkhd)
           435 MiB available memory on the node where the printing process lives
------------------
     ethr =  2.07E-11,  avg # of iterations =  2.6

     negative rho (up, down):  0.000E+00 1.196E-04

     total cpu time spent up to now is       49.9 secs

     total energy              =    -658.53998944 Ry
     estimated scf accuracy    <          9.6E-10 Ry

     total magnetization       =     4.46 Bohr mag/cell
     absolute magnetization    =     4.72 Bohr mag/cell

     iteration # 12     ecut=   100.00 Ry     beta= 0.40
     Davidson diagonalization with overlap

---- Real-time Memory Report at c_bands before calling an iterative solver
            78 MiB given to the printing process from OS
             0 MiB allocation reported by mallinfo(arena+hblkhd)
           435 MiB available memory on the node where the printing process lives
------------------
     ethr =  3.02E-12,  avg # of iterations =  3.6

     negative rho (up, down):  0.000E+00 1.196E-04

     total cpu time spent up to now is       55.6 secs

     total energy              =    -658.53998944 Ry
     estimated scf accuracy    <          1.7E-09 Ry

     total magnetization       =     4.46 Bohr mag/cell
     absolute magnetization    =     4.72 Bohr mag/cell

     iteration # 13     ecut=   100.00 Ry     beta= 0.40
     Davidson diagonalization with overlap

---- Real-time Memory Report at c_bands before calling an iterative solver
            78 MiB given to the printing process from OS
             0 MiB allocation reported by mallinfo(arena+hblkhd)
           428 MiB available memory on the node where the printing process lives
------------------
     ethr =  3.02E-12,  avg # of iterations =  2.7

     negative rho (up, down):  0.000E+00 1.196E-04

     Magnetic moment per site  (integrated on atomic sphere of radius R)
     atom   1 (R=0.357)  charge= 14.4177  magn=  2.2873
     atom   2 (R=0.357)  charge= 14.4179  magn=  2.2874

     total cpu time spent up to now is       60.3 secs

     End of self-consistent calculation

 ------ SPIN UP ------------


          k = 0.0000 0.0000 0.0000 (  2721 PWs)   bands (ev):

   -70.4801 -70.3604 -36.5681 -36.5681 -36.5681 -36.3012 -36.3012 -36.3012
     9.2400  12.8894  12.8894  15.3407  15.3407  15.3407  16.4948  16.4948
    17.6696  17.6696  17.6696  27.1954

     occupation numbers 
     1.0000   1.0000   1.0000   1.0000   1.0000   1.0000   1.0000   1.0000
     1.0000   1.0000   1.0000   1.0000   1.0000   1.0000   1.0000   1.0000
     0.0545   0.0545   0.0545   0.0000

          k = 0.0000 0.0000 0.1000 (  2673 PWs)   bands (ev):

   -70.4768 -70.3629 -36.5670 -36.5612 -36.5612 -36.3133 -36.3074 -36.3074
     9.4427  12.9742  12.9752  15.3395  15.3395  15.3951  16.4062  16.5296
    17.5042  17.5042  17.6101  25.8740

     occupation numbers 
     1.0000   1.0000   1.0000   1.0000   1.0000   1.0000   1.0000   1.0000
     1.0000   1.0000   1.0000   1.0000   1.0000   1.0000   1.0000   1.0000
     0.9994   0.9994   0.2791   0.0000

          k = 0.0000 0.0000 0.2000 (  2677 PWs)   bands (ev):

   -70.4672 -70.3703 -36.5623 -36.5413 -36.5413 -36.3467 -36.3254 -36.3254
    10.0325  13.1949  13.2219  15.3480  15.3480  15.5537  16.1480  16.6291
    17.0909  17.0909  17.4380  23.4494

     occupation numbers 
     1.0000   1.0000   1.0000   1.0000   1.0000   1.0000   1.0000   1.0000
     1.0000   1.0000   1.0000   1.0000   1.0000   1.0000   1.0000   1.0000
     1.0000   1.0000   1.0754   0.0000

          k = 0.0000 0.0000 0.3000 (  2701 PWs)   bands (ev):

   -70.4526 -70.3822 -36.5504 -36.5106 -36.5106 -36.3940 -36.3537 -36.3537
    10.9461  13.4285  13.6118  15.3977  15.3977  15.7437  15.8029  16.5903
    16.5903  16.7932  17.1721  21.0455

     occupation numbers 
     1.0000   1.0000   1.0000   1.0000   1.0000   1.0000   1.0000   1.0000
     1.0000   1.0000   1.0000   1.0000   1.0000   1.0000   1.0000   1.0000
     1.0000   1.0000   1.0000   0.0000

          k = 0.0000 0.0000 0.4000 (  2670 PWs)   bands (ev):

   -70.4348 -70.3978 -36.5276 -36.4725 -36.4725 -36.4455 -36.3900 -36.3900
    12.0363  13.4552  14.1098  15.2331  15.5268  15.5268  16.1207  16.1270
    16.1270  16.8406  17.0818  19.0457

     occupation numbers 
     1.0000   1.0000   1.0000   1.0000   1.0000   1.0000   1.0000   1.0000
     1.0000   1.0000   1.0000   1.0000   1.0000   1.0000   1.0000   1.0000
     1.0000   1.0000   1.0000   0.0000

          k = 0.0000 0.0000-0.5000 (  2666 PWs)   bands (ev):

   -70.4159 -70.4159 -36.4920 -36.4920 -36.4309 -36.4309 -36.4309 -36.4309
    12.9950  12.9950  14.6689  14.6690  15.7660  15.7660  15.7660  15.7660
    16.4780  16.4781  17.7233  17.7234

     occupation numbers 
     1.0000   1.0000   1.0000   1.0000   1.0000   1.0000   1.0000   1.0000
     1.0000   1.0000   1.0000   1.0000   1.0000   1.0000   1.0000   1.0000
     1.0000   1.0000   0.0067   0.0066

          k = 0.0000 0.1000 0.1000 (  2668 PWs)   bands (ev):

   -70.4736 -70.3653 -36.5779 -36.5547 -36.5430 -36.3371 -36.3132 -36.3012
     9.6419  13.0513  13.0655  15.2347  15.3264  15.5519  16.3994  16.5037
    17.2200  17.3396  17.6941  25.9410

     occupation numbers 
     1.0000   1.0000   1.0000   1.0000   1.0000   1.0000   1.0000   1.0000
     1.0000   1.0000   1.0000   1.0000   1.0000   1.0000   1.0000   1.0000
     1.0000   1.0062   0.0225   0.0000

          k = 0.0000 0.1000 0.2000 (  2675 PWs)   bands (ev):

   -70.4644 -70.3723 -36.5832 -36.5357 -36.5149 -36.3787 -36.3303 -36.3089
    10.2198  13.2609  13.3110  15.1609  15.3005  15.7885  16.2173  16.5891
    16.7533  16.9383  17.6316  23.6916

     occupation numbers 
     1.0000   1.0000   1.0000   1.0000   1.0000   1.0000   1.0000   1.0000
     1.0000   1.0000   1.0000   1.0000   1.0000   1.0000   1.0000   1.0000
     1.0000   1.0000   0.1680   0.0000

          k = 0.0000 0.1000 0.3000 (  2688 PWs)   bands (ev):

   -70.4504 -70.3835 -36.5781 -36.5064 -36.4801 -36.4299 -36.3571 -36.3304
    11.1081  13.4914  13.6746  15.1579  15.2597  15.9456  16.0816  16.2505
    16.4825  16.7571  17.4267  21.2671

     occupation numbers 
     1.0000   1.0000   1.0000   1.0000   1.0000   1.0000   1.0000   1.0000
     1.0000   1.0000   1.0000   1.0000   1.0000   1.0000   1.0000   1.0000
     1.0000   1.0000   1.0659   0.0000

          k = 0.0000 0.1000 0.4000 (  2684 PWs)   bands (ev):

   -70.4335 -70.3983 -36.5599 -36.4821 -36.4700 -36.4408 -36.3915 -36.3621
    12.1519  13.5047  14.1317  15.0581  15.2516  15.8032  15.8153  16.1248
    16.4193  17.0623  17.1276  19.2097

     occupation numbers 
     1.0000   1.0000   1.0000   1.0000   1.0000   1.0000   1.0000   1.0000
     1.0000   1.0000   1.0000   1.0000   1.0000   1.0000   1.0000   1.0000
     1.0000   1.0000   1.0000   0.0000

          k = 0.0000 0.1000-0.5000 (  2690 PWs)   bands (ev):

   -70.4155 -70.4154 -36.5273 -36.5273 -36.4304 -36.4304 -36.4002 -36.4002
    13.0556  13.0556  14.6264  14.6265  15.4642  15.4642  15.9139  15.9139
    16.7788  16.7788  17.7815  17.7816

     occupation numbers 
     1.0000   1.0000   1.0000   1.0000   1.0000   1.0000   1.0000   1.0000
     1.0000   1.0000   1.0000   1.0000   1.0000   1.0000   1.0000   1.0000
     1.0000   1.0000   0.0003   0.0003

          k = 0.0000 0.2000 0.2000 (  2674 PWs)   bands (ev):

   -70.4564 -70.3780 -36.6035 -36.5193 -36.4767 -36.4303 -36.3445 -36.3010
    10.7558  13.3908  13.5935  14.9643  15.2229  16.1337  16.2314  16.3104
    16.5349  16.5941  17.7586  23.6982

     occupation numbers 
     1.0000   1.0000   1.0000   1.0000   1.0000   1.0000   1.0000   1.0000
     1.0000   1.0000   1.0000   1.0000   1.0000   1.0000   1.0000   1.0000
     1.0000   1.0000   0.0012   0.0000

          k = 0.0000 0.2000 0.3000 (  2675 PWs)   bands (ev):

   -70.4443 -70.3874 -36.6121 -36.4941 -36.4867 -36.4363 -36.3671 -36.3084
    11.5498  13.5086  13.9833  14.8555  15.1769  15.7231  16.2342  16.2790
    16.5039  16.6609  17.7122  21.7058

     occupation numbers 
     1.0000   1.0000   1.0000   1.0000   1.0000   1.0000   1.0000   1.0000
     1.0000   1.0000   1.0000   1.0000   1.0000   1.0000   1.0000   1.0000
     1.0000   1.0000   0.0108   0.0000

          k = 0.0000 0.2000 0.4000 (  2682 PWs)   bands (ev):

   -70.4297 -70.3998 -36.6051 -36.5392 -36.4630 -36.3962 -36.3961 -36.3288
    12.4143  13.4555  14.4006  14.8646  15.0732  15.3028  16.1534  16.1980
    16.8776  17.0015  17.5206  19.5836

     occupation numbers 
     1.0000   1.0000   1.0000   1.0000   1.0000   1.0000   1.0000   1.0000
     1.0000   1.0000   1.0000   1.0000   1.0000   1.0000   1.0000   1.0000
     1.0000   1.0000   0.9209   0.0000

          k = 0.0000 0.2000-0.5000 (  2688 PWs)   bands (ev):

   -70.4143 -70.4143 -36.5803 -36.5803 -36.4292 -36.4292 -36.3592 -36.3592
    13.0965  13.0965  14.7906  14.7907  15.0118  15.0118  16.1825  16.1826
    17.2282  17.2282  17.9341  17.9342

     occupation numbers 
     1.0000   1.0000   1.0000   1.0000   1.0000   1.0000   1.0000   1.0000
     1.0000   1.0000   1.0000   1.0000   1.0000   1.0000   1.0000   1.0000
     1.0000   1.0000   0.0000   0.0000

          k = 0.0000 0.3000 0.3000 (  2670 PWs)   bands (ev):

   -70.4351 -70.3938 -36.6351 -36.5443 -36.4754 -36.3941 -36.3831 -36.3009
    12.1258  13.4211  14.4677  14.6436  15.2370  15.3479  16.1760  16.4205
    16.5900  16.9230  17.8390  21.4295

     occupation numbers 
     1.0000   1.0000   1.0000   1.0000   1.0000   1.0000   1.0000   1.0000
     1.0000   1.0000   1.0000   1.0000   1.0000   1.0000   1.0000   1.0000
     1.0000   1.0000   0.0000   0.0000

          k = 0.0000 0.3000 0.4000 (  2669 PWs)   bands (ev):

   -70.4242 -70.4024 -36.6411 -36.5935 -36.4524 -36.4039 -36.3569 -36.3078
    12.6305  13.2400  14.5620  14.8618  14.9792  15.5873  16.2459  16.4788
    16.8937  17.3006  17.7946  19.8299

     occupation numbers 
     1.0000   1.0000   1.0000   1.0000   1.0000   1.0000   1.0000   1.0000
     1.0000   1.0000   1.0000   1.0000   1.0000   1.0000   1.0000   1.0000
     1.0000   1.0011   0.0002   0.0000

          k = 0.0000 0.3000-0.5000 (  2672 PWs)   bands (ev):

   -70.4129 -70.4129 -36.6271 -36.6271 -36.4277 -36.4277 -36.3273 -36.3273
    12.9840  12.9840  14.6326  14.6326  15.4002  15.4002  16.4005  16.4005
    17.6032  17.6032  18.0960  18.0961

     occupation numbers 
     1.0000   1.0000   1.0000   1.0000   1.0000   1.0000   1.0000   1.0000
     1.0000   1.0000   1.0000   1.0000   1.0000   1.0000   1.0000   1.0000
     0.3223   0.3223   0.0000   0.0000

          k = 0.0000 0.4000 0.4000 (  2684 PWs)   bands (ev):

   -70.4179 -70.4065 -36.6605 -36.6356 -36.4397 -36.4142 -36.3266 -36.3008
    12.7412  13.0125  14.3942  14.5457  15.6511  16.3848  16.3907  16.6487
    16.8805  17.6353  17.9045  19.3688

     occupation numbers 
     1.0000   1.0000   1.0000   1.0000   1.0000   1.0000   1.0000   1.0000
     1.0000   1.0000   1.0000   1.0000   1.0000   1.0000   1.0000   1.0000
     1.0000   0.1525   0.0000   0.0000

          k = 0.0000 0.4000-0.5000 (  2668 PWs)   bands (ev):

   -70.4118 -70.4117 -36.6590 -36.6590 -36.4265 -36.4264 -36.3074 -36.3074
    12.8457  12.8457  14.3863  14.3863  16.2105  16.2106  16.5298  16.5298
    17.8459  17.8459  18.1263  18.1263

     occupation numbers 
     1.0000   1.0000   1.0000   1.0000   1.0000   1.0000   1.0000   1.0000
     1.0000   1.0000   1.0000   1.0000   1.0000   1.0000   1.0000   1.0000
     0.0000   0.0000   0.0000   0.0000

          k = 0.0000-0.5000-0.5000 (  2680 PWs)   bands (ev):

   -70.4113 -70.4113 -36.6703 -36.6703 -36.4260 -36.4260 -36.3007 -36.3007
    12.7898  12.7898  14.3011  14.3011  16.5601  16.5601  16.6746  16.6748
    17.9296  17.9296  18.0471  18.0471

     occupation numbers 
     1.0000   1.0000   1.0000   1.0000   1.0000   1.0000   1.0000   1.0000
     1.0000   1.0000   1.0000   1.0000   1.0000   1.0000   1.0000   1.0000
     0.0000   0.0000   0.0000   0.0000

          k = 0.1000 0.1000 0.1000 (  2677 PWs)   bands (ev):

   -70.4705 -70.3675 -36.5708 -36.5708 -36.5209 -36.3587 -36.3076 -36.3076
     9.8381  13.1409  13.1409  15.2162  15.2162  15.7129  16.4421  16.4421
    16.8521  17.5291  17.5291  26.2810

     occupation numbers 
     1.0000   1.0000   1.0000   1.0000   1.0000   1.0000   1.0000   1.0000
     1.0000   1.0000   1.0000   1.0000   1.0000   1.0000   1.0000   1.0000
     1.0000   0.8700   0.8700   0.0000

          k = 0.1000 0.1000 0.2000 (  2678 PWs)   bands (ev):

   -70.4617 -70.3741 -36.5836 -36.5502 -36.4893 -36.4014 -36.3263 -36.3099
    10.4059  13.3596  13.3681  15.1048  15.1652  15.9933  16.2708  16.3445
    16.5560  17.1239  17.5671  23.9466

     occupation numbers 
     1.0000   1.0000   1.0000   1.0000   1.0000   1.0000   1.0000   1.0000
     1.0000   1.0000   1.0000   1.0000   1.0000   1.0000   1.0000   1.0000
     1.0000   1.0000   0.5895   0.0000

          k = 0.1000 0.1000 0.3000 (  2693 PWs)   bands (ev):

   -70.4484 -70.3847 -36.5855 -36.5184 -36.4541 -36.4524 -36.3557 -36.3246
    11.2723  13.5967  13.6979  15.0765  15.0901  15.8730  16.0449  16.3262
    16.6479  16.7303  17.4346  21.5080

     occupation numbers 
     1.0000   1.0000   1.0000   1.0000   1.0000   1.0000   1.0000   1.0000
     1.0000   1.0000   1.0000   1.0000   1.0000   1.0000   1.0000   1.0000
     1.0000   1.0000   1.0728   0.0000

          k = 0.1000 0.1000 0.4000 (  2678 PWs)   bands (ev):

   -70.4322 -70.3987 -36.5730 -36.5029 -36.4789 -36.4173 -36.3933 -36.3495
    12.2759  13.5884  14.1141  14.8884  15.1971  15.5560  15.8973  16.2334
    16.6414  17.0925  17.1885  19.4233

     occupation numbers 
     1.0000   1.0000   1.0000   1.0000   1.0000   1.0000   1.0000   1.0000
     1.0000   1.0000   1.0000   1.0000   1.0000   1.0000   1.0000   1.0000
     1.0000   1.0000   1.0000   0.0000

          k = 0.1000 0.1000-0.5000 (  2672 PWs)   bands (ev):

   -70.4150 -70.4150 -36.5449 -36.5449 -36.4357 -36.4357 -36.3814 -36.3814
    13.1361  13.1361  14.5432  14.5433  15.3715  15.3715  15.9627  15.9627
    16.9044  16.9045  17.9280  17.9281

     occupation numbers 
     1.0000   1.0000   1.0000   1.0000   1.0000   1.0000   1.0000   1.0000
     1.0000   1.0000   1.0000   1.0000   1.0000   1.0000   1.0000   1.0000
     1.0000   1.0000   0.0000   0.0000

          k = 0.1000 0.2000 0.2000 (  2691 PWs)   bands (ev):

   -70.4541 -70.3795 -36.5958 -36.5421 -36.4533 -36.4471 -36.3380 -36.3081
    10.9374  13.4988  13.6409  14.9267  15.0619  15.8192  16.3385  16.3693
    16.5150  16.9114  17.5882  24.0350

     occupation numbers 
     1.0000   1.0000   1.0000   1.0000   1.0000   1.0000   1.0000   1.0000
     1.0000   1.0000   1.0000   1.0000   1.0000   1.0000   1.0000   1.0000
     1.0000   1.0000   0.4267   0.0000

          k = 0.1000 0.2000 0.3000 (  2684 PWs)   bands (ev):

   -70.4425 -70.3883 -36.6065 -36.5142 -36.4989 -36.4169 -36.3637 -36.3133
    11.7201  13.6365  13.9902  14.8077  15.0040  15.3923  16.2604  16.5428
    16.6322  16.7914  17.5528  22.0087

     occupation numbers 
     1.0000   1.0000   1.0000   1.0000   1.0000   1.0000   1.0000   1.0000
     1.0000   1.0000   1.0000   1.0000   1.0000   1.0000   1.0000   1.0000
     1.0000   1.0000   0.7020   0.0000

          k = 0.1000 0.2000 0.4000 (  2675 PWs)   bands (ev):

   -70.4285 -70.4001 -36.6035 -36.5469 -36.4774 -36.3979 -36.3826 -36.3287
    12.5611  13.5868  14.3130  14.7280  15.0274  15.1792  16.1855  16.2859
    16.8137  17.3518  17.3714  19.9027

     occupation numbers 
     1.0000   1.0000   1.0000   1.0000   1.0000   1.0000   1.0000   1.0000
     1.0000   1.0000   1.0000   1.0000   1.0000   1.0000   1.0000   1.0000
     1.0000   1.0097   1.0187   0.0000

          k = 0.1000 0.2000-0.5000 (  2686 PWs)   bands (ev):

   -70.4139 -70.4139 -36.5834 -36.5834 -36.4372 -36.4371 -36.3525 -36.3525
    13.2207  13.2207  14.5723  14.5724  15.0994  15.0994  16.1956  16.1956
    17.0853  17.0854  18.3048  18.3049

     occupation numbers 
     1.0000   1.0000   1.0000   1.0000   1.0000   1.0000   1.0000   1.0000
     1.0000   1.0000   1.0000   1.0000   1.0000   1.0000   1.0000   1.0000
     1.0000   1.0000   0.0000   0.0000

          k = 0.1000 0.3000 0.3000 (  2669 PWs)   bands (ev):

   -70.4337 -70.3943 -36.6265 -36.5495 -36.4937 -36.3819 -36.3813 -36.3087
    12.3001  13.5500  14.4663  14.6081  15.0048  15.1111  16.3712  16.4215
    16.5908  17.2596  17.6287  21.8379

     occupation numbers 
     1.0000   1.0000   1.0000   1.0000   1.0000   1.0000   1.0000   1.0000
     1.0000   1.0000   1.0000   1.0000   1.0000   1.0000   1.0000   1.0000
     1.0000   1.0001   0.1812   0.0000

          k = 0.1000 0.3000 0.4000 (  2666 PWs)   bands (ev):

   -70.4232 -70.4025 -36.6336 -36.5933 -36.4656 -36.4058 -36.3520 -36.3141
    12.7915  13.3691  14.5196  14.6865  15.0038  15.3751  16.3395  16.4414
    16.7556  17.5285  17.8166  20.2951

     occupation numbers 
     1.0000   1.0000   1.0000   1.0000   1.0000   1.0000   1.0000   1.0000
     1.0000   1.0000   1.0000   1.0000   1.0000   1.0000   1.0000   1.0000
     1.0000   0.8737   0.0000   0.0000

          k = 0.1000 0.3000-0.5000 (  2672 PWs)   bands (ev):

   -70.4125 -70.4125 -36.6226 -36.6226 -36.4350 -36.4349 -36.3289 -36.3289
    13.1228  13.1228  14.5506  14.5506  15.3399  15.3400  16.4127  16.4128
    17.1955  17.1955  18.7501  18.7501

     occupation numbers 
     1.0000   1.0000   1.0000   1.0000   1.0000   1.0000   1.0000   1.0000
     1.0000   1.0000   1.0000   1.0000   1.0000   1.0000   1.0000   1.0000
     1.0000   1.0000   0.0000   0.0000

          k = 0.1000 0.4000 0.4000 (  2670 PWs)   bands (ev):

   -70.4172 -70.4063 -36.6514 -36.6303 -36.4493 -36.4174 -36.3288 -36.3092
    12.8931  13.1419  14.3701  14.4914  15.5735  16.1169  16.4375  16.5715
    16.6529  17.5033  18.3501  20.0362

     occupation numbers 
     1.0000   1.0000   1.0000   1.0000   1.0000   1.0000   1.0000   1.0000
     1.0000   1.0000   1.0000   1.0000   1.0000   1.0000   1.0000   1.0000
     1.0000   1.0028   0.0000   0.0000

          k = 0.1000 0.4000-0.5000 (  2668 PWs)   bands (ev):

   -70.4113 -70.4113 -36.6507 -36.6507 -36.4324 -36.4324 -36.3143 -36.3143
    12.9836  12.9836  14.3581  14.3581  16.0921  16.0922  16.5406  16.5407
    17.1463  17.1464  19.1174  19.1174

     occupation numbers 
     1.0000   1.0000   1.0000   1.0000   1.0000   1.0000   1.0000   1.0000
     1.0000   1.0000   1.0000   1.0000   1.0000   1.0000   1.0000   1.0000
     1.0000   1.0000   0.0000   0.0000

          k = 0.1000-0.5000-0.5000 (  2684 PWs)   bands (ev):

   -70.4109 -70.4109 -36.6609 -36.6609 -36.4313 -36.4313 -36.3094 -36.3094
    12.9268  12.9268  14.2827  14.2827  16.5773  16.5774  16.6779  16.6780
    16.8892  16.8892  19.2702  19.2702

     occupation numbers 
     1.0000   1.0000   1.0000   1.0000   1.0000   1.0000   1.0000   1.0000
     1.0000   1.0000   1.0000   1.0000   1.0000   1.0000   1.0000   1.0000
     1.0000   1.0000   0.0000   0.0000

          k = 0.2000 0.2000 0.2000 (  2683 PWs)   bands (ev):

   -70.4474 -70.3840 -36.5733 -36.5733 -36.4849 -36.4189 -36.3286 -36.3286
    11.4513  13.7742  13.7742  14.8270  14.8270  15.2805  16.4571  16.4571
    16.7996  17.1941  17.1941  24.9275

     occupation numbers 
     1.0000   1.0000   1.0000   1.0000   1.0000   1.0000   1.0000   1.0000
     1.0000   1.0000   1.0000   1.0000   1.0000   1.0000   1.0000   1.0000
     1.0000   1.0000   1.0000   0.0000

          k = 0.2000 0.2000 0.3000 (  2673 PWs)   bands (ev):

   -70.4373 -70.3912 -36.5958 -36.5387 -36.5284 -36.3875 -36.3608 -36.3251
    12.1870  13.9670  14.0084  14.6935  14.7320  14.9228  16.3739  16.6036
    16.7754  17.2812  17.3122  22.7020

     occupation numbers 
     1.0000   1.0000   1.0000   1.0000   1.0000   1.0000   1.0000   1.0000
     1.0000   1.0000   1.0000   1.0000   1.0000   1.0000   1.0000   1.0000
     1.0000   1.0004   1.0020   0.0000

          k = 0.2000 0.2000 0.4000 (  2679 PWs)   bands (ev):

   -70.4253 -70.4011 -36.6037 -36.5674 -36.4955 -36.4020 -36.3615 -36.3296
    12.9235  13.8505  14.1805  14.5449  14.8548  14.9734  16.3038  16.4639
    16.7646  17.1813  17.9631  20.5942

     occupation numbers 
     1.0000   1.0000   1.0000   1.0000   1.0000   1.0000   1.0000   1.0000
     1.0000   1.0000   1.0000   1.0000   1.0000   1.0000   1.0000   1.0000
     1.0000   1.0000   0.0000   0.0000

          k = 0.2000 0.2000-0.5000 (  2676 PWs)   bands (ev):

   -70.4128 -70.4127 -36.5939 -36.5939 -36.4484 -36.4484 -36.3419 -36.3419
    13.4654  13.4654  14.3775  14.3775  15.0306  15.0306  16.3123  16.3123
    16.9670  16.9671  18.9865  18.9865

     occupation numbers 
     1.0000   1.0000   1.0000   1.0000   1.0000   1.0000   1.0000   1.0000
     1.0000   1.0000   1.0000   1.0000   1.0000   1.0000   1.0000   1.0000
     1.0000   1.0000   0.0000   0.0000

          k = 0.2000 0.3000 0.3000 (  2676 PWs)   bands (ev):

   -70.4296 -70.3962 -36.6018 -36.5634 -36.5292 -36.3758 -36.3630 -36.3314
    12.7853  13.8999  14.4549  14.5192  14.5962  14.6972  16.4831  16.5891
    16.6713  17.2157  17.9166  22.8473

     occupation numbers 
     1.0000   1.0000   1.0000   1.0000   1.0000   1.0000   1.0000   1.0000
     1.0000   1.0000   1.0000   1.0000   1.0000   1.0000   1.0000   1.0000
     1.0000   1.0000   0.0000   0.0000

          k = 0.2000 0.3000 0.4000 (  2679 PWs)   bands (ev):

   -70.4206 -70.4030 -36.6131 -36.5935 -36.4937 -36.4095 -36.3458 -36.3321
    13.2310  13.7000  14.4243  14.4268  14.9230  14.9298  16.4752  16.5257
    16.7029  17.1279  18.6472  21.2762

     occupation numbers 
     1.0000   1.0000   1.0000   1.0000   1.0000   1.0000   1.0000   1.0000
     1.0000   1.0000   1.0000   1.0000   1.0000   1.0000   1.0000   1.0000
     1.0000   1.0000   0.0000   0.0000

          k = 0.2000 0.3000-0.5000 (  2666 PWs)   bands (ev):

   -70.4114 -70.4113 -36.6112 -36.6112 -36.4511 -36.4511 -36.3358 -36.3358
    13.4802  13.4802  14.3934  14.3935  15.1184  15.1184  16.4766  16.4767
    16.9065  16.9066  19.7187  19.7187

     occupation numbers 
     1.0000   1.0000   1.0000   1.0000   1.0000   1.0000   1.0000   1.0000
     1.0000   1.0000   1.0000   1.0000   1.0000   1.0000   1.0000   1.0000
     1.0000   1.0000   0.0000   0.0000

          k = 0.2000 0.4000 0.4000 (  2655 PWs)   bands (ev):

   -70.4153 -70.4060 -36.6249 -36.6159 -36.4737 -36.4245 -36.3373 -36.3338
    13.3135  13.4836  14.3142  14.3830  15.3288  15.4199  16.5558  16.5779
    16.6626  17.0369  19.4208  21.3091

     occupation numbers 
     1.0000   1.0000   1.0000   1.0000   1.0000   1.0000   1.0000   1.0000
     1.0000   1.0000   1.0000   1.0000   1.0000   1.0000   1.0000   1.0000
     1.0000   1.0000   0.0000   0.0000

          k = 0.2000 0.4000-0.5000 (  2666 PWs)   bands (ev):

   -70.4102 -70.4102 -36.6272 -36.6272 -36.4476 -36.4476 -36.3345 -36.3345
    13.3574  13.3574  14.2987  14.2987  15.6407  15.6407  16.5859  16.5860
    16.8050  16.8051  20.3888  20.3888

     occupation numbers 
     1.0000   1.0000   1.0000   1.0000   1.0000   1.0000   1.0000   1.0000
     1.0000   1.0000   1.0000   1.0000   1.0000   1.0000   1.0000   1.0000
     1.0000   1.0000   0.0000   0.0000

          k = 0.2000-0.5000-0.5000 (  2684 PWs)   bands (ev):

   -70.4098 -70.4098 -36.6337 -36.6337 -36.4453 -36.4452 -36.3347 -36.3347
    13.3022  13.3022  14.2429  14.2429  15.9849  15.9849  16.6210  16.6211
    16.6864  16.6865  20.7207  20.7207

     occupation numbers 
     1.0000   1.0000   1.0000   1.0000   1.0000   1.0000   1.0000   1.0000
     1.0000   1.0000   1.0000   1.0000   1.0000   1.0000   1.0000   1.0000
     1.0000   1.0000   0.0000   0.0000

          k = 0.3000 0.3000 0.3000 (  2662 PWs)   bands (ev):

   -70.4237 -70.3993 -36.5811 -36.5637 -36.5637 -36.3672 -36.3672 -36.3503
    13.4221  14.1717  14.4189  14.4189  14.4211  14.4211  16.5791  16.5791
    16.8624  16.8624  18.6696  24.1923

     occupation numbers 
     1.0000   1.0000   1.0000   1.0000   1.0000   1.0000   1.0000   1.0000
     1.0000   1.0000   1.0000   1.0000   1.0000   1.0000   1.0000   1.0000
     1.0000   1.0000   0.0000   0.0000

          k = 0.3000 0.3000 0.4000 (  2677 PWs)   bands (ev):

   -70.4168 -70.4040 -36.5952 -36.5884 -36.5161 -36.4128 -36.3574 -36.3462
    13.7511  13.9283  14.3499  14.3705  14.6009  14.8082  16.5663  16.6561
    16.6787  16.8891  19.5529  22.3628

     occupation numbers 
     1.0000   1.0000   1.0000   1.0000   1.0000   1.0000   1.0000   1.0000
     1.0000   1.0000   1.0000   1.0000   1.0000   1.0000   1.0000   1.0000
     1.0000   1.0000   0.0000   0.0000

          k = 0.3000 0.3000-0.5000 (  2668 PWs)   bands (ev):

   -70.4100 -70.4099 -36.5990 -36.5990 -36.4641 -36.4641 -36.3493 -36.3493
    13.7977  13.7977  14.3359  14.3359  14.9116  14.9117  16.5761  16.5762
    16.7912  16.7913  20.7427  20.7427

     occupation numbers 
     1.0000   1.0000   1.0000   1.0000   1.0000   1.0000   1.0000   1.0000
     1.0000   1.0000   1.0000   1.0000   1.0000   1.0000   1.0000   1.0000
     1.0000   1.0000   0.0000   0.0000

          k = 0.3000 0.4000 0.4000 (  2660 PWs)   bands (ev):

   -70.4126 -70.4059 -36.5964 -36.5839 -36.5040 -36.4284 -36.3723 -36.3541
    13.8512  13.8861  14.2680  14.3821  14.8345  14.9704  16.6343  16.6659
    16.6729  16.8032  20.5544  22.8254

     occupation numbers 
     1.0000   1.0000   1.0000   1.0000   1.0000   1.0000   1.0000   1.0000
     1.0000   1.0000   1.0000   1.0000   1.0000   1.0000   1.0000   1.0000
     1.0000   1.0000   0.0000   0.0000

          k = 0.3000 0.4000-0.5000 (  2662 PWs)   bands (ev):

   -70.4088 -70.4088 -36.5927 -36.5927 -36.4655 -36.4654 -36.3658 -36.3658
    13.8259  13.8260  14.2832  14.2832  15.0962  15.0962  16.6479  16.6480
    16.7282  16.7283  21.7440  21.7440

     occupation numbers 
     1.0000   1.0000   1.0000   1.0000   1.0000   1.0000   1.0000   1.0000
     1.0000   1.0000   1.0000   1.0000   1.0000   1.0000   1.0000   1.0000
     1.0000   1.0000   0.0000   0.0000

          k = 0.3000-0.5000-0.5000 (  2660 PWs)   bands (ev):

   -70.4084 -70.4084 -36.5916 -36.5916 -36.4625 -36.4624 -36.3743 -36.3743
    13.8062  13.8062  14.2219  14.2219  15.2780  15.2780  16.6696  16.6697
    16.6969  16.6971  22.3301  22.3301

     occupation numbers 
     1.0000   1.0000   1.0000   1.0000   1.0000   1.0000   1.0000   1.0000
     1.0000   1.0000   1.0000   1.0000   1.0000   1.0000   1.0000   1.0000
     1.0000   1.0000   0.0000   0.0000

          k = 0.4000 0.4000 0.4000 (  2650 PWs)   bands (ev):

   -70.4099 -70.4064 -36.5765 -36.5328 -36.5328 -36.4215 -36.4215 -36.3776
    13.9895  14.2811  14.2811  14.5593  14.6313  14.6313  16.6805  16.6805
    16.7165  16.7165  21.7576  24.5185

     occupation numbers 
     1.0000   1.0000   1.0000   1.0000   1.0000   1.0000   1.0000   1.0000
     1.0000   1.0000   1.0000   1.0000   1.0000   1.0000   1.0000   1.0000
     1.0000   1.0000   0.0000   0.0000

          k = 0.4000 0.4000-0.5000 (  2654 PWs)   bands (ev):

   -70.4077 -70.4077 -36.5564 -36.5564 -36.4768 -36.4768 -36.4026 -36.4026
    14.1037  14.1037  14.3955  14.3955  14.7497  14.7497  16.6894  16.6896
    16.7095  16.7097  23.1131  23.1131

     occupation numbers 
     1.0000   1.0000   1.0000   1.0000   1.0000   1.0000   1.0000   1.0000
     1.0000   1.0000   1.0000   1.0000   1.0000   1.0000   1.0000   1.0000
     1.0000   1.0000   0.0000   0.0000

          k = 0.4000-0.5000-0.5000 (  2668 PWs)   bands (ev):

   -70.4073 -70.4073 -36.5391 -36.5391 -36.4763 -36.4763 -36.4249 -36.4249
    14.2556  14.2557  14.2711  14.2711  14.7671  14.7671  16.7004  16.7006
    16.7055  16.7056  24.0861  24.0861

     occupation numbers 
     1.0000   1.0000   1.0000   1.0000   1.0000   1.0000   1.0000   1.0000
     1.0000   1.0000   1.0000   1.0000   1.0000   1.0000   1.0000   1.0000
     1.0000   1.0000   0.0000   0.0000

          k =-0.5000-0.5000-0.5000 (  2608 PWs)   bands (ev):

   -70.4069 -70.4068 -36.4816 -36.4816 -36.4816 -36.4816 -36.4816 -36.4816
    14.4399  14.4399  14.4399  14.4399  14.4399  14.4399  16.7087  16.7087
    16.7089  16.7089  25.9763  25.9764

     occupation numbers 
     1.0000   1.0000   1.0000   1.0000   1.0000   1.0000   1.0000   1.0000
     1.0000   1.0000   1.0000   1.0000   1.0000   1.0000   1.0000   1.0000
     1.0000   1.0000   0.0000   0.0000

 ------ SPIN DOWN ----------


          k = 0.0000 0.0000 0.0000 (  2721 PWs)   bands (ev):

   -67.7838 -67.6532 -33.9465 -33.9465 -33.9465 -33.6516 -33.6516 -33.6516
     9.3801  14.7442  14.7442  17.2980  17.2980  17.2980  19.3116  19.3116
    19.9156  19.9156  19.9156  27.4563

     occupation numbers 
     1.0000   1.0000   1.0000   1.0000   1.0000   1.0000   1.0000   1.0000
     1.0000   1.0000   1.0000   1.0010   1.0010   1.0010   0.0000   0.0000
     0.0000   0.0000   0.0000   0.0000

          k = 0.0000 0.0000 0.1000 (  2673 PWs)   bands (ev):

   -67.7801 -67.6560 -33.9456 -33.9389 -33.9389 -33.6652 -33.6583 -33.6583
     9.5841  14.8092  14.8463  17.2889  17.2889  17.3585  19.1939  19.3560
    19.6939  19.6939  19.8480  26.3542

     occupation numbers 
     1.0000   1.0000   1.0000   1.0000   1.0000   1.0000   1.0000   1.0000
     1.0000   1.0000   1.0000   1.0006   1.0006   1.0123   0.0000   0.0000
     0.0000   0.0000   0.0000   0.0000

          k = 0.0000 0.0000 0.2000 (  2677 PWs)   bands (ev):

   -67.7696 -67.6640 -33.9410 -33.9168 -33.9168 -33.7028 -33.6782 -33.6782
    10.1809  14.9420  15.1456  17.2773  17.2773  17.5348  18.8520  19.1678
    19.1678  19.4764  19.6526  24.2555

     occupation numbers 
     1.0000   1.0000   1.0000   1.0000   1.0000   1.0000   1.0000   1.0000
     1.0000   1.0000   1.0000   1.0004   1.0004   0.8327   0.0000   0.0000
     0.0000   0.0000   0.0000   0.0000

          k = 0.0000 0.0000 0.3000 (  2701 PWs)   bands (ev):

   -67.7537 -67.6769 -33.9287 -33.8828 -33.8828 -33.7560 -33.7094 -33.7094
    11.1218  14.9449  15.6211  17.3034  17.3034  17.8126  18.3209  18.5693
    18.5693  19.3512  19.6427  22.2713

     occupation numbers 
     1.0000   1.0000   1.0000   1.0000   1.0000   1.0000   1.0000   1.0000
     1.0000   1.0000   1.0000   1.0013   1.0013   0.0001   0.0000   0.0000
     0.0000   0.0000   0.0000   0.0000

          k = 0.0000 0.0000 0.4000 (  2670 PWs)   bands (ev):

   -67.7343 -67.6939 -33.9042 -33.8406 -33.8406 -33.8135 -33.7494 -33.7494
    12.3084  14.5190  16.2363  17.4161  17.4161  17.6584  18.0446  18.0446
    18.1679  18.9768  19.8422  20.8741

     occupation numbers 
     1.0000   1.0000   1.0000   1.0000   1.0000   1.0000   1.0000   1.0000
     1.0000   1.0000   1.0000   1.0556   1.0556   0.0786   0.0000   0.0000
     0.0000   0.0000   0.0000   0.0000

          k = 0.0000 0.0000-0.5000 (  2666 PWs)   bands (ev):

   -67.7137 -67.7136 -33.8652 -33.8651 -33.7946 -33.7946 -33.7946 -33.7946
    13.5493  13.5493  16.9380  16.9380  17.6563  17.6563  17.6563  17.6563
    18.5687  18.5687  20.1609  20.1609

     occupation numbers 
     1.0000   1.0000   1.0000   1.0000   1.0000   1.0000   1.0000   1.0000
     1.0000   1.0000   1.0000   1.0000   0.0837   0.0837   0.0837   0.0837
     0.0000   0.0000   0.0000   0.0000

          k = 0.0000 0.1000 0.1000 (  2668 PWs)   bands (ev):

   -67.7766 -67.6585 -33.9577 -33.9316 -33.9188 -33.6916 -33.6648 -33.6515
     9.7851  14.9008  14.9182  17.1685  17.2677  17.5296  19.1783  19.3216
    19.3499  19.4754  19.9432  26.4897

     occupation numbers 
     1.0000   1.0000   1.0000   1.0000   1.0000   1.0000   1.0000   1.0000
     1.0000   1.0000   1.0000   1.0000   1.0002   0.8671   0.0000   0.0000
     0.0000   0.0000   0.0000   0.0000

          k = 0.0000 0.1000 0.2000 (  2675 PWs)   bands (ev):

   -67.7666 -67.6661 -33.9640 -33.9105 -33.8879 -33.7382 -33.6835 -33.6602
    10.3724  15.0410  15.1947  17.0708  17.2218  17.7895  18.7860  18.9195
    18.9774  19.4246  19.8681  24.5338

     occupation numbers 
     1.0000   1.0000   1.0000   1.0000   1.0000   1.0000   1.0000   1.0000
     1.0000   1.0000   1.0000   1.0000   1.0000   0.0002   0.0000   0.0000
     0.0000   0.0000   0.0000   0.0000

          k = 0.0000 0.1000 0.3000 (  2688 PWs)   bands (ev):

   -67.7513 -67.6783 -33.9590 -33.8781 -33.8495 -33.7954 -33.7131 -33.6839
    11.2951  15.0353  15.6370  17.0446  17.1797  18.1129  18.2006  18.4712
    18.4926  19.6012  19.6295  22.4942

     occupation numbers 
     1.0000   1.0000   1.0000   1.0000   1.0000   1.0000   1.0000   1.0000
     1.0000   1.0000   1.0000   1.0000   1.0000   0.0000   0.0000   0.0000
     0.0000   0.0000   0.0000   0.0000

          k = 0.0000 0.1000 0.4000 (  2684 PWs)   bands (ev):

   -67.7328 -67.6944 -33.9395 -33.8536 -33.8378 -33.8061 -33.7511 -33.7190
    12.4518  14.5998  16.1872  17.0933  17.1231  17.7000  18.0704  18.1245
    18.4886  19.2869  19.8143  20.9903

     occupation numbers 
     1.0000   1.0000   1.0000   1.0000   1.0000   1.0000   1.0000   1.0000
     1.0000   1.0000   1.0000   1.0000   1.0000   0.0179   0.0000   0.0000
     0.0000   0.0000   0.0000   0.0000

          k = 0.0000 0.1000-0.5000 (  2690 PWs)   bands (ev):

   -67.7132 -67.7131 -33.9037 -33.9037 -33.7940 -33.7940 -33.7612 -33.7612
    13.6535  13.6535  16.7446  16.7447  17.3367  17.3367  17.9522  17.9522
    18.8919  18.8919  20.1748  20.1749

     occupation numbers 
     1.0000   1.0000   1.0000   1.0000   1.0000   1.0000   1.0000   1.0000
     1.0000   1.0000   1.0000   1.0000   1.0055   1.0055   0.0000   0.0000
     0.0000   0.0000   0.0000   0.0000

          k = 0.0000 0.2000 0.2000 (  2674 PWs)   bands (ev):

   -67.7578 -67.6724 -33.9869 -33.8924 -33.8458 -33.7957 -33.6992 -33.6515
    10.9283  15.2229  15.3730  16.8409  17.1042  18.1718  18.1848  18.5940
    18.9890  19.3607  20.0159  24.5919

     occupation numbers 
     1.0000   1.0000   1.0000   1.0000   1.0000   1.0000   1.0000   1.0000
     1.0000   1.0000   1.0000   1.0000   1.0000   0.0000   0.0000   0.0000
     0.0000   0.0000   0.0000   0.0000

          k = 0.0000 0.2000 0.3000 (  2675 PWs)   bands (ev):

   -67.7446 -67.6825 -33.9970 -33.8645 -33.8586 -33.8012 -33.7241 -33.6597
    11.7886  15.1534  15.7686  16.7029  16.9920  17.6107  18.3351  18.5836
    18.8092  19.4956  19.9593  22.8930

     occupation numbers 
     1.0000   1.0000   1.0000   1.0000   1.0000   1.0000   1.0000   1.0000
     1.0000   1.0000   1.0000   1.0000   1.0000   0.2756   0.0000   0.0000
     0.0000   0.0000   0.0000   0.0000

          k = 0.0000 0.2000 0.4000 (  2682 PWs)   bands (ev):

   -67.7287 -67.6960 -33.9897 -33.9171 -33.8299 -33.7569 -33.7561 -33.6824
    12.8369  14.7091  16.2241  16.6936  16.8708  17.1482  18.3277  18.5694
    19.0022  19.7303  19.7351  21.2318

     occupation numbers 
     1.0000   1.0000   1.0000   1.0000   1.0000   1.0000   1.0000   1.0000
     1.0000   1.0000   1.0000   1.0000   1.0000   1.0000   0.0000   0.0000
     0.0000   0.0000   0.0000   0.0000

          k = 0.0000 0.2000-0.5000 (  2688 PWs)   bands (ev):

   -67.7119 -67.7118 -33.9626 -33.9626 -33.7926 -33.7926 -33.7160 -33.7160
    13.8852  13.8852  16.6263  16.6263  16.8386  16.8386  18.4265  18.4265
    19.3993  19.3993  20.1929  20.1930

     occupation numbers 
     1.0000   1.0000   1.0000   1.0000   1.0000   1.0000   1.0000   1.0000
     1.0000   1.0000   1.0000   1.0000   1.0000   1.0000   0.0000   0.0000
     0.0000   0.0000   0.0000   0.0000

          k = 0.0000 0.3000 0.3000 (  2670 PWs)   bands (ev):

   -67.7346 -67.6895 -34.0229 -33.9228 -33.8436 -33.7547 -33.7416 -33.6515
    12.5166  14.9984  16.1613  16.4566  16.9167  17.0711  18.3753  19.0051
    19.0550  19.4362  20.1065  22.5792

     occupation numbers 
     1.0000   1.0000   1.0000   1.0000   1.0000   1.0000   1.0000   1.0000
     1.0000   1.0000   1.0000   1.0000   1.0000   1.0000   0.0000   0.0000
     0.0000   0.0000   0.0000   0.0000

          k = 0.0000 0.3000 0.4000 (  2669 PWs)   bands (ev):

   -67.7226 -67.6989 -34.0300 -33.9775 -33.8181 -33.7645 -33.7135 -33.6592
    13.3279  14.6107  16.3531  16.6238  16.6614  16.9663  18.5956  18.9542
    19.4833  19.6013  20.0530  21.2766

     occupation numbers 
     1.0000   1.0000   1.0000   1.0000   1.0000   1.0000   1.0000   1.0000
     1.0000   1.0000   1.0000   1.0000   1.0000   1.0000   0.0000   0.0000
     0.0000   0.0000   0.0000   0.0000

          k = 0.0000 0.3000-0.5000 (  2672 PWs)   bands (ev):

   -67.7103 -67.7103 -34.0148 -34.0148 -33.7908 -33.7908 -33.6808 -33.6808
    14.0521  14.0521  16.4183  16.4183  16.9310  16.9310  18.8268  18.8268
    19.8303  19.8303  20.1302  20.1302

     occupation numbers 
     1.0000   1.0000   1.0000   1.0000   1.0000   1.0000   1.0000   1.0000
     1.0000   1.0000   1.0000   1.0000   1.0000   1.0000   0.0000   0.0000
     0.0000   0.0000   0.0000   0.0000

          k = 0.0000 0.4000 0.4000 (  2684 PWs)   bands (ev):

   -67.7157 -67.7033 -34.0519 -34.0244 -33.8040 -33.7758 -33.6801 -33.6515
    13.7585  14.3643  16.1607  16.3156  17.2302  17.3880  18.8722  19.1225
    19.5213  19.8676  20.1805  20.7205

     occupation numbers 
     1.0000   1.0000   1.0000   1.0000   1.0000   1.0000   1.0000   1.0000
     1.0000   1.0000   1.0000   1.0000   1.0000   1.0299   0.0000   0.0000
     0.0000   0.0000   0.0000   0.0000

          k = 0.0000 0.4000-0.5000 (  2668 PWs)   bands (ev):

   -67.7090 -67.7090 -34.0503 -34.0503 -33.7894 -33.7893 -33.6589 -33.6589
    14.0839  14.0839  16.1452  16.1452  17.6235  17.6235  19.0778  19.0778
    19.8569  19.8569  20.1116  20.1116

     occupation numbers 
     1.0000   1.0000   1.0000   1.0000   1.0000   1.0000   1.0000   1.0000
     1.0000   1.0000   1.0000   1.0000   0.2057   0.2057   0.0000   0.0000
[...]
    11.4687  15.1368  15.6495  16.9458  16.9904  17.7622  18.3643  18.6147
    18.6885  19.5664  19.6412  22.7452

     occupation numbers 
     1.0000   1.0000   1.0000   1.0000   1.0000   1.0000   1.0000   1.0000
     1.0000   1.0000   1.0000   1.0000   1.0000   0.0010   0.0000   0.0000
     0.0000   0.0000   0.0000   0.0000

          k = 0.1000 0.1000 0.4000 (  2678 PWs)   bands (ev):

   -67.7314 -67.6949 -33.9540 -33.8766 -33.8479 -33.7800 -33.7532 -33.7051
    12.5982  14.6928  16.1292  16.8594  17.0149  17.4376  18.2506  18.2736
    18.7566  19.3957  19.7965  21.1613

     occupation numbers 
     1.0000   1.0000   1.0000   1.0000   1.0000   1.0000   1.0000   1.0000
     1.0000   1.0000   1.0000   1.0000   1.0000   1.0751   0.0000   0.0000
     0.0000   0.0000   0.0000   0.0000

          k = 0.1000 0.1000-0.5000 (  2672 PWs)   bands (ev):

   -67.7127 -67.7126 -33.9232 -33.9232 -33.8001 -33.8001 -33.7404 -33.7404
    13.7650  13.7650  16.5783  16.5784  17.1998  17.1999  18.1003  18.1003
    19.1125  19.1125  20.2261  20.2261

     occupation numbers 
     1.0000   1.0000   1.0000   1.0000   1.0000   1.0000   1.0000   1.0000
     1.0000   1.0000   1.0000   1.0000   1.0000   1.0000   0.0000   0.0000
     0.0000   0.0000   0.0000   0.0000

          k = 0.1000 0.2000 0.2000 (  2691 PWs)   bands (ev):

   -67.7553 -67.6740 -33.9783 -33.9182 -33.8196 -33.8143 -33.6921 -33.6593
    11.1130  15.3291  15.4252  16.7934  16.9361  17.6666  18.3946  19.0059
    19.0512  19.3240  19.8107  24.9682

     occupation numbers 
     1.0000   1.0000   1.0000   1.0000   1.0000   1.0000   1.0000   1.0000
     1.0000   1.0000   1.0000   1.0000   1.0000   0.0603   0.0000   0.0000
     0.0000   0.0000   0.0000   0.0000

          k = 0.1000 0.2000 0.3000 (  2684 PWs)   bands (ev):

   -67.7426 -67.6836 -33.9907 -33.8871 -33.8720 -33.7795 -33.7205 -33.6652
    11.9625  15.2835  15.7683  16.6445  16.8149  17.2235  18.6531  18.8211
    18.8832  19.4775  19.7860  23.2195

     occupation numbers 
     1.0000   1.0000   1.0000   1.0000   1.0000   1.0000   1.0000   1.0000
     1.0000   1.0000   1.0000   1.0000   1.0000   1.0000   0.0000   0.0000
     0.0000   0.0000   0.0000   0.0000

          k = 0.1000 0.2000 0.4000 (  2675 PWs)   bands (ev):

   -67.7274 -67.6963 -33.9880 -33.9255 -33.8464 -33.7583 -33.7417 -33.6821
    12.9921  14.8329  16.1296  16.5686  16.7562  16.9986  18.4821  18.6369
    19.2344  19.6345  19.7567  21.5272

     occupation numbers 
     1.0000   1.0000   1.0000   1.0000   1.0000   1.0000   1.0000   1.0000
     1.0000   1.0000   1.0000   1.0000   1.0000   1.0000   0.0000   0.0000
     0.0000   0.0000   0.0000   0.0000

          k = 0.1000 0.2000-0.5000 (  2686 PWs)   bands (ev):

   -67.7114 -67.7114 -33.9659 -33.9659 -33.8018 -33.8017 -33.7084 -33.7084
    14.0168  14.0168  16.4156  16.4156  16.8410  16.8410  18.4930  18.4930
    19.4596  19.4596  20.3839  20.3839

     occupation numbers 
     1.0000   1.0000   1.0000   1.0000   1.0000   1.0000   1.0000   1.0000
     1.0000   1.0000   1.0000   1.0000   1.0000   1.0000   0.0000   0.0000
     0.0000   0.0000   0.0000   0.0000

          k = 0.1000 0.3000 0.3000 (  2669 PWs)   bands (ev):

   -67.7330 -67.6901 -34.0133 -33.9284 -33.8644 -33.7409 -33.7399 -33.6601
    12.6892  15.1329  16.1455  16.4063  16.7282  16.8071  18.6023  19.0472
    19.3279  19.4307  19.8910  23.0105

     occupation numbers 
     1.0000   1.0000   1.0000   1.0000   1.0000   1.0000   1.0000   1.0000
     1.0000   1.0000   1.0000   1.0000   1.0000   1.0000   0.0000   0.0000
     0.0000   0.0000   0.0000   0.0000

          k = 0.1000 0.3000 0.4000 (  2666 PWs)   bands (ev):

   -67.7216 -67.6990 -34.0216 -33.9772 -33.8331 -33.7669 -33.7080 -33.6661
    13.4925  14.7468  16.2940  16.4179  16.6595  16.7722  18.7116  18.9865
    19.5206  19.8281  19.8755  21.7420

     occupation numbers 
     1.0000   1.0000   1.0000   1.0000   1.0000   1.0000   1.0000   1.0000
     1.0000   1.0000   1.0000   1.0000   1.0000   1.0000   0.0000   0.0000
     0.0000   0.0000   0.0000   0.0000

          k = 0.1000 0.3000-0.5000 (  2672 PWs)   bands (ev):

   -67.7098 -67.7098 -34.0097 -34.0097 -33.7992 -33.7991 -33.6825 -33.6825
    14.2006  14.2006  16.3133  16.3133  16.8124  16.8124  18.8694  18.8694
    19.6582  19.6582  20.6026  20.6026

     occupation numbers 
     1.0000   1.0000   1.0000   1.0000   1.0000   1.0000   1.0000   1.0000
     1.0000   1.0000   1.0000   1.0000   1.0000   1.0000   0.0000   0.0000
     0.0000   0.0000   0.0000   0.0000

          k = 0.1000 0.4000 0.4000 (  2670 PWs)   bands (ev):

   -67.7149 -67.7031 -34.0416 -34.0184 -33.8149 -33.7796 -33.6825 -33.6608
    13.9210  14.5035  16.1182  16.2404  17.0783  17.1120  18.9460  19.1511
    19.5249  19.8404  20.2686  21.4011

     occupation numbers 
     1.0000   1.0000   1.0000   1.0000   1.0000   1.0000   1.0000   1.0000
     1.0000   1.0000   1.0000   1.0000   1.0000   1.0000   0.0000   0.0000
     0.0000   0.0000   0.0000   0.0000

          k = 0.1000 0.4000-0.5000 (  2668 PWs)   bands (ev):

   -67.7085 -67.7085 -34.0411 -34.0411 -33.7962 -33.7961 -33.6665 -33.6665
    14.2334  14.2334  16.0971  16.0971  17.3574  17.3574  19.1147  19.1147
    19.6518  19.6518  20.7522  20.7522

     occupation numbers 
     1.0000   1.0000   1.0000   1.0000   1.0000   1.0000   1.0000   1.0000
     1.0000   1.0000   1.0000   1.0000   1.0118   1.0118   0.0000   0.0000
     0.0000   0.0000   0.0000   0.0000

          k = 0.1000-0.5000-0.5000 (  2684 PWs)   bands (ev):

   -67.7081 -67.7080 -34.0524 -34.0524 -33.7949 -33.7949 -33.6611 -33.6611
    14.2245  14.2245  16.0129  16.0129  17.7180  17.7180  19.1968  19.1968
    19.5644  19.5644  20.7910  20.7910

     occupation numbers 
     1.0000   1.0000   1.0000   1.0000   1.0000   1.0000   1.0000   1.0000
     1.0000   1.0000   1.0000   1.0000   0.0084   0.0084   0.0000   0.0000
     0.0000   0.0000   0.0000   0.0000

          k = 0.2000 0.2000 0.2000 (  2683 PWs)   bands (ev):

   -67.7480 -67.6788 -33.9533 -33.9533 -33.8563 -33.7815 -33.6819 -33.6819
    11.6456  15.5696  15.5696  16.6684  16.6684  17.0193  18.8391  19.2155
    19.2155  19.3765  19.3765  25.9158

     occupation numbers 
     1.0000   1.0000   1.0000   1.0000   1.0000   1.0000   1.0000   1.0000
     1.0000   1.0000   1.0000   1.0000   1.0000   1.0000   0.0000   0.0000
     0.0000   0.0000   0.0000   0.0000

          k = 0.2000 0.2000 0.3000 (  2673 PWs)   bands (ev):

   -67.7370 -67.6867 -33.9789 -33.9148 -33.9048 -33.7468 -33.7176 -33.6782
    12.4562  15.5924  15.7708  16.5049  16.5064  16.6686  18.9761  19.0476
    19.3207  19.4425  19.5335  23.9122

     occupation numbers 
     1.0000   1.0000   1.0000   1.0000   1.0000   1.0000   1.0000   1.0000
     1.0000   1.0000   1.0000   1.0000   1.0000   1.0000   0.0000   0.0000
     0.0000   0.0000   0.0000   0.0000

          k = 0.2000 0.2000 0.4000 (  2679 PWs)   bands (ev):

   -67.7238 -67.6974 -33.9881 -33.9481 -33.8669 -33.7632 -33.7181 -33.6831
    13.4130  15.0918  15.9810  16.3362  16.5174  16.7082  18.7502  18.8605
    19.5005  19.5454  20.0079  22.1348

     occupation numbers 
     1.0000   1.0000   1.0000   1.0000   1.0000   1.0000   1.0000   1.0000
     1.0000   1.0000   1.0000   1.0000   1.0000   1.0000   0.0000   0.0000
     0.0000   0.0000   0.0000   0.0000

          k = 0.2000 0.2000-0.5000 (  2676 PWs)   bands (ev):

   -67.7101 -67.7101 -33.9776 -33.9776 -33.8147 -33.8146 -33.6966 -33.6966
    14.3347  14.3347  16.1678  16.1678  16.6529  16.6529  18.7302  18.7302
    19.5334  19.5334  20.8606  20.8606

     occupation numbers 
     1.0000   1.0000   1.0000   1.0000   1.0000   1.0000   1.0000   1.0000
     1.0000   1.0000   1.0000   1.0000   1.0000   1.0000   0.0000   0.0000
     0.0000   0.0000   0.0000   0.0000

          k = 0.2000 0.3000 0.3000 (  2676 PWs)   bands (ev):

   -67.7285 -67.6920 -33.9858 -33.9437 -33.9045 -33.7342 -33.7198 -33.6853
    13.1757  15.4890  16.0965  16.2771  16.3163  16.3778  18.9860  19.1821
    19.4090  19.5320  19.9097  24.0118

     occupation numbers 
     1.0000   1.0000   1.0000   1.0000   1.0000   1.0000   1.0000   1.0000
     1.0000   1.0000   1.0000   1.0000   1.0000   1.0000   0.0000   0.0000
     0.0000   0.0000   0.0000   0.0000

          k = 0.2000 0.3000 0.4000 (  2679 PWs)   bands (ev):

   -67.7186 -67.6994 -33.9987 -33.9772 -33.8650 -33.7715 -33.7009 -33.6860
    13.9481  15.0961  16.1102  16.1487  16.3938  16.4932  18.9648  19.1178
    19.5211  19.5712  20.5402  22.6594

     occupation numbers 
     1.0000   1.0000   1.0000   1.0000   1.0000   1.0000   1.0000   1.0000
     1.0000   1.0000   1.0000   1.0000   1.0000   1.0000   0.0000   0.0000
     0.0000   0.0000   0.0000   0.0000

          k = 0.2000 0.3000-0.5000 (  2666 PWs)   bands (ev):

   -67.7086 -67.7085 -33.9969 -33.9969 -33.8177 -33.8177 -33.6901 -33.6901
    14.5940  14.5941  16.0920  16.0920  16.5298  16.5298  19.0212  19.0212
    19.5707  19.5707  21.4003  21.4003

     occupation numbers 
     1.0000   1.0000   1.0000   1.0000   1.0000   1.0000   1.0000   1.0000
     1.0000   1.0000   1.0000   1.0000   1.0000   1.0000   0.0000   0.0000
     0.0000   0.0000   0.0000   0.0000

          k = 0.2000 0.4000 0.4000 (  2655 PWs)   bands (ev):

   -67.7128 -67.7027 -34.0121 -34.0022 -33.8427 -33.7880 -33.6917 -33.6881
    14.3744  14.8740  16.0116  16.0701  16.5884  16.7193  19.1262  19.2529
    19.5325  19.5983  21.1252  22.5641

     occupation numbers 
     1.0000   1.0000   1.0000   1.0000   1.0000   1.0000   1.0000   1.0000
     1.0000   1.0000   1.0000   1.0000   1.0000   1.0000   0.0000   0.0000
     0.0000   0.0000   0.0000   0.0000

          k = 0.2000 0.4000-0.5000 (  2666 PWs)   bands (ev):

   -67.7073 -67.7073 -34.0149 -34.0149 -33.8136 -33.8136 -33.6888 -33.6888
    14.6423  14.6423  15.9811  15.9811  16.8301  16.8301  19.2287  19.2287
    19.5779  19.5780  21.8257  21.8257

     occupation numbers 
     1.0000   1.0000   1.0000   1.0000   1.0000   1.0000   1.0000   1.0000
     1.0000   1.0000   1.0000   1.0000   1.0000   1.0000   0.0000   0.0000
     0.0000   0.0000   0.0000   0.0000

          k = 0.2000-0.5000-0.5000 (  2684 PWs)   bands (ev):

   -67.7068 -67.7068 -34.0221 -34.0221 -33.8109 -33.8109 -33.6892 -33.6892
    14.6299  14.6299  15.9187  15.9187  17.0532  17.0532  19.2952  19.2952
    19.5759  19.5759  21.9964  21.9964

     occupation numbers 
     1.0000   1.0000   1.0000   1.0000   1.0000   1.0000   1.0000   1.0000
     1.0000   1.0000   1.0000   1.0000   1.0000   1.0000   0.0000   0.0000
     0.0000   0.0000   0.0000   0.0000

          k = 0.3000 0.3000 0.3000 (  2662 PWs)   bands (ev):

   -67.7220 -67.6955 -33.9633 -33.9434 -33.9434 -33.7250 -33.7250 -33.7058
    13.8688  15.7493  16.0222  16.0222  16.1216  16.1216  19.2908  19.2908
    19.3631  19.3631  20.5749  25.2955

     occupation numbers 
     1.0000   1.0000   1.0000   1.0000   1.0000   1.0000   1.0000   1.0000
     1.0000   1.0000   1.0000   1.0000   1.0000   1.0000   0.0000   0.0000
     0.0000   0.0000   0.0000   0.0000

          k = 0.3000 0.3000 0.4000 (  2677 PWs)   bands (ev):

   -67.7145 -67.7005 -33.9790 -33.9712 -33.8904 -33.7756 -33.7142 -33.7014
    14.5539  15.3857  15.9549  15.9959  16.1001  16.2913  19.2056  19.2953
    19.4739  19.5130  21.3034  23.6314

     occupation numbers 
     1.0000   1.0000   1.0000   1.0000   1.0000   1.0000   1.0000   1.0000
     1.0000   1.0000   1.0000   1.0000   1.0000   1.0000   0.0000   0.0000
     0.0000   0.0000   0.0000   0.0000

          k = 0.3000 0.3000-0.5000 (  2668 PWs)   bands (ev):

   -67.7070 -67.7070 -33.9832 -33.9832 -33.8326 -33.8326 -33.7051 -33.7051
    15.0273  15.0273  15.9379  15.9379  16.2753  16.2753  19.2277  19.2277
    19.5526  19.5526  22.2605  22.2605

     occupation numbers 
     1.0000   1.0000   1.0000   1.0000   1.0000   1.0000   1.0000   1.0000
     1.0000   1.0000   1.0000   1.0000   1.0000   1.0000   0.0000   0.0000
     0.0000   0.0000   0.0000   0.0000

          k = 0.3000 0.4000 0.4000 (  2660 PWs)   bands (ev):

   -67.7099 -67.7025 -33.9804 -33.9664 -33.8771 -33.7929 -33.7310 -33.7104
    15.0077  15.3067  15.8934  15.9429  16.1138  16.3306  19.3343  19.3992
    19.5140  19.5366  22.1059  23.9594

     occupation numbers 
     1.0000   1.0000   1.0000   1.0000   1.0000   1.0000   1.0000   1.0000
     1.0000   1.0000   1.0000   1.0000   1.0000   1.0000   0.0000   0.0000
     0.0000   0.0000   0.0000   0.0000

          k = 0.3000 0.4000-0.5000 (  2662 PWs)   bands (ev):

   -67.7058 -67.7057 -33.9763 -33.9763 -33.8341 -33.8341 -33.7236 -33.7236
    15.1775  15.1775  15.8705  15.8705  16.3396  16.3396  19.3842  19.3842
    19.5678  19.5678  23.0464  23.0464

     occupation numbers 
     1.0000   1.0000   1.0000   1.0000   1.0000   1.0000   1.0000   1.0000
     1.0000   1.0000   1.0000   1.0000   1.0000   1.0000   0.0000   0.0000
     0.0000   0.0000   0.0000   0.0000

          k = 0.3000-0.5000-0.5000 (  2660 PWs)   bands (ev):

   -67.7053 -67.7052 -33.9752 -33.9752 -33.8306 -33.8306 -33.7332 -33.7332
    15.1738  15.1738  15.8193  15.8193  16.4829  16.4829  19.4297  19.4297
    19.5902  19.5902  23.4602  23.4602

     occupation numbers 
     1.0000   1.0000   1.0000   1.0000   1.0000   1.0000   1.0000   1.0000
     1.0000   1.0000   1.0000   1.0000   1.0000   1.0000   0.0000   0.0000
     0.0000   0.0000   0.0000   0.0000

          k = 0.4000 0.4000 0.4000 (  2650 PWs)   bands (ev):

   -67.7069 -67.7030 -33.9582 -33.9094 -33.9094 -33.7856 -33.7856 -33.7366
    15.4987  15.5832  15.8257  15.8257  16.0292  16.0292  19.5031  19.5031
    19.5314  19.5314  23.1255  25.5332

     occupation numbers 
     1.0000   1.0000   1.0000   1.0000   1.0000   1.0000   1.0000   1.0000
     1.0000   1.0000   1.0000   1.0000   1.0000   1.0000   0.0000   0.0000
     0.0000   0.0000   0.0000   0.0000

          k = 0.4000 0.4000-0.5000 (  2654 PWs)   bands (ev):

   -67.7045 -67.7045 -33.9359 -33.9359 -33.8471 -33.8471 -33.7646 -33.7646
    15.5613  15.5613  15.8608  15.8608  16.0371  16.0371  19.5169  19.5170
    19.5782  19.5782  24.2701  24.2701

     occupation numbers 
     1.0000   1.0000   1.0000   1.0000   1.0000   1.0000   1.0000   1.0000
     1.0000   1.0000   1.0000   1.0000   1.0000   1.0000   0.0000   0.0000
     0.0000   0.0000   0.0000   0.0000

          k = 0.4000-0.5000-0.5000 (  2668 PWs)   bands (ev):

   -67.7040 -67.7040 -33.9167 -33.9167 -33.8466 -33.8465 -33.7895 -33.7895
    15.6555  15.6555  15.7778  15.7778  16.0795  16.0795  19.5537  19.5537
    19.6018  19.6018  25.0954  25.0954

     occupation numbers 
     1.0000   1.0000   1.0000   1.0000   1.0000   1.0000   1.0000   1.0000
     1.0000   1.0000   1.0000   1.0000   1.0000   1.0000   0.0000   0.0000
     0.0000   0.0000   0.0000   0.0000

          k =-0.5000-0.5000-0.5000 (  2608 PWs)   bands (ev):

   -67.7035 -67.7035 -33.8527 -33.8527 -33.8527 -33.8526 -33.8526 -33.8526
    15.8510  15.8510  15.8510  15.8510  15.8510  15.8510  19.6062  19.6062
    19.6062  19.6062  26.8668  26.8669

     occupation numbers 
     1.0000   1.0000   1.0000   1.0000   1.0000   1.0000   1.0000   1.0000
     1.0000   1.0000   1.0000   1.0000   1.0000   1.0000   0.0000   0.0000
     0.0000   0.0000   0.0000   0.0000

     the Fermi energy is    17.5918 ev

!    total energy              =    -658.53998944 Ry
     total all-electron energy =     -5091.133056 Ry
     estimated scf accuracy    <          6.9E-11 Ry
     smearing contrib. (-TS)   =      -0.00010668 Ry
     internal energy E=F+TS    =    -658.53988276 Ry

     The total energy is F=E-TS. E is the sum of the following terms:
     one-electron contribution =    -225.21981398 Ry
     hartree contribution      =     132.14498948 Ry
     xc contribution           =     -55.48819013 Ry
     ewald contribution        =    -344.39296900 Ry
     one-center paw contrib.   =    -165.58389913 Ry
      -> PAW hartree energy AE =     182.97584497 Ry
      -> PAW hartree energy PS =    -181.67792044 Ry
      -> PAW xc energy AE      =    -110.16184111 Ry
      -> PAW xc energy PS      =      26.07196664 Ry
      -> total E_H with PAW    =     133.44291401 Ry
      -> total E_XC with PAW   =    -139.57806460 Ry

     total magnetization       =     4.46 Bohr mag/cell
     absolute magnetization    =     4.72 Bohr mag/cell

     convergence has been achieved in  13 iterations

     Writing all to output data dir ./out/Fe.save/ :
     XML data file, charge density, pseudopotentials, collected wavefunctions

     init_run     :      1.11s CPU      1.26s WALL (       1 calls)
     electrons    :     57.67s CPU     58.87s WALL (       1 calls)

     Called by init_run:
     wfcinit      :      0.34s CPU      0.38s WALL (       1 calls)
     potinit      :      0.47s CPU      0.55s WALL (       1 calls)
     hinit0       :      0.19s CPU      0.20s WALL (       1 calls)

     Called by electrons:
     c_bands      :     44.91s CPU     45.74s WALL (      13 calls)
     sum_band     :      7.57s CPU      7.73s WALL (      13 calls)
     v_of_rho     :      0.32s CPU      0.34s WALL (      14 calls)
     v_h          :      0.01s CPU      0.01s WALL (      14 calls)
     v_xc         :      0.31s CPU      0.33s WALL (      14 calls)
     newd         :      0.87s CPU      0.89s WALL (      14 calls)
     PAW_pot      :      4.23s CPU      4.45s WALL (      14 calls)
     mix_rho      :      0.08s CPU      0.08s WALL (      13 calls)

     Called by c_bands:
     init_us_2    :      0.59s CPU      0.60s WALL (    2912 calls)
     cegterg      :     43.43s CPU     44.23s WALL (    1456 calls)

     Called by sum_band:
     sum_band:wei :      0.04s CPU      0.04s WALL (      13 calls)
     sum_band:loo :      6.25s CPU      6.39s WALL (      13 calls)
     sum_band:buf :      0.07s CPU      0.07s WALL (    1456 calls)
     sum_band:ini :      0.27s CPU      0.28s WALL (    1456 calls)
     sum_band:cal :      1.10s CPU      1.13s WALL (    1456 calls)
     sum_band:bec :      0.05s CPU      0.05s WALL (    1456 calls)
     addusdens    :      1.21s CPU      1.23s WALL (      13 calls)
                                        0.00s GPU  (      13 calls)
     addusd:skk   :      0.00s CPU      0.00s WALL (      13 calls)
                                        0.00s GPU  (      13 calls)

     Called by *egterg:
     cdiaghg      :      3.75s CPU      3.81s WALL (    4610 calls)
     cegterg:over :      3.58s CPU      3.66s WALL (    3266 calls)
     cegterg:upda :      1.55s CPU      1.56s WALL (    3266 calls)
     cegterg:last :      3.30s CPU      3.32s WALL (    2522 calls)
     h_psi        :     26.30s CPU     26.84s WALL (    4722 calls)
     s_psi        :      2.34s CPU      2.39s WALL (    4722 calls)
     g_psi        :      0.24s CPU      0.24s WALL (    3266 calls)

     Called by h_psi:
     h_psi:calbec :      2.89s CPU      2.98s WALL (    4722 calls)
     vloc_psi     :     20.88s CPU     21.28s WALL (    4722 calls)
     add_vuspsi   :      2.35s CPU      2.41s WALL (    4722 calls)

     General routines
     calbec       :      3.98s CPU      4.10s WALL (    6178 calls)
     fft          :      0.22s CPU      0.23s WALL (     344 calls)
     ffts         :      0.17s CPU      0.17s WALL (      54 calls)
     fftw         :     20.40s CPU     20.79s WALL (  167672 calls)
     interpolate  :      0.19s CPU      0.19s WALL (      28 calls)

     Parallel routines

     PAW routines
     PAW_pot      :      4.23s CPU      4.45s WALL (      14 calls)
     PAW_symme    :      0.03s CPU      0.03s WALL (      26 calls)

     PWSCF        :     59.25s CPU   1m 0.95s WALL


   This run was terminated on:   7: 7:21  16Apr2024            

=------------------------------------------------------------------------------=
   JOB DONE.
=------------------------------------------------------------------------------=
