
     Program PWSCF v.7.2 starts on 22Mar2024 at 10:52:48 

     This program is part of the open-source Quantum ESPRESSO suite
     for quantum simulation of materials; please cite
         "P. Giannozzi et al., J. Phys.:Condens. Matter 21 395502 (2009);
         "P. Giannozzi et al., J. Phys.:Condens. Matter 29 465901 (2017);
         "P. Giannozzi et al., J. Chem. Phys. 152 154105 (2020);
          URL http://www.quantum-espresso.org", 
     in publications or presentations arising from this work. More details at
     http://www.quantum-espresso.org/quote

     Parallel version (MPI), running on    28 processors

     MPI processes distributed on     1 nodes
     182183 MiB available memory on the printing compute node when the environment starts
 
     Waiting for input...
     Reading input from standard input

     Current dimensions of program PWSCF are:
     Max number of different atomic species (ntypx) = 10
     Max number of k-points (npk) = 120000
     Max angular momentum in pseudopotentials (lmaxx) =  4
     file Co.pbe-spn-kjpaw_psl.0.3.1.UPF: wavefunction(s)  3P 3D renormalized
 
     K-points division:     npool     =       2
     R & G space division:  proc/nbgrp/npool/nimage =      14
     Subspace diagonalization in iterative solution of the eigenvalue problem:
     a serial algorithm will be used

 
     Parallelization info
     --------------------
     sticks:   dense  smooth     PW     G-vecs:    dense   smooth      PW
     Min          48      48     14                 1658     1610     262
     Max          50      49     15                 1669     1617     269
     Sum         685     673    199                23235    22575    3705
 
     Using Slab Decomposition
 


     bravais-lattice index     =            4
     lattice parameter (alat)  =       4.7149  a.u.
     unit-cell volume          =     144.6124 (a.u.)^3
     number of atoms/cell      =            2
     number of atomic types    =            1
     number of electrons       =        34.00
     number of Kohn-Sham states=           21
     kinetic-energy cutoff     =     110.0000  Ry
     charge density cutoff     =     450.0000  Ry
     scf convergence threshold =      1.0E-06
     mixing beta               =       0.7000
     number of iterations used =            8  plain     mixing
     Exchange-correlation= SLA  PW   PBX  PBC
                           (   1   4   3   4   0   0   0)

     celldm(1)=   4.714867  celldm(2)=   0.000000  celldm(3)=   1.593186
     celldm(4)=   0.000000  celldm(5)=   0.000000  celldm(6)=   0.000000

     crystal axes: (cart. coord. in units of alat)
               a(1) = (   1.000000   0.000000   0.000000 )  
               a(2) = (  -0.500000   0.866025   0.000000 )  
               a(3) = (   0.000000   0.000000   1.593186 )  

     reciprocal axes: (cart. coord. in units 2 pi/alat)
               b(1) = (  1.000000  0.577350  0.000000 )  
               b(2) = (  0.000000  1.154701  0.000000 )  
               b(3) = (  0.000000  0.000000  0.627673 )  


     PseudoPot. # 1 for Co read from file:
     /truba/home/amuhaymin/ZnS/pseudo/QE/Co.pbe-spn-kjpaw_psl.0.3.1.UPF
     MD5 check sum: b0a1ad65bf214e88c1f3d33b20c7d919
     Pseudo is Projector augmented-wave + core cor, Zval = 17.0
     Generated using &quot;atomic&quot; code by A. Dal Corso  v.6.2.2
     Shape of augmentation charge: PSQ
     Using radial grid of 1193 points,  6 beta functions with: 
                l(1) =   0
                l(2) =   0
                l(3) =   1
                l(4) =   1
                l(5) =   2
                l(6) =   2
     Q(r) pseudized with 0 coefficients 


     atomic species   valence    mass     pseudopotential
        Co            17.00    58.93300     Co( 1.00)

     Starting magnetic structure 
     atomic species   magnetization
        Co           0.294

     24 Sym. Ops., with inversion, found (12 have fractional translation)


                                    s                        frac. trans.

      isym =  1     identity                                     

 cryst.   s( 1) = (     1          0          0      )
                  (     0          1          0      )
                  (     0          0          1      )

 cart.    s( 1) = (  1.0000000  0.0000000  0.0000000 )
                  (  0.0000000  1.0000000  0.0000000 )
                  (  0.0000000  0.0000000  1.0000000 )


      isym =  2     180 deg rotation - cart. axis [0,0,1]        

 cryst.   s( 2) = (    -1          0          0      )    f =(  0.0000000 )
                  (     0         -1          0      )       ( -0.0000000 )
                  (     0          0          1      )       ( -0.5000000 )

 cart.    s( 2) = ( -1.0000000  0.0000000  0.0000000 )    f =(  0.0000000 )
                  (  0.0000000 -1.0000000  0.0000000 )       ( -0.0000000 )
                  (  0.0000000  0.0000000  1.0000000 )       ( -0.7965932 )


      isym =  3     180 deg rotation - cart. axis [0,1,0]        

 cryst.   s( 3) = (    -1          0          0      )    f =(  0.0000000 )
                  (     1          1          0      )       (  0.0000000 )
                  (     0          0         -1      )       (  0.5000000 )

 cart.    s( 3) = ( -1.0000000  0.0000000  0.0000000 )    f =(  0.0000000 )
                  (  0.0000000  1.0000000  0.0000000 )       (  0.0000000 )
                  (  0.0000000  0.0000000 -1.0000000 )       (  0.7965932 )


      isym =  4     180 deg rotation - cart. axis [1,0,0]        

 cryst.   s( 4) = (     1          0          0      )
                  (    -1         -1          0      )
                  (     0          0         -1      )

 cart.    s( 4) = (  1.0000000  0.0000000  0.0000000 )
                  (  0.0000000 -1.0000000  0.0000000 )
                  (  0.0000000  0.0000000 -1.0000000 )


      isym =  5      60 deg rotation - cryst. axis [0,0,1]       

 cryst.   s( 5) = (     1          1          0      )    f =(  0.0000000 )
                  (    -1          0          0      )       ( -0.0000000 )
                  (     0          0          1      )       ( -0.5000000 )

 cart.    s( 5) = (  0.5000000 -0.8660254  0.0000000 )    f =(  0.0000000 )
                  (  0.8660254  0.5000000  0.0000000 )       ( -0.0000000 )
                  (  0.0000000  0.0000000  1.0000000 )       ( -0.7965932 )


      isym =  6      60 deg rotation - cryst. axis [0,0,-1]      

 cryst.   s( 6) = (     0         -1          0      )    f =(  0.0000000 )
                  (     1          1          0      )       ( -0.0000000 )
                  (     0          0          1      )       ( -0.5000000 )

 cart.    s( 6) = (  0.5000000  0.8660254  0.0000000 )    f =(  0.0000000 )
                  ( -0.8660254  0.5000000  0.0000000 )       ( -0.0000000 )
                  (  0.0000000  0.0000000  1.0000000 )       ( -0.7965932 )


      isym =  7     120 deg rotation - cryst. axis [0,0,1]       

 cryst.   s( 7) = (     0          1          0      )
                  (    -1         -1          0      )
                  (     0          0          1      )

 cart.    s( 7) = ( -0.5000000 -0.8660254  0.0000000 )
                  (  0.8660254 -0.5000000  0.0000000 )
                  (  0.0000000  0.0000000  1.0000000 )


      isym =  8     120 deg rotation - cryst. axis [0,0,-1]      

 cryst.   s( 8) = (    -1         -1          0      )
                  (     1          0          0      )
                  (     0          0          1      )

 cart.    s( 8) = ( -0.5000000  0.8660254  0.0000000 )
                  ( -0.8660254 -0.5000000  0.0000000 )
                  (  0.0000000  0.0000000  1.0000000 )


      isym =  9     180 deg rotation - cryst. axis [1,-1,0]      

 cryst.   s( 9) = (     0         -1          0      )    f =( -0.0000000 )
                  (    -1          0          0      )       ( -0.0000000 )
                  (     0          0         -1      )       (  0.5000000 )

 cart.    s( 9) = (  0.5000000 -0.8660254  0.0000000 )    f =( -0.0000000 )
                  ( -0.8660254 -0.5000000  0.0000000 )       ( -0.0000000 )
                  (  0.0000000  0.0000000 -1.0000000 )       (  0.7965932 )


      isym = 10     180 deg rotation - cryst. axis [2,1,0]       

 cryst.   s(10) = (     1          1          0      )    f =(  0.0000000 )
                  (     0         -1          0      )       ( -0.0000000 )
                  (     0          0         -1      )       (  0.5000000 )

 cart.    s(10) = (  0.5000000  0.8660254  0.0000000 )    f =(  0.0000000 )
                  (  0.8660254 -0.5000000  0.0000000 )       ( -0.0000000 )
                  (  0.0000000  0.0000000 -1.0000000 )       (  0.7965932 )


      isym = 11     180 deg rotation - cryst. axis [0,1,0]       

 cryst.   s(11) = (    -1         -1          0      )
                  (     0          1          0      )
                  (     0          0         -1      )

 cart.    s(11) = ( -0.5000000 -0.8660254  0.0000000 )
                  ( -0.8660254  0.5000000  0.0000000 )
                  (  0.0000000  0.0000000 -1.0000000 )


      isym = 12     180 deg rotation - cryst. axis [1,1,0]       

 cryst.   s(12) = (     0          1          0      )
                  (     1          0          0      )
                  (     0          0         -1      )

 cart.    s(12) = ( -0.5000000  0.8660254  0.0000000 )
                  (  0.8660254  0.5000000  0.0000000 )
                  (  0.0000000  0.0000000 -1.0000000 )


      isym = 13     inversion                                    

 cryst.   s(13) = (    -1          0          0      )
                  (     0         -1          0      )
                  (     0          0         -1      )

 cart.    s(13) = ( -1.0000000  0.0000000  0.0000000 )
                  (  0.0000000 -1.0000000  0.0000000 )
                  (  0.0000000  0.0000000 -1.0000000 )


      isym = 14     inv. 180 deg rotation - cart. axis [0,0,1]   

 cryst.   s(14) = (     1          0          0      )    f =(  0.0000000 )
                  (     0          1          0      )       (  0.0000000 )
                  (     0          0         -1      )       (  0.5000000 )

 cart.    s(14) = (  1.0000000  0.0000000  0.0000000 )    f =(  0.0000000 )
                  (  0.0000000  1.0000000  0.0000000 )       (  0.0000000 )
                  (  0.0000000  0.0000000 -1.0000000 )       (  0.7965932 )


      isym = 15     inv. 180 deg rotation - cart. axis [0,1,0]   

 cryst.   s(15) = (     1          0          0      )    f =(  0.0000000 )
                  (    -1         -1          0      )       ( -0.0000000 )
                  (     0          0          1      )       ( -0.5000000 )

 cart.    s(15) = (  1.0000000  0.0000000  0.0000000 )    f =(  0.0000000 )
                  (  0.0000000 -1.0000000  0.0000000 )       ( -0.0000000 )
                  (  0.0000000  0.0000000  1.0000000 )       ( -0.7965932 )


      isym = 16     inv. 180 deg rotation - cart. axis [1,0,0]   

 cryst.   s(16) = (    -1          0          0      )
                  (     1          1          0      )
                  (     0          0          1      )

 cart.    s(16) = ( -1.0000000  0.0000000  0.0000000 )
                  (  0.0000000  1.0000000  0.0000000 )
                  (  0.0000000  0.0000000  1.0000000 )


      isym = 17     inv.  60 deg rotation - cryst. axis [0,0,1]  

 cryst.   s(17) = (    -1         -1          0      )    f =(  0.0000000 )
                  (     1          0          0      )       ( -0.0000000 )
                  (     0          0         -1      )       (  0.5000000 )

 cart.    s(17) = ( -0.5000000  0.8660254  0.0000000 )    f =(  0.0000000 )
                  ( -0.8660254 -0.5000000  0.0000000 )       ( -0.0000000 )
                  (  0.0000000  0.0000000 -1.0000000 )       (  0.7965932 )


      isym = 18     inv.  60 deg rotation - cryst. axis [0,0,-1] 

 cryst.   s(18) = (     0          1          0      )    f =( -0.0000000 )
                  (    -1         -1          0      )       ( -0.0000000 )
                  (     0          0         -1      )       (  0.5000000 )

 cart.    s(18) = ( -0.5000000 -0.8660254  0.0000000 )    f =(  0.0000000 )
                  (  0.8660254 -0.5000000  0.0000000 )       ( -0.0000000 )
                  (  0.0000000  0.0000000 -1.0000000 )       (  0.7965932 )


      isym = 19     inv. 120 deg rotation - cryst. axis [0,0,1]  

 cryst.   s(19) = (     0         -1          0      )
                  (     1          1          0      )
                  (     0          0         -1      )

 cart.    s(19) = (  0.5000000  0.8660254  0.0000000 )
                  ( -0.8660254  0.5000000  0.0000000 )
                  (  0.0000000  0.0000000 -1.0000000 )


      isym = 20     inv. 120 deg rotation - cryst. axis [0,0,-1] 

 cryst.   s(20) = (     1          1          0      )
                  (    -1          0          0      )
                  (     0          0         -1      )

 cart.    s(20) = (  0.5000000 -0.8660254  0.0000000 )
                  (  0.8660254  0.5000000  0.0000000 )
                  (  0.0000000  0.0000000 -1.0000000 )


      isym = 21     inv. 180 deg rotation - cryst. axis [1,-1,0] 

 cryst.   s(21) = (     0          1          0      )    f =(  0.0000000 )
                  (     1          0          0      )       ( -0.0000000 )
                  (     0          0          1      )       ( -0.5000000 )

 cart.    s(21) = ( -0.5000000  0.8660254  0.0000000 )    f =(  0.0000000 )
                  (  0.8660254  0.5000000  0.0000000 )       ( -0.0000000 )
                  (  0.0000000  0.0000000  1.0000000 )       ( -0.7965932 )


      isym = 22     inv. 180 deg rotation - cryst. axis [2,1,0]  

 cryst.   s(22) = (    -1         -1          0      )    f =(  0.0000000 )
                  (     0          1          0      )       ( -0.0000000 )
                  (     0          0          1      )       ( -0.5000000 )

 cart.    s(22) = ( -0.5000000 -0.8660254  0.0000000 )    f =(  0.0000000 )
                  ( -0.8660254  0.5000000  0.0000000 )       ( -0.0000000 )
                  (  0.0000000  0.0000000  1.0000000 )       ( -0.7965932 )


      isym = 23     inv. 180 deg rotation - cryst. axis [0,1,0]  

 cryst.   s(23) = (     1          1          0      )
                  (     0         -1          0      )
                  (     0          0          1      )

 cart.    s(23) = (  0.5000000  0.8660254  0.0000000 )
                  (  0.8660254 -0.5000000  0.0000000 )
                  (  0.0000000  0.0000000  1.0000000 )


      isym = 24     inv. 180 deg rotation - cryst. axis [1,1,0]  

 cryst.   s(24) = (     0         -1          0      )
                  (    -1          0          0      )
                  (     0          0          1      )

 cart.    s(24) = (  0.5000000 -0.8660254  0.0000000 )
                  ( -0.8660254 -0.5000000  0.0000000 )
                  (  0.0000000  0.0000000  1.0000000 )


     point group D_6h(6/mmm)
     there are 12 classes
     the character table:

       E     2C6   2C3   C2    3C2'  3C2'' i     2S3   2S6   s_h   3s_d  3s_v 
A_1g   1.00  1.00  1.00  1.00  1.00  1.00  1.00  1.00  1.00  1.00  1.00  1.00
A_2g   1.00  1.00  1.00  1.00 -1.00 -1.00  1.00  1.00  1.00  1.00 -1.00 -1.00
B_1g   1.00 -1.00  1.00 -1.00  1.00 -1.00  1.00 -1.00  1.00 -1.00  1.00 -1.00
B_2g   1.00 -1.00  1.00 -1.00 -1.00  1.00  1.00 -1.00  1.00 -1.00 -1.00  1.00
E_1g   2.00  1.00 -1.00 -2.00  0.00  0.00  2.00  1.00 -1.00 -2.00  0.00  0.00
E_2g   2.00 -1.00 -1.00  2.00  0.00  0.00  2.00 -1.00 -1.00  2.00  0.00  0.00
A_1u   1.00  1.00  1.00  1.00  1.00  1.00 -1.00 -1.00 -1.00 -1.00 -1.00 -1.00
A_2u   1.00  1.00  1.00  1.00 -1.00 -1.00 -1.00 -1.00 -1.00 -1.00  1.00  1.00
B_1u   1.00 -1.00  1.00 -1.00  1.00 -1.00 -1.00  1.00 -1.00  1.00 -1.00  1.00
B_2u   1.00 -1.00  1.00 -1.00 -1.00  1.00 -1.00  1.00 -1.00  1.00  1.00 -1.00
E_1u   2.00  1.00 -1.00 -2.00  0.00  0.00 -2.00 -1.00  1.00  2.00  0.00  0.00
E_2u   2.00 -1.00 -1.00  2.00  0.00  0.00 -2.00  1.00  1.00 -2.00  0.00  0.00

     the symmetry operations in each class and the name of the first element:

     E        1
          identity                                               
     2C6      5    6
           60 deg rotation - cryst. axis [0,0,1]                 
     2C3      7    8
          120 deg rotation - cryst. axis [0,0,1]                 
     C2       2
          180 deg rotation - cart. axis [0,0,1]                  
     3C2'     4   12   11
          180 deg rotation - cart. axis [1,0,0]                  
     3C2''    3    9   10
          180 deg rotation - cart. axis [0,1,0]                  
     i       13
          inversion                                              
     2S3     17   18
          inv.  60 deg rotation - cryst. axis [0,0,1]            
     2S6     19   20
          inv. 120 deg rotation - cryst. axis [0,0,1]            
     s_h     14
          inv. 180 deg rotation - cart. axis [0,0,1]             
     3s_d    16   24   23
          inv. 180 deg rotation - cart. axis [1,0,0]             
     3s_v    15   21   22
          inv. 180 deg rotation - cart. axis [0,1,0]             

   Cartesian axes

     site n.     atom                  positions (alat units)
         1           Co  tau(   1) = (  -0.0000000   0.5773503   0.3982966  )
         2           Co  tau(   2) = (   0.5000000   0.2886751   1.1948898  )

   Crystallographic axes

     site n.     atom                  positions (cryst. coord.)
         1           Co  tau(   1) = (  0.3333333  0.6666667  0.2500000  )
         2           Co  tau(   2) = (  0.6666667  0.3333333  0.7500000  )

     number of k points=    76  Gaussian smearing, width (Ry)=  0.0010
                       cart. coord. in units 2pi/alat
        k(    1) = (   0.0000000   0.0000000   0.0000000), wk =   0.0011574
        k(    2) = (   0.0000000   0.0000000   0.1046122), wk =   0.0023148
        k(    3) = (   0.0000000   0.0000000   0.2092243), wk =   0.0023148
        k(    4) = (   0.0000000   0.0000000  -0.3138365), wk =   0.0011574
        k(    5) = (   0.0000000   0.0962250   0.0000000), wk =   0.0069444
        k(    6) = (   0.0000000   0.0962250   0.1046122), wk =   0.0138889
        k(    7) = (   0.0000000   0.0962250   0.2092243), wk =   0.0138889
        k(    8) = (   0.0000000   0.0962250  -0.3138365), wk =   0.0069444
        k(    9) = (   0.0000000   0.1924501   0.0000000), wk =   0.0069444
        k(   10) = (   0.0000000   0.1924501   0.1046122), wk =   0.0138889
        k(   11) = (   0.0000000   0.1924501   0.2092243), wk =   0.0138889
        k(   12) = (   0.0000000   0.1924501  -0.3138365), wk =   0.0069444
        k(   13) = (   0.0000000   0.2886751   0.0000000), wk =   0.0069444
        k(   14) = (   0.0000000   0.2886751   0.1046122), wk =   0.0138889
        k(   15) = (   0.0000000   0.2886751   0.2092243), wk =   0.0138889
        k(   16) = (   0.0000000   0.2886751  -0.3138365), wk =   0.0069444
        k(   17) = (   0.0000000   0.3849002   0.0000000), wk =   0.0069444
        k(   18) = (   0.0000000   0.3849002   0.1046122), wk =   0.0138889
        k(   19) = (   0.0000000   0.3849002   0.2092243), wk =   0.0138889
        k(   20) = (   0.0000000   0.3849002  -0.3138365), wk =   0.0069444
        k(   21) = (   0.0000000   0.4811252   0.0000000), wk =   0.0069444
        k(   22) = (   0.0000000   0.4811252   0.1046122), wk =   0.0138889
        k(   23) = (   0.0000000   0.4811252   0.2092243), wk =   0.0138889
        k(   24) = (   0.0000000   0.4811252  -0.3138365), wk =   0.0069444
        k(   25) = (   0.0000000  -0.5773503   0.0000000), wk =   0.0034722
        k(   26) = (   0.0000000  -0.5773503   0.1046122), wk =   0.0069444
        k(   27) = (   0.0000000  -0.5773503   0.2092243), wk =   0.0069444
        k(   28) = (   0.0000000  -0.5773503  -0.3138365), wk =   0.0034722
        k(   29) = (   0.0833333   0.1443376   0.0000000), wk =   0.0069444
        k(   30) = (   0.0833333   0.1443376   0.1046122), wk =   0.0138889
        k(   31) = (   0.0833333   0.1443376   0.2092243), wk =   0.0138889
        k(   32) = (   0.0833333   0.1443376  -0.3138365), wk =   0.0069444
        k(   33) = (   0.0833333   0.2405626   0.0000000), wk =   0.0138889
        k(   34) = (   0.0833333   0.2405626   0.1046122), wk =   0.0277778
        k(   35) = (   0.0833333   0.2405626   0.2092243), wk =   0.0277778
        k(   36) = (   0.0833333   0.2405626  -0.3138365), wk =   0.0138889
        k(   37) = (   0.0833333   0.3367877   0.0000000), wk =   0.0138889
        k(   38) = (   0.0833333   0.3367877   0.1046122), wk =   0.0277778
        k(   39) = (   0.0833333   0.3367877   0.2092243), wk =   0.0277778
        k(   40) = (   0.0833333   0.3367877  -0.3138365), wk =   0.0138889
        k(   41) = (   0.0833333   0.4330127   0.0000000), wk =   0.0138889
        k(   42) = (   0.0833333   0.4330127   0.1046122), wk =   0.0277778
        k(   43) = (   0.0833333   0.4330127   0.2092243), wk =   0.0277778
        k(   44) = (   0.0833333   0.4330127  -0.3138365), wk =   0.0138889
        k(   45) = (   0.0833333   0.5292377   0.0000000), wk =   0.0138889
        k(   46) = (   0.0833333   0.5292377   0.1046122), wk =   0.0277778
        k(   47) = (   0.0833333   0.5292377   0.2092243), wk =   0.0277778
        k(   48) = (   0.0833333   0.5292377  -0.3138365), wk =   0.0138889
        k(   49) = (   0.1666667   0.2886751   0.0000000), wk =   0.0069444
        k(   50) = (   0.1666667   0.2886751   0.1046122), wk =   0.0138889
        k(   51) = (   0.1666667   0.2886751   0.2092243), wk =   0.0138889
        k(   52) = (   0.1666667   0.2886751  -0.3138365), wk =   0.0069444
        k(   53) = (   0.1666667   0.3849002   0.0000000), wk =   0.0138889
        k(   54) = (   0.1666667   0.3849002   0.1046122), wk =   0.0277778
        k(   55) = (   0.1666667   0.3849002   0.2092243), wk =   0.0277778
        k(   56) = (   0.1666667   0.3849002  -0.3138365), wk =   0.0138889
        k(   57) = (   0.1666667   0.4811252   0.0000000), wk =   0.0138889
        k(   58) = (   0.1666667   0.4811252   0.1046122), wk =   0.0277778
        k(   59) = (   0.1666667   0.4811252   0.2092243), wk =   0.0277778
        k(   60) = (   0.1666667   0.4811252  -0.3138365), wk =   0.0138889
        k(   61) = (   0.1666667   0.5773503   0.0000000), wk =   0.0069444
        k(   62) = (   0.1666667   0.5773503   0.1046122), wk =   0.0138889
        k(   63) = (   0.1666667   0.5773503   0.2092243), wk =   0.0138889
        k(   64) = (   0.1666667   0.5773503  -0.3138365), wk =   0.0069444
        k(   65) = (   0.2500000   0.4330127   0.0000000), wk =   0.0069444
        k(   66) = (   0.2500000   0.4330127   0.1046122), wk =   0.0138889
        k(   67) = (   0.2500000   0.4330127   0.2092243), wk =   0.0138889
        k(   68) = (   0.2500000   0.4330127  -0.3138365), wk =   0.0069444
        k(   69) = (   0.2500000   0.5292377   0.0000000), wk =   0.0138889
        k(   70) = (   0.2500000   0.5292377   0.1046122), wk =   0.0277778
        k(   71) = (   0.2500000   0.5292377   0.2092243), wk =   0.0277778
        k(   72) = (   0.2500000   0.5292377  -0.3138365), wk =   0.0138889
        k(   73) = (   0.3333333   0.5773503   0.0000000), wk =   0.0023148
        k(   74) = (   0.3333333   0.5773503   0.1046122), wk =   0.0046296
        k(   75) = (   0.3333333   0.5773503   0.2092243), wk =   0.0046296
        k(   76) = (   0.3333333   0.5773503  -0.3138365), wk =   0.0023148

                       cryst. coord.
        k(    1) = (   0.0000000   0.0000000   0.0000000), wk =   0.0011574
        k(    2) = (   0.0000000   0.0000000   0.1666667), wk =   0.0023148
        k(    3) = (   0.0000000   0.0000000   0.3333333), wk =   0.0023148
        k(    4) = (   0.0000000   0.0000000  -0.5000000), wk =   0.0011574
        k(    5) = (   0.0000000   0.0833333   0.0000000), wk =   0.0069444
        k(    6) = (   0.0000000   0.0833333   0.1666667), wk =   0.0138889
        k(    7) = (   0.0000000   0.0833333   0.3333333), wk =   0.0138889
        k(    8) = (   0.0000000   0.0833333  -0.5000000), wk =   0.0069444
        k(    9) = (   0.0000000   0.1666667   0.0000000), wk =   0.0069444
        k(   10) = (   0.0000000   0.1666667   0.1666667), wk =   0.0138889
        k(   11) = (   0.0000000   0.1666667   0.3333333), wk =   0.0138889
        k(   12) = (   0.0000000   0.1666667  -0.5000000), wk =   0.0069444
        k(   13) = (   0.0000000   0.2500000   0.0000000), wk =   0.0069444
        k(   14) = (   0.0000000   0.2500000   0.1666667), wk =   0.0138889
        k(   15) = (   0.0000000   0.2500000   0.3333333), wk =   0.0138889
        k(   16) = (   0.0000000   0.2500000  -0.5000000), wk =   0.0069444
        k(   17) = (   0.0000000   0.3333333   0.0000000), wk =   0.0069444
        k(   18) = (   0.0000000   0.3333333   0.1666667), wk =   0.0138889
        k(   19) = (   0.0000000   0.3333333   0.3333333), wk =   0.0138889
        k(   20) = (   0.0000000   0.3333333  -0.5000000), wk =   0.0069444
        k(   21) = (   0.0000000   0.4166667   0.0000000), wk =   0.0069444
        k(   22) = (   0.0000000   0.4166667   0.1666667), wk =   0.0138889
        k(   23) = (   0.0000000   0.4166667   0.3333333), wk =   0.0138889
        k(   24) = (   0.0000000   0.4166667  -0.5000000), wk =   0.0069444
        k(   25) = (   0.0000000  -0.5000000   0.0000000), wk =   0.0034722
        k(   26) = (   0.0000000  -0.5000000   0.1666667), wk =   0.0069444
        k(   27) = (   0.0000000  -0.5000000   0.3333333), wk =   0.0069444
        k(   28) = (   0.0000000  -0.5000000  -0.5000000), wk =   0.0034722
        k(   29) = (   0.0833333   0.0833333   0.0000000), wk =   0.0069444
        k(   30) = (   0.0833333   0.0833333   0.1666667), wk =   0.0138889
        k(   31) = (   0.0833333   0.0833333   0.3333333), wk =   0.0138889
        k(   32) = (   0.0833333   0.0833333  -0.5000000), wk =   0.0069444
        k(   33) = (   0.0833333   0.1666667   0.0000000), wk =   0.0138889
        k(   34) = (   0.0833333   0.1666667   0.1666667), wk =   0.0277778
        k(   35) = (   0.0833333   0.1666667   0.3333333), wk =   0.0277778
        k(   36) = (   0.0833333   0.1666667  -0.5000000), wk =   0.0138889
        k(   37) = (   0.0833333   0.2500000   0.0000000), wk =   0.0138889
        k(   38) = (   0.0833333   0.2500000   0.1666667), wk =   0.0277778
        k(   39) = (   0.0833333   0.2500000   0.3333333), wk =   0.0277778
        k(   40) = (   0.0833333   0.2500000  -0.5000000), wk =   0.0138889
        k(   41) = (   0.0833333   0.3333333   0.0000000), wk =   0.0138889
        k(   42) = (   0.0833333   0.3333333   0.1666667), wk =   0.0277778
        k(   43) = (   0.0833333   0.3333333   0.3333333), wk =   0.0277778
        k(   44) = (   0.0833333   0.3333333  -0.5000000), wk =   0.0138889
        k(   45) = (   0.0833333   0.4166667   0.0000000), wk =   0.0138889
        k(   46) = (   0.0833333   0.4166667   0.1666667), wk =   0.0277778
        k(   47) = (   0.0833333   0.4166667   0.3333333), wk =   0.0277778
        k(   48) = (   0.0833333   0.4166667  -0.5000000), wk =   0.0138889
        k(   49) = (   0.1666667   0.1666667   0.0000000), wk =   0.0069444
        k(   50) = (   0.1666667   0.1666667   0.1666667), wk =   0.0138889
        k(   51) = (   0.1666667   0.1666667   0.3333333), wk =   0.0138889
        k(   52) = (   0.1666667   0.1666667  -0.5000000), wk =   0.0069444
        k(   53) = (   0.1666667   0.2500000   0.0000000), wk =   0.0138889
        k(   54) = (   0.1666667   0.2500000   0.1666667), wk =   0.0277778
        k(   55) = (   0.1666667   0.2500000   0.3333333), wk =   0.0277778
        k(   56) = (   0.1666667   0.2500000  -0.5000000), wk =   0.0138889
        k(   57) = (   0.1666667   0.3333333   0.0000000), wk =   0.0138889
        k(   58) = (   0.1666667   0.3333333   0.1666667), wk =   0.0277778
        k(   59) = (   0.1666667   0.3333333   0.3333333), wk =   0.0277778
        k(   60) = (   0.1666667   0.3333333  -0.5000000), wk =   0.0138889
        k(   61) = (   0.1666667   0.4166667   0.0000000), wk =   0.0069444
        k(   62) = (   0.1666667   0.4166667   0.1666667), wk =   0.0138889
        k(   63) = (   0.1666667   0.4166667   0.3333333), wk =   0.0138889
        k(   64) = (   0.1666667   0.4166667  -0.5000000), wk =   0.0069444
        k(   65) = (   0.2500000   0.2500000   0.0000000), wk =   0.0069444
        k(   66) = (   0.2500000   0.2500000   0.1666667), wk =   0.0138889
        k(   67) = (   0.2500000   0.2500000   0.3333333), wk =   0.0138889
        k(   68) = (   0.2500000   0.2500000  -0.5000000), wk =   0.0069444
        k(   69) = (   0.2500000   0.3333333   0.0000000), wk =   0.0138889
        k(   70) = (   0.2500000   0.3333333   0.1666667), wk =   0.0277778
        k(   71) = (   0.2500000   0.3333333   0.3333333), wk =   0.0277778
        k(   72) = (   0.2500000   0.3333333  -0.5000000), wk =   0.0138889
        k(   73) = (   0.3333333   0.3333333   0.0000000), wk =   0.0023148
        k(   74) = (   0.3333333   0.3333333   0.1666667), wk =   0.0046296
        k(   75) = (   0.3333333   0.3333333   0.3333333), wk =   0.0046296
        k(   76) = (   0.3333333   0.3333333  -0.5000000), wk =   0.0023148

     Dense  grid:    23235 G-vectors     FFT dimensions: (  32,  32,  54)

     Smooth grid:    22575 G-vectors     FFT dimensions: (  32,  32,  54)

     Dynamical RAM for                 wfc:       0.06 MB

     Dynamical RAM for     wfc (w. buffer):       4.96 MB

     Dynamical RAM for           str. fact:       0.03 MB

     Dynamical RAM for           local pot:       0.00 MB

     Dynamical RAM for          nlocal pot:       0.11 MB

     Dynamical RAM for                qrad:       1.70 MB

     Dynamical RAM for          rho,v,vnew:       0.34 MB

     Dynamical RAM for               rhoin:       0.11 MB

     Dynamical RAM for            rho*nmix:       0.81 MB

     Dynamical RAM for           G-vectors:       0.11 MB

     Dynamical RAM for          h,s,v(r/c):       0.08 MB

     Dynamical RAM for          <psi|beta>:       0.01 MB

     Dynamical RAM for                 psi:       0.13 MB

     Dynamical RAM for                hpsi:       0.13 MB

     Dynamical RAM for                spsi:       0.13 MB

     Dynamical RAM for      wfcinit/wfcrot:       0.14 MB

     Dynamical RAM for           addusdens:       2.42 MB

     Estimated static dynamical RAM per process >       7.60 MB

     Estimated max dynamical RAM per process >      10.82 MB

     Estimated total dynamical RAM >     291.65 MB

     Check: negative core charge=   -0.000043
     Generating pointlists ...
     new r_m :   0.4058 (alat units)  1.9134 (a.u.) for type    1

     The initial density is read from file :
     ./out2/Co.save/charge-density


     starting charge      34.0428, renormalised to      34.0000
     Starting wfcs from file
     Checking if some PAW data can be deallocated... 

     total cpu time spent up to now is        0.5 secs

     Self-consistent Calculation

     iteration #  1     ecut=   110.00 Ry     beta= 0.70
     Davidson diagonalization with overlap

---- Real-time Memory Report at c_bands before calling an iterative solver
            60 MiB given to the printing process from OS
             0 MiB allocation reported by mallinfo(arena+hblkhd)
        181384 MiB available memory on the node where the printing process lives
------------------
     ethr =  1.00E-05,  avg # of iterations =  2.5

     total cpu time spent up to now is        1.5 secs

     total energy              =    -753.45420349 Ry
     estimated scf accuracy    <       0.00073414 Ry

     total magnetization       =     3.28 Bohr mag/cell
     absolute magnetization    =     3.60 Bohr mag/cell

     iteration #  2     ecut=   110.00 Ry     beta= 0.70
     Davidson diagonalization with overlap

---- Real-time Memory Report at c_bands before calling an iterative solver
            85 MiB given to the printing process from OS
             0 MiB allocation reported by mallinfo(arena+hblkhd)
        181072 MiB available memory on the node where the printing process lives
------------------
     ethr =  2.16E-06,  avg # of iterations =  4.4

     total cpu time spent up to now is        2.8 secs

     total energy              =    -753.45448525 Ry
     estimated scf accuracy    <       0.00173907 Ry

     total magnetization       =     3.30 Bohr mag/cell
     absolute magnetization    =     3.62 Bohr mag/cell

     iteration #  3     ecut=   110.00 Ry     beta= 0.70
     Davidson diagonalization with overlap

---- Real-time Memory Report at c_bands before calling an iterative solver
            86 MiB given to the printing process from OS
             0 MiB allocation reported by mallinfo(arena+hblkhd)
        181052 MiB available memory on the node where the printing process lives
------------------
     ethr =  2.16E-06,  avg # of iterations =  3.9

     total cpu time spent up to now is        3.8 secs

     total energy              =    -753.45492737 Ry
     estimated scf accuracy    <       0.00000373 Ry

     total magnetization       =     3.29 Bohr mag/cell
     absolute magnetization    =     3.61 Bohr mag/cell

     iteration #  4     ecut=   110.00 Ry     beta= 0.70
     Davidson diagonalization with overlap

---- Real-time Memory Report at c_bands before calling an iterative solver
            87 MiB given to the printing process from OS
             0 MiB allocation reported by mallinfo(arena+hblkhd)
        181040 MiB available memory on the node where the printing process lives
------------------
     ethr =  1.10E-08,  avg # of iterations =  7.8

     total cpu time spent up to now is        5.7 secs

     total energy              =    -753.45494477 Ry
     estimated scf accuracy    <       0.00000690 Ry

     total magnetization       =     3.29 Bohr mag/cell
     absolute magnetization    =     3.61 Bohr mag/cell

     iteration #  5     ecut=   110.00 Ry     beta= 0.70
     Davidson diagonalization with overlap

---- Real-time Memory Report at c_bands before calling an iterative solver
            87 MiB given to the printing process from OS
             0 MiB allocation reported by mallinfo(arena+hblkhd)
        181031 MiB available memory on the node where the printing process lives
------------------
     ethr =  1.10E-08,  avg # of iterations =  3.2
 
     Magnetic moment per site  (integrated on atomic sphere of radius R)
     atom   1 (R=0.406)  charge= 15.5487  magn=  1.7213
     atom   2 (R=0.406)  charge= 15.5487  magn=  1.7213

     total cpu time spent up to now is        6.6 secs

     End of self-consistent calculation

 ------ SPIN UP ------------


          k = 0.0000 0.0000 0.0000 (  2815 PWs)   bands (ev):

   -77.1649 -77.1013 -40.5721 -40.2798 -40.2798 -40.2257 -40.2257 -40.2164
     9.8953  13.7249  16.3169  16.3169  16.3717  16.6550  16.6550  16.9514
    16.9514  18.1399  18.1399  18.8907  25.5933

     occupation numbers 
     1.0000   1.0000   1.0000   1.0000   1.0000   1.0000   1.0000   1.0000
     1.0000   1.0000   1.0000   1.0000   1.0000   1.0000   1.0000   1.0000
     1.0000   1.0000   1.0000   0.6307   0.0000

          k = 0.0000 0.0000 0.1046 (  2809 PWs)   bands (ev):

   -77.1607 -77.1056 -40.5486 -40.2761 -40.2761 -40.2405 -40.2294 -40.2294
    10.1814  13.6667  16.2382  16.2382  16.2944  16.5716  16.5716  17.1363
    17.1363  17.8932  18.1265  18.1265  27.1594

     occupation numbers 
     1.0000   1.0000   1.0000   1.0000   1.0000   1.0000   1.0000   1.0000
     1.0000   1.0000   1.0000   1.0000   1.0000   1.0000   1.0000   1.0000
     1.0000   1.0000   1.0000   1.0000   0.0000

          k = 0.0000 0.0000 0.2092 (  2785 PWs)   bands (ev):

   -77.1491 -77.1173 -40.4841 -40.3063 -40.2662 -40.2662 -40.2393 -40.2393
    11.0007  13.2559  16.1143  16.1732  16.1732  16.3897  16.3897  16.5030
    17.4896  17.4896  18.0390  18.0390  30.4579

     occupation numbers 
     1.0000   1.0000   1.0000   1.0000   1.0000   1.0000   1.0000   1.0000
     1.0000   1.0000   1.0000   1.0000   1.0000   1.0000   1.0000   1.0000
     1.0000   1.0000   1.0000   1.0000   0.0000

          k = 0.0000 0.0000-0.3138 (  2822 PWs)   bands (ev):

   -77.1332 -77.1332 -40.3956 -40.3956 -40.2528 -40.2528 -40.2528 -40.2528
    12.1884  12.1884  16.0233  16.0233  16.2295  16.2295  16.2295  16.2295
    17.8209  17.8209  17.8209  17.8209  34.3775

     occupation numbers 
     1.0000   1.0000   1.0000   1.0000   1.0000   1.0000   1.0000   1.0000
     1.0000   1.0000   1.0000   1.0000   1.0000   1.0000   1.0000   1.0000
     1.0000   1.0000   1.0000   1.0000   0.0000

          k = 0.0000 0.0962 0.0000 (  2815 PWs)   bands (ev):

   -77.1617 -77.1000 -40.5646 -40.2951 -40.2850 -40.2418 -40.2282 -40.2198
    10.1367  13.8666  16.0906  16.4310  16.5522  16.6158  16.7549  16.8058
    16.8783  17.3588  18.1728  19.9863  25.6321

     occupation numbers 
     1.0000   1.0000   1.0000   1.0000   1.0000   1.0000   1.0000   1.0000
     1.0000   1.0000   1.0000   1.0000   1.0000   1.0000   1.0000   1.0000
     1.0000   1.0000   1.0000   0.0000   0.0000

          k = 0.0000 0.0962 0.1046 (  2802 PWs)   bands (ev):

   -77.1575 -77.1042 -40.5425 -40.2909 -40.2812 -40.2575 -40.2320 -40.2310
    10.4183  13.8235  16.0811  16.3326  16.3594  16.4209  16.6649  17.0095
    17.0943  17.2252  18.1513  19.1655  27.2661

     occupation numbers 
     1.0000   1.0000   1.0000   1.0000   1.0000   1.0000   1.0000   1.0000
     1.0000   1.0000   1.0000   1.0000   1.0000   1.0000   1.0000   1.0000
     1.0000   1.0000   1.0000   0.0000   0.0000

          k = 0.0000 0.0962 0.2092 (  2807 PWs)   bands (ev):

   -77.1463 -77.1155 -40.4819 -40.3157 -40.2791 -40.2708 -40.2465 -40.2424
    11.2245  13.4425  15.9858  16.0630  16.1215  16.2613  16.4823  16.6047
    17.4651  17.5166  18.0461  18.3513  30.6077

     occupation numbers 
     1.0000   1.0000   1.0000   1.0000   1.0000   1.0000   1.0000   1.0000
     1.0000   1.0000   1.0000   1.0000   1.0000   1.0000   1.0000   1.0000
     1.0000   1.0000   1.0000   1.0000   0.0000

          k = 0.0000 0.0962-0.3138 (  2816 PWs)   bands (ev):

   -77.1309 -77.1309 -40.3988 -40.3988 -40.2631 -40.2631 -40.2566 -40.2566
    12.3932  12.3932  15.8438  15.8438  16.2731  16.2731  16.3199  16.3199
    17.8104  17.8104  17.9178  17.9178  34.5401

     occupation numbers 
     1.0000   1.0000   1.0000   1.0000   1.0000   1.0000   1.0000   1.0000
     1.0000   1.0000   1.0000   1.0000   1.0000   1.0000   1.0000   1.0000
     1.0000   1.0000   1.0000   1.0000   0.0000

          k = 0.0000 0.1925 0.0000 (  2815 PWs)   bands (ev):

   -77.1526 -77.0966 -40.5432 -40.3374 -40.2989 -40.2853 -40.2351 -40.2300
    10.8348  14.2166  15.7972  16.1189  16.4497  16.6981  16.7534  16.8659
    16.9551  17.0353  18.2437  21.5922  25.7678

     occupation numbers 
     1.0000   1.0000   1.0000   1.0000   1.0000   1.0000   1.0000   1.0000
     1.0000   1.0000   1.0000   1.0000   1.0000   1.0000   1.0000   1.0000
     1.0000   1.0000   1.0000   0.0000   0.0000

          k = 0.0000 0.1925 0.1046 (  2810 PWs)   bands (ev):

   -77.1489 -77.1004 -40.5258 -40.3310 -40.3011 -40.2946 -40.2394 -40.2385
    11.0998  14.2192  15.8218  15.8517  16.3302  16.5282  16.7354  16.9067
    17.0873  17.2148  18.2042  20.4237  27.6118

     occupation numbers 
     1.0000   1.0000   1.0000   1.0000   1.0000   1.0000   1.0000   1.0000
     1.0000   1.0000   1.0000   1.0000   1.0000   1.0000   1.0000   1.0000
     1.0000   1.0000   1.0000   0.0000   0.0000

          k = 0.0000 0.1925 0.2092 (  2807 PWs)   bands (ev):

   -77.1386 -77.1106 -40.4781 -40.3486 -40.3111 -40.2830 -40.2595 -40.2511
    11.8549  13.9269  15.4728  15.8841  16.0475  16.4752  16.5420  16.7402
    17.4414  17.6219  18.0613  19.0203  31.0534

     occupation numbers 
     1.0000   1.0000   1.0000   1.0000   1.0000   1.0000   1.0000   1.0000
     1.0000   1.0000   1.0000   1.0000   1.0000   1.0000   1.0000   1.0000
     1.0000   1.0000   1.0000   0.0000   0.0000

          k = 0.0000 0.1925-0.3138 (  2802 PWs)   bands (ev):

   -77.1246 -77.1246 -40.4129 -40.4129 -40.2860 -40.2860 -40.2670 -40.2670
    12.9436  12.9436  15.5905  15.5905  16.2301  16.2301  16.5615  16.5615
    17.7954  17.7954  18.1774  18.1774  34.9645

     occupation numbers 
     1.0000   1.0000   1.0000   1.0000   1.0000   1.0000   1.0000   1.0000
     1.0000   1.0000   1.0000   1.0000   1.0000   1.0000   1.0000   1.0000
     1.0000   1.0000   1.0000   1.0000   0.0000

          k = 0.0000 0.2887 0.0000 (  2800 PWs)   bands (ev):

   -77.1397 -77.0924 -40.5110 -40.3956 -40.3437 -40.3173 -40.2470 -40.2451
    11.8920  14.5003  15.3862  15.6084  16.3685  16.4816  16.7611  17.2210
    17.2909  17.4386  18.3124  23.4015  26.0214

     occupation numbers 
     1.0000   1.0000   1.0000   1.0000   1.0000   1.0000   1.0000   1.0000
     1.0000   1.0000   1.0000   1.0000   1.0000   1.0000   1.0000   1.0000
     1.0000   1.0000   1.0000   0.0000   0.0000

          k = 0.0000 0.2887 0.1046 (  2812 PWs)   bands (ev):

   -77.1366 -77.0956 -40.5045 -40.3834 -40.3581 -40.3125 -40.2517 -40.2499
    12.1130  14.5574  15.2345  15.6605  16.2066  16.5192  16.7720  17.2725
    17.3870  17.4074  18.2552  21.7266  28.2201

     occupation numbers 
     1.0000   1.0000   1.0000   1.0000   1.0000   1.0000   1.0000   1.0000
     1.0000   1.0000   1.0000   1.0000   1.0000   1.0000   1.0000   1.0000
     1.0000   1.0000   1.0000   0.0000   0.0000

          k = 0.0000 0.2887 0.2092 (  2830 PWs)   bands (ev):

   -77.1279 -77.1043 -40.4827 -40.4019 -40.3435 -40.2993 -40.2700 -40.2632
    12.7277  14.3586  15.1232  15.7171  16.0486  16.6037  16.6433  17.1074
    17.5575  17.7966  18.0867  19.8147  31.5770

     occupation numbers 
     1.0000   1.0000   1.0000   1.0000   1.0000   1.0000   1.0000   1.0000
     1.0000   1.0000   1.0000   1.0000   1.0000   1.0000   1.0000   1.0000
     1.0000   1.0000   1.0000   0.0000   0.0000

          k = 0.0000 0.2887-0.3138 (  2816 PWs)   bands (ev):

   -77.1161 -77.1161 -40.4459 -40.4459 -40.3033 -40.3033 -40.2813 -40.2813
    13.5761  13.5761  15.4358  15.4358  16.2836  16.2836  16.8542  16.8542
    17.8335  17.8335  18.5366  18.5366  33.3663

     occupation numbers 
     1.0000   1.0000   1.0000   1.0000   1.0000   1.0000   1.0000   1.0000
     1.0000   1.0000   1.0000   1.0000   1.0000   1.0000   1.0000   1.0000
     1.0000   1.0000   1.0000   1.0000   0.0000

          k = 0.0000 0.3849 0.0000 (  2822 PWs)   bands (ev):

   -77.1258 -77.0893 -40.4733 -40.4544 -40.4010 -40.3353 -40.2695 -40.2555
    13.0524  14.4398  14.8477  15.6998  16.2869  16.4935  16.5957  17.7186
    17.8773  17.9625  18.3611  25.3681  25.9546

     occupation numbers 
     1.0000   1.0000   1.0000   1.0000   1.0000   1.0000   1.0000   1.0000
     1.0000   1.0000   1.0000   1.0000   1.0000   1.0000   1.0000   1.0000
     1.0000   1.0000   1.0000   0.0000   0.0000

          k = 0.0000 0.3849 0.1046 (  2812 PWs)   bands (ev):

   -77.1234 -77.0917 -40.4976 -40.4266 -40.4044 -40.3299 -40.2696 -40.2609
    13.1579  14.4882  14.8737  15.5817  16.3829  16.3848  16.9361  17.7472
    17.7781  17.8981  18.2975  22.9690  27.9552

     occupation numbers 
     1.0000   1.0000   1.0000   1.0000   1.0000   1.0000   1.0000   1.0000
     1.0000   1.0000   1.0000   1.0000   1.0000   1.0000   1.0000   1.0000
     1.0000   1.0000   1.0000   0.0000   0.0000

          k = 0.0000 0.3849 0.2092 (  2822 PWs)   bands (ev):

   -77.1167 -77.0984 -40.5062 -40.4573 -40.3553 -40.3154 -40.2794 -40.2755
    13.4518  14.3254  15.0043  15.5413  16.4500  16.6541  17.2111  17.4609
    17.8583  18.0281  18.1576  20.7060  28.9979

     occupation numbers 
     1.0000   1.0000   1.0000   1.0000   1.0000   1.0000   1.0000   1.0000
     1.0000   1.0000   1.0000   1.0000   1.0000   1.0000   1.0000   1.0000
     1.0000   1.0000   1.0000   0.0000   0.0000

          k = 0.0000 0.3849-0.3138 (  2822 PWs)   bands (ev):

   -77.1075 -77.1075 -40.4904 -40.4904 -40.3087 -40.3087 -40.2955 -40.2955
    13.8776  13.8776  15.3223  15.3223  16.8675  16.8675  17.0460  17.0460
    18.0010  18.0010  19.0207  19.0207  30.1517

     occupation numbers 
     1.0000   1.0000   1.0000   1.0000   1.0000   1.0000   1.0000   1.0000
     1.0000   1.0000   1.0000   1.0000   1.0000   1.0000   1.0000   1.0000
     1.0000   1.0000   0.0000   0.0000   0.0000

          k = 0.0000 0.4811 0.0000 (  2832 PWs)   bands (ev):

   -77.1143 -77.0883 -40.4978 -40.4422 -40.4381 -40.3482 -40.2935 -40.2633
    13.8318  14.2543  14.5237  16.0494  16.1541  16.4799  16.6934  18.0894
    18.2426  18.3880  19.0538  23.9359  27.3912

     occupation numbers 
     1.0000   1.0000   1.0000   1.0000   1.0000   1.0000   1.0000   1.0000
     1.0000   1.0000   1.0000   1.0000   1.0000   1.0000   1.0000   1.0000
     1.0000   1.0000   0.0000   0.0000   0.0000

          k = 0.0000 0.4811 0.1046 (  2813 PWs)   bands (ev):

   -77.1125 -77.0900 -40.5187 -40.4619 -40.4023 -40.3425 -40.2887 -40.2690
    13.7267  14.2622  14.8418  15.4864  16.2726  16.6735  17.2755  18.0574
    18.1427  18.3469  18.8894  23.1987  26.5943

     occupation numbers 
     1.0000   1.0000   1.0000   1.0000   1.0000   1.0000   1.0000   1.0000
     1.0000   1.0000   1.0000   1.0000   1.0000   1.0000   1.0000   1.0000
     1.0000   1.0000   0.6801   0.0000   0.0000

          k = 0.0000 0.4811 0.2092 (  2820 PWs)   bands (ev):

   -77.1078 -77.0948 -40.5348 -40.4978 -40.3500 -40.3270 -40.2886 -40.2846
    13.7018  14.1989  14.9955  15.3569  16.6095  16.8878  17.6488  18.1652
    18.2599  18.2903  18.5466  21.4920  26.6779

     occupation numbers 
     1.0000   1.0000   1.0000   1.0000   1.0000   1.0000   1.0000   1.0000
     1.0000   1.0000   1.0000   1.0000   1.0000   1.0000   1.0000   1.0000
     1.0000   1.0000   1.0000   0.0000   0.0000

          k = 0.0000 0.4811-0.3138 (  2816 PWs)   bands (ev):

   -77.1013 -77.1013 -40.5268 -40.5268 -40.3088 -40.3088 -40.3059 -40.3058
    13.8965  13.8965  15.2061  15.2061  17.1048  17.1048  17.6041  17.6041
    18.2263  18.2263  19.8160  19.8160  27.4683

     occupation numbers 
     1.0000   1.0000   1.0000   1.0000   1.0000   1.0000   1.0000   1.0000
     1.0000   1.0000   1.0000   1.0000   1.0000   1.0000   1.0000   1.0000
     1.0000   1.0000   0.0000   0.0000   0.0000

          k = 0.0000-0.5774 0.0000 (  2814 PWs)   bands (ev):

   -77.1094 -77.0886 -40.5137 -40.4572 -40.4216 -40.3528 -40.3059 -40.2662
    14.1044  14.1097  14.4158  16.1072  16.2915  16.4383  16.7726  18.2232
    18.3908  18.3964  20.1891  22.2040  28.6973

     occupation numbers 
     1.0000   1.0000   1.0000   1.0000   1.0000   1.0000   1.0000   1.0000
     1.0000   1.0000   1.0000   1.0000   1.0000   1.0000   1.0000   1.0000
     1.0000   1.0000   0.0000   0.0000   0.0000

          k = 0.0000-0.5774 0.1046 (  2818 PWs)   bands (ev):

   -77.1080 -77.0900 -40.5307 -40.4761 -40.3930 -40.3471 -40.2984 -40.2721
    13.8349  14.1618  14.8811  15.4608  16.2322  16.7668  17.4696  18.1397
    18.3022  18.3823  19.9775  22.0312  27.7757

     occupation numbers 
     1.0000   1.0000   1.0000   1.0000   1.0000   1.0000   1.0000   1.0000
     1.0000   1.0000   1.0000   1.0000   1.0000   1.0000   1.0000   1.0000
     1.0000   1.0000   0.0000   0.0000   0.0000

          k = 0.0000-0.5774 0.2092 (  2836 PWs)   bands (ev):

   -77.1042 -77.0938 -40.5469 -40.5126 -40.3452 -40.3313 -40.2933 -40.2880
    13.7238  14.1501  15.0177  15.2743  16.5878  17.0382  17.6931  18.2978
    18.3590  18.3758  19.6344  21.4408  26.6430

     occupation numbers 
     1.0000   1.0000   1.0000   1.0000   1.0000   1.0000   1.0000   1.0000
     1.0000   1.0000   1.0000   1.0000   1.0000   1.0000   1.0000   1.0000
     1.0000   1.0000   0.0000   0.0000   0.0000

          k = 0.0000-0.5774-0.3138 (  2832 PWs)   bands (ev):

   -77.0990 -77.0990 -40.5406 -40.5406 -40.3097 -40.3097 -40.3083 -40.3083
    13.8780  13.8780  15.1592  15.1592  17.1129  17.1129  17.8596  17.8596
    18.3273  18.3273  20.4335  20.4335  26.2358

     occupation numbers 
     1.0000   1.0000   1.0000   1.0000   1.0000   1.0000   1.0000   1.0000
     1.0000   1.0000   1.0000   1.0000   1.0000   1.0000   1.0000   1.0000
     1.0000   1.0000   0.0000   0.0000   0.0000

          k = 0.0833 0.1443 0.0000 (  2812 PWs)   bands (ev):

   -77.1555 -77.0977 -40.5502 -40.3212 -40.3003 -40.2665 -40.2349 -40.2266
    10.6073  14.1179  15.8606  16.3647  16.5083  16.6642  16.6794  16.7205
    16.9784  17.0679  18.2156  21.1418  25.7214

     occupation numbers 
     1.0000   1.0000   1.0000   1.0000   1.0000   1.0000   1.0000   1.0000
     1.0000   1.0000   1.0000   1.0000   1.0000   1.0000   1.0000   1.0000
     1.0000   1.0000   1.0000   0.0000   0.0000

          k = 0.0833 0.1443 0.1046 (  2812 PWs)   bands (ev):

   -77.1516 -77.1015 -40.5311 -40.3156 -40.2995 -40.2800 -40.2390 -40.2352
    10.8785  14.1058  15.8822  16.0255  16.3712  16.5015  16.7037  16.8252
    17.1325  17.1750  18.1848  20.0825  27.4944

     occupation numbers 
     1.0000   1.0000   1.0000   1.0000   1.0000   1.0000   1.0000   1.0000
     1.0000   1.0000   1.0000   1.0000   1.0000   1.0000   1.0000   1.0000
     1.0000   1.0000   1.0000   0.0000   0.0000

          k = 0.0833 0.1443 0.2092 (  2805 PWs)   bands (ev):

   -77.1411 -77.1122 -40.4788 -40.3371 -40.3000 -40.2815 -40.2538 -40.2501
    11.6534  13.7845  15.6013  15.9321  16.0614  16.4190  16.5512  16.6585
    17.4720  17.5604  18.0614  18.8265  30.9087

     occupation numbers 
     1.0000   1.0000   1.0000   1.0000   1.0000   1.0000   1.0000   1.0000
     1.0000   1.0000   1.0000   1.0000   1.0000   1.0000   1.0000   1.0000
     1.0000   1.0000   1.0000   1.0000   0.0000

          k = 0.0833 0.1443-0.3138 (  2808 PWs)   bands (ev):

   -77.1266 -77.1266 -40.4073 -40.4073 -40.2797 -40.2797 -40.2639 -40.2639
    12.7744  12.7744  15.6525  15.6525  16.2284  16.2284  16.4990  16.4990
    17.8013  17.8013  18.0961  18.0961  34.8502

     occupation numbers 
     1.0000   1.0000   1.0000   1.0000   1.0000   1.0000   1.0000   1.0000
     1.0000   1.0000   1.0000   1.0000   1.0000   1.0000   1.0000   1.0000
     1.0000   1.0000   1.0000   1.0000   0.0000

          k = 0.0833 0.2406 0.0000 (  2814 PWs)   bands (ev):

   -77.1445 -77.0939 -40.5233 -40.3676 -40.3367 -40.2980 -40.2465 -40.2403
    11.4931  14.4761  15.5735  15.6568  16.3986  16.4563  16.9084  16.9735
    17.0897  17.3937  18.2699  22.7488  25.9393

     occupation numbers 
     1.0000   1.0000   1.0000   1.0000   1.0000   1.0000   1.0000   1.0000
     1.0000   1.0000   1.0000   1.0000   1.0000   1.0000   1.0000   1.0000
     1.0000   1.0000   1.0000   0.0000   0.0000

          k = 0.0833 0.2406 0.1046 (  2816 PWs)   bands (ev):

   -77.1411 -77.0973 -40.5115 -40.3588 -40.3433 -40.3029 -40.2516 -40.2446
    11.7361  14.5238  15.4381  15.6228  16.2624  16.5172  16.7070  17.0546
    17.3020  17.3859  18.2312  21.2784  27.9963

     occupation numbers 
     1.0000   1.0000   1.0000   1.0000   1.0000   1.0000   1.0000   1.0000
     1.0000   1.0000   1.0000   1.0000   1.0000   1.0000   1.0000   1.0000
     1.0000   1.0000   1.0000   0.0000   0.0000

          k = 0.0833 0.2406 0.2092 (  2816 PWs)   bands (ev):

   -77.1319 -77.1066 -40.4783 -40.3807 -40.3303 -40.2990 -40.2654 -40.2597
    12.4219  14.3009  15.2075  15.7276  16.0030  16.4337  16.6255  16.9761
    17.5624  17.6999  18.1041  19.5390  31.4874

     occupation numbers 
     1.0000   1.0000   1.0000   1.0000   1.0000   1.0000   1.0000   1.0000
     1.0000   1.0000   1.0000   1.0000   1.0000   1.0000   1.0000   1.0000
     1.0000   1.0000   1.0000   0.0000   0.0000

          k = 0.0833 0.2406-0.3138 (  2798 PWs)   bands (ev):

   -77.1192 -77.1192 -40.4306 -40.4306 -40.3003 -40.3003 -40.2759 -40.2759
    13.3953  13.3953  15.4847  15.4847  16.1282  16.1282  16.7776  16.7776
    17.8439  17.8439  18.4077  18.4077  34.9501

     occupation numbers 
     1.0000   1.0000   1.0000   1.0000   1.0000   1.0000   1.0000   1.0000
     1.0000   1.0000   1.0000   1.0000   1.0000   1.0000   1.0000   1.0000
     1.0000   1.0000   1.0000   1.0000   0.0000

          k = 0.0833 0.3368 0.0000 (  2806 PWs)   bands (ev):

   -77.1311 -77.0903 -40.4881 -40.4247 -40.3834 -40.3263 -40.2603 -40.2590
    12.6371  14.6001  15.0674  15.4810  16.2668  16.4205  16.7211  17.3662
    17.5946  17.9572  18.3166  24.5980  26.2390

     occupation numbers 
     1.0000   1.0000   1.0000   1.0000   1.0000   1.0000   1.0000   1.0000
     1.0000   1.0000   1.0000   1.0000   1.0000   1.0000   1.0000   1.0000
     1.0000   1.0000   1.0000   0.0000   0.0000

          k = 0.0833 0.3368 0.1046 (  2815 PWs)   bands (ev):

   -77.1283 -77.0930 -40.4941 -40.4092 -40.3879 -40.3258 -40.2670 -40.2579
    12.8081  14.6808  14.9655  15.5362  16.1756  16.5018  16.7098  17.3765
    17.6950  17.8302  18.3114  22.5564  28.6436

     occupation numbers 
     1.0000   1.0000   1.0000   1.0000   1.0000   1.0000   1.0000   1.0000
     1.0000   1.0000   1.0000   1.0000   1.0000   1.0000   1.0000   1.0000
     1.0000   1.0000   1.0000   0.0000   0.0000

          k = 0.0833 0.3368 0.2092 (  2814 PWs)   bands (ev):

   -77.1209 -77.1005 -40.4914 -40.4339 -40.3519 -40.3165 -40.2816 -40.2671
    13.2700  14.4729  15.0500  15.6427  16.0713  16.5483  16.7229  17.3175
    17.7959  17.9635  18.2625  20.4068  30.6379

     occupation numbers 
     1.0000   1.0000   1.0000   1.0000   1.0000   1.0000   1.0000   1.0000
     1.0000   1.0000   1.0000   1.0000   1.0000   1.0000   1.0000   1.0000
     1.0000   1.0000   1.0000   0.0000   0.0000

          k = 0.0833 0.3368-0.3138 (  2810 PWs)   bands (ev):

   -77.1107 -77.1107 -40.4690 -40.4690 -40.3151 -40.3151 -40.2870 -40.2870
    13.8849  13.8849  15.4162  15.4162  16.2861  16.2861  16.9862  16.9862
    18.0297  18.0297  18.8725  18.8725  31.8535

     occupation numbers 
     1.0000   1.0000   1.0000   1.0000   1.0000   1.0000   1.0000   1.0000
     1.0000   1.0000   1.0000   1.0000   1.0000   1.0000   1.0000   1.0000
     1.0000   1.0000   0.9868   0.9868   0.0000

          k = 0.0833 0.4330 0.0000 (  2818 PWs)   bands (ev):

   -77.1181 -77.0884 -40.4756 -40.4505 -40.4252 -40.3479 -40.2846 -40.2697
    13.6553  14.4319  14.6652  15.6966  16.1399  16.5408  16.6127  17.8550
    18.0285  18.3466  18.7527  25.3137  26.6009

     occupation numbers 
     1.0000   1.0000   1.0000   1.0000   1.0000   1.0000   1.0000   1.0000
     1.0000   1.0000   1.0000   1.0000   1.0000   1.0000   1.0000   1.0000
     1.0000   1.0000   1.0000   0.0000   0.0000

          k = 0.0833 0.4330 0.1046 (  2821 PWs)   bands (ev):

   -77.1162 -77.0904 -40.5026 -40.4467 -40.4048 -40.3437 -40.2849 -40.2708
    13.6544  14.4715  14.8108  15.4874  16.2241  16.5886  16.8869  17.7994
    18.0954  18.1469  18.7602  23.5921  27.0457

     occupation numbers 
     1.0000   1.0000   1.0000   1.0000   1.0000   1.0000   1.0000   1.0000
     1.0000   1.0000   1.0000   1.0000   1.0000   1.0000   1.0000   1.0000
     1.0000   1.0000   1.0000   0.0000   0.0000

          k = 0.0833 0.4330 0.2092 (  2817 PWs)   bands (ev):

   -77.1107 -77.0958 -40.5178 -40.4794 -40.3578 -40.3270 -40.2968 -40.2746
    13.7493  14.3532  14.9943  15.5036  16.3363  16.7695  17.2477  17.5295
    17.9869  18.2802  18.8267  21.4064  27.7463

     occupation numbers 
     1.0000   1.0000   1.0000   1.0000   1.0000   1.0000   1.0000   1.0000
     1.0000   1.0000   1.0000   1.0000   1.0000   1.0000   1.0000   1.0000
     1.0000   1.0000   1.0000   0.0000   0.0000

          k = 0.0833 0.4330-0.3138 (  2816 PWs)   bands (ev):

   -77.1033 -77.1033 -40.5084 -40.5084 -40.3257 -40.3257 -40.2926 -40.2926
    14.0078  14.0078  15.3110  15.3110  16.7879  16.7879  17.1812  17.1812
    18.2307  18.2307  19.6941  19.6941  28.8170

     occupation numbers 
     1.0000   1.0000   1.0000   1.0000   1.0000   1.0000   1.0000   1.0000
     1.0000   1.0000   1.0000   1.0000   1.0000   1.0000   1.0000   1.0000
     1.0000   1.0000   0.0000   0.0000   0.0000

          k = 0.0833 0.5292 0.0000 (  2820 PWs)   bands (ev):

   -77.1094 -77.0885 -40.5052 -40.4495 -40.4218 -40.3597 -40.3057 -40.2759
    14.1234  14.2693  14.4632  16.0520  16.0835  16.4255  16.7683  18.2009
    18.2712  18.3605  20.0135  22.9592  28.5055

     occupation numbers 
     1.0000   1.0000   1.0000   1.0000   1.0000   1.0000   1.0000   1.0000
     1.0000   1.0000   1.0000   1.0000   1.0000   1.0000   1.0000   1.0000
     1.0000   1.0000   0.0000   0.0000   0.0000

          k = 0.0833 0.5292 0.1046 (  2821 PWs)   bands (ev):

   -77.1080 -77.0899 -40.5222 -40.4689 -40.3958 -40.3512 -40.3012 -40.2782
    13.9127  14.2927  14.9035  15.4372  16.1446  16.7981  17.1278  18.0963
    18.2520  18.3111  19.9448  22.7110  27.1729

     occupation numbers 
     1.0000   1.0000   1.0000   1.0000   1.0000   1.0000   1.0000   1.0000
     1.0000   1.0000   1.0000   1.0000   1.0000   1.0000   1.0000   1.0000
     1.0000   1.0000   0.0000   0.0000   0.0000

          k = 0.0833 0.5292 0.2092 (  2822 PWs)   bands (ev):

   -77.1042 -77.0938 -40.5384 -40.5050 -40.3599 -40.3251 -40.3087 -40.2802
    13.8268  14.2771  15.0236  15.3766  16.3256  17.0894  17.5364  17.7599
    18.2009  18.4033  19.9849  21.8726  26.3789

     occupation numbers 
     1.0000   1.0000   1.0000   1.0000   1.0000   1.0000   1.0000   1.0000
     1.0000   1.0000   1.0000   1.0000   1.0000   1.0000   1.0000   1.0000
     1.0000   1.0000   0.0000   0.0000   0.0000

          k = 0.0833 0.5292-0.3138 (  2822 PWs)   bands (ev):

   -77.0990 -77.0990 -40.5325 -40.5325 -40.3323 -40.3323 -40.2939 -40.2939
    13.9914  13.9914  15.2289  15.2289  16.8993  16.8993  17.6143  17.6143
    18.2722  18.2722  20.7402  20.7402  26.6431

     occupation numbers 
     1.0000   1.0000   1.0000   1.0000   1.0000   1.0000   1.0000   1.0000
     1.0000   1.0000   1.0000   1.0000   1.0000   1.0000   1.0000   1.0000
     1.0000   1.0000   0.0000   0.0000   0.0000

          k = 0.1667 0.2887 0.0000 (  2810 PWs)   bands (ev):

   -77.1329 -77.0907 -40.4932 -40.4006 -40.3908 -40.3158 -40.2671 -40.2572
    12.4904  14.7647  15.1819  15.2730  16.2039  16.4117  16.8053  17.1445
    17.5831  17.9742  18.2801  24.3372  26.3018

     occupation numbers 
     1.0000   1.0000   1.0000   1.0000   1.0000   1.0000   1.0000   1.0000
     1.0000   1.0000   1.0000   1.0000   1.0000   1.0000   1.0000   1.0000
     1.0000   1.0000   1.0000   0.0000   0.0000

          k = 0.1667 0.2887 0.1046 (  2804 PWs)   bands (ev):

   -77.1301 -77.0935 -40.4936 -40.3976 -40.3823 -40.3234 -40.2717 -40.2560
    12.6836  14.8671  15.0426  15.3277  16.1893  16.4214  16.6673  17.2053
    17.7120  17.8215  18.3225  22.4174  28.6935

     occupation numbers 
     1.0000   1.0000   1.0000   1.0000   1.0000   1.0000   1.0000   1.0000
     1.0000   1.0000   1.0000   1.0000   1.0000   1.0000   1.0000   1.0000
     1.0000   1.0000   1.0000   0.0000   0.0000

          k = 0.1667 0.2887 0.2092 (  2811 PWs)   bands (ev):

   -77.1224 -77.1013 -40.4846 -40.4238 -40.3443 -40.3252 -40.2830 -40.2642
    13.2120  14.5977  15.1460  15.4886  16.0271  16.2786  16.6494  17.2554
    17.8238  17.9277  18.3403  20.3284  32.0726

     occupation numbers 
     1.0000   1.0000   1.0000   1.0000   1.0000   1.0000   1.0000   1.0000
     1.0000   1.0000   1.0000   1.0000   1.0000   1.0000   1.0000   1.0000
     1.0000   1.0000   1.0000   0.0000   0.0000

          k = 0.1667 0.2887-0.3138 (  2806 PWs)   bands (ev):

   -77.1118 -77.1118 -40.4589 -40.4589 -40.3197 -40.3197 -40.2840 -40.2840
    13.9227  13.9227  15.4871  15.4871  15.9747  15.9747  16.9367  16.9367
    18.0820  18.0820  18.8499  18.8499  33.5558

     occupation numbers 
     1.0000   1.0000   1.0000   1.0000   1.0000   1.0000   1.0000   1.0000
     1.0000   1.0000   1.0000   1.0000   1.0000   1.0000   1.0000   1.0000
     1.0000   1.0000   1.0000   1.0000   0.0000

          k = 0.1667 0.3849 0.0000 (  2821 PWs)   bands (ev):

   -77.1203 -77.0885 -40.4572 -40.4462 -40.4224 -40.3438 -40.2868 -40.2800
    13.5867  14.7606  14.8040  15.2271  16.0509  16.5600  16.6193  17.4471
    18.0338  18.2851  18.7672  26.2033  26.5551

     occupation numbers 
     1.0000   1.0000   1.0000   1.0000   1.0000   1.0000   1.0000   1.0000
     1.0000   1.0000   1.0000   1.0000   1.0000   1.0000   1.0000   1.0000
     1.0000   1.0000   1.0000   0.0000   0.0000

          k = 0.1667 0.3849 0.1046 (  2819 PWs)   bands (ev):

   -77.1182 -77.0907 -40.4855 -40.4412 -40.3948 -40.3504 -40.2931 -40.2716
    13.6719  14.7297  14.8748  15.3164  16.1178  16.5139  16.5788  17.4688
    18.0455  18.1294  18.8717  23.7008  28.4733

     occupation numbers 
     1.0000   1.0000   1.0000   1.0000   1.0000   1.0000   1.0000   1.0000
     1.0000   1.0000   1.0000   1.0000   1.0000   1.0000   1.0000   1.0000
     1.0000   1.0000   0.9894   0.0000   0.0000

          k = 0.1667 0.3849 0.2092 (  2812 PWs)   bands (ev):

   -77.1124 -77.0965 -40.4994 -40.4643 -40.3589 -40.3423 -40.3019 -40.2698
    13.9015  14.5298  15.1352  15.5735  16.0434  16.3354  16.6969  17.4047
    17.9338  18.2930  19.0634  21.4329  29.4213

     occupation numbers 
     1.0000   1.0000   1.0000   1.0000   1.0000   1.0000   1.0000   1.0000
     1.0000   1.0000   1.0000   1.0000   1.0000   1.0000   1.0000   1.0000
     1.0000   1.0000   0.0000   0.0000   0.0000

          k = 0.1667 0.3849-0.3138 (  2810 PWs)   bands (ev):

   -77.1044 -77.1044 -40.4900 -40.4900 -40.3418 -40.3418 -40.2865 -40.2865
    14.2161  14.2161  15.4996  15.4996  16.1095  16.1095  16.9717  16.9717
    18.2925  18.2925  19.7863  19.7863  30.6081

     occupation numbers 
     1.0000   1.0000   1.0000   1.0000   1.0000   1.0000   1.0000   1.0000
     1.0000   1.0000   1.0000   1.0000   1.0000   1.0000   1.0000   1.0000
     1.0000   1.0000   0.0000   0.0000   0.0000

          k = 0.1667 0.4811 0.0000 (  2828 PWs)   bands (ev):

   -77.1095 -77.0885 -40.4830 -40.4365 -40.4222 -40.3712 -40.3053 -40.3001
    14.2916  14.5642  14.5685  15.5245  16.0050  16.4219  16.7634  17.8441
    18.2655  18.2872  19.9284  24.6049  28.2195

     occupation numbers 
     1.0000   1.0000   1.0000   1.0000   1.0000   1.0000   1.0000   1.0000
     1.0000   1.0000   1.0000   1.0000   1.0000   1.0000   1.0000   1.0000
     1.0000   1.0000   0.0000   0.0000   0.0000

          k = 0.1667 0.4811 0.1046 (  2828 PWs)   bands (ev):

   -77.1081 -77.0899 -40.4997 -40.4583 -40.3981 -40.3625 -40.3123 -40.2873
    14.1458  14.6383  14.8250  15.3648  16.0605  16.5422  16.8153  17.8238
    18.0734  18.3341  20.0180  24.1000  26.9199

     occupation numbers 
     1.0000   1.0000   1.0000   1.0000   1.0000   1.0000   1.0000   1.0000
     1.0000   1.0000   1.0000   1.0000   1.0000   1.0000   1.0000   1.0000
     1.0000   1.0000   0.0000   0.0000   0.0000

          k = 0.1667 0.4811 0.2092 (  2816 PWs)   bands (ev):

   -77.1042 -77.0937 -40.5172 -40.4895 -40.3807 -40.3414 -40.3124 -40.2766
    14.1137  14.5685  15.0319  15.6070  15.9472  16.6523  17.0129  17.5039
    18.0145  18.4190  20.3412  22.5996  26.9406

     occupation numbers 
     1.0000   1.0000   1.0000   1.0000   1.0000   1.0000   1.0000   1.0000
     1.0000   1.0000   1.0000   1.0000   1.0000   1.0000   1.0000   1.0000
     1.0000   1.0000   0.0000   0.0000   0.0000

          k = 0.1667 0.4811-0.3138 (  2816 PWs)   bands (ev):

   -77.0990 -77.0990 -40.5136 -40.5136 -40.3592 -40.3592 -40.2861 -40.2861
    14.2789  14.2789  15.4033  15.4033  16.3671  16.3671  17.1654  17.1654
    18.2985  18.2985  21.1689  21.1689  27.8327

     occupation numbers 
     1.0000   1.0000   1.0000   1.0000   1.0000   1.0000   1.0000   1.0000
     1.0000   1.0000   1.0000   1.0000   1.0000   1.0000   1.0000   1.0000
     1.0000   1.0000   0.0000   0.0000   0.0000

          k = 0.1667 0.5774 0.0000 (  2826 PWs)   bands (ev):

   -77.1047 -77.0894 -40.4963 -40.4401 -40.4045 -40.3829 -40.3195 -40.3048
    14.4673  14.4705  14.4891  15.7410  16.0148  16.3238  16.8503  18.1121
    18.2527  18.2875  21.1737  22.7607  29.1200

     occupation numbers 
     1.0000   1.0000   1.0000   1.0000   1.0000   1.0000   1.0000   1.0000
     1.0000   1.0000   1.0000   1.0000   1.0000   1.0000   1.0000   1.0000
     1.0000   1.0000   0.0000   0.0000   0.0000

          k = 0.1667 0.5774 0.1046 (  2837 PWs)   bands (ev):

   -77.1036 -77.0904 -40.5095 -40.4607 -40.4043 -40.3551 -40.3242 -40.2941
    14.1751  14.5498  14.9922  15.3493  15.9827  16.6588  16.9050  18.0412
    18.1076  18.3158  21.2805  22.7140  28.2365

     occupation numbers 
     1.0000   1.0000   1.0000   1.0000   1.0000   1.0000   1.0000   1.0000
     1.0000   1.0000   1.0000   1.0000   1.0000   1.0000   1.0000   1.0000
     1.0000   1.0000   0.0000   0.0000   0.0000

          k = 0.1667 0.5774 0.2092 (  2822 PWs)   bands (ev):

   -77.1008 -77.0932 -40.5256 -40.4972 -40.3894 -40.3416 -40.3137 -40.2803
    14.1119  14.5794  15.0690  15.5686  15.8603  16.8584  17.1308  17.5769
    18.1225  18.3572  21.6008  22.5234  26.9307

     occupation numbers 
     1.0000   1.0000   1.0000   1.0000   1.0000   1.0000   1.0000   1.0000
     1.0000   1.0000   1.0000   1.0000   1.0000   1.0000   1.0000   1.0000
     1.0000   1.0000   0.0000   0.0000   0.0000

          k = 0.1667 0.5774-0.3138 (  2826 PWs)   bands (ev):

   -77.0970 -77.0970 -40.5223 -40.5223 -40.3658 -40.3658 -40.2856 -40.2856
    14.2809  14.2809  15.3626  15.3626  16.4103  16.4103  17.3676  17.3676
    18.2367  18.2367  22.1010  22.1010  26.4325

     occupation numbers 
     1.0000   1.0000   1.0000   1.0000   1.0000   1.0000   1.0000   1.0000
     1.0000   1.0000   1.0000   1.0000   1.0000   1.0000   1.0000   1.0000
     1.0000   1.0000   0.0000   0.0000   0.0000

          k = 0.2500 0.4330 0.0000 (  2830 PWs)   bands (ev):

   -77.1095 -77.0885 -40.4636 -40.4398 -40.4224 -40.3696 -40.3180 -40.3051
    14.4134  14.6284  14.9459  15.0143  15.9506  16.4290  16.7687  17.6283
    18.2497  18.2749  19.9337  26.3936  27.0785

     occupation numbers 
     1.0000   1.0000   1.0000   1.0000   1.0000   1.0000   1.0000   1.0000
     1.0000   1.0000   1.0000   1.0000   1.0000   1.0000   1.0000   1.0000
     1.0000   1.0000   0.0000   0.0000   0.0000

          k = 0.2500 0.4330 0.1046 (  2835 PWs)   bands (ev):

   -77.1081 -77.0899 -40.4764 -40.4673 -40.3840 -40.3798 -40.3213 -40.2897
    14.4267  14.5789  15.0297  15.1384  16.1054  16.2815  16.7504  17.6530
    18.0245  18.3431  20.0692  24.9455  27.3736

     occupation numbers 
     1.0000   1.0000   1.0000   1.0000   1.0000   1.0000   1.0000   1.0000
     1.0000   1.0000   1.0000   1.0000   1.0000   1.0000   1.0000   1.0000
     1.0000   1.0000   0.0000   0.0000   0.0000

          k = 0.2500 0.4330 0.2092 (  2821 PWs)   bands (ev):

   -77.1043 -77.0937 -40.5011 -40.4842 -40.3886 -40.3578 -40.3107 -40.2758
    14.4444  14.5288  15.2073  15.5448  15.9463  16.2220  16.7657  17.4215
    17.9859  18.4253  20.4606  22.8938  28.1853

     occupation numbers 
     1.0000   1.0000   1.0000   1.0000   1.0000   1.0000   1.0000   1.0000
     1.0000   1.0000   1.0000   1.0000   1.0000   1.0000   1.0000   1.0000
     1.0000   1.0000   0.0000   0.0000   0.0000

          k = 0.2500 0.4330-0.3138 (  2816 PWs)   bands (ev):

   -77.0990 -77.0990 -40.5019 -40.5019 -40.3734 -40.3734 -40.2837 -40.2837
    14.4813  14.4813  15.5460  15.5460  15.9925  15.9925  16.9733  16.9733
    18.3185  18.3185  21.3315  21.3315  29.2451

     occupation numbers 
     1.0000   1.0000   1.0000   1.0000   1.0000   1.0000   1.0000   1.0000
     1.0000   1.0000   1.0000   1.0000   1.0000   1.0000   1.0000   1.0000
     1.0000   1.0000   0.0000   0.0000   0.0000

          k = 0.2500 0.5292 0.0000 (  2839 PWs)   bands (ev):

   -77.1013 -77.0904 -40.4773 -40.4297 -40.3991 -40.3912 -40.3378 -40.3308
    14.5427  14.7117  14.8170  15.3124  15.9713  16.2350  16.9388  17.8977
    18.2286  18.2335  21.5703  24.1284  26.4309

     occupation numbers 
     1.0000   1.0000   1.0000   1.0000   1.0000   1.0000   1.0000   1.0000
     1.0000   1.0000   1.0000   1.0000   1.0000   1.0000   1.0000   1.0000
     1.0000   1.0000   0.0000   0.0000   0.0000

          k = 0.2500 0.5292 0.1046 (  2837 PWs)   bands (ev):

   -77.1006 -77.0912 -40.4837 -40.4555 -40.4190 -40.3592 -40.3411 -40.3071
    14.4845  14.8496  14.9492  15.2200  16.0030  16.2258  16.9346  17.9049
    17.9978  18.2785  21.7694  24.1597  26.5000

     occupation numbers 
     1.0000   1.0000   1.0000   1.0000   1.0000   1.0000   1.0000   1.0000
     1.0000   1.0000   1.0000   1.0000   1.0000   1.0000   1.0000   1.0000
     1.0000   1.0000   0.0000   0.0000   0.0000

          k = 0.2500 0.5292 0.2092 (  2824 PWs)   bands (ev):

   -77.0986 -77.0931 -40.5017 -40.4859 -40.4177 -40.3713 -40.3054 -40.2833
    14.5089  14.8671  15.1277  15.4163  15.8744  16.2315  16.9648  17.4592
    18.0481  18.3166  22.2844  23.8991  26.4888

     occupation numbers 
     1.0000   1.0000   1.0000   1.0000   1.0000   1.0000   1.0000   1.0000
     1.0000   1.0000   1.0000   1.0000   1.0000   1.0000   1.0000   1.0000
     1.0000   1.0000   0.0000   0.0000   0.0000

          k = 0.2500 0.5292-0.3138 (  2818 PWs)   bands (ev):

   -77.0959 -77.0959 -40.5049 -40.5049 -40.3959 -40.3959 -40.2817 -40.2817
    14.6530  14.6530  15.4346  15.4346  16.0009  16.0009  17.0947  17.0947
    18.2254  18.2254  23.0663  23.0663  27.0467

     occupation numbers 
     1.0000   1.0000   1.0000   1.0000   1.0000   1.0000   1.0000   1.0000
     1.0000   1.0000   1.0000   1.0000   1.0000   1.0000   1.0000   1.0000
     1.0000   1.0000   0.0000   0.0000   0.0000

          k = 0.3333 0.5774 0.0000 (  2832 PWs)   bands (ev):

   -77.0947 -77.0947 -40.4701 -40.4165 -40.4165 -40.3602 -40.3600 -40.3600
    14.5425  14.9035  14.9035  15.2062  16.0587  16.0587  17.0380  18.0423
    18.0423  18.2052  23.2849  24.1219  24.1219

     occupation numbers 
     1.0000   1.0000   1.0000   1.0000   1.0000   1.0000   1.0000   1.0000
     1.0000   1.0000   1.0000   1.0000   1.0000   1.0000   1.0000   1.0000
     1.0000   1.0000   0.0000   0.0000   0.0000

          k = 0.3333 0.5774 0.1046 (  2829 PWs)   bands (ev):

   -77.0947 -77.0947 -40.4628 -40.4473 -40.4473 -40.3677 -40.3290 -40.3290
    14.6415  14.9354  14.9354  15.2294  16.0282  16.0282  17.0057  17.9501
    18.0780  18.0780  23.7054  24.2018  24.2018

     occupation numbers 
     1.0000   1.0000   1.0000   1.0000   1.0000   1.0000   1.0000   1.0000
     1.0000   1.0000   1.0000   1.0000   1.0000   1.0000   1.0000   1.0000
     1.0000   1.0000   0.0000   0.0000   0.0000

          k = 0.3333 0.5774 0.2092 (  2835 PWs)   bands (ev):

   -77.0947 -77.0947 -40.4823 -40.4823 -40.4428 -40.3878 -40.2937 -40.2937
    14.8943  14.9987  14.9987  15.2531  15.9732  15.9732  16.9594  17.4351
    18.1442  18.1442  24.4001  24.4001  24.7673

     occupation numbers 
     1.0000   1.0000   1.0000   1.0000   1.0000   1.0000   1.0000   1.0000
     1.0000   1.0000   1.0000   1.0000   1.0000   1.0000   1.0000   1.0000
     1.0000   1.0000   0.0000   0.0000   0.0000

          k = 0.3333 0.5774-0.3138 (  2820 PWs)   bands (ev):

   -77.0947 -77.0947 -40.4956 -40.4956 -40.4153 -40.4153 -40.2802 -40.2802
    15.0299  15.0299  15.1537  15.1537  15.9489  15.9489  17.0542  17.0542
    18.1748  18.1748  24.5283  24.5283  26.2121

     occupation numbers 
     1.0000   1.0000   1.0000   1.0000   1.0000   1.0000   1.0000   1.0000
     1.0000   1.0000   1.0000   1.0000   1.0000   1.0000   1.0000   1.0000
     1.0000   1.0000   0.0000   0.0000   0.0000

 ------ SPIN DOWN ----------


          k = 0.0000 0.0000 0.0000 (  2815 PWs)   bands (ev):

   -75.0595 -74.9911 -38.5480 -38.2249 -38.2249 -38.1668 -38.1668 -38.1605
     9.8969  14.7074  18.0041  18.0041  18.0733  18.4022  18.4022  18.7475
    18.7475  18.8354  20.0656  20.0656  26.6465

     occupation numbers 
     1.0000   1.0000   1.0000   1.0000   1.0000   1.0000   1.0000   1.0000
     1.0000   1.0000   1.0000   1.0000   1.0000   1.0000   1.0000   1.0000
     1.0000   1.0000   0.0000   0.0000   0.0000

          k = 0.0000 0.0000 0.1046 (  2809 PWs)   bands (ev):

   -75.0549 -74.9957 -38.5224 -38.2211 -38.2211 -38.1868 -38.1707 -38.1707
    10.1844  14.4921  17.9197  17.9197  17.9735  18.2012  18.3057  18.3057
    18.9525  18.9525  20.0551  20.0551  28.0078

     occupation numbers 
     1.0000   1.0000   1.0000   1.0000   1.0000   1.0000   1.0000   1.0000
     1.0000   1.0000   1.0000   1.0000   1.0000   1.0000   1.0000   1.0000
     0.0000   0.0000   0.0000   0.0000   0.0000

          k = 0.0000 0.0000 0.2092 (  2785 PWs)   bands (ev):

   -75.0425 -75.0083 -38.4523 -38.2586 -38.2104 -38.2104 -38.1814 -38.1814
    11.0150  13.6281  17.4971  17.7203  17.8496  17.8496  18.0967  18.0967
    19.3491  19.3491  19.9643  19.9643  31.0704

     occupation numbers 
     1.0000   1.0000   1.0000   1.0000   1.0000   1.0000   1.0000   1.0000
     1.0000   1.0000   1.0000   1.0000   1.0000   1.0000   1.0000   1.0000
     0.0000   0.0000   0.0000   0.0000   0.0000

          k = 0.0000 0.0000-0.3138 (  2822 PWs)   bands (ev):

   -75.0254 -75.0254 -38.3559 -38.3559 -38.1959 -38.1959 -38.1959 -38.1959
    12.2688  12.2688  17.4610  17.4610  17.9143  17.9143  17.9143  17.9143
    19.7222  19.7222  19.7222  19.7222  34.8041

     occupation numbers 
     1.0000   1.0000   1.0000   1.0000   1.0000   1.0000   1.0000   1.0000
     1.0000   1.0000   1.0000   1.0000   1.0000   1.0000   1.0000   1.0000
     0.0000   0.0000   0.0000   0.0000   0.0000

          k = 0.0000 0.0962 0.0000 (  2815 PWs)   bands (ev):

   -75.0560 -74.9897 -38.5398 -38.2417 -38.2306 -38.1844 -38.1694 -38.1641
    10.1395  14.8694  17.7319  18.1302  18.1362  18.2766  18.3481  18.5127
    18.6618  18.6983  20.1047  20.9675  26.6621

     occupation numbers 
     1.0000   1.0000   1.0000   1.0000   1.0000   1.0000   1.0000   1.0000
     1.0000   1.0000   1.0000   1.0000   1.0000   1.0000   1.0000   1.0000
     1.0000   1.0000   0.0000   0.0000   0.0000

          k = 0.0000 0.0962 0.1046 (  2802 PWs)   bands (ev):

   -75.0516 -74.9942 -38.5157 -38.2372 -38.2265 -38.2034 -38.1744 -38.1735
    10.4231  14.6683  17.6731  17.7244  18.0248  18.0577  18.3752  18.4068
    18.9023  18.9321  20.0846  20.5956  28.0886

     occupation numbers 
     1.0000   1.0000   1.0000   1.0000   1.0000   1.0000   1.0000   1.0000
     1.0000   1.0000   1.0000   1.0000   1.0000   1.0000   1.0000   1.0000
     0.1922   0.0000   0.0000   0.0000   0.0000

          k = 0.0000 0.0962 0.2092 (  2807 PWs)   bands (ev):

   -75.0395 -75.0063 -38.4498 -38.2683 -38.2245 -38.2153 -38.1897 -38.1848
    11.2422  13.8219  17.2368  17.6872  17.7562  17.9467  18.1530  18.1972
    19.3197  19.3619  19.9725  20.1665  31.2040

     occupation numbers 
     1.0000   1.0000   1.0000   1.0000   1.0000   1.0000   1.0000   1.0000
     1.0000   1.0000   1.0000   1.0000   1.0000   1.0000   1.0000   1.0000
     0.0000   0.0000   0.0000   0.0000   0.0000

          k = 0.0000 0.0962-0.3138 (  2816 PWs)   bands (ev):

   -75.0229 -75.0229 -38.3592 -38.3592 -38.2073 -38.2073 -38.2001 -38.2001
    12.4789  12.4790  17.3374  17.3374  17.9033  17.9033  18.0130  18.0130
    19.7094  19.7094  19.7909  19.7909  34.9602

     occupation numbers 
     1.0000   1.0000   1.0000   1.0000   1.0000   1.0000   1.0000   1.0000
     1.0000   1.0000   1.0000   1.0000   1.0000   1.0000   1.0000   1.0000
     0.0000   0.0000   0.0000   0.0000   0.0000

          k = 0.0000 0.1925 0.0000 (  2815 PWs)   bands (ev):

   -75.0463 -74.9860 -38.5163 -38.2880 -38.2457 -38.2319 -38.1769 -38.1752
    10.8453  15.2845  17.2541  17.3525  18.1275  18.4519  18.4886  18.5475
    18.6222  18.8232  20.1883  22.4717  26.7255

     occupation numbers 
     1.0000   1.0000   1.0000   1.0000   1.0000   1.0000   1.0000   1.0000
     1.0000   1.0000   1.0000   1.0000   1.0000   1.0000   1.0000   1.0000
     1.0000   1.0000   0.0000   0.0000   0.0000

          k = 0.0000 0.1925 0.1046 (  2810 PWs)   bands (ev):

   -75.0422 -74.9901 -38.4973 -38.2812 -38.2498 -38.2411 -38.1836 -38.1815
    11.1153  15.1308  16.9730  17.3878  18.0115  18.2473  18.3114  18.6632
    18.8908  18.9810  20.1465  21.6519  28.3598

     occupation numbers 
     1.0000   1.0000   1.0000   1.0000   1.0000   1.0000   1.0000   1.0000
     1.0000   1.0000   1.0000   1.0000   1.0000   1.0000   1.0000   1.0000
     0.6263   0.0000   0.0000   0.0000   0.0000

          k = 0.0000 0.1925 0.2092 (  2807 PWs)   bands (ev):

   -75.0312 -75.0011 -38.4453 -38.3031 -38.2596 -38.2286 -38.2050 -38.1941
    11.8938  14.3420  16.8106  17.4600  17.6545  18.1153  18.1835  18.4769
    19.2893  19.4404  19.9892  20.6597  31.6057

     occupation numbers 
     1.0000   1.0000   1.0000   1.0000   1.0000   1.0000   1.0000   1.0000
     1.0000   1.0000   1.0000   1.0000   1.0000   1.0000   1.0000   1.0000
     0.0000   0.0000   0.0000   0.0000   0.0000

          k = 0.0000 0.1925-0.3138 (  2802 PWs)   bands (ev):

   -75.0162 -75.0162 -38.3740 -38.3740 -38.2328 -38.2328 -38.2114 -38.2114
    13.0657  13.0657  17.1003  17.1003  17.8137  17.8137  18.2771  18.2771
    19.6901  19.6901  19.9839  19.9839  35.3737

     occupation numbers 
     1.0000   1.0000   1.0000   1.0000   1.0000   1.0000   1.0000   1.0000
     1.0000   1.0000   1.0000   1.0000   1.0000   1.0000   1.0000   1.0000
     0.0000   0.0000   0.0000   0.0000   0.0000

          k = 0.0000 0.2887 0.0000 (  2800 PWs)   bands (ev):

   -75.0324 -74.9815 -38.4811 -38.3517 -38.2955 -38.2658 -38.1935 -38.1876
    11.9392  15.6921  16.5485  17.0146  17.9856  18.2017  18.3456  19.0149
    19.0640  19.2721  20.2682  24.1923  26.8522

     occupation numbers 
     1.0000   1.0000   1.0000   1.0000   1.0000   1.0000   1.0000   1.0000
     1.0000   1.0000   1.0000   1.0000   1.0000   1.0000   1.0000   0.0000
     0.0000   0.0000   0.0000   0.0000   0.0000

          k = 0.0000 0.2887 0.1046 (  2812 PWs)   bands (ev):

   -75.0290 -74.9849 -38.4737 -38.3388 -38.3114 -38.2606 -38.1981 -38.1929
    12.1783  15.6144  16.3977  17.0754  17.8297  18.2392  18.3094  19.0645
    19.2123  19.2229  20.2050  22.8034  28.8614

     occupation numbers 
     1.0000   1.0000   1.0000   1.0000   1.0000   1.0000   1.0000   1.0000
     1.0000   1.0000   1.0000   1.0000   1.0000   1.0000   1.0000   0.0000
     0.0000   0.0000   0.0000   0.0000   0.0000

          k = 0.0000 0.2887 0.2092 (  2830 PWs)   bands (ev):

   -75.0197 -74.9943 -38.4495 -38.3603 -38.2956 -38.2463 -38.2172 -38.2072
    12.8603  14.9427  16.4965  17.1677  17.5934  18.0984  18.3691  18.8799
    19.4163  19.6053  20.0167  21.2603  32.0934

     occupation numbers 
     1.0000   1.0000   1.0000   1.0000   1.0000   1.0000   1.0000   1.0000
     1.0000   1.0000   1.0000   1.0000   1.0000   1.0000   1.0000   0.9271
     0.0000   0.0000   0.0000   0.0000   0.0000

          k = 0.0000 0.2887-0.3138 (  2816 PWs)   bands (ev):

   -75.0070 -75.0070 -38.4089 -38.4089 -38.2526 -38.2526 -38.2268 -38.2268
    13.8654  13.8654  16.8878  16.8878  17.7594  17.7594  18.5984  18.5984
    19.7303  19.7303  20.2483  20.2483  33.8291

     occupation numbers 
     1.0000   1.0000   1.0000   1.0000   1.0000   1.0000   1.0000   1.0000
     1.0000   1.0000   1.0000   1.0000   1.0000   1.0000   1.0000   1.0000
     0.0000   0.0000   0.0000   0.0000   0.0000

          k = 0.0000 0.3849 0.0000 (  2822 PWs)   bands (ev):

   -75.0174 -74.9781 -38.4397 -38.4161 -38.3578 -38.2853 -38.2179 -38.1989
    13.2513  15.7295  16.0480  16.8720  17.9779  18.0876  18.1474  19.5860
[...]
    20.2078  20.3219  21.4044  23.9168  29.0123

     occupation numbers 
     1.0000   1.0000   1.0000   1.0000   1.0000   1.0000   1.0000   1.0000
     1.0000   1.0000   1.0000   1.0000   1.0000   1.0000   1.0000   0.0000
     0.0000   0.0000   0.0000   0.0000   0.0000

          k = 0.0833 0.5292 0.1046 (  2821 PWs)   bands (ev):

   -74.9983 -74.9788 -38.4907 -38.4320 -38.3543 -38.3030 -38.2514 -38.2239
    14.8456  15.4883  16.0405  16.5534  17.7827  18.3524  18.4252  20.0106
    20.1830  20.2556  21.2654  23.5921  27.8896

     occupation numbers 
     1.0000   1.0000   1.0000   1.0000   1.0000   1.0000   1.0000   1.0000
     1.0000   1.0000   1.0000   1.0000   1.0000   1.0000   1.0000   0.0000
     0.0000   0.0000   0.0000   0.0000   0.0000

          k = 0.0833 0.5292 0.2092 (  2822 PWs)   bands (ev):

   -74.9942 -74.9829 -38.5086 -38.4719 -38.3139 -38.2755 -38.2578 -38.2273
    14.8294  15.3263  16.3482  16.6925  17.8560  18.6330  18.8552  19.5220
    20.1261  20.3617  21.0378  22.6650  27.2859

     occupation numbers 
     1.0000   1.0000   1.0000   1.0000   1.0000   1.0000   1.0000   1.0000
     1.0000   1.0000   1.0000   1.0000   1.0000   1.0000   1.0000   0.0000
     0.0000   0.0000   0.0000   0.0000   0.0000

          k = 0.0833 0.5292-0.3138 (  2822 PWs)   bands (ev):

   -74.9885 -74.9885 -38.5021 -38.5021 -38.2832 -38.2832 -38.2421 -38.2421
    15.0151  15.0151  16.6451  16.6451  18.3673  18.3673  19.1491  19.1491
    20.2064  20.2064  21.5943  21.5943  27.5349

     occupation numbers 
     1.0000   1.0000   1.0000   1.0000   1.0000   1.0000   1.0000   1.0000
     1.0000   1.0000   1.0000   1.0000   1.0000   1.0000   0.0000   0.0000
     0.0000   0.0000   0.0000   0.0000   0.0000

          k = 0.1667 0.2887 0.0000 (  2810 PWs)   bands (ev):

   -75.0251 -74.9796 -38.4615 -38.3569 -38.3468 -38.2643 -38.2116 -38.2045
    12.5622  15.9711  16.3599  16.6828  17.8450  18.0133  18.4371  18.9433
    19.4041  19.7821  20.2294  25.0986  27.0640

     occupation numbers 
     1.0000   1.0000   1.0000   1.0000   1.0000   1.0000   1.0000   1.0000
     1.0000   1.0000   1.0000   1.0000   1.0000   1.0000   1.0000   0.0000
     0.0000   0.0000   0.0000   0.0000   0.0000

          k = 0.1667 0.2887 0.1046 (  2804 PWs)   bands (ev):

   -75.0220 -74.9827 -38.4616 -38.3546 -38.3375 -38.2731 -38.2166 -38.2025
    12.7820  15.9466  16.2257  16.7509  17.7833  18.0421  18.3102  18.9923
    19.5408  19.6632  20.2349  23.4195  29.2904

     occupation numbers 
     1.0000   1.0000   1.0000   1.0000   1.0000   1.0000   1.0000   1.0000
     1.0000   1.0000   1.0000   1.0000   1.0000   1.0000   1.0000   0.0000
     0.0000   0.0000   0.0000   0.0000   0.0000

          k = 0.1667 0.2887 0.2092 (  2811 PWs)   bands (ev):

   -75.0137 -74.9910 -38.4512 -38.3840 -38.2967 -38.2751 -38.2288 -38.2104
    13.4043  15.2726  16.4739  16.9257  17.5567  17.8580  18.3628  18.9914
    19.6917  19.7820  20.1803  21.6420  32.5657

     occupation numbers 
     1.0000   1.0000   1.0000   1.0000   1.0000   1.0000   1.0000   1.0000
     1.0000   1.0000   1.0000   1.0000   1.0000   1.0000   1.0000   0.0000
     0.0000   0.0000   0.0000   0.0000   0.0000

          k = 0.1667 0.2887-0.3138 (  2806 PWs)   bands (ev):

   -75.0024 -75.0024 -38.4228 -38.4228 -38.2697 -38.2697 -38.2307 -38.2307
    14.3086  14.3086  16.8661  16.8661  17.5236  17.5236  18.6769  18.6769
    19.9871  19.9872  20.4280  20.4280  33.9844

     occupation numbers 
     1.0000   1.0000   1.0000   1.0000   1.0000   1.0000   1.0000   1.0000
     1.0000   1.0000   1.0000   1.0000   1.0000   1.0000   1.0000   1.0000
     0.0000   0.0000   0.0000   0.0000   0.0000

          k = 0.1667 0.3849 0.0000 (  2821 PWs)   bands (ev):

   -75.0115 -74.9773 -38.4221 -38.4071 -38.3809 -38.2949 -38.2330 -38.2293
    13.8117  16.0299  16.0461  16.4743  17.6509  18.1585  18.2146  19.2776
    19.9212  20.2350  20.4979  26.8862  27.1836

     occupation numbers 
     1.0000   1.0000   1.0000   1.0000   1.0000   1.0000   1.0000   1.0000
     1.0000   1.0000   1.0000   1.0000   1.0000   1.0000   1.0000   0.0000
     0.0000   0.0000   0.0000   0.0000   0.0000

          k = 0.1667 0.3849 0.1046 (  2819 PWs)   bands (ev):

   -75.0092 -74.9796 -38.4516 -38.4022 -38.3519 -38.3024 -38.2401 -38.2192
    13.9655  15.8944  16.1574  16.5836  17.6513  18.0777  18.1898  19.2937
    19.9429  20.0291  20.6265  24.5160  29.1019

     occupation numbers 
     1.0000   1.0000   1.0000   1.0000   1.0000   1.0000   1.0000   1.0000
     1.0000   1.0000   1.0000   1.0000   1.0000   1.0000   1.0000   0.0000
     0.0000   0.0000   0.0000   0.0000   0.0000

          k = 0.1667 0.3849 0.2092 (  2812 PWs)   bands (ev):

   -75.0029 -74.9859 -38.4666 -38.4278 -38.3124 -38.2943 -38.2497 -38.2165
    14.3858  15.5128  16.4601  16.8183  17.5381  17.7822  18.3616  19.1907
    19.8081  20.2237  20.7122  22.4624  30.0331

     occupation numbers 
     1.0000   1.0000   1.0000   1.0000   1.0000   1.0000   1.0000   1.0000
     1.0000   1.0000   1.0000   1.0000   1.0000   1.0000   1.0000   0.0000
     0.0000   0.0000   0.0000   0.0000   0.0000

          k = 0.1667 0.3849-0.3138 (  2810 PWs)   bands (ev):

   -74.9944 -74.9944 -38.4561 -38.4561 -38.2935 -38.2935 -38.2340 -38.2340
    14.9565  14.9565  16.8221  16.8221  17.5026  17.5026  18.7235  18.7235
    20.2359  20.2359  21.0873  21.0873  31.1763

     occupation numbers 
     1.0000   1.0000   1.0000   1.0000   1.0000   1.0000   1.0000   1.0000
     1.0000   1.0000   1.0000   1.0000   1.0000   1.0000   1.0000   1.0000
     0.0000   0.0000   0.0000   0.0000   0.0000

          k = 0.1667 0.4811 0.0000 (  2828 PWs)   bands (ev):

   -74.9998 -74.9773 -38.4473 -38.3962 -38.3839 -38.3246 -38.2567 -38.2474
    14.9161  15.8310  15.8319  16.5105  17.5919  17.9685  18.3984  19.7161
    20.1981  20.2370  21.4014  25.3743  28.8033

     occupation numbers 
     1.0000   1.0000   1.0000   1.0000   1.0000   1.0000   1.0000   1.0000
     1.0000   1.0000   1.0000   1.0000   1.0000   1.0000   1.0000   0.0000
     0.0000   0.0000   0.0000   0.0000   0.0000

          k = 0.1667 0.4811 0.1046 (  2828 PWs)   bands (ev):

   -74.9983 -74.9788 -38.4661 -38.4207 -38.3559 -38.3161 -38.2616 -38.2355
    14.9367  15.7917  16.0009  16.5587  17.6163  17.9545  18.4315  19.6927
    19.9847  20.2786  21.4598  24.8060  27.6780

     occupation numbers 
     1.0000   1.0000   1.0000   1.0000   1.0000   1.0000   1.0000   1.0000
     1.0000   1.0000   1.0000   1.0000   1.0000   1.0000   1.0000   0.0000
     0.0000   0.0000   0.0000   0.0000   0.0000

          k = 0.1667 0.4811 0.2092 (  2816 PWs)   bands (ev):

   -74.9942 -74.9829 -38.4855 -38.4551 -38.3359 -38.2933 -38.2620 -38.2238
    15.0495  15.5892  16.3535  16.8711  17.4593  17.9218  18.6088  19.3309
    19.9093  20.3814  21.6191  23.3716  27.7555

     occupation numbers 
     1.0000   1.0000   1.0000   1.0000   1.0000   1.0000   1.0000   1.0000
     1.0000   1.0000   1.0000   1.0000   1.0000   1.0000   1.0000   0.0000
     0.0000   0.0000   0.0000   0.0000   0.0000

          k = 0.1667 0.4811-0.3138 (  2816 PWs)   bands (ev):

   -74.9885 -74.9885 -38.4816 -38.4816 -38.3123 -38.3123 -38.2339 -38.2339
    15.2868  15.2868  16.7931  16.7931  17.6373  17.6373  18.8808  18.8808
    20.2296  20.2296  22.1660  22.1660  28.5767

     occupation numbers 
     1.0000   1.0000   1.0000   1.0000   1.0000   1.0000   1.0000   1.0000
     1.0000   1.0000   1.0000   1.0000   1.0000   1.0000   0.9127   0.9127
     0.0000   0.0000   0.0000   0.0000   0.0000

          k = 0.1667 0.5774 0.0000 (  2826 PWs)   bands (ev):

   -74.9946 -74.9782 -38.4619 -38.4002 -38.3645 -38.3374 -38.2721 -38.2525
    15.3854  15.6951  15.7666  16.5645  17.6165  17.8324  18.5061  20.0216
    20.1915  20.2372  22.2989  23.7987  29.5423

     occupation numbers 
     1.0000   1.0000   1.0000   1.0000   1.0000   1.0000   1.0000   1.0000
     1.0000   1.0000   1.0000   1.0000   1.0000   1.0000   1.0000   0.0000
     0.0000   0.0000   0.0000   0.0000   0.0000

          k = 0.1667 0.5774 0.1046 (  2837 PWs)   bands (ev):

   -74.9935 -74.9793 -38.4767 -38.4231 -38.3624 -38.3086 -38.2751 -38.2425
    15.2366  15.7471  16.1474  16.4003  17.5676  17.9958  18.5479  19.9475
    20.0169  20.2633  22.3357  23.7041  28.8362

     occupation numbers 
     1.0000   1.0000   1.0000   1.0000   1.0000   1.0000   1.0000   1.0000
     1.0000   1.0000   1.0000   1.0000   1.0000   1.0000   1.0000   0.0000
     0.0000   0.0000   0.0000   0.0000   0.0000

          k = 0.1667 0.5774 0.2092 (  2822 PWs)   bands (ev):

   -74.9905 -74.9823 -38.4945 -38.4633 -38.3454 -38.2931 -38.2639 -38.2278
    15.2009  15.6447  16.4155  16.7885  17.3664  18.0969  18.7570  19.4100
    20.0357  20.3063  22.4750  23.3866  27.7248

     occupation numbers 
     1.0000   1.0000   1.0000   1.0000   1.0000   1.0000   1.0000   1.0000
     1.0000   1.0000   1.0000   1.0000   1.0000   1.0000   1.0000   0.0000
     0.0000   0.0000   0.0000   0.0000   0.0000

          k = 0.1667 0.5774-0.3138 (  2826 PWs)   bands (ev):

   -74.9864 -74.9864 -38.4910 -38.4910 -38.3194 -38.3194 -38.2335 -38.2335
    15.3646  15.3646  16.7843  16.7843  17.6868  17.6868  19.0496  19.0496
    20.1633  20.1633  22.8788  22.8788  27.3333

     occupation numbers 
     1.0000   1.0000   1.0000   1.0000   1.0000   1.0000   1.0000   1.0000
     1.0000   1.0000   1.0000   1.0000   1.0000   1.0000   0.0000   0.0000
     0.0000   0.0000   0.0000   0.0000   0.0000

          k = 0.2500 0.4330 0.0000 (  2830 PWs)   bands (ev):

   -74.9999 -74.9772 -38.4261 -38.3998 -38.3841 -38.3231 -38.2669 -38.2564
    14.9202  15.9024  16.1766  16.1837  17.5086  17.9872  18.3984  19.4884
    20.1939  20.2074  21.4342  26.9663  27.7025

     occupation numbers 
     1.0000   1.0000   1.0000   1.0000   1.0000   1.0000   1.0000   1.0000
     1.0000   1.0000   1.0000   1.0000   1.0000   1.0000   1.0000   0.0000
     0.0000   0.0000   0.0000   0.0000   0.0000

          k = 0.2500 0.4330 0.1046 (  2835 PWs)   bands (ev):

   -74.9984 -74.9787 -38.4410 -38.4304 -38.3393 -38.3362 -38.2706 -38.2388
    15.0052  15.8212  16.2489  16.3819  17.5633  17.8111  18.3844  19.5077
    19.9308  20.2893  21.5503  25.5924  28.0037

     occupation numbers 
     1.0000   1.0000   1.0000   1.0000   1.0000   1.0000   1.0000   1.0000
     1.0000   1.0000   1.0000   1.0000   1.0000   1.0000   1.0000   0.0000
     0.0000   0.0000   0.0000   0.0000   0.0000

          k = 0.2500 0.4330 0.2092 (  2821 PWs)   bands (ev):

   -74.9942 -74.9829 -38.4680 -38.4493 -38.3442 -38.3110 -38.2603 -38.2231
    15.2208  15.6855  16.4841  16.7677  17.4207  17.5534  18.4359  19.2364
    19.8705  20.3890  21.7992  23.7012  28.8147

     occupation numbers 
     1.0000   1.0000   1.0000   1.0000   1.0000   1.0000   1.0000   1.0000
     1.0000   1.0000   1.0000   1.0000   1.0000   1.0000   1.0000   0.0000
     0.0000   0.0000   0.0000   0.0000   0.0000

          k = 0.2500 0.4330-0.3138 (  2816 PWs)   bands (ev):

   -74.9885 -74.9885 -38.4689 -38.4689 -38.3276 -38.3276 -38.2314 -38.2314
    15.4773  15.4773  16.8458  16.8458  17.3112  17.3112  18.7212  18.7212
    20.2534  20.2534  22.3848  22.3848  29.8596

     occupation numbers 
     1.0000   1.0000   1.0000   1.0000   1.0000   1.0000   1.0000   1.0000
     1.0000   1.0000   1.0000   1.0000   1.0000   1.0000   1.0000   1.0000
     0.0000   0.0000   0.0000   0.0000   0.0000

          k = 0.2500 0.5292 0.0000 (  2839 PWs)   bands (ev):

   -74.9910 -74.9793 -38.4410 -38.3888 -38.3553 -38.3500 -38.2884 -38.2843
    15.6382  15.8513  16.0085  16.2696  17.5140  17.7543  18.6015  19.7882
    20.1682  20.1694  22.7019  24.9461  27.0165

     occupation numbers 
     1.0000   1.0000   1.0000   1.0000   1.0000   1.0000   1.0000   1.0000
     1.0000   1.0000   1.0000   1.0000   1.0000   1.0000   1.0000   0.0000
     0.0000   0.0000   0.0000   0.0000   0.0000

          k = 0.2500 0.5292 0.1046 (  2837 PWs)   bands (ev):

   -74.9902 -74.9801 -38.4483 -38.4177 -38.3777 -38.3133 -38.2930 -38.2576
    15.6046  15.9747  16.1011  16.3383  17.4982  17.6557  18.5960  19.7923
    19.9010  20.2202  22.8765  24.9350  27.1125

     occupation numbers 
     1.0000   1.0000   1.0000   1.0000   1.0000   1.0000   1.0000   1.0000
     1.0000   1.0000   1.0000   1.0000   1.0000   1.0000   1.0000   0.0000
     0.0000   0.0000   0.0000   0.0000   0.0000

          k = 0.2500 0.5292 0.2092 (  2824 PWs)   bands (ev):

   -74.9881 -74.9823 -38.4684 -38.4511 -38.3759 -38.3252 -38.2551 -38.2313
    15.6514  15.9489  16.3904  16.6980  17.2642  17.5075  18.6397  19.2874
    19.9511  20.2595  23.2759  24.6024  27.2432

     occupation numbers 
     1.0000   1.0000   1.0000   1.0000   1.0000   1.0000   1.0000   1.0000
     1.0000   1.0000   1.0000   1.0000   1.0000   1.0000   1.0000   0.0000
     0.0000   0.0000   0.0000   0.0000   0.0000

          k = 0.2500 0.5292-0.3138 (  2818 PWs)   bands (ev):

   -74.9852 -74.9852 -38.4720 -38.4720 -38.3521 -38.3521 -38.2294 -38.2294
    15.7918  15.7918  16.8004  16.8004  17.2140  17.2140  18.8383  18.8383
    20.1477  20.1477  23.8789  23.8789  27.8065

     occupation numbers 
     1.0000   1.0000   1.0000   1.0000   1.0000   1.0000   1.0000   1.0000
     1.0000   1.0000   1.0000   1.0000   1.0000   1.0000   1.0000   1.0000
     0.0000   0.0000   0.0000   0.0000   0.0000

          k = 0.3333 0.5774 0.0000 (  2832 PWs)   bands (ev):

   -74.9839 -74.9839 -38.4329 -38.3745 -38.3745 -38.3160 -38.3160 -38.3128
    15.8733  15.9884  15.9884  16.2065  17.5733  17.5733  18.7100  19.9547
    19.9547  20.1425  24.1265  24.9319  24.9319

     occupation numbers 
     1.0000   1.0000   1.0000   1.0000   1.0000   1.0000   1.0000   1.0000
     1.0000   1.0000   1.0000   1.0000   1.0000   1.0000   1.0000   0.0000
     0.0000   0.0000   0.0000   0.0000   0.0000

          k = 0.3333 0.5774 0.1046 (  2829 PWs)   bands (ev):

   -74.9839 -74.9839 -38.4249 -38.4090 -38.4090 -38.3209 -38.2814 -38.2814
    15.9527  16.0691  16.0691  16.2418  17.4887  17.4887  18.6815  19.8448
    19.9932  19.9932  24.5647  24.9873  24.9873

     occupation numbers 
     1.0000   1.0000   1.0000   1.0000   1.0000   1.0000   1.0000   1.0000
     1.0000   1.0000   1.0000   1.0000   1.0000   1.0000   1.0000   0.0000
     0.0000   0.0000   0.0000   0.0000   0.0000

          k = 0.3333 0.5774 0.2092 (  2835 PWs)   bands (ev):

   -74.9839 -74.9839 -38.4475 -38.4475 -38.4030 -38.3430 -38.2425 -38.2425
    16.1401  16.2605  16.2605  16.3070  17.2979  17.2979  18.6610  19.2658
    20.0609  20.0609  25.1243  25.1243  25.6114

     occupation numbers 
     1.0000   1.0000   1.0000   1.0000   1.0000   1.0000   1.0000   1.0000
     1.0000   1.0000   1.0000   1.0000   1.0000   1.0000   1.0000   0.0000
     0.0000   0.0000   0.0000   0.0000   0.0000

          k = 0.3333 0.5774-0.3138 (  2820 PWs)   bands (ev):

   -74.9839 -74.9839 -38.4620 -38.4620 -38.3730 -38.3730 -38.2278 -38.2278
    16.2940  16.2940  16.3842  16.3842  17.1782  17.1782  18.8187  18.8187
    20.0903  20.0903  25.2113  25.2113  26.9751

     occupation numbers 
     1.0000   1.0000   1.0000   1.0000   1.0000   1.0000   1.0000   1.0000
     1.0000   1.0000   1.0000   1.0000   1.0000   1.0000   1.0000   1.0000
     0.0000   0.0000   0.0000   0.0000   0.0000

     the Fermi energy is    18.8939 ev

!    total energy              =    -753.45494666 Ry
     total all-electron energy =     -5573.811638 Ry
     estimated scf accuracy    <       0.00000058 Ry
     smearing contrib. (-TS)   =      -0.00002122 Ry
     internal energy E=F+TS    =    -753.45492545 Ry

     The total energy is F=E-TS. E is the sum of the following terms:
     one-electron contribution =    -280.32759207 Ry
     hartree contribution      =     164.13576853 Ry
     xc contribution           =     -61.41974906 Ry
     ewald contribution        =    -400.66756068 Ry
     one-center paw contrib.   =    -175.17579217 Ry
      -> PAW hartree energy AE =     222.10545577 Ry
      -> PAW hartree energy PS =    -221.04967443 Ry
      -> PAW xc energy AE      =    -117.67680162 Ry
      -> PAW xc energy PS      =      29.03312419 Ry
      -> total E_H with PAW    =     165.19154987 Ry
      -> total E_XC with PAW   =    -150.06342649 Ry

     total magnetization       =     3.29 Bohr mag/cell
     absolute magnetization    =     3.61 Bohr mag/cell

     convergence has been achieved in   5 iterations

     Writing all to output data dir ./out2/Co.save/
 
     init_run     :      0.29s CPU      0.38s WALL (       1 calls)
     electrons    :      5.69s CPU      6.14s WALL (       1 calls)

     Called by init_run:
     wfcinit      :      0.13s CPU      0.19s WALL (       1 calls)
     potinit      :      0.10s CPU      0.12s WALL (       1 calls)
     hinit0       :      0.05s CPU      0.05s WALL (       1 calls)

     Called by electrons:
     c_bands      :      4.70s CPU      5.01s WALL (       5 calls)
     sum_band     :      0.52s CPU      0.56s WALL (       5 calls)
     v_of_rho     :      0.02s CPU      0.02s WALL (       6 calls)
     v_h          :      0.00s CPU      0.00s WALL (       6 calls)
     v_xc         :      0.02s CPU      0.02s WALL (       6 calls)
     newd         :      0.02s CPU      0.02s WALL (       6 calls)
     PAW_pot      :      0.51s CPU      0.63s WALL (       6 calls)
     mix_rho      :      0.00s CPU      0.00s WALL (       5 calls)

     Called by c_bands:
     init_us_2    :      0.04s CPU      0.04s WALL (     760 calls)
     init_us_2:cp :      0.04s CPU      0.04s WALL (     760 calls)
     cegterg      :      4.36s CPU      4.59s WALL (     380 calls)

     Called by sum_band:
     sum_band:wei :      0.00s CPU      0.01s WALL (       5 calls)
     sum_band:loo :      0.49s CPU      0.51s WALL (       5 calls)
     sum_band:buf :      0.00s CPU      0.00s WALL (     380 calls)
     sum_band:ini :      0.02s CPU      0.02s WALL (     380 calls)
     sum_band:cal :      0.04s CPU      0.04s WALL (     380 calls)
     sum_band:bec :      0.00s CPU      0.00s WALL (     380 calls)
     addusdens    :      0.03s CPU      0.03s WALL (       5 calls)
                                        0.00s GPU  (       5 calls)
     addusd:skk   :      0.00s CPU      0.00s WALL (       5 calls)
                                        0.00s GPU  (       5 calls)

     Called by *egterg:
     cdiaghg      :      0.94s CPU      0.99s WALL (    1932 calls)
     cegterg:over :      0.14s CPU      0.14s WALL (    1628 calls)
     cegterg:upda :      0.04s CPU      0.04s WALL (    1628 calls)
     cegterg:last :      0.08s CPU      0.08s WALL (    1170 calls)
     h_psi        :      2.96s CPU      3.12s WALL (    2008 calls)
     s_psi        :      0.05s CPU      0.06s WALL (    2008 calls)
     g_psi        :      0.01s CPU      0.01s WALL (    1628 calls)

     Called by h_psi:
     h_psi:calbec :      0.16s CPU      0.17s WALL (    2008 calls)
     vloc_psi     :      2.72s CPU      2.86s WALL (    2008 calls)
     add_vuspsi   :      0.07s CPU      0.07s WALL (    2008 calls)

     General routines
     calbec       :      0.19s CPU      0.20s WALL (    2388 calls)
     fft          :      0.01s CPU      0.01s WALL (     144 calls)
     ffts         :      0.00s CPU      0.00s WALL (      22 calls)
     fftw         :      2.82s CPU      2.97s WALL (   63354 calls)
     interpolate  :      0.00s CPU      0.00s WALL (      12 calls)
 
     Parallel routines

     PAW routines
     PAW_pot      :      0.51s CPU      0.63s WALL (       6 calls)
     PAW_symme    :      0.01s CPU      0.01s WALL (      10 calls)
 
     PWSCF        :      6.20s CPU      7.06s WALL

 
   This run was terminated on:  10:52:55  22Mar2024            

=------------------------------------------------------------------------------=
   JOB DONE.
=------------------------------------------------------------------------------=
