
     Program PWSCF v.7.2 starts on 22Mar2024 at 10:45:29 

     This program is part of the open-source Quantum ESPRESSO suite
     for quantum simulation of materials; please cite
         "P. Giannozzi et al., J. Phys.:Condens. Matter 21 395502 (2009);
         "P. Giannozzi et al., J. Phys.:Condens. Matter 29 465901 (2017);
         "P. Giannozzi et al., J. Chem. Phys. 152 154105 (2020);
          URL http://www.quantum-espresso.org", 
     in publications or presentations arising from this work. More details at
     http://www.quantum-espresso.org/quote

     Parallel version (MPI), running on    28 processors

     MPI processes distributed on     1 nodes
     182198 MiB available memory on the printing compute node when the environment starts
 
     Waiting for input...
     Reading input from standard input

     Current dimensions of program PWSCF are:
     Max number of different atomic species (ntypx) = 10
     Max number of k-points (npk) = 120000
     Max angular momentum in pseudopotentials (lmaxx) =  4
     file Co.pbe-spn-kjpaw_psl.0.3.1.UPF: wavefunction(s)  3P 3D renormalized
 
     K-points division:     npool     =       2
     R & G space division:  proc/nbgrp/npool/nimage =      14
     Subspace diagonalization in iterative solution of the eigenvalue problem:
     a serial algorithm will be used

 
     Parallelization info
     --------------------
     sticks:   dense  smooth     PW     G-vecs:    dense   smooth      PW
     Min          48      48     14                 1646     1606     262
     Max          49      49     15                 1663     1609     269
     Sum         673     673    199                23151    22503    3693
 
     Using Slab Decomposition
 


     bravais-lattice index     =            4
     lattice parameter (alat)  =       4.6865  a.u.
     unit-cell volume          =     143.9571 (a.u.)^3
     number of atoms/cell      =            2
     number of atomic types    =            1
     number of electrons       =        34.00
     number of Kohn-Sham states=           21
     kinetic-energy cutoff     =     110.0000  Ry
     charge density cutoff     =     450.0000  Ry
     scf convergence threshold =      1.0E-06
     mixing beta               =       0.7000
     number of iterations used =            8  plain     mixing
     Exchange-correlation= SLA  PW   PBX  PBC
                           (   1   4   3   4   0   0   0)

     celldm(1)=   4.686521  celldm(2)=   0.000000  celldm(3)=   1.614919
     celldm(4)=   0.000000  celldm(5)=   0.000000  celldm(6)=   0.000000

     crystal axes: (cart. coord. in units of alat)
               a(1) = (   1.000000   0.000000   0.000000 )  
               a(2) = (  -0.500000   0.866025   0.000000 )  
               a(3) = (   0.000000   0.000000   1.614919 )  

     reciprocal axes: (cart. coord. in units 2 pi/alat)
               b(1) = (  1.000000  0.577350  0.000000 )  
               b(2) = (  0.000000  1.154701  0.000000 )  
               b(3) = (  0.000000  0.000000  0.619226 )  


     PseudoPot. # 1 for Co read from file:
     /truba/home/amuhaymin/ZnS/pseudo/QE/Co.pbe-spn-kjpaw_psl.0.3.1.UPF
     MD5 check sum: b0a1ad65bf214e88c1f3d33b20c7d919
     Pseudo is Projector augmented-wave + core cor, Zval = 17.0
     Generated using &quot;atomic&quot; code by A. Dal Corso  v.6.2.2
     Shape of augmentation charge: PSQ
     Using radial grid of 1193 points,  6 beta functions with: 
                l(1) =   0
                l(2) =   0
                l(3) =   1
                l(4) =   1
                l(5) =   2
                l(6) =   2
     Q(r) pseudized with 0 coefficients 


     atomic species   valence    mass     pseudopotential
        Co            17.00    58.93300     Co( 1.00)

     Starting magnetic structure 
     atomic species   magnetization
        Co           0.294

     24 Sym. Ops., with inversion, found (12 have fractional translation)


                                    s                        frac. trans.

      isym =  1     identity                                     

 cryst.   s( 1) = (     1          0          0      )
                  (     0          1          0      )
                  (     0          0          1      )

 cart.    s( 1) = (  1.0000000  0.0000000  0.0000000 )
                  (  0.0000000  1.0000000  0.0000000 )
                  (  0.0000000  0.0000000  1.0000000 )


      isym =  2     180 deg rotation - cart. axis [0,0,1]        

 cryst.   s( 2) = (    -1          0          0      )    f =(  0.0000000 )
                  (     0         -1          0      )       ( -0.0000000 )
                  (     0          0          1      )       ( -0.5000000 )

 cart.    s( 2) = ( -1.0000000  0.0000000  0.0000000 )    f =(  0.0000000 )
                  (  0.0000000 -1.0000000  0.0000000 )       ( -0.0000000 )
                  (  0.0000000  0.0000000  1.0000000 )       ( -0.8074597 )


      isym =  3     180 deg rotation - cart. axis [0,1,0]        

 cryst.   s( 3) = (    -1          0          0      )    f =(  0.0000000 )
                  (     1          1          0      )       (  0.0000000 )
                  (     0          0         -1      )       (  0.5000000 )

 cart.    s( 3) = ( -1.0000000  0.0000000  0.0000000 )    f =(  0.0000000 )
                  (  0.0000000  1.0000000  0.0000000 )       (  0.0000000 )
                  (  0.0000000  0.0000000 -1.0000000 )       (  0.8074597 )


      isym =  4     180 deg rotation - cart. axis [1,0,0]        

 cryst.   s( 4) = (     1          0          0      )
                  (    -1         -1          0      )
                  (     0          0         -1      )

 cart.    s( 4) = (  1.0000000  0.0000000  0.0000000 )
                  (  0.0000000 -1.0000000  0.0000000 )
                  (  0.0000000  0.0000000 -1.0000000 )


      isym =  5      60 deg rotation - cryst. axis [0,0,1]       

 cryst.   s( 5) = (     1          1          0      )    f =(  0.0000000 )
                  (    -1          0          0      )       ( -0.0000000 )
                  (     0          0          1      )       ( -0.5000000 )

 cart.    s( 5) = (  0.5000000 -0.8660254  0.0000000 )    f =(  0.0000000 )
                  (  0.8660254  0.5000000  0.0000000 )       ( -0.0000000 )
                  (  0.0000000  0.0000000  1.0000000 )       ( -0.8074597 )


      isym =  6      60 deg rotation - cryst. axis [0,0,-1]      

 cryst.   s( 6) = (     0         -1          0      )    f =(  0.0000000 )
                  (     1          1          0      )       ( -0.0000000 )
                  (     0          0          1      )       ( -0.5000000 )

 cart.    s( 6) = (  0.5000000  0.8660254  0.0000000 )    f =(  0.0000000 )
                  ( -0.8660254  0.5000000  0.0000000 )       ( -0.0000000 )
                  (  0.0000000  0.0000000  1.0000000 )       ( -0.8074597 )


      isym =  7     120 deg rotation - cryst. axis [0,0,1]       

 cryst.   s( 7) = (     0          1          0      )
                  (    -1         -1          0      )
                  (     0          0          1      )

 cart.    s( 7) = ( -0.5000000 -0.8660254  0.0000000 )
                  (  0.8660254 -0.5000000  0.0000000 )
                  (  0.0000000  0.0000000  1.0000000 )


      isym =  8     120 deg rotation - cryst. axis [0,0,-1]      

 cryst.   s( 8) = (    -1         -1          0      )
                  (     1          0          0      )
                  (     0          0          1      )

 cart.    s( 8) = ( -0.5000000  0.8660254  0.0000000 )
                  ( -0.8660254 -0.5000000  0.0000000 )
                  (  0.0000000  0.0000000  1.0000000 )


      isym =  9     180 deg rotation - cryst. axis [1,-1,0]      

 cryst.   s( 9) = (     0         -1          0      )    f =( -0.0000000 )
                  (    -1          0          0      )       ( -0.0000000 )
                  (     0          0         -1      )       (  0.5000000 )

 cart.    s( 9) = (  0.5000000 -0.8660254  0.0000000 )    f =( -0.0000000 )
                  ( -0.8660254 -0.5000000  0.0000000 )       ( -0.0000000 )
                  (  0.0000000  0.0000000 -1.0000000 )       (  0.8074597 )


      isym = 10     180 deg rotation - cryst. axis [2,1,0]       

 cryst.   s(10) = (     1          1          0      )    f =(  0.0000000 )
                  (     0         -1          0      )       ( -0.0000000 )
                  (     0          0         -1      )       (  0.5000000 )

 cart.    s(10) = (  0.5000000  0.8660254  0.0000000 )    f =(  0.0000000 )
                  (  0.8660254 -0.5000000  0.0000000 )       ( -0.0000000 )
                  (  0.0000000  0.0000000 -1.0000000 )       (  0.8074597 )


      isym = 11     180 deg rotation - cryst. axis [0,1,0]       

 cryst.   s(11) = (    -1         -1          0      )
                  (     0          1          0      )
                  (     0          0         -1      )

 cart.    s(11) = ( -0.5000000 -0.8660254  0.0000000 )
                  ( -0.8660254  0.5000000  0.0000000 )
                  (  0.0000000  0.0000000 -1.0000000 )


      isym = 12     180 deg rotation - cryst. axis [1,1,0]       

 cryst.   s(12) = (     0          1          0      )
                  (     1          0          0      )
                  (     0          0         -1      )

 cart.    s(12) = ( -0.5000000  0.8660254  0.0000000 )
                  (  0.8660254  0.5000000  0.0000000 )
                  (  0.0000000  0.0000000 -1.0000000 )


      isym = 13     inversion                                    

 cryst.   s(13) = (    -1          0          0      )
                  (     0         -1          0      )
                  (     0          0         -1      )

 cart.    s(13) = ( -1.0000000  0.0000000  0.0000000 )
                  (  0.0000000 -1.0000000  0.0000000 )
                  (  0.0000000  0.0000000 -1.0000000 )


      isym = 14     inv. 180 deg rotation - cart. axis [0,0,1]   

 cryst.   s(14) = (     1          0          0      )    f =(  0.0000000 )
                  (     0          1          0      )       (  0.0000000 )
                  (     0          0         -1      )       (  0.5000000 )

 cart.    s(14) = (  1.0000000  0.0000000  0.0000000 )    f =(  0.0000000 )
                  (  0.0000000  1.0000000  0.0000000 )       (  0.0000000 )
                  (  0.0000000  0.0000000 -1.0000000 )       (  0.8074597 )


      isym = 15     inv. 180 deg rotation - cart. axis [0,1,0]   

 cryst.   s(15) = (     1          0          0      )    f =(  0.0000000 )
                  (    -1         -1          0      )       ( -0.0000000 )
                  (     0          0          1      )       ( -0.5000000 )

 cart.    s(15) = (  1.0000000  0.0000000  0.0000000 )    f =(  0.0000000 )
                  (  0.0000000 -1.0000000  0.0000000 )       ( -0.0000000 )
                  (  0.0000000  0.0000000  1.0000000 )       ( -0.8074597 )


      isym = 16     inv. 180 deg rotation - cart. axis [1,0,0]   

 cryst.   s(16) = (    -1          0          0      )
                  (     1          1          0      )
                  (     0          0          1      )

 cart.    s(16) = ( -1.0000000  0.0000000  0.0000000 )
                  (  0.0000000  1.0000000  0.0000000 )
                  (  0.0000000  0.0000000  1.0000000 )


      isym = 17     inv.  60 deg rotation - cryst. axis [0,0,1]  

 cryst.   s(17) = (    -1         -1          0      )    f =(  0.0000000 )
                  (     1          0          0      )       ( -0.0000000 )
                  (     0          0         -1      )       (  0.5000000 )

 cart.    s(17) = ( -0.5000000  0.8660254  0.0000000 )    f =(  0.0000000 )
                  ( -0.8660254 -0.5000000  0.0000000 )       ( -0.0000000 )
                  (  0.0000000  0.0000000 -1.0000000 )       (  0.8074597 )


      isym = 18     inv.  60 deg rotation - cryst. axis [0,0,-1] 

 cryst.   s(18) = (     0          1          0      )    f =( -0.0000000 )
                  (    -1         -1          0      )       ( -0.0000000 )
                  (     0          0         -1      )       (  0.5000000 )

 cart.    s(18) = ( -0.5000000 -0.8660254  0.0000000 )    f =(  0.0000000 )
                  (  0.8660254 -0.5000000  0.0000000 )       ( -0.0000000 )
                  (  0.0000000  0.0000000 -1.0000000 )       (  0.8074597 )


      isym = 19     inv. 120 deg rotation - cryst. axis [0,0,1]  

 cryst.   s(19) = (     0         -1          0      )
                  (     1          1          0      )
                  (     0          0         -1      )

 cart.    s(19) = (  0.5000000  0.8660254  0.0000000 )
                  ( -0.8660254  0.5000000  0.0000000 )
                  (  0.0000000  0.0000000 -1.0000000 )


      isym = 20     inv. 120 deg rotation - cryst. axis [0,0,-1] 

 cryst.   s(20) = (     1          1          0      )
                  (    -1          0          0      )
                  (     0          0         -1      )

 cart.    s(20) = (  0.5000000 -0.8660254  0.0000000 )
                  (  0.8660254  0.5000000  0.0000000 )
                  (  0.0000000  0.0000000 -1.0000000 )


      isym = 21     inv. 180 deg rotation - cryst. axis [1,-1,0] 

 cryst.   s(21) = (     0          1          0      )    f =(  0.0000000 )
                  (     1          0          0      )       ( -0.0000000 )
                  (     0          0          1      )       ( -0.5000000 )

 cart.    s(21) = ( -0.5000000  0.8660254  0.0000000 )    f =(  0.0000000 )
                  (  0.8660254  0.5000000  0.0000000 )       ( -0.0000000 )
                  (  0.0000000  0.0000000  1.0000000 )       ( -0.8074597 )


      isym = 22     inv. 180 deg rotation - cryst. axis [2,1,0]  

 cryst.   s(22) = (    -1         -1          0      )    f =(  0.0000000 )
                  (     0          1          0      )       ( -0.0000000 )
                  (     0          0          1      )       ( -0.5000000 )

 cart.    s(22) = ( -0.5000000 -0.8660254  0.0000000 )    f =(  0.0000000 )
                  ( -0.8660254  0.5000000  0.0000000 )       ( -0.0000000 )
                  (  0.0000000  0.0000000  1.0000000 )       ( -0.8074597 )


      isym = 23     inv. 180 deg rotation - cryst. axis [0,1,0]  

 cryst.   s(23) = (     1          1          0      )
                  (     0         -1          0      )
                  (     0          0          1      )

 cart.    s(23) = (  0.5000000  0.8660254  0.0000000 )
                  (  0.8660254 -0.5000000  0.0000000 )
                  (  0.0000000  0.0000000  1.0000000 )


      isym = 24     inv. 180 deg rotation - cryst. axis [1,1,0]  

 cryst.   s(24) = (     0         -1          0      )
                  (    -1          0          0      )
                  (     0          0          1      )

 cart.    s(24) = (  0.5000000 -0.8660254  0.0000000 )
                  ( -0.8660254 -0.5000000  0.0000000 )
                  (  0.0000000  0.0000000  1.0000000 )


     point group D_6h(6/mmm)
     there are 12 classes
     the character table:

       E     2C6   2C3   C2    3C2'  3C2'' i     2S3   2S6   s_h   3s_d  3s_v 
A_1g   1.00  1.00  1.00  1.00  1.00  1.00  1.00  1.00  1.00  1.00  1.00  1.00
A_2g   1.00  1.00  1.00  1.00 -1.00 -1.00  1.00  1.00  1.00  1.00 -1.00 -1.00
B_1g   1.00 -1.00  1.00 -1.00  1.00 -1.00  1.00 -1.00  1.00 -1.00  1.00 -1.00
B_2g   1.00 -1.00  1.00 -1.00 -1.00  1.00  1.00 -1.00  1.00 -1.00 -1.00  1.00
E_1g   2.00  1.00 -1.00 -2.00  0.00  0.00  2.00  1.00 -1.00 -2.00  0.00  0.00
E_2g   2.00 -1.00 -1.00  2.00  0.00  0.00  2.00 -1.00 -1.00  2.00  0.00  0.00
A_1u   1.00  1.00  1.00  1.00  1.00  1.00 -1.00 -1.00 -1.00 -1.00 -1.00 -1.00
A_2u   1.00  1.00  1.00  1.00 -1.00 -1.00 -1.00 -1.00 -1.00 -1.00  1.00  1.00
B_1u   1.00 -1.00  1.00 -1.00  1.00 -1.00 -1.00  1.00 -1.00  1.00 -1.00  1.00
B_2u   1.00 -1.00  1.00 -1.00 -1.00  1.00 -1.00  1.00 -1.00  1.00  1.00 -1.00
E_1u   2.00  1.00 -1.00 -2.00  0.00  0.00 -2.00 -1.00  1.00  2.00  0.00  0.00
E_2u   2.00 -1.00 -1.00  2.00  0.00  0.00 -2.00  1.00  1.00 -2.00  0.00  0.00

     the symmetry operations in each class and the name of the first element:

     E        1
          identity                                               
     2C6      5    6
           60 deg rotation - cryst. axis [0,0,1]                 
     2C3      7    8
          120 deg rotation - cryst. axis [0,0,1]                 
     C2       2
          180 deg rotation - cart. axis [0,0,1]                  
     3C2'     4   12   11
          180 deg rotation - cart. axis [1,0,0]                  
     3C2''    3    9   10
          180 deg rotation - cart. axis [0,1,0]                  
     i       13
          inversion                                              
     2S3     17   18
          inv.  60 deg rotation - cryst. axis [0,0,1]            
     2S6     19   20
          inv. 120 deg rotation - cryst. axis [0,0,1]            
     s_h     14
          inv. 180 deg rotation - cart. axis [0,0,1]             
     3s_d    16   24   23
          inv. 180 deg rotation - cart. axis [1,0,0]             
     3s_v    15   21   22
          inv. 180 deg rotation - cart. axis [0,1,0]             

   Cartesian axes

     site n.     atom                  positions (alat units)
         1           Co  tau(   1) = (  -0.0000000   0.5773503   0.4037298  )
         2           Co  tau(   2) = (   0.5000000   0.2886751   1.2111895  )

   Crystallographic axes

     site n.     atom                  positions (cryst. coord.)
         1           Co  tau(   1) = (  0.3333333  0.6666667  0.2500000  )
         2           Co  tau(   2) = (  0.6666667  0.3333333  0.7500000  )

     number of k points=    76  Gaussian smearing, width (Ry)=  0.0010
                       cart. coord. in units 2pi/alat
        k(    1) = (   0.0000000   0.0000000   0.0000000), wk =   0.0011574
        k(    2) = (   0.0000000   0.0000000   0.1032043), wk =   0.0023148
        k(    3) = (   0.0000000   0.0000000   0.2064087), wk =   0.0023148
        k(    4) = (   0.0000000   0.0000000  -0.3096130), wk =   0.0011574
        k(    5) = (   0.0000000   0.0962250   0.0000000), wk =   0.0069444
        k(    6) = (   0.0000000   0.0962250   0.1032043), wk =   0.0138889
        k(    7) = (   0.0000000   0.0962250   0.2064087), wk =   0.0138889
        k(    8) = (   0.0000000   0.0962250  -0.3096130), wk =   0.0069444
        k(    9) = (   0.0000000   0.1924501   0.0000000), wk =   0.0069444
        k(   10) = (   0.0000000   0.1924501   0.1032043), wk =   0.0138889
        k(   11) = (   0.0000000   0.1924501   0.2064087), wk =   0.0138889
        k(   12) = (   0.0000000   0.1924501  -0.3096130), wk =   0.0069444
        k(   13) = (   0.0000000   0.2886751   0.0000000), wk =   0.0069444
        k(   14) = (   0.0000000   0.2886751   0.1032043), wk =   0.0138889
        k(   15) = (   0.0000000   0.2886751   0.2064087), wk =   0.0138889
        k(   16) = (   0.0000000   0.2886751  -0.3096130), wk =   0.0069444
        k(   17) = (   0.0000000   0.3849002   0.0000000), wk =   0.0069444
        k(   18) = (   0.0000000   0.3849002   0.1032043), wk =   0.0138889
        k(   19) = (   0.0000000   0.3849002   0.2064087), wk =   0.0138889
        k(   20) = (   0.0000000   0.3849002  -0.3096130), wk =   0.0069444
        k(   21) = (   0.0000000   0.4811252   0.0000000), wk =   0.0069444
        k(   22) = (   0.0000000   0.4811252   0.1032043), wk =   0.0138889
        k(   23) = (   0.0000000   0.4811252   0.2064087), wk =   0.0138889
        k(   24) = (   0.0000000   0.4811252  -0.3096130), wk =   0.0069444
        k(   25) = (   0.0000000  -0.5773503   0.0000000), wk =   0.0034722
        k(   26) = (   0.0000000  -0.5773503   0.1032043), wk =   0.0069444
        k(   27) = (   0.0000000  -0.5773503   0.2064087), wk =   0.0069444
        k(   28) = (   0.0000000  -0.5773503  -0.3096130), wk =   0.0034722
        k(   29) = (   0.0833333   0.1443376   0.0000000), wk =   0.0069444
        k(   30) = (   0.0833333   0.1443376   0.1032043), wk =   0.0138889
        k(   31) = (   0.0833333   0.1443376   0.2064087), wk =   0.0138889
        k(   32) = (   0.0833333   0.1443376  -0.3096130), wk =   0.0069444
        k(   33) = (   0.0833333   0.2405626   0.0000000), wk =   0.0138889
        k(   34) = (   0.0833333   0.2405626   0.1032043), wk =   0.0277778
        k(   35) = (   0.0833333   0.2405626   0.2064087), wk =   0.0277778
        k(   36) = (   0.0833333   0.2405626  -0.3096130), wk =   0.0138889
        k(   37) = (   0.0833333   0.3367877   0.0000000), wk =   0.0138889
        k(   38) = (   0.0833333   0.3367877   0.1032043), wk =   0.0277778
        k(   39) = (   0.0833333   0.3367877   0.2064087), wk =   0.0277778
        k(   40) = (   0.0833333   0.3367877  -0.3096130), wk =   0.0138889
        k(   41) = (   0.0833333   0.4330127   0.0000000), wk =   0.0138889
        k(   42) = (   0.0833333   0.4330127   0.1032043), wk =   0.0277778
        k(   43) = (   0.0833333   0.4330127   0.2064087), wk =   0.0277778
        k(   44) = (   0.0833333   0.4330127  -0.3096130), wk =   0.0138889
        k(   45) = (   0.0833333   0.5292377   0.0000000), wk =   0.0138889
        k(   46) = (   0.0833333   0.5292377   0.1032043), wk =   0.0277778
        k(   47) = (   0.0833333   0.5292377   0.2064087), wk =   0.0277778
        k(   48) = (   0.0833333   0.5292377  -0.3096130), wk =   0.0138889
        k(   49) = (   0.1666667   0.2886751   0.0000000), wk =   0.0069444
        k(   50) = (   0.1666667   0.2886751   0.1032043), wk =   0.0138889
        k(   51) = (   0.1666667   0.2886751   0.2064087), wk =   0.0138889
        k(   52) = (   0.1666667   0.2886751  -0.3096130), wk =   0.0069444
        k(   53) = (   0.1666667   0.3849002   0.0000000), wk =   0.0138889
        k(   54) = (   0.1666667   0.3849002   0.1032043), wk =   0.0277778
        k(   55) = (   0.1666667   0.3849002   0.2064087), wk =   0.0277778
        k(   56) = (   0.1666667   0.3849002  -0.3096130), wk =   0.0138889
        k(   57) = (   0.1666667   0.4811252   0.0000000), wk =   0.0138889
        k(   58) = (   0.1666667   0.4811252   0.1032043), wk =   0.0277778
        k(   59) = (   0.1666667   0.4811252   0.2064087), wk =   0.0277778
        k(   60) = (   0.1666667   0.4811252  -0.3096130), wk =   0.0138889
        k(   61) = (   0.1666667   0.5773503   0.0000000), wk =   0.0069444
        k(   62) = (   0.1666667   0.5773503   0.1032043), wk =   0.0138889
        k(   63) = (   0.1666667   0.5773503   0.2064087), wk =   0.0138889
        k(   64) = (   0.1666667   0.5773503  -0.3096130), wk =   0.0069444
        k(   65) = (   0.2500000   0.4330127   0.0000000), wk =   0.0069444
        k(   66) = (   0.2500000   0.4330127   0.1032043), wk =   0.0138889
        k(   67) = (   0.2500000   0.4330127   0.2064087), wk =   0.0138889
        k(   68) = (   0.2500000   0.4330127  -0.3096130), wk =   0.0069444
        k(   69) = (   0.2500000   0.5292377   0.0000000), wk =   0.0138889
        k(   70) = (   0.2500000   0.5292377   0.1032043), wk =   0.0277778
        k(   71) = (   0.2500000   0.5292377   0.2064087), wk =   0.0277778
        k(   72) = (   0.2500000   0.5292377  -0.3096130), wk =   0.0138889
        k(   73) = (   0.3333333   0.5773503   0.0000000), wk =   0.0023148
        k(   74) = (   0.3333333   0.5773503   0.1032043), wk =   0.0046296
        k(   75) = (   0.3333333   0.5773503   0.2064087), wk =   0.0046296
        k(   76) = (   0.3333333   0.5773503  -0.3096130), wk =   0.0023148

                       cryst. coord.
        k(    1) = (   0.0000000   0.0000000   0.0000000), wk =   0.0011574
        k(    2) = (   0.0000000   0.0000000   0.1666667), wk =   0.0023148
        k(    3) = (   0.0000000   0.0000000   0.3333333), wk =   0.0023148
        k(    4) = (   0.0000000   0.0000000  -0.5000000), wk =   0.0011574
        k(    5) = (   0.0000000   0.0833333   0.0000000), wk =   0.0069444
        k(    6) = (   0.0000000   0.0833333   0.1666667), wk =   0.0138889
        k(    7) = (   0.0000000   0.0833333   0.3333333), wk =   0.0138889
        k(    8) = (   0.0000000   0.0833333  -0.5000000), wk =   0.0069444
        k(    9) = (   0.0000000   0.1666667   0.0000000), wk =   0.0069444
        k(   10) = (   0.0000000   0.1666667   0.1666667), wk =   0.0138889
        k(   11) = (   0.0000000   0.1666667   0.3333333), wk =   0.0138889
        k(   12) = (   0.0000000   0.1666667  -0.5000000), wk =   0.0069444
        k(   13) = (   0.0000000   0.2500000   0.0000000), wk =   0.0069444
        k(   14) = (   0.0000000   0.2500000   0.1666667), wk =   0.0138889
        k(   15) = (   0.0000000   0.2500000   0.3333333), wk =   0.0138889
        k(   16) = (   0.0000000   0.2500000  -0.5000000), wk =   0.0069444
        k(   17) = (   0.0000000   0.3333333   0.0000000), wk =   0.0069444
        k(   18) = (   0.0000000   0.3333333   0.1666667), wk =   0.0138889
        k(   19) = (   0.0000000   0.3333333   0.3333333), wk =   0.0138889
        k(   20) = (   0.0000000   0.3333333  -0.5000000), wk =   0.0069444
        k(   21) = (   0.0000000   0.4166667   0.0000000), wk =   0.0069444
        k(   22) = (   0.0000000   0.4166667   0.1666667), wk =   0.0138889
        k(   23) = (   0.0000000   0.4166667   0.3333333), wk =   0.0138889
        k(   24) = (   0.0000000   0.4166667  -0.5000000), wk =   0.0069444
        k(   25) = (   0.0000000  -0.5000000   0.0000000), wk =   0.0034722
        k(   26) = (   0.0000000  -0.5000000   0.1666667), wk =   0.0069444
        k(   27) = (   0.0000000  -0.5000000   0.3333333), wk =   0.0069444
        k(   28) = (   0.0000000  -0.5000000  -0.5000000), wk =   0.0034722
        k(   29) = (   0.0833333   0.0833333   0.0000000), wk =   0.0069444
        k(   30) = (   0.0833333   0.0833333   0.1666667), wk =   0.0138889
        k(   31) = (   0.0833333   0.0833333   0.3333333), wk =   0.0138889
        k(   32) = (   0.0833333   0.0833333  -0.5000000), wk =   0.0069444
        k(   33) = (   0.0833333   0.1666667   0.0000000), wk =   0.0138889
        k(   34) = (   0.0833333   0.1666667   0.1666667), wk =   0.0277778
        k(   35) = (   0.0833333   0.1666667   0.3333333), wk =   0.0277778
        k(   36) = (   0.0833333   0.1666667  -0.5000000), wk =   0.0138889
        k(   37) = (   0.0833333   0.2500000   0.0000000), wk =   0.0138889
        k(   38) = (   0.0833333   0.2500000   0.1666667), wk =   0.0277778
        k(   39) = (   0.0833333   0.2500000   0.3333333), wk =   0.0277778
        k(   40) = (   0.0833333   0.2500000  -0.5000000), wk =   0.0138889
        k(   41) = (   0.0833333   0.3333333   0.0000000), wk =   0.0138889
        k(   42) = (   0.0833333   0.3333333   0.1666667), wk =   0.0277778
        k(   43) = (   0.0833333   0.3333333   0.3333333), wk =   0.0277778
        k(   44) = (   0.0833333   0.3333333  -0.5000000), wk =   0.0138889
        k(   45) = (   0.0833333   0.4166667   0.0000000), wk =   0.0138889
        k(   46) = (   0.0833333   0.4166667   0.1666667), wk =   0.0277778
        k(   47) = (   0.0833333   0.4166667   0.3333333), wk =   0.0277778
        k(   48) = (   0.0833333   0.4166667  -0.5000000), wk =   0.0138889
        k(   49) = (   0.1666667   0.1666667   0.0000000), wk =   0.0069444
        k(   50) = (   0.1666667   0.1666667   0.1666667), wk =   0.0138889
        k(   51) = (   0.1666667   0.1666667   0.3333333), wk =   0.0138889
        k(   52) = (   0.1666667   0.1666667  -0.5000000), wk =   0.0069444
        k(   53) = (   0.1666667   0.2500000   0.0000000), wk =   0.0138889
        k(   54) = (   0.1666667   0.2500000   0.1666667), wk =   0.0277778
        k(   55) = (   0.1666667   0.2500000   0.3333333), wk =   0.0277778
        k(   56) = (   0.1666667   0.2500000  -0.5000000), wk =   0.0138889
        k(   57) = (   0.1666667   0.3333333   0.0000000), wk =   0.0138889
        k(   58) = (   0.1666667   0.3333333   0.1666667), wk =   0.0277778
        k(   59) = (   0.1666667   0.3333333   0.3333333), wk =   0.0277778
        k(   60) = (   0.1666667   0.3333333  -0.5000000), wk =   0.0138889
        k(   61) = (   0.1666667   0.4166667   0.0000000), wk =   0.0069444
        k(   62) = (   0.1666667   0.4166667   0.1666667), wk =   0.0138889
        k(   63) = (   0.1666667   0.4166667   0.3333333), wk =   0.0138889
        k(   64) = (   0.1666667   0.4166667  -0.5000000), wk =   0.0069444
        k(   65) = (   0.2500000   0.2500000   0.0000000), wk =   0.0069444
        k(   66) = (   0.2500000   0.2500000   0.1666667), wk =   0.0138889
        k(   67) = (   0.2500000   0.2500000   0.3333333), wk =   0.0138889
        k(   68) = (   0.2500000   0.2500000  -0.5000000), wk =   0.0069444
        k(   69) = (   0.2500000   0.3333333   0.0000000), wk =   0.0138889
        k(   70) = (   0.2500000   0.3333333   0.1666667), wk =   0.0277778
        k(   71) = (   0.2500000   0.3333333   0.3333333), wk =   0.0277778
        k(   72) = (   0.2500000   0.3333333  -0.5000000), wk =   0.0138889
        k(   73) = (   0.3333333   0.3333333   0.0000000), wk =   0.0023148
        k(   74) = (   0.3333333   0.3333333   0.1666667), wk =   0.0046296
        k(   75) = (   0.3333333   0.3333333   0.3333333), wk =   0.0046296
        k(   76) = (   0.3333333   0.3333333  -0.5000000), wk =   0.0023148

     Dense  grid:    23151 G-vectors     FFT dimensions: (  32,  32,  54)

     Smooth grid:    22503 G-vectors     FFT dimensions: (  32,  32,  54)

     Dynamical RAM for                 wfc:       0.06 MB

     Dynamical RAM for     wfc (w. buffer):       4.93 MB

     Dynamical RAM for           str. fact:       0.03 MB

     Dynamical RAM for           local pot:       0.00 MB

     Dynamical RAM for          nlocal pot:       0.11 MB

     Dynamical RAM for                qrad:       1.70 MB

     Dynamical RAM for          rho,v,vnew:       0.34 MB

     Dynamical RAM for               rhoin:       0.11 MB

     Dynamical RAM for            rho*nmix:       0.81 MB

     Dynamical RAM for           G-vectors:       0.11 MB

     Dynamical RAM for          h,s,v(r/c):       0.08 MB

     Dynamical RAM for          <psi|beta>:       0.01 MB

     Dynamical RAM for                 psi:       0.13 MB

     Dynamical RAM for                hpsi:       0.13 MB

     Dynamical RAM for                spsi:       0.13 MB

     Dynamical RAM for      wfcinit/wfcrot:       0.14 MB

     Dynamical RAM for           addusdens:       2.42 MB

     Estimated static dynamical RAM per process >       7.57 MB

     Estimated max dynamical RAM per process >      10.80 MB

     Estimated total dynamical RAM >     291.17 MB

     Check: negative core charge=   -0.000043
     Generating pointlists ...
     new r_m :   0.4095 (alat units)  1.9190 (a.u.) for type    1

     The initial density is read from file :
     ./out2/Co.save/charge-density


     starting charge      34.0425, renormalised to      34.0000
     Starting wfcs from file
     Checking if some PAW data can be deallocated... 

     total cpu time spent up to now is        0.5 secs

     Self-consistent Calculation

     iteration #  1     ecut=   110.00 Ry     beta= 0.70
     Davidson diagonalization with overlap

---- Real-time Memory Report at c_bands before calling an iterative solver
            59 MiB given to the printing process from OS
             0 MiB allocation reported by mallinfo(arena+hblkhd)
        181399 MiB available memory on the node where the printing process lives
------------------
     ethr =  1.00E-05,  avg # of iterations =  2.6

     total cpu time spent up to now is        1.6 secs

     total energy              =    -753.45374171 Ry
     estimated scf accuracy    <       0.00104297 Ry

     total magnetization       =     3.28 Bohr mag/cell
     absolute magnetization    =     3.59 Bohr mag/cell

     iteration #  2     ecut=   110.00 Ry     beta= 0.70
     Davidson diagonalization with overlap

---- Real-time Memory Report at c_bands before calling an iterative solver
            83 MiB given to the printing process from OS
             0 MiB allocation reported by mallinfo(arena+hblkhd)
        181060 MiB available memory on the node where the printing process lives
------------------
     ethr =  3.07E-06,  avg # of iterations =  4.6

     total cpu time spent up to now is        2.9 secs

     total energy              =    -753.45419917 Ry
     estimated scf accuracy    <       0.00284847 Ry

     total magnetization       =     3.29 Bohr mag/cell
     absolute magnetization    =     3.60 Bohr mag/cell

     iteration #  3     ecut=   110.00 Ry     beta= 0.70
     Davidson diagonalization with overlap

---- Real-time Memory Report at c_bands before calling an iterative solver
            85 MiB given to the printing process from OS
             0 MiB allocation reported by mallinfo(arena+hblkhd)
        181039 MiB available memory on the node where the printing process lives
------------------
     ethr =  3.07E-06,  avg # of iterations =  4.0

     total cpu time spent up to now is        3.9 secs

     total energy              =    -753.45495751 Ry
     estimated scf accuracy    <       0.00000669 Ry

     total magnetization       =     3.28 Bohr mag/cell
     absolute magnetization    =     3.60 Bohr mag/cell

     iteration #  4     ecut=   110.00 Ry     beta= 0.70
     Davidson diagonalization with overlap

---- Real-time Memory Report at c_bands before calling an iterative solver
            85 MiB given to the printing process from OS
             0 MiB allocation reported by mallinfo(arena+hblkhd)
        181025 MiB available memory on the node where the printing process lives
------------------
     ethr =  1.97E-08,  avg # of iterations =  6.7

     total cpu time spent up to now is        5.6 secs

     total energy              =    -753.45498337 Ry
     estimated scf accuracy    <       0.00000686 Ry

     total magnetization       =     3.28 Bohr mag/cell
     absolute magnetization    =     3.60 Bohr mag/cell

     iteration #  5     ecut=   110.00 Ry     beta= 0.70
     Davidson diagonalization with overlap

---- Real-time Memory Report at c_bands before calling an iterative solver
            85 MiB given to the printing process from OS
             0 MiB allocation reported by mallinfo(arena+hblkhd)
        181016 MiB available memory on the node where the printing process lives
------------------
     ethr =  1.97E-08,  avg # of iterations =  2.3
 
     Magnetic moment per site  (integrated on atomic sphere of radius R)
     atom   1 (R=0.409)  charge= 15.5719  magn=  1.7160
     atom   2 (R=0.409)  charge= 15.5719  magn=  1.7160

     total cpu time spent up to now is        6.5 secs

     End of self-consistent calculation

 ------ SPIN UP ------------


          k = 0.0000 0.0000 0.0000 (  2803 PWs)   bands (ev):

   -77.0633 -77.0020 -40.4734 -40.1664 -40.1664 -40.1241 -40.1156 -40.1156
     9.9704  13.7962  16.4027  16.4255  16.4255  16.7502  16.7502  17.0962
    17.0962  18.2392  18.2392  18.8356  25.5391

     occupation numbers 
     1.0000   1.0000   1.0000   1.0000   1.0000   1.0000   1.0000   1.0000
     1.0000   1.0000   1.0000   1.0000   1.0000   1.0000   1.0000   1.0000
     1.0000   1.0000   1.0000   1.0000   0.0000

          k = 0.0000 0.0000 0.1032 (  2827 PWs)   bands (ev):

   -77.0592 -77.0061 -40.4503 -40.1630 -40.1630 -40.1478 -40.1190 -40.1190
    10.2519  13.7297  16.3288  16.3570  16.3570  16.6732  16.6732  17.2667
    17.2667  17.8730  18.2230  18.2230  27.0698

     occupation numbers 
     1.0000   1.0000   1.0000   1.0000   1.0000   1.0000   1.0000   1.0000
     1.0000   1.0000   1.0000   1.0000   1.0000   1.0000   1.0000   1.0000
     1.0000   1.0000   1.0000   1.0000   0.0000

          k = 0.0000 0.0000 0.2064 (  2797 PWs)   bands (ev):

   -77.0480 -77.0174 -40.3870 -40.2124 -40.1537 -40.1537 -40.1283 -40.1283
    11.0585  13.2984  16.1577  16.2991  16.2991  16.5035  16.5035  16.5342
    17.6014  17.6014  18.1332  18.1332  30.3125

     occupation numbers 
     1.0000   1.0000   1.0000   1.0000   1.0000   1.0000   1.0000   1.0000
     1.0000   1.0000   1.0000   1.0000   1.0000   1.0000   1.0000   1.0000
     1.0000   1.0000   1.0000   1.0000   0.0000

          k = 0.0000 0.0000-0.3096 (  2822 PWs)   bands (ev):

   -77.0327 -77.0327 -40.3000 -40.3000 -40.1410 -40.1410 -40.1410 -40.1410
    12.2301  12.2301  16.0736  16.0736  16.3530  16.3530  16.3530  16.3530
    17.9200  17.9200  17.9200  17.9200  34.1799

     occupation numbers 
     1.0000   1.0000   1.0000   1.0000   1.0000   1.0000   1.0000   1.0000
     1.0000   1.0000   1.0000   1.0000   1.0000   1.0000   1.0000   1.0000
     1.0000   1.0000   1.0000   1.0000   0.0000

          k = 0.0000 0.0962 0.0000 (  2805 PWs)   bands (ev):

   -77.0599 -77.0005 -40.4658 -40.1828 -40.1718 -40.1326 -40.1273 -40.1183
    10.2150  13.9434  16.1803  16.5420  16.6085  16.7022  16.8533  16.9355
    17.0229  17.4113  18.2706  19.9898  25.5777

     occupation numbers 
     1.0000   1.0000   1.0000   1.0000   1.0000   1.0000   1.0000   1.0000
     1.0000   1.0000   1.0000   1.0000   1.0000   1.0000   1.0000   1.0000
     1.0000   1.0000   1.0000   0.0000   0.0000

          k = 0.0000 0.0962 0.1032 (  2797 PWs)   bands (ev):

   -77.0559 -77.0044 -40.4440 -40.1789 -40.1682 -40.1577 -40.1284 -40.1218
    10.4921  13.8917  16.1777  16.4254  16.4559  16.5124  16.7699  17.0768
    17.2218  17.3113  18.2467  19.2133  27.1775

     occupation numbers 
     1.0000   1.0000   1.0000   1.0000   1.0000   1.0000   1.0000   1.0000
     1.0000   1.0000   1.0000   1.0000   1.0000   1.0000   1.0000   1.0000
     1.0000   1.0000   1.0000   0.0000   0.0000

          k = 0.0000 0.0962 0.2064 (  2806 PWs)   bands (ev):

   -77.0451 -77.0153 -40.3844 -40.2195 -40.1680 -40.1584 -40.1385 -40.1317
    11.2856  13.4890  16.0656  16.1333  16.2225  16.3910  16.5991  16.6745
    17.5754  17.6227  18.1396  18.4388  30.4653

     occupation numbers 
     1.0000   1.0000   1.0000   1.0000   1.0000   1.0000   1.0000   1.0000
     1.0000   1.0000   1.0000   1.0000   1.0000   1.0000   1.0000   1.0000
     1.0000   1.0000   1.0000   1.0000   0.0000

          k = 0.0000 0.0962-0.3096 (  2822 PWs)   bands (ev):

   -77.0302 -77.0302 -40.3023 -40.3023 -40.1532 -40.1532 -40.1451 -40.1451
    12.4386  12.4386  15.9183  15.9183  16.3720  16.3720  16.4466  16.4466
    17.9087  17.9087  18.0142  18.0142  34.3476

     occupation numbers 
     1.0000   1.0000   1.0000   1.0000   1.0000   1.0000   1.0000   1.0000
     1.0000   1.0000   1.0000   1.0000   1.0000   1.0000   1.0000   1.0000
     1.0000   1.0000   1.0000   1.0000   0.0000

          k = 0.0000 0.1925 0.0000 (  2809 PWs)   bands (ev):

   -77.0504 -76.9964 -40.4443 -40.2280 -40.1862 -40.1789 -40.1368 -40.1260
    10.9219  14.3073  15.8971  16.1896  16.5237  16.8423  16.8712  16.9210
    17.0474  17.1422  18.3375  21.6067  25.7140

     occupation numbers 
     1.0000   1.0000   1.0000   1.0000   1.0000   1.0000   1.0000   1.0000
     1.0000   1.0000   1.0000   1.0000   1.0000   1.0000   1.0000   1.0000
     1.0000   1.0000   1.0000   0.0000   0.0000

          k = 0.0000 0.1925 0.1032 (  2795 PWs)   bands (ev):

   -77.0468 -77.0000 -40.4269 -40.2223 -40.1967 -40.1822 -40.1425 -40.1300
    11.1825  14.3009  15.9075  15.9397  16.4016  16.6676  16.7980  17.0209
    17.2043  17.3045  18.2965  20.4673  27.5279

     occupation numbers 
     1.0000   1.0000   1.0000   1.0000   1.0000   1.0000   1.0000   1.0000
     1.0000   1.0000   1.0000   1.0000   1.0000   1.0000   1.0000   1.0000
     1.0000   1.0000   1.0000   0.0000   0.0000

          k = 0.0000 0.1925 0.2064 (  2796 PWs)   bands (ev):

   -77.0369 -77.0099 -40.3791 -40.2474 -40.2040 -40.1712 -40.1588 -40.1411
    11.9253  13.9827  15.5560  15.9954  16.1120  16.6132  16.6154  16.8643
    17.5485  17.7160  18.1532  19.0980  30.9218

     occupation numbers 
     1.0000   1.0000   1.0000   1.0000   1.0000   1.0000   1.0000   1.0000
     1.0000   1.0000   1.0000   1.0000   1.0000   1.0000   1.0000   1.0000
     1.0000   1.0000   1.0000   0.0000   0.0000

          k = 0.0000 0.1925-0.3096 (  2808 PWs)   bands (ev):

   -77.0235 -77.0235 -40.3134 -40.3134 -40.1814 -40.1814 -40.1561 -40.1561
    12.9987  12.9987  15.6774  15.6774  16.3158  16.3158  16.6962  16.6962
    17.8924  17.8924  18.2678  18.2678  34.8008

     occupation numbers 
     1.0000   1.0000   1.0000   1.0000   1.0000   1.0000   1.0000   1.0000
     1.0000   1.0000   1.0000   1.0000   1.0000   1.0000   1.0000   1.0000
     1.0000   1.0000   1.0000   1.0000   0.0000

          k = 0.0000 0.2887 0.0000 (  2792 PWs)   bands (ev):

   -77.0370 -76.9914 -40.4120 -40.2901 -40.2409 -40.2054 -40.1528 -40.1370
    11.9908  14.6003  15.4492  15.7205  16.4271  16.6252  16.8449  17.3490
    17.3590  17.5577  18.4008  23.4224  25.9757

     occupation numbers 
     1.0000   1.0000   1.0000   1.0000   1.0000   1.0000   1.0000   1.0000
     1.0000   1.0000   1.0000   1.0000   1.0000   1.0000   1.0000   1.0000
     1.0000   1.0000   1.0000   0.0000   0.0000

          k = 0.0000 0.2887 0.1032 (  2793 PWs)   bands (ev):

   -77.0339 -76.9945 -40.4046 -40.2793 -40.2553 -40.2008 -40.1569 -40.1416
    12.2072  14.6481  15.3008  15.7740  16.2701  16.6641  16.8481  17.3954
    17.4840  17.5107  18.3441  21.7674  28.1538

     occupation numbers 
     1.0000   1.0000   1.0000   1.0000   1.0000   1.0000   1.0000   1.0000
     1.0000   1.0000   1.0000   1.0000   1.0000   1.0000   1.0000   1.0000
     1.0000   1.0000   1.0000   0.0000   0.0000

          k = 0.0000 0.2887 0.2064 (  2801 PWs)   bands (ev):

   -77.0256 -77.0028 -40.3813 -40.2993 -40.2422 -40.1884 -40.1737 -40.1542
    12.8095  14.4198  15.2124  15.8139  16.1287  16.6826  16.7886  17.2394
    17.6704  17.8822  18.1792  19.8849  31.5302

     occupation numbers 
     1.0000   1.0000   1.0000   1.0000   1.0000   1.0000   1.0000   1.0000
     1.0000   1.0000   1.0000   1.0000   1.0000   1.0000   1.0000   1.0000
     1.0000   1.0000   1.0000   0.0000   0.0000

          k = 0.0000 0.2887-0.3096 (  2804 PWs)   bands (ev):

   -77.0142 -77.0142 -40.3436 -40.3436 -40.2048 -40.2048 -40.1713 -40.1713
    13.6431  13.6431  15.5199  15.5199  16.3736  16.3736  16.9953  16.9953
    17.9344  17.9344  18.6214  18.6214  33.6004

     occupation numbers 
     1.0000   1.0000   1.0000   1.0000   1.0000   1.0000   1.0000   1.0000
     1.0000   1.0000   1.0000   1.0000   1.0000   1.0000   1.0000   1.0000
     1.0000   1.0000   1.0000   1.0000   0.0000

          k = 0.0000 0.3849 0.0000 (  2810 PWs)   bands (ev):

   -77.0225 -76.9873 -40.3742 -40.3529 -40.3019 -40.2241 -40.1742 -40.1485
    13.1577  14.5335  14.9122  15.8240  16.4298  16.5512  16.6640  17.8587
    18.0085  18.0563  18.4442  25.3961  25.9944

     occupation numbers 
     1.0000   1.0000   1.0000   1.0000   1.0000   1.0000   1.0000   1.0000
     1.0000   1.0000   1.0000   1.0000   1.0000   1.0000   1.0000   1.0000
     1.0000   1.0000   1.0000   0.0000   0.0000

          k = 0.0000 0.3849 0.1032 (  2806 PWs)   bands (ev):

   -77.0202 -76.9897 -40.3963 -40.3270 -40.3054 -40.2191 -40.1745 -40.1536
    13.2576  14.5697  14.9457  15.6870  16.4623  16.5249  17.0123  17.8800
    17.9131  17.9921  18.3875  23.0159  28.1346

     occupation numbers 
     1.0000   1.0000   1.0000   1.0000   1.0000   1.0000   1.0000   1.0000
     1.0000   1.0000   1.0000   1.0000   1.0000   1.0000   1.0000   1.0000
     1.0000   1.0000   1.0000   0.0000   0.0000

          k = 0.0000 0.3849 0.2064 (  2804 PWs)   bands (ev):

   -77.0138 -76.9962 -40.4040 -40.3563 -40.2583 -40.2053 -40.1845 -40.1674
    13.5389  14.3920  15.0877  15.6135  16.5552  16.7929  17.3106  17.5910
    17.9888  18.1159  18.2625  20.7773  29.2436

     occupation numbers 
     1.0000   1.0000   1.0000   1.0000   1.0000   1.0000   1.0000   1.0000
     1.0000   1.0000   1.0000   1.0000   1.0000   1.0000   1.0000   1.0000
     1.0000   1.0000   1.0000   0.0000   0.0000

          k = 0.0000 0.3849-0.3096 (  2796 PWs)   bands (ev):

   -77.0050 -77.0050 -40.3885 -40.3885 -40.2131 -40.2131 -40.1864 -40.1864
    13.9526  13.9526  15.3927  15.3927  16.9774  16.9774  17.1802  17.1802
    18.1202  18.1202  19.1058  19.1058  30.3768

     occupation numbers 
     1.0000   1.0000   1.0000   1.0000   1.0000   1.0000   1.0000   1.0000
     1.0000   1.0000   1.0000   1.0000   1.0000   1.0000   1.0000   1.0000
     1.0000   1.0000   0.0000   0.0000   0.0000

          k = 0.0000 0.4811 0.0000 (  2818 PWs)   bands (ev):

   -77.0107 -76.9857 -40.3991 -40.3458 -40.3392 -40.2376 -40.1973 -40.1571
    13.9293  14.3430  14.5909  16.1826  16.2965  16.5361  16.7583  18.2400
    18.3824  18.4674  19.1802  24.1118  27.4288

     occupation numbers 
     1.0000   1.0000   1.0000   1.0000   1.0000   1.0000   1.0000   1.0000
     1.0000   1.0000   1.0000   1.0000   1.0000   1.0000   1.0000   1.0000
     1.0000   1.0000   0.0000   0.0000   0.0000

          k = 0.0000 0.4811 0.1032 (  2802 PWs)   bands (ev):

   -77.0090 -76.9873 -40.4188 -40.3644 -40.3049 -40.2322 -40.1931 -40.1625
    13.8179  14.3406  14.9129  15.5819  16.4129  16.7532  17.3655  18.1842
    18.2781  18.4601  19.0146  23.3227  26.7459

     occupation numbers 
     1.0000   1.0000   1.0000   1.0000   1.0000   1.0000   1.0000   1.0000
     1.0000   1.0000   1.0000   1.0000   1.0000   1.0000   1.0000   1.0000
     1.0000   1.0000   0.7147   0.0000   0.0000

          k = 0.0000 0.4811 0.2064 (  2805 PWs)   bands (ev):

   -77.0044 -76.9919 -40.4341 -40.3987 -40.2542 -40.2175 -40.1939 -40.1773
    13.7853  14.2712  15.0753  15.4162  16.7434  16.9955  17.7627  18.3086
    18.3620  18.4214  18.6661  21.5923  26.8802

     occupation numbers 
     1.0000   1.0000   1.0000   1.0000   1.0000   1.0000   1.0000   1.0000
     1.0000   1.0000   1.0000   1.0000   1.0000   1.0000   1.0000   1.0000
     1.0000   1.0000   1.0000   0.0000   0.0000

          k = 0.0000 0.4811-0.3096 (  2810 PWs)   bands (ev):

   -76.9982 -76.9982 -40.4264 -40.4264 -40.2140 -40.2140 -40.1974 -40.1974
    13.9738  13.9738  15.2695  15.2695  17.2288  17.2288  17.7198  17.7198
    18.3651  18.3651  19.9205  19.9205  27.6632

     occupation numbers 
     1.0000   1.0000   1.0000   1.0000   1.0000   1.0000   1.0000   1.0000
     1.0000   1.0000   1.0000   1.0000   1.0000   1.0000   1.0000   1.0000
     1.0000   1.0000   0.0000   0.0000   0.0000

          k = 0.0000-0.5774 0.0000 (  2798 PWs)   bands (ev):

   -77.0057 -76.9857 -40.4161 -40.3617 -40.3227 -40.2424 -40.2093 -40.1602
    14.1884  14.2043  14.4842  16.2494  16.4316  16.4900  16.8369  18.3779
    18.4745  18.5339  20.3379  22.3821  28.7440

     occupation numbers 
     1.0000   1.0000   1.0000   1.0000   1.0000   1.0000   1.0000   1.0000
     1.0000   1.0000   1.0000   1.0000   1.0000   1.0000   1.0000   1.0000
     1.0000   1.0000   0.0000   0.0000   0.0000

          k = 0.0000-0.5774 0.1032 (  2810 PWs)   bands (ev):

   -77.0044 -76.9870 -40.4319 -40.3794 -40.2956 -40.2370 -40.2027 -40.1658
    13.9201  14.2413  14.9493  15.5543  16.3719  16.8437  17.5680  18.2513
    18.4293  18.5258  20.1193  22.1991  27.8750

     occupation numbers 
     1.0000   1.0000   1.0000   1.0000   1.0000   1.0000   1.0000   1.0000
     1.0000   1.0000   1.0000   1.0000   1.0000   1.0000   1.0000   1.0000
     1.0000   1.0000   0.0000   0.0000   0.0000

          k = 0.0000-0.5774 0.2064 (  2804 PWs)   bands (ev):

   -77.0007 -76.9907 -40.4471 -40.4141 -40.2495 -40.2220 -40.1985 -40.1809
    13.8047  14.2241  15.1001  15.3265  16.7202  17.1435  17.7999  18.4434
    18.4810  18.5036  19.7623  21.5837  26.8621

     occupation numbers 
     1.0000   1.0000   1.0000   1.0000   1.0000   1.0000   1.0000   1.0000
     1.0000   1.0000   1.0000   1.0000   1.0000   1.0000   1.0000   1.0000
     1.0000   1.0000   0.0000   0.0000   0.0000

          k = 0.0000-0.5774-0.3096 (  2828 PWs)   bands (ev):

   -76.9957 -76.9957 -40.4410 -40.4410 -40.2136 -40.2136 -40.2015 -40.2015
    13.9556  13.9556  15.2208  15.2208  17.2334  17.2334  17.9718  17.9718
    18.4732  18.4732  20.5573  20.5573  26.4132

     occupation numbers 
     1.0000   1.0000   1.0000   1.0000   1.0000   1.0000   1.0000   1.0000
     1.0000   1.0000   1.0000   1.0000   1.0000   1.0000   1.0000   1.0000
     1.0000   1.0000   0.0000   0.0000   0.0000

          k = 0.0833 0.1443 0.0000 (  2803 PWs)   bands (ev):

   -77.0534 -76.9977 -40.4513 -40.2108 -40.1885 -40.1581 -40.1336 -40.1256
    10.6916  14.2047  15.9578  16.4412  16.5937  16.7689  16.7800  16.8135
    17.0805  17.1698  18.3096  21.1544  25.6672

     occupation numbers 
     1.0000   1.0000   1.0000   1.0000   1.0000   1.0000   1.0000   1.0000
     1.0000   1.0000   1.0000   1.0000   1.0000   1.0000   1.0000   1.0000
     1.0000   1.0000   1.0000   0.0000   0.0000

          k = 0.0833 0.1443 0.1032 (  2803 PWs)   bands (ev):

   -77.0497 -77.0014 -40.4323 -40.2056 -40.1907 -40.1729 -40.1375 -40.1295
    10.9584  14.1837  15.9841  16.0999  16.4463  16.6280  16.7713  16.9357
    17.2321  17.2860  18.2770  20.1273  27.4087

     occupation numbers 
     1.0000   1.0000   1.0000   1.0000   1.0000   1.0000   1.0000   1.0000
     1.0000   1.0000   1.0000   1.0000   1.0000   1.0000   1.0000   1.0000
     1.0000   1.0000   1.0000   0.0000   0.0000

          k = 0.0833 0.1443 0.2064 (  2794 PWs)   bands (ev):

   -77.0395 -77.0116 -40.3803 -40.2371 -40.1914 -40.1709 -40.1499 -40.1399
    11.7209  13.8378  15.6834  16.0447  16.1238  16.5501  16.6269  16.7816
    17.5788  17.6589  18.1526  18.9071  30.7729

     occupation numbers 
     1.0000   1.0000   1.0000   1.0000   1.0000   1.0000   1.0000   1.0000
     1.0000   1.0000   1.0000   1.0000   1.0000   1.0000   1.0000   1.0000
     1.0000   1.0000   1.0000   1.0000   0.0000

          k = 0.0833 0.1443-0.3096 (  2802 PWs)   bands (ev):

   -77.0256 -77.0256 -40.3088 -40.3088 -40.1731 -40.1731 -40.1531 -40.1531
    12.8265  12.8265  15.7380  15.7380  16.3163  16.3163  16.6307  16.6307
    17.8981  17.8981  18.1886  18.1886  34.6699

     occupation numbers 
     1.0000   1.0000   1.0000   1.0000   1.0000   1.0000   1.0000   1.0000
     1.0000   1.0000   1.0000   1.0000   1.0000   1.0000   1.0000   1.0000
     1.0000   1.0000   1.0000   1.0000   0.0000

          k = 0.0833 0.2406 0.0000 (  2788 PWs)   bands (ev):

   -77.0420 -76.9932 -40.4243 -40.2604 -40.2297 -40.1886 -40.1464 -40.1383
    11.5881  14.5779  15.6760  15.7209  16.4692  16.5829  17.0157  17.0306
    17.2141  17.5062  18.3577  22.7681  25.8886

     occupation numbers 
     1.0000   1.0000   1.0000   1.0000   1.0000   1.0000   1.0000   1.0000
     1.0000   1.0000   1.0000   1.0000   1.0000   1.0000   1.0000   1.0000
     1.0000   1.0000   1.0000   0.0000   0.0000

          k = 0.0833 0.2406 0.1032 (  2792 PWs)   bands (ev):

   -77.0387 -76.9964 -40.4121 -40.2527 -40.2383 -40.1931 -40.1500 -40.1420
    11.8266  14.6167  15.5042  15.7270  16.3433  16.6128  16.8203  17.1514
    17.4164  17.4893  18.3187  21.3207  27.9200

     occupation numbers 
     1.0000   1.0000   1.0000   1.0000   1.0000   1.0000   1.0000   1.0000
     1.0000   1.0000   1.0000   1.0000   1.0000   1.0000   1.0000   1.0000
     1.0000   1.0000   1.0000   0.0000   0.0000

          k = 0.0833 0.2406 0.2064 (  2794 PWs)   bands (ev):

   -77.0298 -77.0054 -40.3778 -40.2779 -40.2266 -40.1904 -40.1630 -40.1531
    12.5002  14.3618  15.2972  15.8356  16.0717  16.5065  16.7660  17.1068
    17.6699  17.7920  18.1930  19.6123  31.3713

     occupation numbers 
     1.0000   1.0000   1.0000   1.0000   1.0000   1.0000   1.0000   1.0000
     1.0000   1.0000   1.0000   1.0000   1.0000   1.0000   1.0000   1.0000
     1.0000   1.0000   1.0000   0.0000   0.0000

          k = 0.0833 0.2406-0.3096 (  2794 PWs)   bands (ev):

   -77.0176 -77.0176 -40.3290 -40.3290 -40.1987 -40.1987 -40.1668 -40.1668
    13.4587  13.4587  15.5754  15.5754  16.2100  16.2100  16.9165  16.9165
    17.9423  17.9423  18.4949  18.4949  34.9904

     occupation numbers 
     1.0000   1.0000   1.0000   1.0000   1.0000   1.0000   1.0000   1.0000
     1.0000   1.0000   1.0000   1.0000   1.0000   1.0000   1.0000   1.0000
     1.0000   1.0000   1.0000   1.0000   0.0000

          k = 0.0833 0.3368 0.0000 (  2802 PWs)   bands (ev):

   -77.0280 -76.9887 -40.3890 -40.3214 -40.2816 -40.2163 -40.1654 -40.1519
    12.7429  14.7021  15.1330  15.5966  16.3897  16.4793  16.8157  17.4433
    17.7296  18.0832  18.3982  24.6240  26.2145

     occupation numbers 
     1.0000   1.0000   1.0000   1.0000   1.0000   1.0000   1.0000   1.0000
     1.0000   1.0000   1.0000   1.0000   1.0000   1.0000   1.0000   1.0000
     1.0000   1.0000   1.0000   0.0000   0.0000

          k = 0.0833 0.3368 0.1032 (  2801 PWs)   bands (ev):

   -77.0254 -76.9913 -40.3933 -40.3075 -40.2867 -40.2159 -40.1673 -40.1549
    12.9089  14.7728  15.0362  15.6484  16.2541  16.6239  16.7925  17.4665
    17.8234  17.9471  18.4021  22.5994  28.6278

     occupation numbers 
     1.0000   1.0000   1.0000   1.0000   1.0000   1.0000   1.0000   1.0000
     1.0000   1.0000   1.0000   1.0000   1.0000   1.0000   1.0000   1.0000
     1.0000   1.0000   1.0000   0.0000   0.0000

          k = 0.0833 0.3368 0.2064 (  2806 PWs)   bands (ev):

   -77.0182 -76.9985 -40.3891 -40.3318 -40.2530 -40.2086 -40.1787 -40.1648
    13.3581  14.5374  15.1415  15.7330  16.1581  16.6485  16.8430  17.4454
    17.9039  18.0697  18.3623  20.4780  30.8856

     occupation numbers 
     1.0000   1.0000   1.0000   1.0000   1.0000   1.0000   1.0000   1.0000
     1.0000   1.0000   1.0000   1.0000   1.0000   1.0000   1.0000   1.0000
     1.0000   1.0000   1.0000   0.0000   0.0000

          k = 0.0833 0.3368-0.3096 (  2812 PWs)   bands (ev):

   -77.0083 -77.0083 -40.3665 -40.3665 -40.2155 -40.2155 -40.1810 -40.1810
    13.9588  13.9588  15.4965  15.4965  16.3818  16.3818  17.1187  17.1187
    18.1427  18.1427  18.9596  18.9596  32.0932

     occupation numbers 
     1.0000   1.0000   1.0000   1.0000   1.0000   1.0000   1.0000   1.0000
     1.0000   1.0000   1.0000   1.0000   1.0000   1.0000   1.0000   1.0000
     1.0000   1.0000   1.0000   1.0000   0.0000

          k = 0.0833 0.4330 0.0000 (  2808 PWs)   bands (ev):

   -77.0147 -76.9860 -40.3755 -40.3515 -40.3270 -40.2380 -40.1888 -40.1636
    13.7616  14.5259  14.7346  15.8235  16.2654  16.6168  16.6747  17.9617
    18.1704  18.4234  18.8921  25.4613  26.6356

     occupation numbers 
     1.0000   1.0000   1.0000   1.0000   1.0000   1.0000   1.0000   1.0000
     1.0000   1.0000   1.0000   1.0000   1.0000   1.0000   1.0000   1.0000
     1.0000   1.0000   1.0000   0.0000   0.0000

          k = 0.0833 0.4330 0.1032 (  2810 PWs)   bands (ev):

   -77.0127 -76.9879 -40.4016 -40.3478 -40.3070 -40.2343 -40.1872 -40.1666
    13.7537  14.5528  14.8893  15.5898  16.3446  16.6858  16.9664  17.9088
    18.2321  18.2341  18.8943  23.6675  27.2548

     occupation numbers 
     1.0000   1.0000   1.0000   1.0000   1.0000   1.0000   1.0000   1.0000
     1.0000   1.0000   1.0000   1.0000   1.0000   1.0000   1.0000   1.0000
     1.0000   1.0000   1.0000   0.0000   0.0000

          k = 0.0833 0.4330 0.2064 (  2804 PWs)   bands (ev):

   -77.0075 -76.9932 -40.4163 -40.3792 -40.2595 -40.2209 -40.1946 -40.1738
    13.8371  14.4255  15.0783  15.5714  16.4529  16.8916  17.3506  17.6457
    18.0914  18.4025  18.9564  21.4938  27.9756

     occupation numbers 
     1.0000   1.0000   1.0000   1.0000   1.0000   1.0000   1.0000   1.0000
     1.0000   1.0000   1.0000   1.0000   1.0000   1.0000   1.0000   1.0000
     1.0000   1.0000   1.0000   0.0000   0.0000

          k = 0.0833 0.4330-0.3096 (  2808 PWs)   bands (ev):

   -77.0003 -77.0003 -40.4071 -40.4071 -40.2247 -40.2247 -40.1903 -40.1903
    14.0865  14.0865  15.3797  15.3797  16.9024  16.9024  17.3027  17.3027
    18.3522  18.3522  19.8003  19.8003  29.0285

     occupation numbers 
     1.0000   1.0000   1.0000   1.0000   1.0000   1.0000   1.0000   1.0000
     1.0000   1.0000   1.0000   1.0000   1.0000   1.0000   1.0000   1.0000
     1.0000   1.0000   0.0000   0.0000   0.0000

          k = 0.0833 0.5292 0.0000 (  2797 PWs)   bands (ev):

   -77.0058 -76.9856 -40.4069 -40.3534 -40.3230 -40.2500 -40.2091 -40.1704
    14.2191  14.3613  14.5351  16.1891  16.2171  16.4840  16.8337  18.3345
    18.4088  18.4345  20.1714  23.1489  28.5517

     occupation numbers 
     1.0000   1.0000   1.0000   1.0000   1.0000   1.0000   1.0000   1.0000
     1.0000   1.0000   1.0000   1.0000   1.0000   1.0000   1.0000   1.0000
     1.0000   1.0000   0.0000   0.0000   0.0000

          k = 0.0833 0.5292 0.1032 (  2806 PWs)   bands (ev):

   -77.0044 -76.9870 -40.4228 -40.3716 -40.2975 -40.2428 -40.2043 -40.1736
    14.0015  14.3749  14.9796  15.5345  16.2704  16.8843  17.2262  18.1977
    18.3662  18.4422  20.0990  22.8812  27.2865

     occupation numbers 
     1.0000   1.0000   1.0000   1.0000   1.0000   1.0000   1.0000   1.0000
     1.0000   1.0000   1.0000   1.0000   1.0000   1.0000   1.0000   1.0000
     1.0000   1.0000   0.0000   0.0000   0.0000

          k = 0.0833 0.5292 0.2064 (  2809 PWs)   bands (ev):

   -77.0007 -76.9907 -40.4382 -40.4061 -40.2592 -40.2217 -40.2078 -40.1795
    13.9100  14.3532  15.1078  15.4343  16.4473  17.2053  17.6360  17.8882
    18.3221  18.5216  20.1293  22.0111  26.5530

     occupation numbers 
     1.0000   1.0000   1.0000   1.0000   1.0000   1.0000   1.0000   1.0000
     1.0000   1.0000   1.0000   1.0000   1.0000   1.0000   1.0000   1.0000
     1.0000   1.0000   0.0000   0.0000   0.0000

          k = 0.0833 0.5292-0.3096 (  2808 PWs)   bands (ev):

   -76.9957 -76.9957 -40.4324 -40.4324 -40.2300 -40.2300 -40.1937 -40.1937
    14.0708  14.0708  15.2939  15.2939  17.0125  17.0125  17.7410  17.7410
    18.3939  18.3939  20.8728  20.8728  26.8266

     occupation numbers 
     1.0000   1.0000   1.0000   1.0000   1.0000   1.0000   1.0000   1.0000
     1.0000   1.0000   1.0000   1.0000   1.0000   1.0000   1.0000   1.0000
     1.0000   1.0000   0.0000   0.0000   0.0000

          k = 0.1667 0.2887 0.0000 (  2796 PWs)   bands (ev):

   -77.0299 -76.9892 -40.3941 -40.2963 -40.2867 -40.2073 -40.1625 -40.1604
    12.5967  14.8802  15.2492  15.3736  16.3174  16.4783  16.9120  17.2022
    17.7166  18.1047  18.3587  24.3631  26.2647

     occupation numbers 
     1.0000   1.0000   1.0000   1.0000   1.0000   1.0000   1.0000   1.0000
     1.0000   1.0000   1.0000   1.0000   1.0000   1.0000   1.0000   1.0000
     1.0000   1.0000   1.0000   0.0000   0.0000

          k = 0.1667 0.2887 0.1032 (  2802 PWs)   bands (ev):

   -77.0272 -76.9919 -40.3933 -40.2943 -40.2799 -40.2152 -40.1647 -40.1600
    12.7851  14.9789  15.1058  15.4284  16.2870  16.4887  16.7860  17.2849
    17.8395  17.9382  18.4141  22.4610  28.6385

     occupation numbers 
     1.0000   1.0000   1.0000   1.0000   1.0000   1.0000   1.0000   1.0000
     1.0000   1.0000   1.0000   1.0000   1.0000   1.0000   1.0000   1.0000
     1.0000   1.0000   1.0000   0.0000   0.0000

          k = 0.1667 0.2887 0.2064 (  2805 PWs)   bands (ev):

   -77.0198 -76.9994 -40.3826 -40.3212 -40.2447 -40.2181 -40.1752 -40.1659
    13.3009  14.6615  15.2482  15.5871  16.1063  16.3479  16.7812  17.3817
    17.9176  18.0479  18.4400  20.4011  32.0268

     occupation numbers 
     1.0000   1.0000   1.0000   1.0000   1.0000   1.0000   1.0000   1.0000
     1.0000   1.0000   1.0000   1.0000   1.0000   1.0000   1.0000   1.0000
     1.0000   1.0000   1.0000   0.0000   0.0000

          k = 0.1667 0.2887-0.3096 (  2796 PWs)   bands (ev):

   -77.0096 -77.0096 -40.3563 -40.3563 -40.2180 -40.2180 -40.1797 -40.1797
    13.9968  13.9968  15.5812  15.5812  16.0531  16.0531  17.0670  17.0670
    18.1943  18.1943  18.9391  18.9391  33.8090

     occupation numbers 
     1.0000   1.0000   1.0000   1.0000   1.0000   1.0000   1.0000   1.0000
     1.0000   1.0000   1.0000   1.0000   1.0000   1.0000   1.0000   1.0000
     1.0000   1.0000   1.0000   1.0000   0.0000

          k = 0.1667 0.3849 0.0000 (  2808 PWs)   bands (ev):

   -77.0169 -76.9863 -40.3581 -40.3446 -40.3213 -40.2364 -40.1843 -40.1817
    13.7022  14.8677  14.8787  15.3403  16.1572  16.6246  16.7150  17.5188
    18.1704  18.3558  18.9194  26.2381  26.6059

     occupation numbers 
     1.0000   1.0000   1.0000   1.0000   1.0000   1.0000   1.0000   1.0000
     1.0000   1.0000   1.0000   1.0000   1.0000   1.0000   1.0000   1.0000
     1.0000   1.0000   1.0000   0.0000   0.0000

          k = 0.1667 0.3849 0.1032 (  2804 PWs)   bands (ev):

   -77.0148 -76.9883 -40.3841 -40.3402 -40.2960 -40.2430 -40.1887 -40.1744
    13.7809  14.8083  14.9728  15.4262  16.2119  16.6045  16.6673  17.5517
    18.1308  18.2624  19.0116  23.7588  28.6938

     occupation numbers 
     1.0000   1.0000   1.0000   1.0000   1.0000   1.0000   1.0000   1.0000
     1.0000   1.0000   1.0000   1.0000   1.0000   1.0000   1.0000   1.0000
     1.0000   1.0000   0.8102   0.0000   0.0000

          k = 0.1667 0.3849 0.2064 (  2806 PWs)   bands (ev):

   -77.0092 -76.9939 -40.3971 -40.3629 -40.2575 -40.2397 -40.1968 -40.1723
    13.9963  14.6046  15.2278  15.6692  16.1282  16.4305  16.8054  17.5146
    18.0277  18.4197  19.1958  21.5194  29.6751

     occupation numbers 
     1.0000   1.0000   1.0000   1.0000   1.0000   1.0000   1.0000   1.0000
     1.0000   1.0000   1.0000   1.0000   1.0000   1.0000   1.0000   1.0000
     1.0000   1.0000   0.0000   0.0000   0.0000

          k = 0.1667 0.3849-0.3096 (  2800 PWs)   bands (ev):

   -77.0016 -77.0016 -40.3878 -40.3878 -40.2388 -40.2388 -40.1866 -40.1866
    14.2976  14.2976  15.5812  15.5812  16.2058  16.2058  17.0874  17.0874
    18.4089  18.4089  19.8985  19.8985  30.8394

     occupation numbers 
     1.0000   1.0000   1.0000   1.0000   1.0000   1.0000   1.0000   1.0000
     1.0000   1.0000   1.0000   1.0000   1.0000   1.0000   1.0000   1.0000
     1.0000   1.0000   0.0000   0.0000   0.0000

          k = 0.1667 0.4811 0.0000 (  2806 PWs)   bands (ev):

   -77.0058 -76.9856 -40.3831 -40.3382 -40.3234 -40.2640 -40.2087 -40.1961
    14.4038  14.6495  14.6640  15.6509  16.1136  16.5006  16.8304  17.9380
    18.3525  18.3959  20.1026  24.8140  28.2661

     occupation numbers 
     1.0000   1.0000   1.0000   1.0000   1.0000   1.0000   1.0000   1.0000
     1.0000   1.0000   1.0000   1.0000   1.0000   1.0000   1.0000   1.0000
     1.0000   1.0000   0.0000   0.0000   0.0000

          k = 0.1667 0.4811 0.1032 (  2809 PWs)   bands (ev):

   -77.0045 -76.9869 -40.3992 -40.3591 -40.2979 -40.2581 -40.2108 -40.1882
    14.2436  14.7286  14.9198  15.4723  16.1651  16.6332  16.8997  17.9218
    18.1489  18.4606  20.1864  24.2562  27.0759

     occupation numbers 
     1.0000   1.0000   1.0000   1.0000   1.0000   1.0000   1.0000   1.0000
     1.0000   1.0000   1.0000   1.0000   1.0000   1.0000   1.0000   1.0000
     1.0000   1.0000   0.0000   0.0000   0.0000

          k = 0.1667 0.4811 0.2064 (  2803 PWs)   bands (ev):

   -77.0008 -76.9906 -40.4159 -40.3892 -40.2769 -40.2406 -40.2112 -40.1791
    14.2027  14.6509  15.1224  15.6836  16.0535  16.7564  17.1196  17.6062
    18.1155  18.5409  20.4982  22.7252  27.1493

     occupation numbers 
     1.0000   1.0000   1.0000   1.0000   1.0000   1.0000   1.0000   1.0000
     1.0000   1.0000   1.0000   1.0000   1.0000   1.0000   1.0000   1.0000
     1.0000   1.0000   0.0000   0.0000   0.0000

          k = 0.1667 0.4811-0.3096 (  2800 PWs)   bands (ev):

   -76.9957 -76.9957 -40.4123 -40.4123 -40.2559 -40.2559 -40.1882 -40.1882
    14.3627  14.3627  15.4785  15.4785  16.4720  16.4720  17.2791  17.2791
    18.4137  18.4137  21.3088  21.3088  28.0328

     occupation numbers 
     1.0000   1.0000   1.0000   1.0000   1.0000   1.0000   1.0000   1.0000
     1.0000   1.0000   1.0000   1.0000   1.0000   1.0000   1.0000   1.0000
     1.0000   1.0000   0.0000   0.0000   0.0000

          k = 0.1667 0.5774 0.0000 (  2804 PWs)   bands (ev):

   -77.0009 -76.9862 -40.3970 -40.3431 -40.3057 -40.2756 -40.2225 -40.2012
    14.5635  14.5726  14.5799  15.8735  16.1326  16.3877  16.9186  18.2227
    18.3510  18.3727  21.3624  22.9692  29.4122

     occupation numbers 
     1.0000   1.0000   1.0000   1.0000   1.0000   1.0000   1.0000   1.0000
     1.0000   1.0000   1.0000   1.0000   1.0000   1.0000   1.0000   1.0000
     1.0000   1.0000   0.0000   0.0000   0.0000

          k = 0.1667 0.5774 0.1032 (  2813 PWs)   bands (ev):

   -76.9999 -76.9872 -40.4096 -40.3625 -40.3014 -40.2530 -40.2244 -40.1940
    14.2671  14.6411  15.0886  15.4539  16.0860  16.7537  16.9925  18.1195
    18.2189  18.4284  21.4601  22.9149  28.3731

     occupation numbers 
     1.0000   1.0000   1.0000   1.0000   1.0000   1.0000   1.0000   1.0000
     1.0000   1.0000   1.0000   1.0000   1.0000   1.0000   1.0000   1.0000
     1.0000   1.0000   0.0000   0.0000   0.0000

          k = 0.1667 0.5774 0.2064 (  2808 PWs)   bands (ev):

   -76.9972 -76.9899 -40.4248 -40.3973 -40.2854 -40.2396 -40.2150 -40.1826
    14.1990  14.6623  15.1605  15.6404  15.9680  16.9610  17.2443  17.6783
    18.2354  18.4694  21.7632  22.7022  27.0945

     occupation numbers 
     1.0000   1.0000   1.0000   1.0000   1.0000   1.0000   1.0000   1.0000
     1.0000   1.0000   1.0000   1.0000   1.0000   1.0000   1.0000   1.0000
     1.0000   1.0000   0.0000   0.0000   0.0000

          k = 0.1667 0.5774-0.3096 (  2806 PWs)   bands (ev):

   -76.9935 -76.9935 -40.4215 -40.4215 -40.2625 -40.2625 -40.1882 -40.1882
    14.3649  14.3649  15.4372  15.4372  16.5134  16.5134  17.4864  17.4864
    18.3504  18.3504  22.2593  22.2593  26.6122

     occupation numbers 
     1.0000   1.0000   1.0000   1.0000   1.0000   1.0000   1.0000   1.0000
     1.0000   1.0000   1.0000   1.0000   1.0000   1.0000   1.0000   1.0000
     1.0000   1.0000   0.0000   0.0000   0.0000

          k = 0.2500 0.4330 0.0000 (  2828 PWs)   bands (ev):

   -77.0058 -76.9856 -40.3622 -40.3396 -40.3236 -40.2646 -40.2152 -40.2085
    14.5373  14.7153  15.0667  15.1157  16.0458  16.5176  16.8382  17.7033
    18.3104  18.4015  20.1135  26.5842  27.3475

     occupation numbers 
     1.0000   1.0000   1.0000   1.0000   1.0000   1.0000   1.0000   1.0000
     1.0000   1.0000   1.0000   1.0000   1.0000   1.0000   1.0000   1.0000
     1.0000   1.0000   0.0000   0.0000   0.0000

          k = 0.2500 0.4330 0.1032 (  2815 PWs)   bands (ev):

   -77.0045 -76.9869 -40.3751 -40.3665 -40.2823 -40.2787 -40.2181 -40.1930
    14.5426  14.6661  15.1288  15.2528  16.1996  16.3683  16.8299  17.7383
    18.0954  18.4686  20.2416  25.0547  27.6348

     occupation numbers 
     1.0000   1.0000   1.0000   1.0000   1.0000   1.0000   1.0000   1.0000
     1.0000   1.0000   1.0000   1.0000   1.0000   1.0000   1.0000   1.0000
     1.0000   1.0000   0.0000   0.0000   0.0000

          k = 0.2500 0.4330 0.2064 (  2798 PWs)   bands (ev):

   -77.0008 -76.9906 -40.3989 -40.3831 -40.2834 -40.2579 -40.2105 -40.1793
    14.5433  14.6122  15.3017  15.6489  16.0331  16.3124  16.8619  17.5174
    18.0840  18.5483  20.6209  23.0123  28.4270

     occupation numbers 
     1.0000   1.0000   1.0000   1.0000   1.0000   1.0000   1.0000   1.0000
     1.0000   1.0000   1.0000   1.0000   1.0000   1.0000   1.0000   1.0000
     1.0000   1.0000   0.0000   0.0000   0.0000

          k = 0.2500 0.4330-0.3096 (  2796 PWs)   bands (ev):

   -76.9957 -76.9957 -40.3999 -40.3999 -40.2701 -40.2701 -40.1865 -40.1865
    14.5677  14.5677  15.6329  15.6329  16.0891  16.0891  17.0764  17.0764
    18.4339  18.4339  21.4732  21.4732  29.4645

     occupation numbers 
     1.0000   1.0000   1.0000   1.0000   1.0000   1.0000   1.0000   1.0000
     1.0000   1.0000   1.0000   1.0000   1.0000   1.0000   1.0000   1.0000
     1.0000   1.0000   0.0000   0.0000   0.0000

          k = 0.2500 0.5292 0.0000 (  2834 PWs)   bands (ev):

   -76.9975 -76.9871 -40.3758 -40.3300 -40.2956 -40.2927 -40.2366 -40.2334
    14.6385  14.8317  14.9289  15.4319  16.0648  16.3128  17.0100  17.9861
    18.2836  18.3435  21.7747  24.3614  26.6930

     occupation numbers 
     1.0000   1.0000   1.0000   1.0000   1.0000   1.0000   1.0000   1.0000
     1.0000   1.0000   1.0000   1.0000   1.0000   1.0000   1.0000   1.0000
     1.0000   1.0000   0.0000   0.0000   0.0000

          k = 0.2500 0.5292 0.1032 (  2819 PWs)   bands (ev):

   -76.9968 -76.9878 -40.3826 -40.3547 -40.3152 -40.2607 -40.2408 -40.2098
    14.5819  14.9607  15.0566  15.3305  16.0929  16.3114  17.0149  17.9943
    18.0692  18.3894  21.9660  24.3785  26.7351

     occupation numbers 
     1.0000   1.0000   1.0000   1.0000   1.0000   1.0000   1.0000   1.0000
     1.0000   1.0000   1.0000   1.0000   1.0000   1.0000   1.0000   1.0000
     1.0000   1.0000   0.0000   0.0000   0.0000

          k = 0.2500 0.5292 0.2064 (  2808 PWs)   bands (ev):

   -76.9949 -76.9897 -40.3997 -40.3843 -40.3139 -40.2703 -40.2082 -40.1870
    14.6008  14.9613  15.2240  15.5246  15.9551  16.3265  17.0600  17.5472
    18.1541  18.4317  22.4671  24.0788  26.6848

     occupation numbers 
     1.0000   1.0000   1.0000   1.0000   1.0000   1.0000   1.0000   1.0000
     1.0000   1.0000   1.0000   1.0000   1.0000   1.0000   1.0000   1.0000
     1.0000   1.0000   0.0000   0.0000   0.0000

          k = 0.2500 0.5292-0.3096 (  2802 PWs)   bands (ev):

   -76.9923 -76.9923 -40.4026 -40.4026 -40.2935 -40.2935 -40.1855 -40.1855
    14.7418  14.7418  15.5247  15.5247  16.0960  16.0960  17.1937  17.1937
    18.3411  18.3411  23.2369  23.2369  27.2372

     occupation numbers 
     1.0000   1.0000   1.0000   1.0000   1.0000   1.0000   1.0000   1.0000
     1.0000   1.0000   1.0000   1.0000   1.0000   1.0000   1.0000   1.0000
     1.0000   1.0000   0.0000   0.0000   0.0000

          k = 0.3333 0.5774 0.0000 (  2826 PWs)   bands (ev):

   -76.9911 -76.9911 -40.3665 -40.3153 -40.3153 -40.2619 -40.2619 -40.2615
    14.6457  15.0286  15.0286  15.3137  16.1405  16.1405  17.1111  18.1359
    18.1359  18.2562  23.5088  24.3638  24.3638

     occupation numbers 
     1.0000   1.0000   1.0000   1.0000   1.0000   1.0000   1.0000   1.0000
     1.0000   1.0000   1.0000   1.0000   1.0000   1.0000   1.0000   1.0000
     1.0000   1.0000   0.0000   0.0000   0.0000

          k = 0.3333 0.5774 0.1032 (  2820 PWs)   bands (ev):

   -76.9911 -76.9911 -40.3595 -40.3454 -40.3454 -40.2686 -40.2317 -40.2317
    14.7429  15.0529  15.0529  15.3340  16.1130  16.1130  17.0821  18.0128
    18.1770  18.1770  23.9173  24.4364  24.4364

     occupation numbers 
     1.0000   1.0000   1.0000   1.0000   1.0000   1.0000   1.0000   1.0000
     1.0000   1.0000   1.0000   1.0000   1.0000   1.0000   1.0000   1.0000
     1.0000   1.0000   0.0000   0.0000   0.0000

          k = 0.3333 0.5774 0.2064 (  2805 PWs)   bands (ev):

   -76.9911 -76.9911 -40.3794 -40.3794 -40.3404 -40.2879 -40.1974 -40.1974
    14.9910  15.1001  15.1001  15.3506  16.0648  16.0648  17.0438  17.5166
    18.2549  18.2549  24.6161  24.6161  24.9578

     occupation numbers 
     1.0000   1.0000   1.0000   1.0000   1.0000   1.0000   1.0000   1.0000
     1.0000   1.0000   1.0000   1.0000   1.0000   1.0000   1.0000   1.0000
     1.0000   1.0000   0.0000   0.0000   0.0000

          k = 0.3333 0.5774-0.3096 (  2772 PWs)   bands (ev):

   -76.9911 -76.9911 -40.3922 -40.3922 -40.3141 -40.3141 -40.1844 -40.1844
    15.1228  15.1228  15.2470  15.2470  16.0440  16.0440  17.1439  17.1439
    18.2919  18.2919  24.7316  24.7316  26.3826

     occupation numbers 
     1.0000   1.0000   1.0000   1.0000   1.0000   1.0000   1.0000   1.0000
     1.0000   1.0000   1.0000   1.0000   1.0000   1.0000   1.0000   1.0000
     1.0000   1.0000   0.0000   0.0000   0.0000

 ------ SPIN DOWN ----------


          k = 0.0000 0.0000 0.0000 (  2803 PWs)   bands (ev):

   -74.9633 -74.8973 -38.4474 -38.1197 -38.1197 -38.0668 -38.0651 -38.0651
     9.9748  14.7609  18.0809  18.1043  18.1043  18.4861  18.4861  18.7832
    18.9070  18.9070  20.1753  20.1753  26.5993

     occupation numbers 
     1.0000   1.0000   1.0000   1.0000   1.0000   1.0000   1.0000   1.0000
     1.0000   1.0000   1.0000   1.0000   1.0000   1.0000   1.0000   1.0000
     1.0000   1.0000   0.0000   0.0000   0.0000

          k = 0.0000 0.0000 0.1032 (  2827 PWs)   bands (ev):

   -74.9589 -74.9018 -38.4223 -38.1161 -38.1161 -38.0927 -38.0688 -38.0688
    10.2578  14.5351  17.9849  18.0327  18.0327  18.1831  18.3977  18.3977
    19.0942  19.0942  20.1605  20.1605  27.9276

     occupation numbers 
     1.0000   1.0000   1.0000   1.0000   1.0000   1.0000   1.0000   1.0000
     1.0000   1.0000   1.0000   1.0000   1.0000   1.0000   1.0000   1.0000
     0.0000   0.0000   0.0000   0.0000   0.0000

          k = 0.0000 0.0000 0.2064 (  2797 PWs)   bands (ev):

   -74.9468 -74.9139 -38.3534 -38.1631 -38.1061 -38.1061 -38.0788 -38.0788
    11.0755  13.6588  17.5218  17.7413  17.9720  17.9720  18.2044  18.2044
    19.4685  19.4685  20.0649  20.0649  30.9340

     occupation numbers 
     1.0000   1.0000   1.0000   1.0000   1.0000   1.0000   1.0000   1.0000
     1.0000   1.0000   1.0000   1.0000   1.0000   1.0000   1.0000   1.0000
     0.0000   0.0000   0.0000   0.0000   0.0000

          k = 0.0000 0.0000-0.3096 (  2822 PWs)   bands (ev):

   -74.9304 -74.9304 -38.2587 -38.2587 -38.0925 -38.0925 -38.0925 -38.0925
    12.3111  12.3111  17.4919  17.4919  18.0338  18.0338  18.0338  18.0338
    19.8272  19.8272  19.8272  19.8272  34.6178

     occupation numbers 
     1.0000   1.0000   1.0000   1.0000   1.0000   1.0000   1.0000   1.0000
     1.0000   1.0000   1.0000   1.0000   1.0000   1.0000   1.0000   1.0000
     0.0000   0.0000   0.0000   0.0000   0.0000

          k = 0.0000 0.0962 0.0000 (  2805 PWs)   bands (ev):

   -74.9596 -74.8957 -38.4391 -38.1377 -38.1256 -38.0837 -38.0702 -38.0680
    10.2205  14.9285  17.8108  18.1434  18.2327  18.3141  18.4209  18.5997
    18.8210  18.8379  20.2128  21.0336  26.6146

     occupation numbers 
     1.0000   1.0000   1.0000   1.0000   1.0000   1.0000   1.0000   1.0000
     1.0000   1.0000   1.0000   1.0000   1.0000   1.0000   1.0000   1.0000
     1.0000   1.0000   0.0000   0.0000   0.0000

          k = 0.0000 0.0962 0.1032 (  2797 PWs)   bands (ev):

   -74.9553 -74.9000 -38.4155 -38.1335 -38.1218 -38.1059 -38.0767 -38.0719
    10.4997  14.7162  17.7028  17.8083  18.1064  18.1432  18.4384  18.5030
    19.0396  19.0587  20.1886  20.6827  28.0092

     occupation numbers 
     1.0000   1.0000   1.0000   1.0000   1.0000   1.0000   1.0000   1.0000
     1.0000   1.0000   1.0000   1.0000   1.0000   1.0000   1.0000   1.0000
     0.0212   0.0000   0.0000   0.0000   0.0000

          k = 0.0000 0.0962 0.2064 (  2806 PWs)   bands (ev):

   -74.9437 -74.9117 -38.3506 -38.1716 -38.1216 -38.1113 -38.0893 -38.0824
    11.3060  13.8562  17.2856  17.7263  17.8639  18.0737  18.2370  18.3083
    19.4365  19.4743  20.0721  20.2642  31.0707

     occupation numbers 
     1.0000   1.0000   1.0000   1.0000   1.0000   1.0000   1.0000   1.0000
     1.0000   1.0000   1.0000   1.0000   1.0000   1.0000   1.0000   1.0000
     0.0000   0.0000   0.0000   0.0000   0.0000

          k = 0.0000 0.0962-0.3096 (  2822 PWs)   bands (ev):

   -74.9277 -74.9277 -38.2614 -38.2614 -38.1055 -38.1055 -38.0969 -38.0969
    12.5248  12.5248  17.3880  17.3880  18.0028  18.0028  18.1363  18.1363
    19.8129  19.8130  19.8931  19.8931  34.7789

     occupation numbers 
     1.0000   1.0000   1.0000   1.0000   1.0000   1.0000   1.0000   1.0000
     1.0000   1.0000   1.0000   1.0000   1.0000   1.0000   1.0000   1.0000
     0.0000   0.0000   0.0000   0.0000   0.0000

          k = 0.0000 0.1925 0.0000 (  2809 PWs)   bands (ev):

   -74.9494 -74.8913 -38.4155 -38.1870 -38.1413 -38.1342 -38.0805 -38.0763
    10.9353  15.3591  17.2854  17.4439  18.1885  18.5977  18.6106  18.6548
    18.6699  18.9191  20.2918  22.5201  26.6779

     occupation numbers 
     1.0000   1.0000   1.0000   1.0000   1.0000   1.0000   1.0000   1.0000
     1.0000   1.0000   1.0000   1.0000   1.0000   1.0000   1.0000   1.0000
     1.0000   1.0000   0.0000   0.0000   0.0000

          k = 0.0000 0.1925 0.1032 (  2795 PWs)   bands (ev):

   -74.9455 -74.8952 -38.3967 -38.1807 -38.1518 -38.1370 -38.0886 -38.0806
    11.2009  15.1912  17.0203  17.4839  18.0710  18.3748  18.3889  18.7721
    19.0072  19.0698  20.2468  21.7214  28.2843

     occupation numbers 
     1.0000   1.0000   1.0000   1.0000   1.0000   1.0000   1.0000   1.0000
     1.0000   1.0000   1.0000   1.0000   1.0000   1.0000   1.0000   1.0000
     0.9093   0.0000   0.0000   0.0000   0.0000

          k = 0.0000 0.1925 0.2064 (  2796 PWs)   bands (ev):

   -74.9349 -74.9059 -38.3451 -38.2044 -38.1603 -38.1251 -38.1089 -38.0926
    11.9667  14.3857  16.8814  17.5692  17.6996  18.1816  18.3248  18.5967
    19.3987  19.5362  20.0861  20.7489  31.4825

     occupation numbers 
     1.0000   1.0000   1.0000   1.0000   1.0000   1.0000   1.0000   1.0000
     1.0000   1.0000   1.0000   1.0000   1.0000   1.0000   1.0000   1.0000
     0.0000   0.0000   0.0000   0.0000   0.0000

          k = 0.0000 0.1925-0.3096 (  2808 PWs)   bands (ev):

   -74.9204 -74.9204 -38.2745 -38.2745 -38.1351 -38.1351 -38.1089 -38.1089
    13.1210  13.1210  17.1744  17.1744  17.8904  17.8904  18.4108  18.4108
    19.7902  19.7902  20.0785  20.0785  35.2188

     occupation numbers 
     1.0000   1.0000   1.0000   1.0000   1.0000   1.0000   1.0000   1.0000
     1.0000   1.0000   1.0000   1.0000   1.0000   1.0000   1.0000   1.0000
     0.0000   0.0000   0.0000   0.0000   0.0000

          k = 0.0000 0.2887 0.0000 (  2792 PWs)   bands (ev):

   -74.9350 -74.8859 -38.3801 -38.2549 -38.2017 -38.1621 -38.0977 -38.0882
    12.0416  15.7810  16.5954  17.1182  18.0292  18.3597  18.4450  19.1087
    19.1338  19.3807  20.3655  24.2348  26.8109

     occupation numbers 
     1.0000   1.0000   1.0000   1.0000   1.0000   1.0000   1.0000   1.0000
     1.0000   1.0000   1.0000   1.0000   1.0000   1.0000   1.0000   0.0000
     0.0000   0.0000   0.0000   0.0000   0.0000

          k = 0.0000 0.2887 0.1032 (  2793 PWs)   bands (ev):

   -74.9317 -74.8892 -38.3727 -38.2426 -38.2164 -38.1572 -38.1031 -38.0931
    12.2761  15.6843  16.4618  17.1812  17.8826  18.3840  18.3968  19.1803
    19.2755  19.3381  20.3007  22.8612  28.8016

     occupation numbers 
     1.0000   1.0000   1.0000   1.0000   1.0000   1.0000   1.0000   1.0000
     1.0000   1.0000   1.0000   1.0000   1.0000   1.0000   1.0000   0.0000
     0.0000   0.0000   0.0000   0.0000   0.0000

          k = 0.0000 0.2887 0.2064 (  2801 PWs)   bands (ev):

   -74.9227 -74.8982 -38.3489 -38.2629 -38.2006 -38.1437 -38.1230 -38.1067
    12.9453  14.9963  16.5789  17.2695  17.6500  18.1658  18.5234  19.0101
    19.5240  19.6870  20.1114  21.3402  32.0445

     occupation numbers 
     1.0000   1.0000   1.0000   1.0000   1.0000   1.0000   1.0000   1.0000
     1.0000   1.0000   1.0000   1.0000   1.0000   1.0000   1.0000   0.8487
     0.0000   0.0000   0.0000   0.0000   0.0000

          k = 0.0000 0.2887-0.3096 (  2804 PWs)   bands (ev):

   -74.9105 -74.9105 -38.3095 -38.3095 -38.1584 -38.1584 -38.1252 -38.1252
    13.9329  13.9329  16.9683  16.9683  17.8331  17.8331  18.7437  18.7437
    19.8292  19.8292  20.3351  20.3351  34.0650

     occupation numbers 
     1.0000   1.0000   1.0000   1.0000   1.0000   1.0000   1.0000   1.0000
     1.0000   1.0000   1.0000   1.0000   1.0000   1.0000   1.0000   1.0000
     0.0000   0.0000   0.0000   0.0000   0.0000

          k = 0.0000 0.3849 0.0000 (  2810 PWs)   bands (ev):

   -74.9194 -74.8816 -38.3387 -38.3236 -38.2679 -38.1824 -38.1209 -38.1005
    13.3635  15.8146  16.1072  16.9915  18.1262  18.1350  18.2242  19.7166
[...]
    20.3351  20.4029  21.5438  24.0889  29.0642

     occupation numbers 
     1.0000   1.0000   1.0000   1.0000   1.0000   1.0000   1.0000   1.0000
     1.0000   1.0000   1.0000   1.0000   1.0000   1.0000   1.0000   0.0000
     0.0000   0.0000   0.0000   0.0000   0.0000

          k = 0.0833 0.5292 0.1032 (  2806 PWs)   bands (ev):

   -74.8999 -74.8812 -38.3988 -38.3431 -38.2564 -38.2024 -38.1548 -38.1271
    14.9419  15.5640  16.1224  16.6647  17.9128  18.4409  18.4946  20.1175
    20.2861  20.3769  21.4035  23.7467  28.0105

     occupation numbers 
     1.0000   1.0000   1.0000   1.0000   1.0000   1.0000   1.0000   1.0000
     1.0000   1.0000   1.0000   1.0000   1.0000   1.0000   1.0000   0.0000
     0.0000   0.0000   0.0000   0.0000   0.0000

          k = 0.0833 0.5292 0.2064 (  2809 PWs)   bands (ev):

   -74.8959 -74.8851 -38.4148 -38.3800 -38.2168 -38.1779 -38.1615 -38.1313
    14.9157  15.4042  16.4285  16.7571  17.9700  18.7505  18.9616  19.6389
    20.2345  20.4712  21.1793  22.7976  27.4600

     occupation numbers 
     1.0000   1.0000   1.0000   1.0000   1.0000   1.0000   1.0000   1.0000
     1.0000   1.0000   1.0000   1.0000   1.0000   1.0000   1.0000   0.0000
     0.0000   0.0000   0.0000   0.0000   0.0000

          k = 0.0833 0.5292-0.3096 (  2808 PWs)   bands (ev):

   -74.8905 -74.8905 -38.4084 -38.4084 -38.1862 -38.1862 -38.1465 -38.1465
    15.0961  15.0961  16.7043  16.7043  18.4848  18.4848  19.2744  19.2744
    20.3183  20.3183  21.7252  21.7252  27.7166

     occupation numbers 
     1.0000   1.0000   1.0000   1.0000   1.0000   1.0000   1.0000   1.0000
     1.0000   1.0000   1.0000   1.0000   1.0000   1.0000   0.0000   0.0000
     0.0000   0.0000   0.0000   0.0000   0.0000

          k = 0.1667 0.2887 0.0000 (  2796 PWs)   bands (ev):

   -74.9274 -74.8836 -38.3605 -38.2615 -38.2516 -38.1644 -38.1136 -38.1082
    12.6719  16.0761  16.4147  16.7772  17.9688  18.0636  18.5617  18.9802
    19.5282  19.9001  20.3156  25.1433  27.0304

     occupation numbers 
     1.0000   1.0000   1.0000   1.0000   1.0000   1.0000   1.0000   1.0000
     1.0000   1.0000   1.0000   1.0000   1.0000   1.0000   1.0000   1.0000
     0.0000   0.0000   0.0000   0.0000   0.0000

          k = 0.1667 0.2887 0.1032 (  2802 PWs)   bands (ev):

   -74.9245 -74.8865 -38.3607 -38.2595 -38.2425 -38.1720 -38.1183 -38.1070
    12.8870  16.0182  16.3089  16.8452  17.8853  18.0905  18.4462  19.0606
    19.6609  19.7739  20.3249  23.4772  29.2415

     occupation numbers 
     1.0000   1.0000   1.0000   1.0000   1.0000   1.0000   1.0000   1.0000
     1.0000   1.0000   1.0000   1.0000   1.0000   1.0000   1.0000   0.0000
     0.0000   0.0000   0.0000   0.0000   0.0000

          k = 0.1667 0.2887 0.2064 (  2805 PWs)   bands (ev):

   -74.9164 -74.8945 -38.3508 -38.2873 -38.2027 -38.1747 -38.1296 -38.1153
    13.4964  15.3321  16.5674  17.0193  17.6293  17.9166  18.5009  19.1206
    19.7787  19.8957  20.2760  21.7234  32.5180

     occupation numbers 
     1.0000   1.0000   1.0000   1.0000   1.0000   1.0000   1.0000   1.0000
     1.0000   1.0000   1.0000   1.0000   1.0000   1.0000   1.0000   0.0000
     0.0000   0.0000   0.0000   0.0000   0.0000

          k = 0.1667 0.2887-0.3096 (  2796 PWs)   bands (ev):

   -74.9055 -74.9055 -38.3238 -38.3238 -38.1735 -38.1735 -38.1330 -38.1330
    14.3832  14.3832  16.9557  16.9557  17.5899  17.5899  18.8146  18.8146
    20.0935  20.0935  20.5167  20.5167  34.2374

     occupation numbers 
     1.0000   1.0000   1.0000   1.0000   1.0000   1.0000   1.0000   1.0000
     1.0000   1.0000   1.0000   1.0000   1.0000   1.0000   1.0000   1.0000
     0.0000   0.0000   0.0000   0.0000   0.0000

          k = 0.1667 0.3849 0.0000 (  2808 PWs)   bands (ev):

   -74.9133 -74.8804 -38.3212 -38.3145 -38.2889 -38.1960 -38.1366 -38.1318
    13.9320  16.0996  16.1478  16.5817  17.7650  18.2043  18.3247  19.3288
    20.0476  20.3121  20.6374  26.9345  27.2334

     occupation numbers 
     1.0000   1.0000   1.0000   1.0000   1.0000   1.0000   1.0000   1.0000
     1.0000   1.0000   1.0000   1.0000   1.0000   1.0000   1.0000   0.0000
     0.0000   0.0000   0.0000   0.0000   0.0000

          k = 0.1667 0.3849 0.1032 (  2804 PWs)   bands (ev):

   -74.9111 -74.8826 -38.3531 -38.3091 -38.2579 -38.2023 -38.1434 -38.1232
    14.0804  15.9630  16.2548  16.6886  17.7474  18.1606  18.2819  19.3632
    20.0348  20.1531  20.7514  24.5829  29.3186

     occupation numbers 
     1.0000   1.0000   1.0000   1.0000   1.0000   1.0000   1.0000   1.0000
     1.0000   1.0000   1.0000   1.0000   1.0000   1.0000   1.0000   0.0000
     0.0000   0.0000   0.0000   0.0000   0.0000

          k = 0.1667 0.3849 0.2064 (  2806 PWs)   bands (ev):

   -74.9051 -74.8886 -38.3683 -38.3330 -38.2161 -38.1975 -38.1523 -38.1218
    14.4863  15.5835  16.5480  16.9145  17.6143  17.8684  18.4734  19.3076
    19.8915  20.3436  20.8359  22.5544  30.2841

     occupation numbers 
     1.0000   1.0000   1.0000   1.0000   1.0000   1.0000   1.0000   1.0000
     1.0000   1.0000   1.0000   1.0000   1.0000   1.0000   1.0000   0.0000
     0.0000   0.0000   0.0000   0.0000   0.0000

          k = 0.1667 0.3849-0.3096 (  2800 PWs)   bands (ev):

   -74.8969 -74.8969 -38.3591 -38.3591 -38.1966 -38.1966 -38.1388 -38.1388
    15.0398  15.0398  16.9031  16.9031  17.5869  17.5869  18.8443  18.8443
    20.3439  20.3439  21.1991  21.1991  31.4059

     occupation numbers 
     1.0000   1.0000   1.0000   1.0000   1.0000   1.0000   1.0000   1.0000
     1.0000   1.0000   1.0000   1.0000   1.0000   1.0000   1.0000   1.0000
     0.0000   0.0000   0.0000   0.0000   0.0000

          k = 0.1667 0.4811 0.0000 (  2806 PWs)   bands (ev):

   -74.9014 -74.8797 -38.3565 -38.3072 -38.2831 -38.2260 -38.1583 -38.1522
    15.0362  15.9138  15.9229  16.6353  17.7054  18.0593  18.4452  19.7905
    20.3081  20.3163  21.5625  25.5724  28.8587

     occupation numbers 
     1.0000   1.0000   1.0000   1.0000   1.0000   1.0000   1.0000   1.0000
     1.0000   1.0000   1.0000   1.0000   1.0000   1.0000   1.0000   0.0000
     0.0000   0.0000   0.0000   0.0000   0.0000

          k = 0.1667 0.4811 0.1032 (  2809 PWs)   bands (ev):

   -74.9000 -74.8811 -38.3725 -38.3290 -38.2585 -38.2180 -38.1658 -38.1395
    15.0476  15.8735  16.0944  16.6712  17.7228  18.0423  18.5023  19.7774
    20.0639  20.3940  21.6156  24.9571  27.8395

     occupation numbers 
     1.0000   1.0000   1.0000   1.0000   1.0000   1.0000   1.0000   1.0000
     1.0000   1.0000   1.0000   1.0000   1.0000   1.0000   1.0000   0.0000
     0.0000   0.0000   0.0000   0.0000   0.0000

          k = 0.1667 0.4811 0.2064 (  2803 PWs)   bands (ev):

   -74.8960 -74.8851 -38.3900 -38.3614 -38.2381 -38.1980 -38.1662 -38.1292
    15.1455  15.6719  16.4381  16.9591  17.5540  18.0188  18.7115  19.4365
    19.9991  20.4943  21.7690  23.5013  27.9606

     occupation numbers 
     1.0000   1.0000   1.0000   1.0000   1.0000   1.0000   1.0000   1.0000
     1.0000   1.0000   1.0000   1.0000   1.0000   1.0000   1.0000   0.0000
     0.0000   0.0000   0.0000   0.0000   0.0000

          k = 0.1667 0.4811-0.3096 (  2800 PWs)   bands (ev):

   -74.8905 -74.8905 -38.3862 -38.3862 -38.2157 -38.2157 -38.1395 -38.1395
    15.3729  15.3729  16.8631  16.8631  17.7427  17.7427  18.9916  18.9916
    20.3362  20.3362  22.3064  22.3064  28.7748

     occupation numbers 
     1.0000   1.0000   1.0000   1.0000   1.0000   1.0000   1.0000   1.0000
     1.0000   1.0000   1.0000   1.0000   1.0000   1.0000   0.9984   0.9984
     0.0000   0.0000   0.0000   0.0000   0.0000

          k = 0.1667 0.5774 0.0000 (  2804 PWs)   bands (ev):

   -74.8961 -74.8803 -38.3717 -38.3126 -38.2639 -38.2386 -38.1733 -38.1578
    15.4984  15.7835  15.8532  16.7019  17.7458  17.8998  18.5531  20.1144
    20.2975  20.3062  22.4755  23.9951  29.8366

     occupation numbers 
     1.0000   1.0000   1.0000   1.0000   1.0000   1.0000   1.0000   1.0000
     1.0000   1.0000   1.0000   1.0000   1.0000   1.0000   1.0000   0.0000
     0.0000   0.0000   0.0000   0.0000   0.0000

          k = 0.1667 0.5774 0.1032 (  2813 PWs)   bands (ev):

   -74.8951 -74.8814 -38.3844 -38.3329 -38.2629 -38.2113 -38.1794 -38.1467
    15.3351  15.8323  16.2442  16.5190  17.6766  18.0805  18.6197  20.0324
    20.1118  20.3630  22.5057  23.8937  28.9790

     occupation numbers 
     1.0000   1.0000   1.0000   1.0000   1.0000   1.0000   1.0000   1.0000
     1.0000   1.0000   1.0000   1.0000   1.0000   1.0000   1.0000   0.0000
     0.0000   0.0000   0.0000   0.0000   0.0000

          k = 0.1667 0.5774 0.2064 (  2808 PWs)   bands (ev):

   -74.8922 -74.8843 -38.4001 -38.3701 -38.2475 -38.1978 -38.1687 -38.1331
    15.2903  15.7311  16.5041  16.8738  17.4619  18.1967  18.8624  19.5114
    20.1366  20.4094  22.6347  23.5588  27.8888

     occupation numbers 
     1.0000   1.0000   1.0000   1.0000   1.0000   1.0000   1.0000   1.0000
     1.0000   1.0000   1.0000   1.0000   1.0000   1.0000   1.0000   0.0000
     0.0000   0.0000   0.0000   0.0000   0.0000

          k = 0.1667 0.5774-0.3096 (  2806 PWs)   bands (ev):

   -74.8882 -74.8882 -38.3963 -38.3963 -38.2230 -38.2230 -38.1393 -38.1393
    15.4508  15.4508  16.8522  16.8522  17.7960  17.7960  19.1609  19.1609
    20.2696  20.2696  23.0368  23.0368  27.5116

     occupation numbers 
     1.0000   1.0000   1.0000   1.0000   1.0000   1.0000   1.0000   1.0000
     1.0000   1.0000   1.0000   1.0000   1.0000   1.0000   0.0000   0.0000
     0.0000   0.0000   0.0000   0.0000   0.0000

          k = 0.2500 0.4330 0.0000 (  2828 PWs)   bands (ev):

   -74.9015 -74.8796 -38.3338 -38.3087 -38.2834 -38.2269 -38.1730 -38.1581
    15.0482  15.9893  16.2744  16.3000  17.6117  18.0856  18.4483  19.5440
    20.2598  20.3207  21.6021  27.1539  27.9678

     occupation numbers 
     1.0000   1.0000   1.0000   1.0000   1.0000   1.0000   1.0000   1.0000
     1.0000   1.0000   1.0000   1.0000   1.0000   1.0000   1.0000   0.0000
     0.0000   0.0000   0.0000   0.0000   0.0000

          k = 0.2500 0.4330 0.1032 (  2815 PWs)   bands (ev):

   -74.9000 -74.8811 -38.3446 -38.3381 -38.2413 -38.2410 -38.1760 -38.1427
    15.1268  15.9074  16.3446  16.4922  17.6608  17.9053  18.4472  19.5794
    20.0055  20.4031  21.7103  25.7096  28.2609

     occupation numbers 
     1.0000   1.0000   1.0000   1.0000   1.0000   1.0000   1.0000   1.0000
     1.0000   1.0000   1.0000   1.0000   1.0000   1.0000   1.0000   0.0000
     0.0000   0.0000   0.0000   0.0000   0.0000

          k = 0.2500 0.4330 0.2064 (  2798 PWs)   bands (ev):

   -74.8960 -74.8851 -38.3708 -38.3550 -38.2462 -38.2172 -38.1652 -38.1288
    15.3267  15.7686  16.5738  16.8658  17.5112  17.6412  18.5226  19.3366
    19.9578  20.5030  21.9519  23.8259  29.0531

     occupation numbers 
     1.0000   1.0000   1.0000   1.0000   1.0000   1.0000   1.0000   1.0000
     1.0000   1.0000   1.0000   1.0000   1.0000   1.0000   1.0000   0.0000
     0.0000   0.0000   0.0000   0.0000   0.0000

          k = 0.2500 0.4330-0.3096 (  2796 PWs)   bands (ev):

   -74.8905 -74.8905 -38.3723 -38.3723 -38.2317 -38.2317 -38.1375 -38.1375
    15.5672  15.5672  16.9281  16.9281  17.4045  17.4045  18.8223  18.8223
    20.3606  20.3606  22.5270  22.5270  30.0771

     occupation numbers 
     1.0000   1.0000   1.0000   1.0000   1.0000   1.0000   1.0000   1.0000
     1.0000   1.0000   1.0000   1.0000   1.0000   1.0000   1.0000   1.0000
     0.0000   0.0000   0.0000   0.0000   0.0000

          k = 0.2500 0.5292 0.0000 (  2834 PWs)   bands (ev):

   -74.8925 -74.8813 -38.3484 -38.2983 -38.2607 -38.2496 -38.1963 -38.1852
    15.7625  15.9511  16.1112  16.3911  17.6144  17.8386  18.6526  19.8577
    20.2289  20.2620  22.8972  25.1726  27.2767

     occupation numbers 
     1.0000   1.0000   1.0000   1.0000   1.0000   1.0000   1.0000   1.0000
     1.0000   1.0000   1.0000   1.0000   1.0000   1.0000   1.0000   0.0000
     0.0000   0.0000   0.0000   0.0000   0.0000

          k = 0.2500 0.5292 0.1032 (  2819 PWs)   bands (ev):

   -74.8918 -74.8820 -38.3549 -38.3238 -38.2804 -38.2190 -38.1986 -38.1615
    15.7137  16.0832  16.1988  16.4550  17.5932  17.7397  18.6585  19.8724
    19.9711  20.3172  23.0640  25.1478  27.3477

     occupation numbers 
     1.0000   1.0000   1.0000   1.0000   1.0000   1.0000   1.0000   1.0000
     1.0000   1.0000   1.0000   1.0000   1.0000   1.0000   1.0000   0.0000
     0.0000   0.0000   0.0000   0.0000   0.0000

          k = 0.2500 0.5292 0.2064 (  2808 PWs)   bands (ev):

   -74.8897 -74.8841 -38.3723 -38.3556 -38.2796 -38.2322 -38.1609 -38.1372
    15.7483  16.0462  16.4843  16.8074  17.3442  17.5982  18.7220  19.3765
    20.0474  20.3655  23.4532  24.7820  27.4401

     occupation numbers 
     1.0000   1.0000   1.0000   1.0000   1.0000   1.0000   1.0000   1.0000
     1.0000   1.0000   1.0000   1.0000   1.0000   1.0000   1.0000   0.0000
     0.0000   0.0000   0.0000   0.0000   0.0000

          k = 0.2500 0.5292-0.3096 (  2802 PWs)   bands (ev):

   -74.8869 -74.8869 -38.3752 -38.3752 -38.2577 -38.2577 -38.1358 -38.1358
    15.8839  15.8839  16.8880  16.8880  17.3081  17.3081  18.9305  18.9305
    20.2570  20.2570  24.0492  24.0492  27.9954

     occupation numbers 
     1.0000   1.0000   1.0000   1.0000   1.0000   1.0000   1.0000   1.0000
     1.0000   1.0000   1.0000   1.0000   1.0000   1.0000   1.0000   1.0000
     0.0000   0.0000   0.0000   0.0000   0.0000

          k = 0.3333 0.5774 0.0000 (  2826 PWs)   bands (ev):

   -74.8856 -74.8856 -38.3381 -38.2824 -38.2824 -38.2234 -38.2162 -38.2162
    15.9825  16.1118  16.1118  16.3134  17.6606  17.6606  18.7629  20.0303
    20.0303  20.1974  24.3452  25.1685  25.1685

     occupation numbers 
     1.0000   1.0000   1.0000   1.0000   1.0000   1.0000   1.0000   1.0000
     1.0000   1.0000   1.0000   1.0000   1.0000   1.0000   1.0000   0.0000
     0.0000   0.0000   0.0000   0.0000   0.0000

          k = 0.3333 0.5774 0.1032 (  2820 PWs)   bands (ev):

   -74.8856 -74.8856 -38.3305 -38.3132 -38.3132 -38.2311 -38.1852 -38.1852
    16.0598  16.1867  16.1867  16.3462  17.5751  17.5751  18.7394  19.9121
    20.0774  20.0774  24.7702  25.2169  25.2169

     occupation numbers 
     1.0000   1.0000   1.0000   1.0000   1.0000   1.0000   1.0000   1.0000
     1.0000   1.0000   1.0000   1.0000   1.0000   1.0000   1.0000   0.0000
     0.0000   0.0000   0.0000   0.0000   0.0000

          k = 0.3333 0.5774 0.2064 (  2805 PWs)   bands (ev):

   -74.8856 -74.8856 -38.3495 -38.3495 -38.3095 -38.2522 -38.1485 -38.1485
    16.2418  16.3644  16.3644  16.4060  17.3843  17.3843  18.7318  19.3478
    20.1630  20.1630  25.3363  25.3363  25.7976

     occupation numbers 
     1.0000   1.0000   1.0000   1.0000   1.0000   1.0000   1.0000   1.0000
     1.0000   1.0000   1.0000   1.0000   1.0000   1.0000   1.0000   0.0000
     0.0000   0.0000   0.0000   0.0000   0.0000

          k = 0.3333 0.5774-0.3096 (  2772 PWs)   bands (ev):

   -74.8855 -74.8855 -38.3634 -38.3634 -38.2809 -38.2809 -38.1344 -38.1344
    16.3910  16.3910  16.4790  16.4790  17.2668  17.2668  18.9014  18.9014
    20.2019  20.2019  25.4119  25.4119  27.1461

     occupation numbers 
     1.0000   1.0000   1.0000   1.0000   1.0000   1.0000   1.0000   1.0000
     1.0000   1.0000   1.0000   1.0000   1.0000   1.0000   1.0000   1.0000
     0.0000   0.0000   0.0000   0.0000   0.0000

     the Fermi energy is    19.0201 ev

!    total energy              =    -753.45498493 Ry
     total all-electron energy =     -5573.811676 Ry
     estimated scf accuracy    <       0.00000028 Ry
     smearing contrib. (-TS)   =      -0.00002409 Ry
     internal energy E=F+TS    =    -753.45496083 Ry

     The total energy is F=E-TS. E is the sum of the following terms:
     one-electron contribution =    -279.29509224 Ry
     hartree contribution      =     163.74471371 Ry
     xc contribution           =     -61.42506185 Ry
     ewald contribution        =    -401.30344466 Ry
     one-center paw contrib.   =    -175.17607579 Ry
      -> PAW hartree energy AE =     222.12739285 Ry
      -> PAW hartree energy PS =    -221.07155083 Ry
      -> PAW xc energy AE      =    -117.67768273 Ry
      -> PAW xc energy PS      =      29.03380282 Ry
      -> total E_H with PAW    =     164.80055572 Ry
      -> total E_XC with PAW   =    -150.06894176 Ry

     total magnetization       =     3.29 Bohr mag/cell
     absolute magnetization    =     3.60 Bohr mag/cell

     convergence has been achieved in   5 iterations

     Writing all to output data dir ./out2/Co.save/
 
     init_run     :      0.29s CPU      0.41s WALL (       1 calls)
     electrons    :      5.53s CPU      5.95s WALL (       1 calls)

     Called by init_run:
     wfcinit      :      0.14s CPU      0.23s WALL (       1 calls)
     potinit      :      0.09s CPU      0.12s WALL (       1 calls)
     hinit0       :      0.05s CPU      0.05s WALL (       1 calls)

     Called by electrons:
     c_bands      :      4.52s CPU      4.81s WALL (       5 calls)
     sum_band     :      0.53s CPU      0.56s WALL (       5 calls)
     v_of_rho     :      0.02s CPU      0.02s WALL (       6 calls)
     v_h          :      0.00s CPU      0.00s WALL (       6 calls)
     v_xc         :      0.02s CPU      0.02s WALL (       6 calls)
     newd         :      0.01s CPU      0.02s WALL (       6 calls)
     PAW_pot      :      0.52s CPU      0.64s WALL (       6 calls)
     mix_rho      :      0.00s CPU      0.00s WALL (       5 calls)

     Called by c_bands:
     init_us_2    :      0.04s CPU      0.04s WALL (     760 calls)
     init_us_2:cp :      0.04s CPU      0.04s WALL (     760 calls)
     cegterg      :      4.24s CPU      4.45s WALL (     380 calls)

     Called by sum_band:
     sum_band:wei :      0.00s CPU      0.01s WALL (       5 calls)
     sum_band:loo :      0.49s CPU      0.52s WALL (       5 calls)
     sum_band:buf :      0.00s CPU      0.00s WALL (     380 calls)
     sum_band:ini :      0.02s CPU      0.02s WALL (     380 calls)
     sum_band:cal :      0.04s CPU      0.04s WALL (     380 calls)
     sum_band:bec :      0.00s CPU      0.00s WALL (     380 calls)
     addusdens    :      0.02s CPU      0.03s WALL (       5 calls)
                                        0.00s GPU  (       5 calls)
     addusd:skk   :      0.00s CPU      0.00s WALL (       5 calls)
                                        0.00s GPU  (       5 calls)

     Called by *egterg:
     cdiaghg      :      0.91s CPU      0.95s WALL (    1849 calls)
     cegterg:over :      0.13s CPU      0.14s WALL (    1545 calls)
     cegterg:upda :      0.04s CPU      0.04s WALL (    1545 calls)
     cegterg:last :      0.07s CPU      0.07s WALL (    1117 calls)
     h_psi        :      2.89s CPU      3.04s WALL (    1925 calls)
     s_psi        :      0.05s CPU      0.05s WALL (    1925 calls)
     g_psi        :      0.01s CPU      0.01s WALL (    1545 calls)

     Called by h_psi:
     h_psi:calbec :      0.15s CPU      0.16s WALL (    1925 calls)
     vloc_psi     :      2.66s CPU      2.80s WALL (    1925 calls)
     add_vuspsi   :      0.06s CPU      0.07s WALL (    1925 calls)

     General routines
     calbec       :      0.19s CPU      0.20s WALL (    2305 calls)
     fft          :      0.01s CPU      0.01s WALL (     144 calls)
     ffts         :      0.00s CPU      0.00s WALL (      22 calls)
     fftw         :      2.78s CPU      2.93s WALL (   61376 calls)
     interpolate  :      0.00s CPU      0.00s WALL (      12 calls)
 
     Parallel routines

     PAW routines
     PAW_pot      :      0.52s CPU      0.64s WALL (       6 calls)
     PAW_symme    :      0.00s CPU      0.01s WALL (      10 calls)
 
     PWSCF        :      6.06s CPU      6.91s WALL

 
   This run was terminated on:  10:45:36  22Mar2024            

=------------------------------------------------------------------------------=
   JOB DONE.
=------------------------------------------------------------------------------=
