
     Program PWSCF v.7.2 starts on 22Mar2024 at 10:57:38 

     This program is part of the open-source Quantum ESPRESSO suite
     for quantum simulation of materials; please cite
         "P. Giannozzi et al., J. Phys.:Condens. Matter 21 395502 (2009);
         "P. Giannozzi et al., J. Phys.:Condens. Matter 29 465901 (2017);
         "P. Giannozzi et al., J. Chem. Phys. 152 154105 (2020);
          URL http://www.quantum-espresso.org", 
     in publications or presentations arising from this work. More details at
     http://www.quantum-espresso.org/quote

     Parallel version (MPI), running on    28 processors

     MPI processes distributed on     1 nodes
     182147 MiB available memory on the printing compute node when the environment starts
 
     Waiting for input...
     Reading input from standard input

     Current dimensions of program PWSCF are:
     Max number of different atomic species (ntypx) = 10
     Max number of k-points (npk) = 120000
     Max angular momentum in pseudopotentials (lmaxx) =  4
     file Co.pbe-spn-kjpaw_psl.0.3.1.UPF: wavefunction(s)  3P 3D renormalized
 
     K-points division:     npool     =       2
     R & G space division:  proc/nbgrp/npool/nimage =      14
     Subspace diagonalization in iterative solution of the eigenvalue problem:
     a serial algorithm will be used

 
     Parallelization info
     --------------------
     sticks:   dense  smooth     PW     G-vecs:    dense   smooth      PW
     Min          48      48     14                 1681     1632     264
     Max          51      49     15                 1691     1639     271
     Sum         685     673    199                23583    22875    3729
 
     Using Slab Decomposition
 


     bravais-lattice index     =            4
     lattice parameter (alat)  =       4.7243  a.u.
     unit-cell volume          =     146.4710 (a.u.)^3
     number of atoms/cell      =            2
     number of atomic types    =            1
     number of electrons       =        34.00
     number of Kohn-Sham states=           21
     kinetic-energy cutoff     =     110.0000  Ry
     charge density cutoff     =     450.0000  Ry
     scf convergence threshold =      1.0E-06
     mixing beta               =       0.7000
     number of iterations used =            8  plain     mixing
     Exchange-correlation= SLA  PW   PBX  PBC
                           (   1   4   3   4   0   0   0)

     celldm(1)=   4.724315  celldm(2)=   0.000000  celldm(3)=   1.604000
     celldm(4)=   0.000000  celldm(5)=   0.000000  celldm(6)=   0.000000

     crystal axes: (cart. coord. in units of alat)
               a(1) = (   1.000000   0.000000   0.000000 )  
               a(2) = (  -0.500000   0.866025   0.000000 )  
               a(3) = (   0.000000   0.000000   1.604000 )  

     reciprocal axes: (cart. coord. in units 2 pi/alat)
               b(1) = (  1.000000  0.577350  0.000000 )  
               b(2) = (  0.000000  1.154701  0.000000 )  
               b(3) = (  0.000000  0.000000  0.623441 )  


     PseudoPot. # 1 for Co read from file:
     /truba/home/amuhaymin/ZnS/pseudo/QE/Co.pbe-spn-kjpaw_psl.0.3.1.UPF
     MD5 check sum: b0a1ad65bf214e88c1f3d33b20c7d919
     Pseudo is Projector augmented-wave + core cor, Zval = 17.0
     Generated using &quot;atomic&quot; code by A. Dal Corso  v.6.2.2
     Shape of augmentation charge: PSQ
     Using radial grid of 1193 points,  6 beta functions with: 
                l(1) =   0
                l(2) =   0
                l(3) =   1
                l(4) =   1
                l(5) =   2
                l(6) =   2
     Q(r) pseudized with 0 coefficients 


     atomic species   valence    mass     pseudopotential
        Co            17.00    58.93300     Co( 1.00)

     Starting magnetic structure 
     atomic species   magnetization
        Co           0.294

     24 Sym. Ops., with inversion, found (12 have fractional translation)


                                    s                        frac. trans.

      isym =  1     identity                                     

 cryst.   s( 1) = (     1          0          0      )
                  (     0          1          0      )
                  (     0          0          1      )

 cart.    s( 1) = (  1.0000000  0.0000000  0.0000000 )
                  (  0.0000000  1.0000000  0.0000000 )
                  (  0.0000000  0.0000000  1.0000000 )


      isym =  2     180 deg rotation - cart. axis [0,0,1]        

 cryst.   s( 2) = (    -1          0          0      )    f =(  0.0000000 )
                  (     0         -1          0      )       (  0.0000000 )
                  (     0          0          1      )       (  0.5000000 )

 cart.    s( 2) = ( -1.0000000  0.0000000  0.0000000 )    f =(  0.0000000 )
                  (  0.0000000 -1.0000000  0.0000000 )       (  0.0000000 )
                  (  0.0000000  0.0000000  1.0000000 )       (  0.8020000 )


      isym =  3     180 deg rotation - cart. axis [0,1,0]        

 cryst.   s( 3) = (    -1          0          0      )    f =(  0.0000000 )
                  (     1          1          0      )       (  0.0000000 )
                  (     0          0         -1      )       (  0.5000000 )

 cart.    s( 3) = ( -1.0000000  0.0000000  0.0000000 )    f =(  0.0000000 )
                  (  0.0000000  1.0000000  0.0000000 )       (  0.0000000 )
                  (  0.0000000  0.0000000 -1.0000000 )       (  0.8020000 )


      isym =  4     180 deg rotation - cart. axis [1,0,0]        

 cryst.   s( 4) = (     1          0          0      )
                  (    -1         -1          0      )
                  (     0          0         -1      )

 cart.    s( 4) = (  1.0000000  0.0000000  0.0000000 )
                  (  0.0000000 -1.0000000  0.0000000 )
                  (  0.0000000  0.0000000 -1.0000000 )


      isym =  5      60 deg rotation - cryst. axis [0,0,1]       

 cryst.   s( 5) = (     1          1          0      )    f =(  0.0000000 )
                  (    -1          0          0      )       ( -0.0000000 )
                  (     0          0          1      )       (  0.5000000 )

 cart.    s( 5) = (  0.5000000 -0.8660254  0.0000000 )    f =(  0.0000000 )
                  (  0.8660254  0.5000000  0.0000000 )       ( -0.0000000 )
                  (  0.0000000  0.0000000  1.0000000 )       (  0.8020000 )


      isym =  6      60 deg rotation - cryst. axis [0,0,-1]      

 cryst.   s( 6) = (     0         -1          0      )    f =(  0.0000000 )
                  (     1          1          0      )       ( -0.0000000 )
                  (     0          0          1      )       (  0.5000000 )

 cart.    s( 6) = (  0.5000000  0.8660254  0.0000000 )    f =(  0.0000000 )
                  ( -0.8660254  0.5000000  0.0000000 )       ( -0.0000000 )
                  (  0.0000000  0.0000000  1.0000000 )       (  0.8020000 )


      isym =  7     120 deg rotation - cryst. axis [0,0,1]       

 cryst.   s( 7) = (     0          1          0      )
                  (    -1         -1          0      )
                  (     0          0          1      )

 cart.    s( 7) = ( -0.5000000 -0.8660254  0.0000000 )
                  (  0.8660254 -0.5000000  0.0000000 )
                  (  0.0000000  0.0000000  1.0000000 )


      isym =  8     120 deg rotation - cryst. axis [0,0,-1]      

 cryst.   s( 8) = (    -1         -1          0      )
                  (     1          0          0      )
                  (     0          0          1      )

 cart.    s( 8) = ( -0.5000000  0.8660254  0.0000000 )
                  ( -0.8660254 -0.5000000  0.0000000 )
                  (  0.0000000  0.0000000  1.0000000 )


      isym =  9     180 deg rotation - cryst. axis [1,-1,0]      

 cryst.   s( 9) = (     0         -1          0      )    f =(  0.0000000 )
                  (    -1          0          0      )       (  0.0000000 )
                  (     0          0         -1      )       (  0.5000000 )

 cart.    s( 9) = (  0.5000000 -0.8660254  0.0000000 )    f =(  0.0000000 )
                  ( -0.8660254 -0.5000000  0.0000000 )       (  0.0000000 )
                  (  0.0000000  0.0000000 -1.0000000 )       (  0.8020000 )


      isym = 10     180 deg rotation - cryst. axis [2,1,0]       

 cryst.   s(10) = (     1          1          0      )    f =(  0.0000000 )
                  (     0         -1          0      )       ( -0.0000000 )
                  (     0          0         -1      )       (  0.5000000 )

 cart.    s(10) = (  0.5000000  0.8660254  0.0000000 )    f =(  0.0000000 )
                  (  0.8660254 -0.5000000  0.0000000 )       ( -0.0000000 )
                  (  0.0000000  0.0000000 -1.0000000 )       (  0.8020000 )


      isym = 11     180 deg rotation - cryst. axis [0,1,0]       

 cryst.   s(11) = (    -1         -1          0      )
                  (     0          1          0      )
                  (     0          0         -1      )

 cart.    s(11) = ( -0.5000000 -0.8660254  0.0000000 )
                  ( -0.8660254  0.5000000  0.0000000 )
                  (  0.0000000  0.0000000 -1.0000000 )


      isym = 12     180 deg rotation - cryst. axis [1,1,0]       

 cryst.   s(12) = (     0          1          0      )
                  (     1          0          0      )
                  (     0          0         -1      )

 cart.    s(12) = ( -0.5000000  0.8660254  0.0000000 )
                  (  0.8660254  0.5000000  0.0000000 )
                  (  0.0000000  0.0000000 -1.0000000 )


      isym = 13     inversion                                    

 cryst.   s(13) = (    -1          0          0      )
                  (     0         -1          0      )
                  (     0          0         -1      )

 cart.    s(13) = ( -1.0000000  0.0000000  0.0000000 )
                  (  0.0000000 -1.0000000  0.0000000 )
                  (  0.0000000  0.0000000 -1.0000000 )


      isym = 14     inv. 180 deg rotation - cart. axis [0,0,1]   

 cryst.   s(14) = (     1          0          0      )    f =(  0.0000000 )
                  (     0          1          0      )       (  0.0000000 )
                  (     0          0         -1      )       (  0.5000000 )

 cart.    s(14) = (  1.0000000  0.0000000  0.0000000 )    f =(  0.0000000 )
                  (  0.0000000  1.0000000  0.0000000 )       (  0.0000000 )
                  (  0.0000000  0.0000000 -1.0000000 )       (  0.8020000 )


      isym = 15     inv. 180 deg rotation - cart. axis [0,1,0]   

 cryst.   s(15) = (     1          0          0      )    f =(  0.0000000 )
                  (    -1         -1          0      )       (  0.0000000 )
                  (     0          0          1      )       (  0.5000000 )

 cart.    s(15) = (  1.0000000  0.0000000  0.0000000 )    f =(  0.0000000 )
                  (  0.0000000 -1.0000000  0.0000000 )       (  0.0000000 )
                  (  0.0000000  0.0000000  1.0000000 )       (  0.8020000 )


      isym = 16     inv. 180 deg rotation - cart. axis [1,0,0]   

 cryst.   s(16) = (    -1          0          0      )
                  (     1          1          0      )
                  (     0          0          1      )

 cart.    s(16) = ( -1.0000000  0.0000000  0.0000000 )
                  (  0.0000000  1.0000000  0.0000000 )
                  (  0.0000000  0.0000000  1.0000000 )


      isym = 17     inv.  60 deg rotation - cryst. axis [0,0,1]  

 cryst.   s(17) = (    -1         -1          0      )    f =(  0.0000000 )
                  (     1          0          0      )       (  0.0000000 )
                  (     0          0         -1      )       (  0.5000000 )

 cart.    s(17) = ( -0.5000000  0.8660254  0.0000000 )    f =(  0.0000000 )
                  ( -0.8660254 -0.5000000  0.0000000 )       (  0.0000000 )
                  (  0.0000000  0.0000000 -1.0000000 )       (  0.8020000 )


      isym = 18     inv.  60 deg rotation - cryst. axis [0,0,-1] 

 cryst.   s(18) = (     0          1          0      )    f =(  0.0000000 )
                  (    -1         -1          0      )       ( -0.0000000 )
                  (     0          0         -1      )       (  0.5000000 )

 cart.    s(18) = ( -0.5000000 -0.8660254  0.0000000 )    f =(  0.0000000 )
                  (  0.8660254 -0.5000000  0.0000000 )       ( -0.0000000 )
                  (  0.0000000  0.0000000 -1.0000000 )       (  0.8020000 )


      isym = 19     inv. 120 deg rotation - cryst. axis [0,0,1]  

 cryst.   s(19) = (     0         -1          0      )
                  (     1          1          0      )
                  (     0          0         -1      )

 cart.    s(19) = (  0.5000000  0.8660254  0.0000000 )
                  ( -0.8660254  0.5000000  0.0000000 )
                  (  0.0000000  0.0000000 -1.0000000 )


      isym = 20     inv. 120 deg rotation - cryst. axis [0,0,-1] 

 cryst.   s(20) = (     1          1          0      )
                  (    -1          0          0      )
                  (     0          0         -1      )

 cart.    s(20) = (  0.5000000 -0.8660254  0.0000000 )
                  (  0.8660254  0.5000000  0.0000000 )
                  (  0.0000000  0.0000000 -1.0000000 )


      isym = 21     inv. 180 deg rotation - cryst. axis [1,-1,0] 

 cryst.   s(21) = (     0          1          0      )    f =(  0.0000000 )
                  (     1          0          0      )       ( -0.0000000 )
                  (     0          0          1      )       (  0.5000000 )

 cart.    s(21) = ( -0.5000000  0.8660254  0.0000000 )    f =(  0.0000000 )
                  (  0.8660254  0.5000000  0.0000000 )       ( -0.0000000 )
                  (  0.0000000  0.0000000  1.0000000 )       (  0.8020000 )


      isym = 22     inv. 180 deg rotation - cryst. axis [2,1,0]  

 cryst.   s(22) = (    -1         -1          0      )    f =(  0.0000000 )
                  (     0          1          0      )       ( -0.0000000 )
                  (     0          0          1      )       (  0.5000000 )

 cart.    s(22) = ( -0.5000000 -0.8660254  0.0000000 )    f =(  0.0000000 )
                  ( -0.8660254  0.5000000  0.0000000 )       ( -0.0000000 )
                  (  0.0000000  0.0000000  1.0000000 )       (  0.8020000 )


      isym = 23     inv. 180 deg rotation - cryst. axis [0,1,0]  

 cryst.   s(23) = (     1          1          0      )
                  (     0         -1          0      )
                  (     0          0          1      )

 cart.    s(23) = (  0.5000000  0.8660254  0.0000000 )
                  (  0.8660254 -0.5000000  0.0000000 )
                  (  0.0000000  0.0000000  1.0000000 )


      isym = 24     inv. 180 deg rotation - cryst. axis [1,1,0]  

 cryst.   s(24) = (     0         -1          0      )
                  (    -1          0          0      )
                  (     0          0          1      )

 cart.    s(24) = (  0.5000000 -0.8660254  0.0000000 )
                  ( -0.8660254 -0.5000000  0.0000000 )
                  (  0.0000000  0.0000000  1.0000000 )


     point group D_6h(6/mmm)
     there are 12 classes
     the character table:

       E     2C6   2C3   C2    3C2'  3C2'' i     2S3   2S6   s_h   3s_d  3s_v 
A_1g   1.00  1.00  1.00  1.00  1.00  1.00  1.00  1.00  1.00  1.00  1.00  1.00
A_2g   1.00  1.00  1.00  1.00 -1.00 -1.00  1.00  1.00  1.00  1.00 -1.00 -1.00
B_1g   1.00 -1.00  1.00 -1.00  1.00 -1.00  1.00 -1.00  1.00 -1.00  1.00 -1.00
B_2g   1.00 -1.00  1.00 -1.00 -1.00  1.00  1.00 -1.00  1.00 -1.00 -1.00  1.00
E_1g   2.00  1.00 -1.00 -2.00  0.00  0.00  2.00  1.00 -1.00 -2.00  0.00  0.00
E_2g   2.00 -1.00 -1.00  2.00  0.00  0.00  2.00 -1.00 -1.00  2.00  0.00  0.00
A_1u   1.00  1.00  1.00  1.00  1.00  1.00 -1.00 -1.00 -1.00 -1.00 -1.00 -1.00
A_2u   1.00  1.00  1.00  1.00 -1.00 -1.00 -1.00 -1.00 -1.00 -1.00  1.00  1.00
B_1u   1.00 -1.00  1.00 -1.00  1.00 -1.00 -1.00  1.00 -1.00  1.00 -1.00  1.00
B_2u   1.00 -1.00  1.00 -1.00 -1.00  1.00 -1.00  1.00 -1.00  1.00  1.00 -1.00
E_1u   2.00  1.00 -1.00 -2.00  0.00  0.00 -2.00 -1.00  1.00  2.00  0.00  0.00
E_2u   2.00 -1.00 -1.00  2.00  0.00  0.00 -2.00  1.00  1.00 -2.00  0.00  0.00

     the symmetry operations in each class and the name of the first element:

     E        1
          identity                                               
     2C6      5    6
           60 deg rotation - cryst. axis [0,0,1]                 
     2C3      7    8
          120 deg rotation - cryst. axis [0,0,1]                 
     C2       2
          180 deg rotation - cart. axis [0,0,1]                  
     3C2'     4   12   11
          180 deg rotation - cart. axis [1,0,0]                  
     3C2''    3    9   10
          180 deg rotation - cart. axis [0,1,0]                  
     i       13
          inversion                                              
     2S3     17   18
          inv.  60 deg rotation - cryst. axis [0,0,1]            
     2S6     19   20
          inv. 120 deg rotation - cryst. axis [0,0,1]            
     s_h     14
          inv. 180 deg rotation - cart. axis [0,0,1]             
     3s_d    16   24   23
          inv. 180 deg rotation - cart. axis [1,0,0]             
     3s_v    15   21   22
          inv. 180 deg rotation - cart. axis [0,1,0]             

   Cartesian axes

     site n.     atom                  positions (alat units)
         1           Co  tau(   1) = (  -0.0000000   0.5773503   0.4010000  )
         2           Co  tau(   2) = (   0.5000000   0.2886751   1.2030000  )

   Crystallographic axes

     site n.     atom                  positions (cryst. coord.)
         1           Co  tau(   1) = (  0.3333333  0.6666667  0.2500000  )
         2           Co  tau(   2) = (  0.6666667  0.3333333  0.7500000  )

     number of k points=    76  Gaussian smearing, width (Ry)=  0.0010
                       cart. coord. in units 2pi/alat
        k(    1) = (   0.0000000   0.0000000   0.0000000), wk =   0.0011574
        k(    2) = (   0.0000000   0.0000000   0.1039069), wk =   0.0023148
        k(    3) = (   0.0000000   0.0000000   0.2078138), wk =   0.0023148
        k(    4) = (   0.0000000   0.0000000  -0.3117207), wk =   0.0011574
        k(    5) = (   0.0000000   0.0962250   0.0000000), wk =   0.0069444
        k(    6) = (   0.0000000   0.0962250   0.1039069), wk =   0.0138889
        k(    7) = (   0.0000000   0.0962250   0.2078138), wk =   0.0138889
        k(    8) = (   0.0000000   0.0962250  -0.3117207), wk =   0.0069444
        k(    9) = (   0.0000000   0.1924501   0.0000000), wk =   0.0069444
        k(   10) = (   0.0000000   0.1924501   0.1039069), wk =   0.0138889
        k(   11) = (   0.0000000   0.1924501   0.2078138), wk =   0.0138889
        k(   12) = (   0.0000000   0.1924501  -0.3117207), wk =   0.0069444
        k(   13) = (   0.0000000   0.2886751   0.0000000), wk =   0.0069444
        k(   14) = (   0.0000000   0.2886751   0.1039069), wk =   0.0138889
        k(   15) = (   0.0000000   0.2886751   0.2078138), wk =   0.0138889
        k(   16) = (   0.0000000   0.2886751  -0.3117207), wk =   0.0069444
        k(   17) = (   0.0000000   0.3849002   0.0000000), wk =   0.0069444
        k(   18) = (   0.0000000   0.3849002   0.1039069), wk =   0.0138889
        k(   19) = (   0.0000000   0.3849002   0.2078138), wk =   0.0138889
        k(   20) = (   0.0000000   0.3849002  -0.3117207), wk =   0.0069444
        k(   21) = (   0.0000000   0.4811252   0.0000000), wk =   0.0069444
        k(   22) = (   0.0000000   0.4811252   0.1039069), wk =   0.0138889
        k(   23) = (   0.0000000   0.4811252   0.2078138), wk =   0.0138889
        k(   24) = (   0.0000000   0.4811252  -0.3117207), wk =   0.0069444
        k(   25) = (   0.0000000  -0.5773503   0.0000000), wk =   0.0034722
        k(   26) = (   0.0000000  -0.5773503   0.1039069), wk =   0.0069444
        k(   27) = (   0.0000000  -0.5773503   0.2078138), wk =   0.0069444
        k(   28) = (   0.0000000  -0.5773503  -0.3117207), wk =   0.0034722
        k(   29) = (   0.0833333   0.1443376   0.0000000), wk =   0.0069444
        k(   30) = (   0.0833333   0.1443376   0.1039069), wk =   0.0138889
        k(   31) = (   0.0833333   0.1443376   0.2078138), wk =   0.0138889
        k(   32) = (   0.0833333   0.1443376  -0.3117207), wk =   0.0069444
        k(   33) = (   0.0833333   0.2405626   0.0000000), wk =   0.0138889
        k(   34) = (   0.0833333   0.2405626   0.1039069), wk =   0.0277778
        k(   35) = (   0.0833333   0.2405626   0.2078138), wk =   0.0277778
        k(   36) = (   0.0833333   0.2405626  -0.3117207), wk =   0.0138889
        k(   37) = (   0.0833333   0.3367877   0.0000000), wk =   0.0138889
        k(   38) = (   0.0833333   0.3367877   0.1039069), wk =   0.0277778
        k(   39) = (   0.0833333   0.3367877   0.2078138), wk =   0.0277778
        k(   40) = (   0.0833333   0.3367877  -0.3117207), wk =   0.0138889
        k(   41) = (   0.0833333   0.4330127   0.0000000), wk =   0.0138889
        k(   42) = (   0.0833333   0.4330127   0.1039069), wk =   0.0277778
        k(   43) = (   0.0833333   0.4330127   0.2078138), wk =   0.0277778
        k(   44) = (   0.0833333   0.4330127  -0.3117207), wk =   0.0138889
        k(   45) = (   0.0833333   0.5292377   0.0000000), wk =   0.0138889
        k(   46) = (   0.0833333   0.5292377   0.1039069), wk =   0.0277778
        k(   47) = (   0.0833333   0.5292377   0.2078138), wk =   0.0277778
        k(   48) = (   0.0833333   0.5292377  -0.3117207), wk =   0.0138889
        k(   49) = (   0.1666667   0.2886751   0.0000000), wk =   0.0069444
        k(   50) = (   0.1666667   0.2886751   0.1039069), wk =   0.0138889
        k(   51) = (   0.1666667   0.2886751   0.2078138), wk =   0.0138889
        k(   52) = (   0.1666667   0.2886751  -0.3117207), wk =   0.0069444
        k(   53) = (   0.1666667   0.3849002   0.0000000), wk =   0.0138889
        k(   54) = (   0.1666667   0.3849002   0.1039069), wk =   0.0277778
        k(   55) = (   0.1666667   0.3849002   0.2078138), wk =   0.0277778
        k(   56) = (   0.1666667   0.3849002  -0.3117207), wk =   0.0138889
        k(   57) = (   0.1666667   0.4811252   0.0000000), wk =   0.0138889
        k(   58) = (   0.1666667   0.4811252   0.1039069), wk =   0.0277778
        k(   59) = (   0.1666667   0.4811252   0.2078138), wk =   0.0277778
        k(   60) = (   0.1666667   0.4811252  -0.3117207), wk =   0.0138889
        k(   61) = (   0.1666667   0.5773503   0.0000000), wk =   0.0069444
        k(   62) = (   0.1666667   0.5773503   0.1039069), wk =   0.0138889
        k(   63) = (   0.1666667   0.5773503   0.2078138), wk =   0.0138889
        k(   64) = (   0.1666667   0.5773503  -0.3117207), wk =   0.0069444
        k(   65) = (   0.2500000   0.4330127   0.0000000), wk =   0.0069444
        k(   66) = (   0.2500000   0.4330127   0.1039069), wk =   0.0138889
        k(   67) = (   0.2500000   0.4330127   0.2078138), wk =   0.0138889
        k(   68) = (   0.2500000   0.4330127  -0.3117207), wk =   0.0069444
        k(   69) = (   0.2500000   0.5292377   0.0000000), wk =   0.0138889
        k(   70) = (   0.2500000   0.5292377   0.1039069), wk =   0.0277778
        k(   71) = (   0.2500000   0.5292377   0.2078138), wk =   0.0277778
        k(   72) = (   0.2500000   0.5292377  -0.3117207), wk =   0.0138889
        k(   73) = (   0.3333333   0.5773503   0.0000000), wk =   0.0023148
        k(   74) = (   0.3333333   0.5773503   0.1039069), wk =   0.0046296
        k(   75) = (   0.3333333   0.5773503   0.2078138), wk =   0.0046296
        k(   76) = (   0.3333333   0.5773503  -0.3117207), wk =   0.0023148

                       cryst. coord.
        k(    1) = (   0.0000000   0.0000000   0.0000000), wk =   0.0011574
        k(    2) = (   0.0000000   0.0000000   0.1666667), wk =   0.0023148
        k(    3) = (   0.0000000   0.0000000   0.3333333), wk =   0.0023148
        k(    4) = (   0.0000000   0.0000000  -0.5000000), wk =   0.0011574
        k(    5) = (   0.0000000   0.0833333   0.0000000), wk =   0.0069444
        k(    6) = (   0.0000000   0.0833333   0.1666667), wk =   0.0138889
        k(    7) = (   0.0000000   0.0833333   0.3333333), wk =   0.0138889
        k(    8) = (   0.0000000   0.0833333  -0.5000000), wk =   0.0069444
        k(    9) = (   0.0000000   0.1666667   0.0000000), wk =   0.0069444
        k(   10) = (   0.0000000   0.1666667   0.1666667), wk =   0.0138889
        k(   11) = (   0.0000000   0.1666667   0.3333333), wk =   0.0138889
        k(   12) = (   0.0000000   0.1666667  -0.5000000), wk =   0.0069444
        k(   13) = (   0.0000000   0.2500000   0.0000000), wk =   0.0069444
        k(   14) = (   0.0000000   0.2500000   0.1666667), wk =   0.0138889
        k(   15) = (   0.0000000   0.2500000   0.3333333), wk =   0.0138889
        k(   16) = (   0.0000000   0.2500000  -0.5000000), wk =   0.0069444
        k(   17) = (   0.0000000   0.3333333   0.0000000), wk =   0.0069444
        k(   18) = (   0.0000000   0.3333333   0.1666667), wk =   0.0138889
        k(   19) = (   0.0000000   0.3333333   0.3333333), wk =   0.0138889
        k(   20) = (   0.0000000   0.3333333  -0.5000000), wk =   0.0069444
        k(   21) = (   0.0000000   0.4166667   0.0000000), wk =   0.0069444
        k(   22) = (   0.0000000   0.4166667   0.1666667), wk =   0.0138889
        k(   23) = (   0.0000000   0.4166667   0.3333333), wk =   0.0138889
        k(   24) = (   0.0000000   0.4166667  -0.5000000), wk =   0.0069444
        k(   25) = (   0.0000000  -0.5000000   0.0000000), wk =   0.0034722
        k(   26) = (   0.0000000  -0.5000000   0.1666667), wk =   0.0069444
        k(   27) = (   0.0000000  -0.5000000   0.3333333), wk =   0.0069444
        k(   28) = (   0.0000000  -0.5000000  -0.5000000), wk =   0.0034722
        k(   29) = (   0.0833333   0.0833333   0.0000000), wk =   0.0069444
        k(   30) = (   0.0833333   0.0833333   0.1666667), wk =   0.0138889
        k(   31) = (   0.0833333   0.0833333   0.3333333), wk =   0.0138889
        k(   32) = (   0.0833333   0.0833333  -0.5000000), wk =   0.0069444
        k(   33) = (   0.0833333   0.1666667   0.0000000), wk =   0.0138889
        k(   34) = (   0.0833333   0.1666667   0.1666667), wk =   0.0277778
        k(   35) = (   0.0833333   0.1666667   0.3333333), wk =   0.0277778
        k(   36) = (   0.0833333   0.1666667  -0.5000000), wk =   0.0138889
        k(   37) = (   0.0833333   0.2500000   0.0000000), wk =   0.0138889
        k(   38) = (   0.0833333   0.2500000   0.1666667), wk =   0.0277778
        k(   39) = (   0.0833333   0.2500000   0.3333333), wk =   0.0277778
        k(   40) = (   0.0833333   0.2500000  -0.5000000), wk =   0.0138889
        k(   41) = (   0.0833333   0.3333333   0.0000000), wk =   0.0138889
        k(   42) = (   0.0833333   0.3333333   0.1666667), wk =   0.0277778
        k(   43) = (   0.0833333   0.3333333   0.3333333), wk =   0.0277778
        k(   44) = (   0.0833333   0.3333333  -0.5000000), wk =   0.0138889
        k(   45) = (   0.0833333   0.4166667   0.0000000), wk =   0.0138889
        k(   46) = (   0.0833333   0.4166667   0.1666667), wk =   0.0277778
        k(   47) = (   0.0833333   0.4166667   0.3333333), wk =   0.0277778
        k(   48) = (   0.0833333   0.4166667  -0.5000000), wk =   0.0138889
        k(   49) = (   0.1666667   0.1666667   0.0000000), wk =   0.0069444
        k(   50) = (   0.1666667   0.1666667   0.1666667), wk =   0.0138889
        k(   51) = (   0.1666667   0.1666667   0.3333333), wk =   0.0138889
        k(   52) = (   0.1666667   0.1666667  -0.5000000), wk =   0.0069444
        k(   53) = (   0.1666667   0.2500000   0.0000000), wk =   0.0138889
        k(   54) = (   0.1666667   0.2500000   0.1666667), wk =   0.0277778
        k(   55) = (   0.1666667   0.2500000   0.3333333), wk =   0.0277778
        k(   56) = (   0.1666667   0.2500000  -0.5000000), wk =   0.0138889
        k(   57) = (   0.1666667   0.3333333   0.0000000), wk =   0.0138889
        k(   58) = (   0.1666667   0.3333333   0.1666667), wk =   0.0277778
        k(   59) = (   0.1666667   0.3333333   0.3333333), wk =   0.0277778
        k(   60) = (   0.1666667   0.3333333  -0.5000000), wk =   0.0138889
        k(   61) = (   0.1666667   0.4166667   0.0000000), wk =   0.0069444
        k(   62) = (   0.1666667   0.4166667   0.1666667), wk =   0.0138889
        k(   63) = (   0.1666667   0.4166667   0.3333333), wk =   0.0138889
        k(   64) = (   0.1666667   0.4166667  -0.5000000), wk =   0.0069444
        k(   65) = (   0.2500000   0.2500000   0.0000000), wk =   0.0069444
        k(   66) = (   0.2500000   0.2500000   0.1666667), wk =   0.0138889
        k(   67) = (   0.2500000   0.2500000   0.3333333), wk =   0.0138889
        k(   68) = (   0.2500000   0.2500000  -0.5000000), wk =   0.0069444
        k(   69) = (   0.2500000   0.3333333   0.0000000), wk =   0.0138889
        k(   70) = (   0.2500000   0.3333333   0.1666667), wk =   0.0277778
        k(   71) = (   0.2500000   0.3333333   0.3333333), wk =   0.0277778
        k(   72) = (   0.2500000   0.3333333  -0.5000000), wk =   0.0138889
        k(   73) = (   0.3333333   0.3333333   0.0000000), wk =   0.0023148
        k(   74) = (   0.3333333   0.3333333   0.1666667), wk =   0.0046296
        k(   75) = (   0.3333333   0.3333333   0.3333333), wk =   0.0046296
        k(   76) = (   0.3333333   0.3333333  -0.5000000), wk =   0.0023148

     Dense  grid:    23583 G-vectors     FFT dimensions: (  32,  32,  54)

     Smooth grid:    22875 G-vectors     FFT dimensions: (  32,  32,  54)

     Dynamical RAM for                 wfc:       0.07 MB

     Dynamical RAM for     wfc (w. buffer):       5.01 MB

     Dynamical RAM for           str. fact:       0.03 MB

     Dynamical RAM for           local pot:       0.00 MB

     Dynamical RAM for          nlocal pot:       0.11 MB

     Dynamical RAM for                qrad:       1.70 MB

     Dynamical RAM for          rho,v,vnew:       0.34 MB

     Dynamical RAM for               rhoin:       0.11 MB

     Dynamical RAM for            rho*nmix:       0.82 MB

     Dynamical RAM for           G-vectors:       0.11 MB

     Dynamical RAM for          h,s,v(r/c):       0.08 MB

     Dynamical RAM for          <psi|beta>:       0.01 MB

     Dynamical RAM for                 psi:       0.13 MB

     Dynamical RAM for                hpsi:       0.13 MB

     Dynamical RAM for                spsi:       0.13 MB

     Dynamical RAM for      wfcinit/wfcrot:       0.14 MB

     Dynamical RAM for           addusdens:       2.45 MB

     Estimated static dynamical RAM per process >       7.65 MB

     Estimated max dynamical RAM per process >      10.93 MB

     Estimated total dynamical RAM >     294.47 MB

     Check: negative core charge=   -0.000042
     Generating pointlists ...
     new r_m :   0.4076 (alat units)  1.9258 (a.u.) for type    1

     The initial density is read from file :
     ./out2/Co.save/charge-density


     starting charge      34.0424, renormalised to      34.0000

     negative rho (up, down):  2.159E+00 1.655E+00
     Starting wfcs from file
     Checking if some PAW data can be deallocated... 

     total cpu time spent up to now is        0.5 secs

     Self-consistent Calculation

     iteration #  1     ecut=   110.00 Ry     beta= 0.70
     Davidson diagonalization with overlap

---- Real-time Memory Report at c_bands before calling an iterative solver
            57 MiB given to the printing process from OS
             0 MiB allocation reported by mallinfo(arena+hblkhd)
        181344 MiB available memory on the node where the printing process lives
------------------
     c_bands:  2 eigenvalues not converged
     c_bands:  1 eigenvalues not converged
     c_bands:  2 eigenvalues not converged
     c_bands:  2 eigenvalues not converged
     c_bands:  1 eigenvalues not converged
     c_bands:  2 eigenvalues not converged
     c_bands:  4 eigenvalues not converged
     c_bands:  4 eigenvalues not converged
     c_bands:  1 eigenvalues not converged
     c_bands:  2 eigenvalues not converged
     c_bands:  4 eigenvalues not converged
     c_bands:  2 eigenvalues not converged
     c_bands:  2 eigenvalues not converged
     c_bands:  1 eigenvalues not converged
     c_bands:  4 eigenvalues not converged
     c_bands:  3 eigenvalues not converged
     c_bands:  4 eigenvalues not converged
     c_bands:  2 eigenvalues not converged
     c_bands:  2 eigenvalues not converged
     c_bands:  3 eigenvalues not converged
     c_bands:  1 eigenvalues not converged
     c_bands:  2 eigenvalues not converged
     c_bands:  3 eigenvalues not converged
     c_bands:  1 eigenvalues not converged
     c_bands:  3 eigenvalues not converged
     c_bands:  5 eigenvalues not converged
     c_bands:  3 eigenvalues not converged
     c_bands:  2 eigenvalues not converged
     c_bands:  4 eigenvalues not converged
     c_bands:  2 eigenvalues not converged
     c_bands:  5 eigenvalues not converged
     c_bands:  4 eigenvalues not converged
     c_bands:  3 eigenvalues not converged
     c_bands:  2 eigenvalues not converged
     c_bands:  4 eigenvalues not converged
     c_bands:  4 eigenvalues not converged
     c_bands:  4 eigenvalues not converged
     c_bands:  3 eigenvalues not converged
     c_bands:  4 eigenvalues not converged
     c_bands:  4 eigenvalues not converged
     c_bands:  3 eigenvalues not converged
     c_bands:  5 eigenvalues not converged
     c_bands:  3 eigenvalues not converged
     c_bands:  4 eigenvalues not converged
     ethr =  1.00E-05,  avg # of iterations = 22.1

     negative rho (up, down):  1.188E-01 6.178E-02

     total cpu time spent up to now is        6.1 secs

     total energy              =    -753.01708446 Ry
     estimated scf accuracy    <       2.39853407 Ry

     total magnetization       =     3.04 Bohr mag/cell
     absolute magnetization    =     3.35 Bohr mag/cell

     iteration #  2     ecut=   110.00 Ry     beta= 0.70
     Davidson diagonalization with overlap

---- Real-time Memory Report at c_bands before calling an iterative solver
            78 MiB given to the printing process from OS
             0 MiB allocation reported by mallinfo(arena+hblkhd)
        181027 MiB available memory on the node where the printing process lives
------------------
     ethr =  7.05E-03,  avg # of iterations =  1.5

     negative rho (up, down):  2.036E-04 3.265E-05

     total cpu time spent up to now is        6.9 secs

     total energy              =    -753.08654753 Ry
     estimated scf accuracy    <       0.51524428 Ry

     total magnetization       =     3.08 Bohr mag/cell
     absolute magnetization    =     3.38 Bohr mag/cell

     iteration #  3     ecut=   110.00 Ry     beta= 0.70
     Davidson diagonalization with overlap

---- Real-time Memory Report at c_bands before calling an iterative solver
            80 MiB given to the printing process from OS
             0 MiB allocation reported by mallinfo(arena+hblkhd)
        181012 MiB available memory on the node where the printing process lives
------------------
     ethr =  1.52E-03,  avg # of iterations =  3.4

     total cpu time spent up to now is        8.0 secs

     total energy              =    -753.34965781 Ry
     estimated scf accuracy    <       0.80726183 Ry

     total magnetization       =     3.17 Bohr mag/cell
     absolute magnetization    =     3.46 Bohr mag/cell

     iteration #  4     ecut=   110.00 Ry     beta= 0.70
     Davidson diagonalization with overlap

---- Real-time Memory Report at c_bands before calling an iterative solver
            80 MiB given to the printing process from OS
             0 MiB allocation reported by mallinfo(arena+hblkhd)
        180997 MiB available memory on the node where the printing process lives
------------------
     ethr =  1.52E-03,  avg # of iterations =  2.1

     total cpu time spent up to now is        8.8 secs

     total energy              =    -753.40796241 Ry
     estimated scf accuracy    <       0.06301952 Ry

     total magnetization       =     3.23 Bohr mag/cell
     absolute magnetization    =     3.57 Bohr mag/cell

     iteration #  5     ecut=   110.00 Ry     beta= 0.70
     Davidson diagonalization with overlap

---- Real-time Memory Report at c_bands before calling an iterative solver
            81 MiB given to the printing process from OS
             0 MiB allocation reported by mallinfo(arena+hblkhd)
        180988 MiB available memory on the node where the printing process lives
------------------
     ethr =  1.85E-04,  avg # of iterations =  5.0

     total cpu time spent up to now is       10.2 secs

     total energy              =    -753.44297840 Ry
     estimated scf accuracy    <       0.06705017 Ry

     total magnetization       =     3.23 Bohr mag/cell
     absolute magnetization    =     3.54 Bohr mag/cell

     iteration #  6     ecut=   110.00 Ry     beta= 0.70
     Davidson diagonalization with overlap

---- Real-time Memory Report at c_bands before calling an iterative solver
            83 MiB given to the printing process from OS
             0 MiB allocation reported by mallinfo(arena+hblkhd)
        180979 MiB available memory on the node where the printing process lives
------------------
     ethr =  1.85E-04,  avg # of iterations =  1.7

     total cpu time spent up to now is       10.9 secs

     total energy              =    -753.45133039 Ry
     estimated scf accuracy    <       0.00292350 Ry

     total magnetization       =     3.30 Bohr mag/cell
     absolute magnetization    =     3.61 Bohr mag/cell

     iteration #  7     ecut=   110.00 Ry     beta= 0.70
     Davidson diagonalization with overlap

---- Real-time Memory Report at c_bands before calling an iterative solver
            84 MiB given to the printing process from OS
             0 MiB allocation reported by mallinfo(arena+hblkhd)
        180974 MiB available memory on the node where the printing process lives
------------------
     ethr =  8.60E-06,  avg # of iterations =  7.6

     total cpu time spent up to now is       12.5 secs

     total energy              =    -753.45474422 Ry
     estimated scf accuracy    <       0.00048329 Ry

     total magnetization       =     3.30 Bohr mag/cell
     absolute magnetization    =     3.62 Bohr mag/cell

     iteration #  8     ecut=   110.00 Ry     beta= 0.70
     Davidson diagonalization with overlap

---- Real-time Memory Report at c_bands before calling an iterative solver
            85 MiB given to the printing process from OS
             0 MiB allocation reported by mallinfo(arena+hblkhd)
        180969 MiB available memory on the node where the printing process lives
------------------
     ethr =  1.42E-06,  avg # of iterations =  6.8

     total cpu time spent up to now is       14.1 secs

     total energy              =    -753.45584503 Ry
     estimated scf accuracy    <       0.00292636 Ry

     total magnetization       =     3.30 Bohr mag/cell
     absolute magnetization    =     3.61 Bohr mag/cell

     iteration #  9     ecut=   110.00 Ry     beta= 0.70
     Davidson diagonalization with overlap

---- Real-time Memory Report at c_bands before calling an iterative solver
            85 MiB given to the printing process from OS
             0 MiB allocation reported by mallinfo(arena+hblkhd)
        180965 MiB available memory on the node where the printing process lives
------------------
     ethr =  1.42E-06,  avg # of iterations =  1.6

     total cpu time spent up to now is       14.8 secs

     total energy              =    -753.45521426 Ry
     estimated scf accuracy    <       0.00355016 Ry

     total magnetization       =     3.30 Bohr mag/cell
     absolute magnetization    =     3.62 Bohr mag/cell

     iteration # 10     ecut=   110.00 Ry     beta= 0.70
     Davidson diagonalization with overlap

---- Real-time Memory Report at c_bands before calling an iterative solver
            86 MiB given to the printing process from OS
             0 MiB allocation reported by mallinfo(arena+hblkhd)
        180960 MiB available memory on the node where the printing process lives
------------------
     ethr =  1.42E-06,  avg # of iterations =  2.3

     total cpu time spent up to now is       15.7 secs

     total energy              =    -753.45530326 Ry
     estimated scf accuracy    <       0.00127399 Ry

     total magnetization       =     3.31 Bohr mag/cell
     absolute magnetization    =     3.63 Bohr mag/cell

     iteration # 11     ecut=   110.00 Ry     beta= 0.70
     Davidson diagonalization with overlap

---- Real-time Memory Report at c_bands before calling an iterative solver
            86 MiB given to the printing process from OS
             0 MiB allocation reported by mallinfo(arena+hblkhd)
        180960 MiB available memory on the node where the printing process lives
------------------
     ethr =  1.42E-06,  avg # of iterations =  1.2

     total cpu time spent up to now is       16.4 secs

     total energy              =    -753.45522026 Ry
     estimated scf accuracy    <       0.00099498 Ry

     total magnetization       =     3.31 Bohr mag/cell
     absolute magnetization    =     3.63 Bohr mag/cell

     iteration # 12     ecut=   110.00 Ry     beta= 0.70
     Davidson diagonalization with overlap

---- Real-time Memory Report at c_bands before calling an iterative solver
            86 MiB given to the printing process from OS
             0 MiB allocation reported by mallinfo(arena+hblkhd)
        180987 MiB available memory on the node where the printing process lives
------------------
     ethr =  1.42E-06,  avg # of iterations =  1.5

     total cpu time spent up to now is       17.2 secs

     total energy              =    -753.45515591 Ry
     estimated scf accuracy    <       0.00056651 Ry

     total magnetization       =     3.31 Bohr mag/cell
     absolute magnetization    =     3.63 Bohr mag/cell

     iteration # 13     ecut=   110.00 Ry     beta= 0.70
     Davidson diagonalization with overlap

---- Real-time Memory Report at c_bands before calling an iterative solver
            86 MiB given to the printing process from OS
             0 MiB allocation reported by mallinfo(arena+hblkhd)
        180994 MiB available memory on the node where the printing process lives
------------------
     ethr =  1.42E-06,  avg # of iterations =  1.8

     total cpu time spent up to now is       18.0 secs

     total energy              =    -753.45519357 Ry
     estimated scf accuracy    <       0.00022743 Ry

     total magnetization       =     3.31 Bohr mag/cell
     absolute magnetization    =     3.63 Bohr mag/cell

     iteration # 14     ecut=   110.00 Ry     beta= 0.70
     Davidson diagonalization with overlap

---- Real-time Memory Report at c_bands before calling an iterative solver
            86 MiB given to the printing process from OS
             0 MiB allocation reported by mallinfo(arena+hblkhd)
        180993 MiB available memory on the node where the printing process lives
------------------
     ethr =  6.69E-07,  avg # of iterations =  1.2

     total cpu time spent up to now is       18.7 secs

     total energy              =    -753.45514263 Ry
     estimated scf accuracy    <       0.00027209 Ry

     total magnetization       =     3.31 Bohr mag/cell
     absolute magnetization    =     3.63 Bohr mag/cell

     iteration # 15     ecut=   110.00 Ry     beta= 0.70
     Davidson diagonalization with overlap

---- Real-time Memory Report at c_bands before calling an iterative solver
            86 MiB given to the printing process from OS
             0 MiB allocation reported by mallinfo(arena+hblkhd)
        180992 MiB available memory on the node where the printing process lives
------------------
     ethr =  6.69E-07,  avg # of iterations =  1.7

     total cpu time spent up to now is       19.5 secs

     total energy              =    -753.45513093 Ry
     estimated scf accuracy    <       0.00007966 Ry

     total magnetization       =     3.31 Bohr mag/cell
     absolute magnetization    =     3.63 Bohr mag/cell

     iteration # 16     ecut=   110.00 Ry     beta= 0.70
     Davidson diagonalization with overlap

---- Real-time Memory Report at c_bands before calling an iterative solver
            86 MiB given to the printing process from OS
             0 MiB allocation reported by mallinfo(arena+hblkhd)
        180992 MiB available memory on the node where the printing process lives
------------------
     ethr =  2.34E-07,  avg # of iterations =  4.5
 
     Magnetic moment per site  (integrated on atomic sphere of radius R)
     atom   1 (R=0.408)  charge= 15.5711  magn=  1.7281
     atom   2 (R=0.408)  charge= 15.5711  magn=  1.7281

     total cpu time spent up to now is       20.6 secs

     End of self-consistent calculation

 ------ SPIN UP ------------


          k = 0.0000 0.0000 0.0000 (  2839 PWs)   bands (ev):

   -77.4424 -77.3840 -40.8435 -40.5589 -40.5589 -40.5093 -40.5090 -40.5090
     9.6817  13.4933  16.0552  16.0552  16.0698  16.3784  16.3784  16.6921
    16.6921  17.8316  17.8316  18.5320  25.0917

     occupation numbers 
     1.0000   1.0000   1.0000   1.0000   1.0000   1.0000   1.0000   1.0000
     1.0000   1.0000   1.0000   1.0000   1.0000   1.0000   1.0000   1.0000
     1.0000   1.0000   1.0000   1.0000   0.0000

          k = 0.0000 0.0000 0.1039 (  2833 PWs)   bands (ev):

   -77.4385 -77.3879 -40.8214 -40.5555 -40.5555 -40.5320 -40.5123 -40.5123
     9.9623  13.4291  15.9833  15.9833  15.9961  16.3002  16.3002  16.8657
    16.8657  17.5535  17.8169  17.8169  26.6374

     occupation numbers 
     1.0000   1.0000   1.0000   1.0000   1.0000   1.0000   1.0000   1.0000
     1.0000   1.0000   1.0000   1.0000   1.0000   1.0000   1.0000   1.0000
     1.0000   1.0000   1.0000   1.0000   0.0000

          k = 0.0000 0.0000 0.2078 (  2839 PWs)   bands (ev):

   -77.4279 -77.3987 -40.7609 -40.5938 -40.5464 -40.5464 -40.5215 -40.5215
    10.7666  13.0032  15.8249  15.9232  15.9232  16.1286  16.1286  16.2016
    17.2016  17.2016  17.7298  17.7299  29.8921

     occupation numbers 
     1.0000   1.0000   1.0000   1.0000   1.0000   1.0000   1.0000   1.0000
     1.0000   1.0000   1.0000   1.0000   1.0000   1.0000   1.0000   1.0000
     1.0000   1.0000   1.0000   1.0000   0.0000

          k = 0.0000 0.0000-0.3117 (  2858 PWs)   bands (ev):

   -77.4133 -77.4133 -40.6776 -40.6776 -40.5340 -40.5340 -40.5340 -40.5340
    11.9368  11.9368  15.7397  15.7397  15.9769  15.9769  15.9769  15.9769
    17.5190  17.5190  17.5190  17.5190  33.7667

     occupation numbers 
     1.0000   1.0000   1.0000   1.0000   1.0000   1.0000   1.0000   1.0000
     1.0000   1.0000   1.0000   1.0000   1.0000   1.0000   1.0000   1.0000
     1.0000   1.0000   1.0000   1.0000   0.0000

          k = 0.0000 0.0962 0.0000 (  2841 PWs)   bands (ev):

   -77.4393 -77.3827 -40.8364 -40.5739 -40.5639 -40.5247 -40.5125 -40.5115
     9.9219  13.6355  15.8254  16.1680  16.2590  16.3352  16.4776  16.5442
    16.6208  17.0525  17.8629  19.6261  25.1315

     occupation numbers 
     1.0000   1.0000   1.0000   1.0000   1.0000   1.0000   1.0000   1.0000
     1.0000   1.0000   1.0000   1.0000   1.0000   1.0000   1.0000   1.0000
     1.0000   1.0000   1.0000   0.0000   0.0000

          k = 0.0000 0.0962 0.1039 (  2844 PWs)   bands (ev):

   -77.4355 -77.3865 -40.8156 -40.5701 -40.5604 -40.5439 -40.5185 -40.5150
    10.1982  13.5861  15.8200  16.0749  16.0778  16.1491  16.3930  16.7166
    16.8233  16.9321  17.8405  18.8238  26.7454

     occupation numbers 
     1.0000   1.0000   1.0000   1.0000   1.0000   1.0000   1.0000   1.0000
     1.0000   1.0000   1.0000   1.0000   1.0000   1.0000   1.0000   1.0000
     1.0000   1.0000   1.0000   0.0000   0.0000

          k = 0.0000 0.0962 0.2078 (  2842 PWs)   bands (ev):

   -77.4252 -77.3969 -40.7585 -40.6014 -40.5593 -40.5508 -40.5299 -40.5246
    10.9898  13.1895  15.7189  15.7921  15.8566  16.0112  16.2206  16.3174
    17.1771  17.2254  17.7365  18.0337  30.0433

     occupation numbers 
     1.0000   1.0000   1.0000   1.0000   1.0000   1.0000   1.0000   1.0000
     1.0000   1.0000   1.0000   1.0000   1.0000   1.0000   1.0000   1.0000
     1.0000   1.0000   1.0000   1.0000   0.0000

          k = 0.0000 0.0962-0.3117 (  2842 PWs)   bands (ev):

   -77.4110 -77.4110 -40.6802 -40.6802 -40.5447 -40.5447 -40.5377 -40.5377
    12.1414  12.1414  15.5771  15.5771  16.0068  16.0068  16.0669  16.0669
    17.5084  17.5084  17.6127  17.6127  33.9311

     occupation numbers 
     1.0000   1.0000   1.0000   1.0000   1.0000   1.0000   1.0000   1.0000
     1.0000   1.0000   1.0000   1.0000   1.0000   1.0000   1.0000   1.0000
     1.0000   1.0000   1.0000   1.0000   0.0000

          k = 0.0000 0.1925 0.0000 (  2841 PWs)   bands (ev):

   -77.4307 -77.3792 -40.8161 -40.6153 -40.5773 -40.5672 -40.5219 -40.5184
    10.6169  13.9871  15.5439  15.8471  16.1679  16.4447  16.4865  16.5645
    16.6721  16.7557  17.9299  21.2138  25.2708

     occupation numbers 
     1.0000   1.0000   1.0000   1.0000   1.0000   1.0000   1.0000   1.0000
     1.0000   1.0000   1.0000   1.0000   1.0000   1.0000   1.0000   1.0000
     1.0000   1.0000   1.0000   0.0000   0.0000

          k = 0.0000 0.1925 0.1039 (  2838 PWs)   bands (ev):

   -77.4272 -77.3826 -40.7995 -40.6095 -40.5832 -40.5734 -40.5285 -40.5224
    10.8770  13.9830  15.5644  15.5894  16.0498  16.2767  16.4424  16.6340
    16.8116  16.9228  17.8905  20.0607  27.0957

     occupation numbers 
     1.0000   1.0000   1.0000   1.0000   1.0000   1.0000   1.0000   1.0000
     1.0000   1.0000   1.0000   1.0000   1.0000   1.0000   1.0000   1.0000
     1.0000   1.0000   1.0000   0.0000   0.0000

          k = 0.0000 0.1925 0.2078 (  2841 PWs)   bands (ev):

   -77.4178 -77.3921 -40.7542 -40.6300 -40.5915 -40.5626 -40.5459 -40.5332
    11.6192  13.6731  15.2188  15.6346  15.7699  16.2253  16.2568  16.4763
    17.1526  17.3227  17.7505  18.6867  30.4942

     occupation numbers 
     1.0000   1.0000   1.0000   1.0000   1.0000   1.0000   1.0000   1.0000
     1.0000   1.0000   1.0000   1.0000   1.0000   1.0000   1.0000   1.0000
     1.0000   1.0000   1.0000   0.0000   0.0000

          k = 0.0000 0.1925-0.3117 (  2848 PWs)   bands (ev):

   -77.4050 -77.4050 -40.6920 -40.6920 -40.5690 -40.5690 -40.5479 -40.5479
    12.6922  12.6922  15.3356  15.3356  15.9588  15.9588  16.3070  16.3070
    17.4933  17.4933  17.8643  17.8643  34.3689

     occupation numbers 
     1.0000   1.0000   1.0000   1.0000   1.0000   1.0000   1.0000   1.0000
     1.0000   1.0000   1.0000   1.0000   1.0000   1.0000   1.0000   1.0000
     1.0000   1.0000   1.0000   1.0000   0.0000

          k = 0.0000 0.2887 0.0000 (  2852 PWs)   bands (ev):

   -77.4183 -77.3749 -40.7856 -40.6722 -40.6243 -40.5951 -40.5375 -40.5284
    11.6702  14.2725  15.1258  15.3657  16.0808  16.2331  16.4781  16.9482
    16.9863  17.1557  17.9943  23.0038  25.5357

     occupation numbers 
     1.0000   1.0000   1.0000   1.0000   1.0000   1.0000   1.0000   1.0000
     1.0000   1.0000   1.0000   1.0000   1.0000   1.0000   1.0000   1.0000
     1.0000   1.0000   1.0000   0.0000   0.0000

          k = 0.0000 0.2887 0.1039 (  2847 PWs)   bands (ev):

   -77.4155 -77.3778 -40.7788 -40.6613 -40.6380 -40.5907 -40.5416 -40.5329
    11.8876  14.3227  14.9779  15.4172  15.9251  16.2705  16.4845  16.9960
    17.1045  17.1077  17.9386  21.3450  27.7170

     occupation numbers 
     1.0000   1.0000   1.0000   1.0000   1.0000   1.0000   1.0000   1.0000
     1.0000   1.0000   1.0000   1.0000   1.0000   1.0000   1.0000   1.0000
     1.0000   1.0000   1.0000   0.0000   0.0000

          k = 0.0000 0.2887 0.2078 (  2855 PWs)   bands (ev):

   -77.4075 -77.3858 -40.7573 -40.6797 -40.6251 -40.5785 -40.5581 -40.5451
    12.4930  14.1063  14.8797  15.4642  15.7786  16.3211  16.3920  16.8390
    17.2691  17.4896  17.7757  19.4665  31.0693

     occupation numbers 
     1.0000   1.0000   1.0000   1.0000   1.0000   1.0000   1.0000   1.0000
     1.0000   1.0000   1.0000   1.0000   1.0000   1.0000   1.0000   1.0000
     1.0000   1.0000   1.0000   0.0000   0.0000

          k = 0.0000 0.2887-0.3117 (  2862 PWs)   bands (ev):

   -77.3967 -77.3967 -40.7218 -40.7218 -40.5884 -40.5884 -40.5618 -40.5618
    13.3303  13.3303  15.1825  15.1825  16.0134  16.0134  16.5962  16.5962
    17.5326  17.5326  18.2145  18.2145  32.9779

     occupation numbers 
     1.0000   1.0000   1.0000   1.0000   1.0000   1.0000   1.0000   1.0000
     1.0000   1.0000   1.0000   1.0000   1.0000   1.0000   1.0000   1.0000
     1.0000   1.0000   1.0000   1.0000   0.0000

          k = 0.0000 0.3849 0.0000 (  2846 PWs)   bands (ev):

   -77.4051 -77.3716 -40.7498 -40.7297 -40.6802 -40.6125 -40.5584 -40.5388
    12.8277  14.2122  14.5996  15.4612  16.0426  16.2021  16.3089  17.4399
    17.5901  17.6562  18.0392  24.9529  25.5339

     occupation numbers 
     1.0000   1.0000   1.0000   1.0000   1.0000   1.0000   1.0000   1.0000
     1.0000   1.0000   1.0000   1.0000   1.0000   1.0000   1.0000   1.0000
     1.0000   1.0000   1.0000   0.0000   0.0000

          k = 0.0000 0.3849 0.1039 (  2852 PWs)   bands (ev):

   -77.4029 -77.3738 -40.7713 -40.7044 -40.6839 -40.6076 -40.5585 -40.5437
    12.9322  14.2534  14.6265  15.3365  16.1060  16.1360  16.6462  17.4646
    17.4950  17.5930  17.9803  22.5805  27.5838

     occupation numbers 
     1.0000   1.0000   1.0000   1.0000   1.0000   1.0000   1.0000   1.0000
     1.0000   1.0000   1.0000   1.0000   1.0000   1.0000   1.0000   1.0000
     1.0000   1.0000   1.0000   0.0000   0.0000

          k = 0.0000 0.3849 0.2078 (  2852 PWs)   bands (ev):

   -77.3967 -77.3800 -40.7789 -40.7329 -40.6386 -40.5942 -40.5678 -40.5573
    13.2228  14.0830  14.7595  15.2800  16.1843  16.3995  16.9281  17.1836
    17.5714  17.7174  17.8509  20.3523  28.6382

     occupation numbers 
     1.0000   1.0000   1.0000   1.0000   1.0000   1.0000   1.0000   1.0000
     1.0000   1.0000   1.0000   1.0000   1.0000   1.0000   1.0000   1.0000
     1.0000   1.0000   1.0000   0.0000   0.0000

          k = 0.0000 0.3849-0.3117 (  2860 PWs)   bands (ev):

   -77.3883 -77.3883 -40.7639 -40.7639 -40.5952 -40.5952 -40.5757 -40.5757
    13.6425  13.6425  15.0646  15.0646  16.5960  16.5960  16.7803  16.7803
    17.7050  17.7050  18.6943  18.6943  29.7738

     occupation numbers 
     1.0000   1.0000   1.0000   1.0000   1.0000   1.0000   1.0000   1.0000
     1.0000   1.0000   1.0000   1.0000   1.0000   1.0000   1.0000   1.0000
     1.0000   1.0000   0.0000   0.0000   0.0000

          k = 0.0000 0.4811 0.0000 (  2862 PWs)   bands (ev):

   -77.3942 -77.3703 -40.7721 -40.7206 -40.7166 -40.6250 -40.5807 -40.5466
    13.6052  14.0278  14.2841  15.8084  15.9126  16.1899  16.4009  17.8067
    17.9509  18.0636  18.7454  23.6000  26.9621

     occupation numbers 
     1.0000   1.0000   1.0000   1.0000   1.0000   1.0000   1.0000   1.0000
     1.0000   1.0000   1.0000   1.0000   1.0000   1.0000   1.0000   1.0000
     1.0000   1.0000   0.0000   0.0000   0.0000

          k = 0.0000 0.4811 0.1039 (  2863 PWs)   bands (ev):

   -77.3926 -77.3719 -40.7915 -40.7388 -40.6831 -40.6198 -40.5764 -40.5519
    13.5025  14.0319  14.5934  15.2376  16.0274  16.3895  16.9875  17.7652
    17.8510  18.0390  18.5852  22.8531  26.2013

     occupation numbers 
     1.0000   1.0000   1.0000   1.0000   1.0000   1.0000   1.0000   1.0000
     1.0000   1.0000   1.0000   1.0000   1.0000   1.0000   1.0000   1.0000
     1.0000   1.0000   1.0000   0.0000   0.0000

          k = 0.0000 0.4811 0.2078 (  2852 PWs)   bands (ev):

   -77.3882 -77.3763 -40.8065 -40.7722 -40.6343 -40.6055 -40.5766 -40.5663
    13.4779  13.9642  14.7489  15.0931  16.3536  16.6146  17.3593  17.8772
    17.9499  17.9930  18.2609  21.1551  26.3034

     occupation numbers 
     1.0000   1.0000   1.0000   1.0000   1.0000   1.0000   1.0000   1.0000
     1.0000   1.0000   1.0000   1.0000   1.0000   1.0000   1.0000   1.0000
     1.0000   1.0000   1.0000   0.0000   0.0000

          k = 0.0000 0.4811-0.3117 (  2862 PWs)   bands (ev):

   -77.3822 -77.3822 -40.7991 -40.7991 -40.5957 -40.5957 -40.5859 -40.5859
    13.6679  13.6679  14.9477  14.9477  16.8328  16.8328  17.3207  17.3207
    17.9345  17.9345  19.5006  19.5006  27.0875

     occupation numbers 
     1.0000   1.0000   1.0000   1.0000   1.0000   1.0000   1.0000   1.0000
     1.0000   1.0000   1.0000   1.0000   1.0000   1.0000   1.0000   1.0000
     1.0000   1.0000   0.0000   0.0000   0.0000

          k = 0.0000-0.5774 0.0000 (  2862 PWs)   bands (ev):

   -77.3896 -77.3704 -40.7877 -40.7353 -40.7010 -40.6296 -40.5923 -40.5495
    13.8795  13.8809  14.1793  15.8666  16.0500  16.1471  16.4781  17.9391
    18.0712  18.0971  19.8826  21.8769  28.2617

     occupation numbers 
     1.0000   1.0000   1.0000   1.0000   1.0000   1.0000   1.0000   1.0000
     1.0000   1.0000   1.0000   1.0000   1.0000   1.0000   1.0000   1.0000
     1.0000   1.0000   0.0000   0.0000   0.0000

          k = 0.0000-0.5774 0.1039 (  2850 PWs)   bands (ev):

   -77.3883 -77.3717 -40.8034 -40.7527 -40.6744 -40.6242 -40.5856 -40.5549
    13.6106  13.9344  14.6310  15.2109  15.9876  16.4792  17.1823  17.8386
    18.0014  18.0890  19.6764  21.7061  27.3589

     occupation numbers 
     1.0000   1.0000   1.0000   1.0000   1.0000   1.0000   1.0000   1.0000
     1.0000   1.0000   1.0000   1.0000   1.0000   1.0000   1.0000   1.0000
     1.0000   1.0000   0.0000   0.0000   0.0000

          k = 0.0000-0.5774 0.2078 (  2862 PWs)   bands (ev):

   -77.3848 -77.3752 -40.8183 -40.7865 -40.6298 -40.6096 -40.5811 -40.5696
    13.5010  13.9181  14.7723  15.0086  16.3317  16.7606  17.3990  18.0075
    18.0650  18.0668  19.3511  21.1232  26.2485

     occupation numbers 
     1.0000   1.0000   1.0000   1.0000   1.0000   1.0000   1.0000   1.0000
     1.0000   1.0000   1.0000   1.0000   1.0000   1.0000   1.0000   1.0000
     1.0000   1.0000   0.0000   0.0000   0.0000

          k = 0.0000-0.5774-0.3117 (  2864 PWs)   bands (ev):

   -77.3800 -77.3800 -40.8125 -40.8125 -40.5953 -40.5953 -40.5896 -40.5896
    13.6514  13.6514  14.9011  14.9011  16.8390  16.8390  17.5679  17.5679
    18.0365  18.0365  20.1319  20.1319  25.8481

     occupation numbers 
     1.0000   1.0000   1.0000   1.0000   1.0000   1.0000   1.0000   1.0000
     1.0000   1.0000   1.0000   1.0000   1.0000   1.0000   1.0000   1.0000
     1.0000   1.0000   0.0000   0.0000   0.0000

          k = 0.0833 0.1443 0.0000 (  2842 PWs)   bands (ev):

   -77.4334 -77.3803 -40.8227 -40.5995 -40.5790 -40.5485 -40.5187 -40.5181
    10.3903  13.8879  15.6045  16.0908  16.2306  16.3983  16.4194  16.4218
    16.6976  16.7866  17.9027  20.7685  25.2230

     occupation numbers 
     1.0000   1.0000   1.0000   1.0000   1.0000   1.0000   1.0000   1.0000
     1.0000   1.0000   1.0000   1.0000   1.0000   1.0000   1.0000   1.0000
     1.0000   1.0000   1.0000   0.0000   0.0000

          k = 0.0833 0.1443 0.1039 (  2841 PWs)   bands (ev):

   -77.4299 -77.3838 -40.8046 -40.5943 -40.5794 -40.5622 -40.5247 -40.5219
    10.6566  13.8692  15.6279  15.7561  16.0918  16.2445  16.4142  16.5523
    16.8469  16.8947  17.8715  19.7252  26.9766

     occupation numbers 
     1.0000   1.0000   1.0000   1.0000   1.0000   1.0000   1.0000   1.0000
     1.0000   1.0000   1.0000   1.0000   1.0000   1.0000   1.0000   1.0000
     1.0000   1.0000   1.0000   0.0000   0.0000

          k = 0.0833 0.1443 0.2078 (  2835 PWs)   bands (ev):

   -77.4202 -77.3936 -40.7551 -40.6197 -40.5803 -40.5618 -40.5390 -40.5321
    11.4179  13.5308  15.3439  15.6822  15.7823  16.1667  16.2673  16.3960
    17.1824  17.2646  17.7503  18.4974  30.3474

     occupation numbers 
     1.0000   1.0000   1.0000   1.0000   1.0000   1.0000   1.0000   1.0000
     1.0000   1.0000   1.0000   1.0000   1.0000   1.0000   1.0000   1.0000
     1.0000   1.0000   1.0000   1.0000   0.0000

          k = 0.0833 0.1443-0.3117 (  2854 PWs)   bands (ev):

   -77.4069 -77.4069 -40.6872 -40.6872 -40.5620 -40.5620 -40.5450 -40.5450
    12.5226  12.5226  15.3956  15.3956  15.9581  15.9582  16.2443  16.2443
    17.4990  17.4990  17.7856  17.7856  34.2459

     occupation numbers 
     1.0000   1.0000   1.0000   1.0000   1.0000   1.0000   1.0000   1.0000
     1.0000   1.0000   1.0000   1.0000   1.0000   1.0000   1.0000   1.0000
     1.0000   1.0000   1.0000   1.0000   0.0000

          k = 0.0833 0.2406 0.0000 (  2844 PWs)   bands (ev):

   -77.4229 -77.3764 -40.7972 -40.6449 -40.6156 -40.5780 -40.5313 -40.5296
    11.2725  14.2484  15.3270  15.3915  16.1163  16.2006  16.6328  16.6710
    16.8182  17.1085  17.9526  22.3578  25.4473

     occupation numbers 
     1.0000   1.0000   1.0000   1.0000   1.0000   1.0000   1.0000   1.0000
     1.0000   1.0000   1.0000   1.0000   1.0000   1.0000   1.0000   1.0000
     1.0000   1.0000   1.0000   0.0000   0.0000

          k = 0.0833 0.2406 0.1039 (  2847 PWs)   bands (ev):

   -77.4198 -77.3795 -40.7857 -40.6371 -40.6229 -40.5825 -40.5363 -40.5325
    11.5114  14.2891  15.1771  15.3759  15.9887  16.2458  16.4375  16.7702
    17.0207  17.0961  17.9146  20.9028  27.4856

     occupation numbers 
     1.0000   1.0000   1.0000   1.0000   1.0000   1.0000   1.0000   1.0000
     1.0000   1.0000   1.0000   1.0000   1.0000   1.0000   1.0000   1.0000
     1.0000   1.0000   1.0000   0.0000   0.0000

          k = 0.0833 0.2406 0.2078 (  2848 PWs)   bands (ev):

   -77.4113 -77.3881 -40.7536 -40.6595 -40.6114 -40.5792 -40.5503 -40.5436
    12.1861  14.0461  14.9627  15.4798  15.7290  16.1521  16.3721  16.7102
    17.2712  17.3980  17.7910  19.1956  30.9359

     occupation numbers 
     1.0000   1.0000   1.0000   1.0000   1.0000   1.0000   1.0000   1.0000
     1.0000   1.0000   1.0000   1.0000   1.0000   1.0000   1.0000   1.0000
     1.0000   1.0000   1.0000   0.0000   0.0000

          k = 0.0833 0.2406-0.3117 (  2858 PWs)   bands (ev):

   -77.3997 -77.3997 -40.7077 -40.7077 -40.5840 -40.5840 -40.5573 -40.5573
    13.1460  13.1460  15.2337  15.2338  15.8577  15.8577  16.5203  16.5203
    17.5415  17.5415  18.0889  18.0889  34.4676

     occupation numbers 
     1.0000   1.0000   1.0000   1.0000   1.0000   1.0000   1.0000   1.0000
     1.0000   1.0000   1.0000   1.0000   1.0000   1.0000   1.0000   1.0000
     1.0000   1.0000   1.0000   1.0000   0.0000

          k = 0.0833 0.3368 0.0000 (  2851 PWs)   bands (ev):

   -77.4101 -77.3726 -40.7638 -40.7008 -40.6623 -40.6046 -40.5499 -40.5420
    12.4131  14.3726  14.8151  15.2430  16.0140  16.1316  16.4435  17.0645
    17.3165  17.6660  17.9951  24.1894  25.7712

     occupation numbers 
     1.0000   1.0000   1.0000   1.0000   1.0000   1.0000   1.0000   1.0000
     1.0000   1.0000   1.0000   1.0000   1.0000   1.0000   1.0000   1.0000
     1.0000   1.0000   1.0000   0.0000   0.0000

          k = 0.0833 0.3368 0.1039 (  2852 PWs)   bands (ev):

   -77.4076 -77.3751 -40.7685 -40.6869 -40.6671 -40.6041 -40.5528 -40.5440
    12.5816  14.4463  14.7165  15.2952  15.9028  16.2423  16.4266  17.0813
    17.4113  17.5373  17.9944  22.1673  28.1718

     occupation numbers 
     1.0000   1.0000   1.0000   1.0000   1.0000   1.0000   1.0000   1.0000
     1.0000   1.0000   1.0000   1.0000   1.0000   1.0000   1.0000   1.0000
     1.0000   1.0000   1.0000   0.0000   0.0000

          k = 0.0833 0.3368 0.2078 (  2851 PWs)   bands (ev):

   -77.4008 -77.3820 -40.7649 -40.7102 -40.6343 -40.5962 -40.5653 -40.5528
    13.0374  14.2248  14.8085  15.3880  15.8045  16.2783  16.4568  17.0429
    17.4998  17.6624  17.9517  20.0534  30.2745

     occupation numbers 
     1.0000   1.0000   1.0000   1.0000   1.0000   1.0000   1.0000   1.0000
     1.0000   1.0000   1.0000   1.0000   1.0000   1.0000   1.0000   1.0000
     1.0000   1.0000   1.0000   0.0000   0.0000

          k = 0.0833 0.3368-0.3117 (  2858 PWs)   bands (ev):

   -77.3914 -77.3914 -40.7435 -40.7435 -40.5989 -40.5989 -40.5695 -40.5695
    13.6445  13.6445  15.1610  15.1610  16.0191  16.0191  16.7211  16.7211
    17.7301  17.7301  18.5475  18.5475  31.4749

     occupation numbers 
     1.0000   1.0000   1.0000   1.0000   1.0000   1.0000   1.0000   1.0000
     1.0000   1.0000   1.0000   1.0000   1.0000   1.0000   1.0000   1.0000
     1.0000   1.0000   1.0000   1.0000   0.0000

          k = 0.0833 0.4330 0.0000 (  2856 PWs)   bands (ev):

   -77.3978 -77.3705 -40.7504 -40.7283 -40.7037 -40.6251 -40.5725 -40.5527
    13.4293  14.2049  14.4236  15.4592  15.8912  16.2584  16.3208  17.5566
    17.7434  18.0221  18.4532  24.9557  26.1767

     occupation numbers 
     1.0000   1.0000   1.0000   1.0000   1.0000   1.0000   1.0000   1.0000
     1.0000   1.0000   1.0000   1.0000   1.0000   1.0000   1.0000   1.0000
     1.0000   1.0000   1.0000   0.0000   0.0000

          k = 0.0833 0.4330 0.1039 (  2856 PWs)   bands (ev):

   -77.3960 -77.3723 -40.7760 -40.7238 -40.6851 -40.6213 -40.5714 -40.5550
    13.4291  14.2379  14.5670  15.2426  15.9709  16.3148  16.5998  17.5037
    17.8070  17.8317  18.4579  23.2166  26.6823

     occupation numbers 
     1.0000   1.0000   1.0000   1.0000   1.0000   1.0000   1.0000   1.0000
     1.0000   1.0000   1.0000   1.0000   1.0000   1.0000   1.0000   1.0000
     1.0000   1.0000   1.0000   0.0000   0.0000

          k = 0.0833 0.4330 0.2078 (  2856 PWs)   bands (ev):

   -77.3910 -77.3773 -40.7901 -40.7542 -40.6402 -40.6072 -40.5802 -40.5605
    13.5228  14.1146  14.7497  15.2408  16.0791  16.5047  16.9656  17.2440
    17.6846  17.9791  18.5244  21.0577  27.3837

     occupation numbers 
     1.0000   1.0000   1.0000   1.0000   1.0000   1.0000   1.0000   1.0000
     1.0000   1.0000   1.0000   1.0000   1.0000   1.0000   1.0000   1.0000
     1.0000   1.0000   1.0000   0.0000   0.0000

          k = 0.0833 0.4330-0.3117 (  2846 PWs)   bands (ev):

   -77.3842 -77.3842 -40.7812 -40.7812 -40.6082 -40.6082 -40.5768 -40.5768
    13.7762  13.7762  15.0527  15.0527  16.5205  16.5205  16.9069  16.9069
    17.9306  17.9306  19.3730  19.3730  28.4397

     occupation numbers 
     1.0000   1.0000   1.0000   1.0000   1.0000   1.0000   1.0000   1.0000
     1.0000   1.0000   1.0000   1.0000   1.0000   1.0000   1.0000   1.0000
     1.0000   1.0000   0.0000   0.0000   0.0000

          k = 0.0833 0.5292 0.0000 (  2852 PWs)   bands (ev):

   -77.3896 -77.3704 -40.7793 -40.7277 -40.7012 -40.6363 -40.5921 -40.5589
    13.8962  14.0427  14.2275  15.8129  15.8396  16.1377  16.4746  17.9073
    17.9778  18.0342  19.7100  22.6336  28.0703

     occupation numbers 
     1.0000   1.0000   1.0000   1.0000   1.0000   1.0000   1.0000   1.0000
     1.0000   1.0000   1.0000   1.0000   1.0000   1.0000   1.0000   1.0000
     1.0000   1.0000   0.0000   0.0000   0.0000

          k = 0.0833 0.5292 0.1039 (  2863 PWs)   bands (ev):

   -77.3883 -77.3717 -40.7951 -40.7456 -40.6765 -40.6290 -40.5875 -40.5616
    13.6882  14.0639  14.6564  15.1899  15.8955  16.5143  16.8468  17.7906
    17.9477  18.0130  19.6440  22.3849  26.7615

     occupation numbers 
     1.0000   1.0000   1.0000   1.0000   1.0000   1.0000   1.0000   1.0000
     1.0000   1.0000   1.0000   1.0000   1.0000   1.0000   1.0000   1.0000
     1.0000   1.0000   0.0000   0.0000   0.0000

          k = 0.0833 0.5292 0.2078 (  2852 PWs)   bands (ev):

   -77.3848 -77.3752 -40.8101 -40.7791 -40.6409 -40.6070 -40.5922 -40.5658
    13.6029  14.0434  14.7787  15.1114  16.0710  16.8149  17.2450  17.4768
    17.9015  18.0971  19.6884  21.5504  25.9916

     occupation numbers 
     1.0000   1.0000   1.0000   1.0000   1.0000   1.0000   1.0000   1.0000
     1.0000   1.0000   1.0000   1.0000   1.0000   1.0000   1.0000   1.0000
     1.0000   1.0000   0.0000   0.0000   0.0000

          k = 0.0833 0.5292-0.3117 (  2858 PWs)   bands (ev):

   -77.3800 -77.3800 -40.8046 -40.8046 -40.6138 -40.6138 -40.5790 -40.5790
    13.7634  13.7634  14.9709  14.9709  16.6281  16.6281  17.3344  17.3344
    17.9712  17.9712  20.4316  20.4316  26.2592

     occupation numbers 
     1.0000   1.0000   1.0000   1.0000   1.0000   1.0000   1.0000   1.0000
     1.0000   1.0000   1.0000   1.0000   1.0000   1.0000   1.0000   1.0000
     1.0000   1.0000   0.0000   0.0000   0.0000

          k = 0.1667 0.2887 0.0000 (  2848 PWs)   bands (ev):

   -77.4119 -77.3731 -40.7686 -40.6776 -40.6681 -40.5953 -40.5499 -40.5470
    12.2667  14.5394  14.9281  15.0327  15.9478  16.1271  16.5316  16.8383
    17.3046  17.6849  17.9581  23.9309  25.8222

     occupation numbers 
     1.0000   1.0000   1.0000   1.0000   1.0000   1.0000   1.0000   1.0000
     1.0000   1.0000   1.0000   1.0000   1.0000   1.0000   1.0000   1.0000
     1.0000   1.0000   1.0000   0.0000   0.0000

          k = 0.1667 0.2887 0.1039 (  2848 PWs)   bands (ev):

   -77.4093 -77.3757 -40.7683 -40.6751 -40.6613 -40.6027 -40.5542 -40.5451
    12.4569  14.6380  14.7878  15.0861  15.9256  16.1375  16.4021  16.9089
    17.4275  17.5289  18.0058  22.0291  28.1951

     occupation numbers 
     1.0000   1.0000   1.0000   1.0000   1.0000   1.0000   1.0000   1.0000
     1.0000   1.0000   1.0000   1.0000   1.0000   1.0000   1.0000   1.0000
     1.0000   1.0000   1.0000   0.0000   0.0000

          k = 0.1667 0.2887 0.2078 (  2852 PWs)   bands (ev):

   -77.4022 -77.3828 -40.7587 -40.7004 -40.6267 -40.6049 -40.5645 -40.5517
    12.9776  14.3464  14.9063  15.2417  15.7576  15.9990  16.3914  16.9817
    17.5197  17.6343  18.0278  19.9758  31.5599

     occupation numbers 
     1.0000   1.0000   1.0000   1.0000   1.0000   1.0000   1.0000   1.0000
     1.0000   1.0000   1.0000   1.0000   1.0000   1.0000   1.0000   1.0000
     1.0000   1.0000   1.0000   0.0000   0.0000

          k = 0.1667 0.2887-0.3117 (  2850 PWs)   bands (ev):

   -77.3925 -77.3925 -40.7339 -40.7339 -40.6022 -40.6022 -40.5674 -40.5674
    13.6792  13.6792  15.2365  15.2365  15.7066  15.7066  16.6718  16.6718
    17.7808  17.7808  18.5259  18.5259  33.1858

     occupation numbers 
     1.0000   1.0000   1.0000   1.0000   1.0000   1.0000   1.0000   1.0000
     1.0000   1.0000   1.0000   1.0000   1.0000   1.0000   1.0000   1.0000
     1.0000   1.0000   1.0000   1.0000   0.0000

          k = 0.1667 0.3849 0.0000 (  2855 PWs)   bands (ev):

   -77.3999 -77.3707 -40.7346 -40.7219 -40.6996 -40.6224 -40.5693 -40.5682
    13.3607  14.5332  14.5622  14.9933  15.7949  16.2712  16.3446  17.1408
    17.7460  17.9592  18.4730  25.7819  26.1353

     occupation numbers 
     1.0000   1.0000   1.0000   1.0000   1.0000   1.0000   1.0000   1.0000
     1.0000   1.0000   1.0000   1.0000   1.0000   1.0000   1.0000   1.0000
     1.0000   1.0000   1.0000   0.0000   0.0000

          k = 0.1667 0.3849 0.1039 (  2855 PWs)   bands (ev):

   -77.3979 -77.3727 -40.7598 -40.7175 -40.6750 -40.6287 -40.5756 -40.5594
    13.4446  14.4902  14.6404  15.0789  15.8541  16.2409  16.2995  17.1678
    17.7327  17.8374  18.5690  23.3101  28.1168

     occupation numbers 
     1.0000   1.0000   1.0000   1.0000   1.0000   1.0000   1.0000   1.0000
     1.0000   1.0000   1.0000   1.0000   1.0000   1.0000   1.0000   1.0000
     1.0000   1.0000   1.0000   0.0000   0.0000

          k = 0.1667 0.3849 0.2078 (  2848 PWs)   bands (ev):

   -77.3926 -77.3780 -40.7725 -40.7394 -40.6394 -40.6236 -40.5837 -40.5574
    13.6708  14.2898  14.8922  15.3225  15.7769  16.0673  16.4264  17.1195
    17.6274  17.9939  18.7556  21.0788  29.0668

     occupation numbers 
     1.0000   1.0000   1.0000   1.0000   1.0000   1.0000   1.0000   1.0000
     1.0000   1.0000   1.0000   1.0000   1.0000   1.0000   1.0000   1.0000
     1.0000   1.0000   0.0000   0.0000   0.0000

          k = 0.1667 0.3849-0.3117 (  2842 PWs)   bands (ev):

   -77.3853 -77.3853 -40.7635 -40.7635 -40.6225 -40.6225 -40.5720 -40.5720
    13.9805  13.9805  15.2428  15.2428  15.8472  15.8472  16.6989  16.6989
    17.9883  17.9883  19.4629  19.4629  30.2355

     occupation numbers 
     1.0000   1.0000   1.0000   1.0000   1.0000   1.0000   1.0000   1.0000
     1.0000   1.0000   1.0000   1.0000   1.0000   1.0000   1.0000   1.0000
     1.0000   1.0000   0.0000   0.0000   0.0000

          k = 0.1667 0.4811 0.0000 (  2861 PWs)   bands (ev):

   -77.3897 -77.3704 -40.7575 -40.7143 -40.7016 -40.6484 -40.5917 -40.5825
    14.0645  14.3352  14.3376  15.2900  15.7512  16.1436  16.4711  17.5396
    17.9586  17.9689  19.6296  24.2780  27.7853

     occupation numbers 
     1.0000   1.0000   1.0000   1.0000   1.0000   1.0000   1.0000   1.0000
     1.0000   1.0000   1.0000   1.0000   1.0000   1.0000   1.0000   1.0000
     1.0000   1.0000   0.0000   0.0000   0.0000

          k = 0.1667 0.4811 0.1039 (  2866 PWs)   bands (ev):

   -77.3884 -77.3717 -40.7733 -40.7347 -40.6775 -40.6418 -40.5954 -40.5732
    13.9200  14.4063  14.5875  15.1247  15.8032  16.2683  16.5305  17.5219
    17.7551  18.0338  19.7160  23.7600  26.5305

     occupation numbers 
     1.0000   1.0000   1.0000   1.0000   1.0000   1.0000   1.0000   1.0000
     1.0000   1.0000   1.0000   1.0000   1.0000   1.0000   1.0000   1.0000
     1.0000   1.0000   0.0000   0.0000   0.0000

          k = 0.1667 0.4811 0.2078 (  2857 PWs)   bands (ev):

   -77.3848 -77.3752 -40.7896 -40.7637 -40.6591 -40.6234 -40.5959 -40.5639
    13.8866  14.3317  14.7898  15.3462  15.6936  16.3831  16.7356  17.2123
    17.7096  18.1144  20.0333  22.2609  26.5730

     occupation numbers 
     1.0000   1.0000   1.0000   1.0000   1.0000   1.0000   1.0000   1.0000
     1.0000   1.0000   1.0000   1.0000   1.0000   1.0000   1.0000   1.0000
     1.0000   1.0000   0.0000   0.0000   0.0000

          k = 0.1667 0.4811-0.3117 (  2850 PWs)   bands (ev):

   -77.3800 -77.3800 -40.7862 -40.7862 -40.6389 -40.6389 -40.5726 -40.5726
    14.0474  14.0474  15.1462  15.1462  16.1046  16.1047  16.8874  16.8874
    17.9938  17.9938  20.8485  20.8485  27.4575

     occupation numbers 
     1.0000   1.0000   1.0000   1.0000   1.0000   1.0000   1.0000   1.0000
     1.0000   1.0000   1.0000   1.0000   1.0000   1.0000   1.0000   1.0000
     1.0000   1.0000   0.0000   0.0000   0.0000

          k = 0.1667 0.5774 0.0000 (  2862 PWs)   bands (ev):

   -77.3851 -77.3710 -40.7704 -40.7184 -40.6848 -40.6594 -40.6050 -40.5871
    14.2418  14.2421  14.2589  15.5054  15.7648  16.0410  16.5566  17.8095
    17.9512  17.9581  20.8767  22.4392  28.8024

     occupation numbers 
     1.0000   1.0000   1.0000   1.0000   1.0000   1.0000   1.0000   1.0000
     1.0000   1.0000   1.0000   1.0000   1.0000   1.0000   1.0000   1.0000
     1.0000   1.0000   0.0000   0.0000   0.0000

          k = 0.1667 0.5774 0.1039 (  2865 PWs)   bands (ev):

   -77.3842 -77.3720 -40.7828 -40.7374 -40.6821 -40.6360 -40.6076 -40.5791
    13.9498  14.3202  14.7530  15.1071  15.7265  16.3853  16.6197  17.7253
    17.8055  18.0089  20.9804  22.3932  27.8399

     occupation numbers 
     1.0000   1.0000   1.0000   1.0000   1.0000   1.0000   1.0000   1.0000
     1.0000   1.0000   1.0000   1.0000   1.0000   1.0000   1.0000   1.0000
     1.0000   1.0000   0.0000   0.0000   0.0000

          k = 0.1667 0.5774 0.2078 (  2868 PWs)   bands (ev):

   -77.3816 -77.3746 -40.7977 -40.7712 -40.6673 -40.6229 -40.5984 -40.5673
    13.8859  14.3436  14.8266  15.3062  15.6093  16.5853  16.8539  17.2831
    17.8208  18.0494  21.2946  22.2052  26.5430

     occupation numbers 
     1.0000   1.0000   1.0000   1.0000   1.0000   1.0000   1.0000   1.0000
     1.0000   1.0000   1.0000   1.0000   1.0000   1.0000   1.0000   1.0000
     1.0000   1.0000   0.0000   0.0000   0.0000

          k = 0.1667 0.5774-0.3117 (  2854 PWs)   bands (ev):

   -77.3781 -77.3781 -40.7947 -40.7947 -40.6451 -40.6451 -40.5724 -40.5724
    14.0504  14.0504  15.1063  15.1063  16.1463  16.1463  17.0881  17.0881
    17.9327  17.9327  21.7880  21.7880  26.0501

     occupation numbers 
     1.0000   1.0000   1.0000   1.0000   1.0000   1.0000   1.0000   1.0000
     1.0000   1.0000   1.0000   1.0000   1.0000   1.0000   1.0000   1.0000
     1.0000   1.0000   0.0000   0.0000   0.0000

          k = 0.2500 0.4330 0.0000 (  2872 PWs)   bands (ev):

   -77.3897 -77.3704 -40.7384 -40.7166 -40.7017 -40.6479 -40.6000 -40.5916
    14.1872  14.3968  14.7201  14.7803  15.6915  16.1554  16.4780  17.3193
    17.9199  17.9762  19.6360  26.0475  26.7623

     occupation numbers 
     1.0000   1.0000   1.0000   1.0000   1.0000   1.0000   1.0000   1.0000
     1.0000   1.0000   1.0000   1.0000   1.0000   1.0000   1.0000   1.0000
     1.0000   1.0000   0.0000   0.0000   0.0000

          k = 0.2500 0.4330 0.1039 (  2862 PWs)   bands (ev):

   -77.3884 -77.3716 -40.7511 -40.7423 -40.6616 -40.6615 -40.6030 -40.5767
    14.1982  14.3476  14.7944  14.9060  15.8422  16.0104  16.4648  17.3487
    17.7052  18.0422  19.7660  24.5746  27.0508

     occupation numbers 
     1.0000   1.0000   1.0000   1.0000   1.0000   1.0000   1.0000   1.0000
     1.0000   1.0000   1.0000   1.0000   1.0000   1.0000   1.0000   1.0000
     1.0000   1.0000   0.0000   0.0000   0.0000

          k = 0.2500 0.4330 0.2078 (  2854 PWs)   bands (ev):

   -77.3848 -77.3752 -40.7741 -40.7583 -40.6659 -40.6392 -40.5947 -40.5636
    14.2126  14.2951  14.9647  15.2989  15.6828  15.9546  16.4880  17.1290
    17.6802  18.1211  20.1490  22.5445  27.8465

     occupation numbers 
     1.0000   1.0000   1.0000   1.0000   1.0000   1.0000   1.0000   1.0000
     1.0000   1.0000   1.0000   1.0000   1.0000   1.0000   1.0000   1.0000
     1.0000   1.0000   0.0000   0.0000   0.0000

          k = 0.2500 0.4330-0.3117 (  2856 PWs)   bands (ev):

   -77.3800 -77.3800 -40.7748 -40.7748 -40.6523 -40.6523 -40.5707 -40.5707
    14.2473  14.2473  15.2913  15.2913  15.7335  15.7335  16.6943  16.6943
    18.0134  18.0134  21.0059  21.0059  28.8878

     occupation numbers 
     1.0000   1.0000   1.0000   1.0000   1.0000   1.0000   1.0000   1.0000
     1.0000   1.0000   1.0000   1.0000   1.0000   1.0000   1.0000   1.0000
     1.0000   1.0000   0.0000   0.0000   0.0000

          k = 0.2500 0.5292 0.0000 (  2876 PWs)   bands (ev):

   -77.3819 -77.3720 -40.7514 -40.7072 -40.6765 -40.6723 -40.6195 -40.6156
    14.3176  14.4855  14.5901  15.0792  15.7107  15.9608  16.6452  17.5890
    17.8966  17.9275  21.2705  23.8129  26.1159

     occupation numbers 
     1.0000   1.0000   1.0000   1.0000   1.0000   1.0000   1.0000   1.0000
     1.0000   1.0000   1.0000   1.0000   1.0000   1.0000   1.0000   1.0000
     1.0000   1.0000   0.0000   0.0000   0.0000

          k = 0.2500 0.5292 0.1039 (  2872 PWs)   bands (ev):

   -77.3813 -77.3727 -40.7578 -40.7313 -40.6954 -40.6415 -40.6233 -40.5929
    14.2583  14.6198  14.7175  14.9843  15.7400  15.9561  16.6456  17.5973
    17.6790  17.9719  21.4634  23.8410  26.1743

     occupation numbers 
     1.0000   1.0000   1.0000   1.0000   1.0000   1.0000   1.0000   1.0000
     1.0000   1.0000   1.0000   1.0000   1.0000   1.0000   1.0000   1.0000
     1.0000   1.0000   0.0000   0.0000   0.0000

          k = 0.2500 0.5292 0.2078 (  2856 PWs)   bands (ev):

   -77.3795 -77.3744 -40.7746 -40.7598 -40.6940 -40.6514 -40.5913 -40.5708
    14.2786  14.6300  14.8876  15.1756  15.6096  15.9669  16.6825  17.1618
    17.7447  18.0112  21.9684  23.5730  26.1344

     occupation numbers 
     1.0000   1.0000   1.0000   1.0000   1.0000   1.0000   1.0000   1.0000
     1.0000   1.0000   1.0000   1.0000   1.0000   1.0000   1.0000   1.0000
     1.0000   1.0000   0.0000   0.0000   0.0000

          k = 0.2500 0.5292-0.3117 (  2852 PWs)   bands (ev):

   -77.3770 -77.3770 -40.7775 -40.7775 -40.6740 -40.6740 -40.5693 -40.5693
    14.4180  14.4180  15.1849  15.1849  15.7411  15.7411  16.8112  16.8112
    17.9226  17.9226  22.7419  22.7419  26.6821

     occupation numbers 
     1.0000   1.0000   1.0000   1.0000   1.0000   1.0000   1.0000   1.0000
     1.0000   1.0000   1.0000   1.0000   1.0000   1.0000   1.0000   1.0000
[...]
    19.9186  20.0066  21.0967  23.5840  28.5732

     occupation numbers 
     1.0000   1.0000   1.0000   1.0000   1.0000   1.0000   1.0000   1.0000
     1.0000   1.0000   1.0000   1.0000   1.0000   1.0000   1.0000   0.0000
     0.0000   0.0000   0.0000   0.0000   0.0000

          k = 0.0833 0.5292 0.1039 (  2863 PWs)   bands (ev):

   -75.2695 -75.2516 -38.7548 -38.7006 -38.6236 -38.5729 -38.5266 -38.4996
    14.6252  15.2644  15.8054  16.3200  17.5450  18.0773  18.1410  19.7155
    19.8828  19.9621  20.9600  23.2584  27.4779

     occupation numbers 
     1.0000   1.0000   1.0000   1.0000   1.0000   1.0000   1.0000   1.0000
     1.0000   1.0000   1.0000   1.0000   1.0000   1.0000   1.0000   0.0000
     0.0000   0.0000   0.0000   0.0000   0.0000

          k = 0.0833 0.5292 0.2078 (  2852 PWs)   bands (ev):

   -75.2657 -75.2554 -38.7711 -38.7371 -38.5853 -38.5485 -38.5323 -38.5036
    14.6110  15.0998  16.1106  16.4388  17.6066  18.3689  18.5774  19.2416
    19.8299  20.0605  20.7392  22.3367  26.8975

     occupation numbers 
     1.0000   1.0000   1.0000   1.0000   1.0000   1.0000   1.0000   1.0000
     1.0000   1.0000   1.0000   1.0000   1.0000   1.0000   1.0000   0.0000
     0.0000   0.0000   0.0000   0.0000   0.0000

          k = 0.0833 0.5292-0.3117 (  2858 PWs)   bands (ev):

   -75.2605 -75.2605 -38.7650 -38.7650 -38.5560 -38.5560 -38.5179 -38.5179
    14.7936  14.7936  16.3934  16.3934  18.1062  18.1062  18.8788  18.8788
    19.9100  19.9100  21.2815  21.2815  27.1484

     occupation numbers 
     1.0000   1.0000   1.0000   1.0000   1.0000   1.0000   1.0000   1.0000
     1.0000   1.0000   1.0000   1.0000   1.0000   1.0000   0.0000   0.0000
     0.0000   0.0000   0.0000   0.0000   0.0000

          k = 0.1667 0.2887 0.0000 (  2848 PWs)   bands (ev):

   -75.2949 -75.2531 -38.7240 -38.6263 -38.6167 -38.5364 -38.4872 -38.4823
    12.3356  15.7493  16.1068  16.4501  17.6028  17.7308  18.1808  18.6372
    19.1310  19.4967  19.9188  24.6961  26.5849

     occupation numbers 
     1.0000   1.0000   1.0000   1.0000   1.0000   1.0000   1.0000   1.0000
     1.0000   1.0000   1.0000   1.0000   1.0000   1.0000   1.0000   0.1890
     0.0000   0.0000   0.0000   0.0000   0.0000

          k = 0.1667 0.2887 0.1039 (  2848 PWs)   bands (ev):

   -75.2921 -75.2559 -38.7240 -38.6242 -38.6083 -38.5443 -38.4919 -38.4806
    12.5521  15.6997  15.9923  16.5167  17.5314  17.7588  18.0625  18.7001
    19.2625  19.3769  19.9258  23.0377  28.7908

     occupation numbers 
     1.0000   1.0000   1.0000   1.0000   1.0000   1.0000   1.0000   1.0000
     1.0000   1.0000   1.0000   1.0000   1.0000   1.0000   1.0000   0.0000
     0.0000   0.0000   0.0000   0.0000   0.0000

          k = 0.1667 0.2887 0.2078 (  2852 PWs)   bands (ev):

   -75.2845 -75.2635 -38.7141 -38.6515 -38.5702 -38.5466 -38.5030 -38.4881
    13.1658  15.0162  16.2421  16.6870  17.2948  17.5835  18.1166  18.7283
    19.3933  19.4950  19.8748  21.2985  32.0465

     occupation numbers 
     1.0000   1.0000   1.0000   1.0000   1.0000   1.0000   1.0000   1.0000
     1.0000   1.0000   1.0000   1.0000   1.0000   1.0000   1.0000   0.0000
     0.0000   0.0000   0.0000   0.0000   0.0000

          k = 0.1667 0.2887-0.3117 (  2850 PWs)   bands (ev):

   -75.2740 -75.2740 -38.6875 -38.6875 -38.5435 -38.5435 -38.5058 -38.5058
    14.0597  14.0597  16.6250  16.6250  17.2599  17.2599  18.4247  18.4247
    19.6921  19.6921  20.1122  20.1122  33.6096

     occupation numbers 
     1.0000   1.0000   1.0000   1.0000   1.0000   1.0000   1.0000   1.0000
     1.0000   1.0000   1.0000   1.0000   1.0000   1.0000   1.0000   1.0000
     0.0000   0.0000   0.0000   0.0000   0.0000

          k = 0.1667 0.3849 0.0000 (  2855 PWs)   bands (ev):

   -75.2819 -75.2505 -38.6867 -38.6751 -38.6506 -38.5660 -38.5083 -38.5053
    13.5833  15.7935  15.8255  16.2478  17.4075  17.8705  17.9555  18.9714
    19.6381  19.9199  20.2071  26.4654  26.7601

     occupation numbers 
     1.0000   1.0000   1.0000   1.0000   1.0000   1.0000   1.0000   1.0000
     1.0000   1.0000   1.0000   1.0000   1.0000   1.0000   1.0000   0.0000
     0.0000   0.0000   0.0000   0.0000   0.0000

          k = 0.1667 0.3849 0.1039 (  2855 PWs)   bands (ev):

   -75.2798 -75.2526 -38.7152 -38.6703 -38.6227 -38.5726 -38.5150 -38.4962
    13.7356  15.6568  15.9326  16.3533  17.3984  17.8113  17.9207  18.9961
    19.6417  19.7423  20.3254  24.1274  28.7395

     occupation numbers 
     1.0000   1.0000   1.0000   1.0000   1.0000   1.0000   1.0000   1.0000
     1.0000   1.0000   1.0000   1.0000   1.0000   1.0000   1.0000   0.0000
     0.0000   0.0000   0.0000   0.0000   0.0000

          k = 0.1667 0.3849 0.2078 (  2848 PWs)   bands (ev):

   -75.2741 -75.2583 -38.7294 -38.6940 -38.5839 -38.5668 -38.5238 -38.4941
    14.1522  15.2737  16.2248  16.5777  17.2775  17.5205  18.1020  18.9178
    19.5057  19.9306  20.4085  22.1125  29.6726

     occupation numbers 
     1.0000   1.0000   1.0000   1.0000   1.0000   1.0000   1.0000   1.0000
     1.0000   1.0000   1.0000   1.0000   1.0000   1.0000   1.0000   0.0000
     0.0000   0.0000   0.0000   0.0000   0.0000

          k = 0.1667 0.3849-0.3117 (  2842 PWs)   bands (ev):

   -75.2662 -75.2662 -38.7199 -38.7199 -38.5657 -38.5657 -38.5103 -38.5103
    14.7193  14.7193  16.5750  16.5750  17.2456  17.2456  18.4621  18.4621
    19.9367  19.9367  20.7696  20.7696  30.7980

     occupation numbers 
     1.0000   1.0000   1.0000   1.0000   1.0000   1.0000   1.0000   1.0000
     1.0000   1.0000   1.0000   1.0000   1.0000   1.0000   1.0000   1.0000
     0.0000   0.0000   0.0000   0.0000   0.0000

          k = 0.1667 0.4811 0.0000 (  2861 PWs)   bands (ev):

   -75.2709 -75.2502 -38.7141 -38.6666 -38.6506 -38.5943 -38.5309 -38.5226
    14.6898  15.6077  15.6107  16.2837  17.3492  17.7045  18.1065  19.4119
    19.9050  19.9189  21.1029  25.0399  28.3668

     occupation numbers 
     1.0000   1.0000   1.0000   1.0000   1.0000   1.0000   1.0000   1.0000
     1.0000   1.0000   1.0000   1.0000   1.0000   1.0000   1.0000   0.0000
     0.0000   0.0000   0.0000   0.0000   0.0000

          k = 0.1667 0.4811 0.1039 (  2866 PWs)   bands (ev):

   -75.2695 -75.2515 -38.7308 -38.6887 -38.6251 -38.5867 -38.5361 -38.5115
    14.7121  15.5632  15.7763  16.3291  17.3694  17.6881  18.1499  19.3941
    19.6764  19.9823  21.1575  24.4599  27.2884

     occupation numbers 
     1.0000   1.0000   1.0000   1.0000   1.0000   1.0000   1.0000   1.0000
     1.0000   1.0000   1.0000   1.0000   1.0000   1.0000   1.0000   0.0000
     0.0000   0.0000   0.0000   0.0000   0.0000

          k = 0.1667 0.4811 0.2078 (  2857 PWs)   bands (ev):

   -75.2657 -75.2553 -38.7485 -38.7204 -38.6056 -38.5665 -38.5365 -38.5011
    14.8258  15.3597  16.1181  16.6244  17.2098  17.6579  18.3392  19.0496
    19.6083  20.0816  21.3115  23.0321  27.3835

     occupation numbers 
     1.0000   1.0000   1.0000   1.0000   1.0000   1.0000   1.0000   1.0000
     1.0000   1.0000   1.0000   1.0000   1.0000   1.0000   1.0000   0.0000
     0.0000   0.0000   0.0000   0.0000   0.0000

          k = 0.1667 0.4811-0.3117 (  2850 PWs)   bands (ev):

   -75.2605 -75.2605 -38.7448 -38.7448 -38.5837 -38.5837 -38.5107 -38.5107
    15.0608  15.0608  16.5424  16.5424  17.3839  17.3839  18.6108  18.6108
    19.9300  19.9300  21.8463  21.8463  28.1967

     occupation numbers 
     1.0000   1.0000   1.0000   1.0000   1.0000   1.0000   1.0000   1.0000
     1.0000   1.0000   1.0000   1.0000   1.0000   1.0000   0.9682   0.9682
     0.0000   0.0000   0.0000   0.0000   0.0000

          k = 0.1667 0.5774 0.0000 (  2862 PWs)   bands (ev):

   -75.2660 -75.2509 -38.7282 -38.6710 -38.6322 -38.6063 -38.5454 -38.5276
    15.1620  15.4751  15.5469  16.3360  17.3808  17.5596  18.2123  19.7199
    19.8927  19.9181  21.9965  23.4740  29.2215

     occupation numbers 
     1.0000   1.0000   1.0000   1.0000   1.0000   1.0000   1.0000   1.0000
     1.0000   1.0000   1.0000   1.0000   1.0000   1.0000   1.0000   0.0000
     0.0000   0.0000   0.0000   0.0000   0.0000

          k = 0.1667 0.5774 0.1039 (  2865 PWs)   bands (ev):

   -75.2650 -75.2519 -38.7414 -38.6916 -38.6302 -38.5801 -38.5491 -38.5181
    15.0177  15.5228  15.9176  16.1712  17.3235  17.7260  18.2648  19.6429
    19.7164  19.9596  22.0301  23.3798  28.4386

     occupation numbers 
     1.0000   1.0000   1.0000   1.0000   1.0000   1.0000   1.0000   1.0000
     1.0000   1.0000   1.0000   1.0000   1.0000   1.0000   1.0000   0.0000
     0.0000   0.0000   0.0000   0.0000   0.0000

          k = 0.1667 0.5774 0.2078 (  2868 PWs)   bands (ev):

   -75.2622 -75.2547 -38.7574 -38.7284 -38.6145 -38.5661 -38.5388 -38.5048
    14.9820  15.4173  16.1808  16.5399  17.1191  17.8308  18.4858  19.1249
    19.7377  20.0034  22.1642  23.0642  27.3340

     occupation numbers 
     1.0000   1.0000   1.0000   1.0000   1.0000   1.0000   1.0000   1.0000
     1.0000   1.0000   1.0000   1.0000   1.0000   1.0000   1.0000   0.0000
     0.0000   0.0000   0.0000   0.0000   0.0000

          k = 0.1667 0.5774-0.3117 (  2854 PWs)   bands (ev):

   -75.2584 -75.2584 -38.7540 -38.7540 -38.5905 -38.5905 -38.5104 -38.5104
    15.1420  15.1420  16.5340  16.5340  17.4336  17.4336  18.7760  18.7760
    19.8651  19.8651  22.5613  22.5613  26.9490

     occupation numbers 
     1.0000   1.0000   1.0000   1.0000   1.0000   1.0000   1.0000   1.0000
     1.0000   1.0000   1.0000   1.0000   1.0000   1.0000   0.0000   0.0000
     0.0000   0.0000   0.0000   0.0000   0.0000

          k = 0.2500 0.4330 0.0000 (  2872 PWs)   bands (ev):

   -75.2710 -75.2501 -38.6932 -38.6690 -38.6508 -38.5939 -38.5417 -38.5307
    14.6928  15.6795  15.9513  15.9646  17.2620  17.7269  18.1082  19.1800
    19.8743  19.9117  21.1380  26.6152  27.3802

     occupation numbers 
     1.0000   1.0000   1.0000   1.0000   1.0000   1.0000   1.0000   1.0000
     1.0000   1.0000   1.0000   1.0000   1.0000   1.0000   1.0000   0.0000
     0.0000   0.0000   0.0000   0.0000   0.0000

          k = 0.2500 0.4330 0.1039 (  2862 PWs)   bands (ev):

   -75.2696 -75.2515 -38.7059 -38.6974 -38.6084 -38.6076 -38.5449 -38.5148
    14.7770  15.5978  16.0215  16.1561  17.3114  17.5525  18.1006  19.2067
    19.6215  19.9921  21.2476  25.2217  27.6744

     occupation numbers 
     1.0000   1.0000   1.0000   1.0000   1.0000   1.0000   1.0000   1.0000
     1.0000   1.0000   1.0000   1.0000   1.0000   1.0000   1.0000   0.0000
     0.0000   0.0000   0.0000   0.0000   0.0000

          k = 0.2500 0.4330 0.2078 (  2854 PWs)   bands (ev):

   -75.2657 -75.2553 -38.7312 -38.7146 -38.6132 -38.5839 -38.5352 -38.5007
    14.9915  15.4584  16.2486  16.5269  17.1686  17.2951  18.1631  18.9547
    19.5689  20.0896  21.4885  23.3535  28.4692

     occupation numbers 
     1.0000   1.0000   1.0000   1.0000   1.0000   1.0000   1.0000   1.0000
     1.0000   1.0000   1.0000   1.0000   1.0000   1.0000   1.0000   0.0000
     0.0000   0.0000   0.0000   0.0000   0.0000

          k = 0.2500 0.4330-0.3117 (  2856 PWs)   bands (ev):

   -75.2605 -75.2605 -38.7323 -38.7323 -38.5985 -38.5985 -38.5086 -38.5086
    15.2480  15.2480  16.5970  16.5970  17.0613  17.0613  18.4505  18.4505
    19.9535  19.9535  22.0611  22.0611  29.4963

     occupation numbers 
     1.0000   1.0000   1.0000   1.0000   1.0000   1.0000   1.0000   1.0000
     1.0000   1.0000   1.0000   1.0000   1.0000   1.0000   1.0000   1.0000
     0.0000   0.0000   0.0000   0.0000   0.0000

          k = 0.2500 0.5292 0.0000 (  2876 PWs)   bands (ev):

   -75.2626 -75.2519 -38.7073 -38.6588 -38.6252 -38.6186 -38.5629 -38.5568
    15.4154  15.6375  15.7873  16.0445  17.2655  17.4916  18.3083  19.4802
    19.8473  19.8639  22.3998  24.6259  26.6971

     occupation numbers 
     1.0000   1.0000   1.0000   1.0000   1.0000   1.0000   1.0000   1.0000
     1.0000   1.0000   1.0000   1.0000   1.0000   1.0000   1.0000   0.0000
     0.0000   0.0000   0.0000   0.0000   0.0000

          k = 0.2500 0.5292 0.1039 (  2872 PWs)   bands (ev):

   -75.2619 -75.2526 -38.7140 -38.6848 -38.6454 -38.5860 -38.5665 -38.5326
    15.3840  15.7528  15.8758  16.1136  17.2468  17.3938  18.3084  19.4892
    19.5904  19.9163  22.5674  24.6112  26.7826

     occupation numbers 
     1.0000   1.0000   1.0000   1.0000   1.0000   1.0000   1.0000   1.0000
     1.0000   1.0000   1.0000   1.0000   1.0000   1.0000   1.0000   0.0000
     0.0000   0.0000   0.0000   0.0000   0.0000

          k = 0.2500 0.5292 0.2078 (  2856 PWs)   bands (ev):

   -75.2599 -75.2546 -38.7320 -38.7158 -38.6441 -38.5975 -38.5310 -38.5085
    15.4287  15.7212  16.1575  16.4656  17.0086  17.2496  18.3610  18.9993
    19.6526  19.9591  22.9568  24.2722  26.8867

     occupation numbers 
     1.0000   1.0000   1.0000   1.0000   1.0000   1.0000   1.0000   1.0000
     1.0000   1.0000   1.0000   1.0000   1.0000   1.0000   1.0000   0.0000
     0.0000   0.0000   0.0000   0.0000   0.0000

          k = 0.2500 0.5292-0.3117 (  2852 PWs)   bands (ev):

   -75.2572 -75.2572 -38.7351 -38.7351 -38.6223 -38.6223 -38.5069 -38.5069
    15.5656  15.5656  16.5582  16.5582  16.9619  16.9619  18.5609  18.5609
    19.8513  19.8513  23.5515  23.5515  27.4377

     occupation numbers 
     1.0000   1.0000   1.0000   1.0000   1.0000   1.0000   1.0000   1.0000
     1.0000   1.0000   1.0000   1.0000   1.0000   1.0000   1.0000   1.0000
     0.0000   0.0000   0.0000   0.0000   0.0000

          k = 0.3333 0.5774 0.0000 (  2880 PWs)   bands (ev):

   -75.2560 -75.2560 -38.6986 -38.6445 -38.6445 -38.5873 -38.5866 -38.5866
    15.6646  15.7684  15.7684  15.9795  17.3162  17.3162  18.4156  19.6461
    19.6461  19.8188  23.8272  24.6129  24.6129

     occupation numbers 
     1.0000   1.0000   1.0000   1.0000   1.0000   1.0000   1.0000   1.0000
     1.0000   1.0000   1.0000   1.0000   1.0000   1.0000   1.0000   0.0000
     0.0000   0.0000   0.0000   0.0000   0.0000

          k = 0.3333 0.5774 0.1039 (  2865 PWs)   bands (ev):

   -75.2561 -75.2560 -38.6912 -38.6758 -38.6758 -38.5948 -38.5552 -38.5552
    15.7407  15.8462  15.8462  16.0134  17.2321  17.2321  18.3903  19.5340
    19.6880  19.6880  24.2523  24.6663  24.6663

     occupation numbers 
     1.0000   1.0000   1.0000   1.0000   1.0000   1.0000   1.0000   1.0000
     1.0000   1.0000   1.0000   1.0000   1.0000   1.0000   1.0000   0.0000
     0.0000   0.0000   0.0000   0.0000   0.0000

          k = 0.3333 0.5774 0.2078 (  2862 PWs)   bands (ev):

   -75.2560 -75.2560 -38.7114 -38.7114 -38.6709 -38.6153 -38.5192 -38.5192
    15.9194  16.0309  16.0309  16.0762  17.0426  17.0426  18.3769  18.9749
    19.7629  19.7629  24.7988  24.7988  25.2760

     occupation numbers 
     1.0000   1.0000   1.0000   1.0000   1.0000   1.0000   1.0000   1.0000
     1.0000   1.0000   1.0000   1.0000   1.0000   1.0000   1.0000   0.0000
     0.0000   0.0000   0.0000   0.0000   0.0000

          k = 0.3333 0.5774-0.3117 (  2850 PWs)   bands (ev):

   -75.2560 -75.2560 -38.7249 -38.7249 -38.6431 -38.6431 -38.5055 -38.5055
    16.0649  16.0649  16.1508  16.1508  16.9240  16.9240  18.5376  18.5376
    19.7963  19.7963  24.8831  24.8831  26.6180

     occupation numbers 
     1.0000   1.0000   1.0000   1.0000   1.0000   1.0000   1.0000   1.0000
     1.0000   1.0000   1.0000   1.0000   1.0000   1.0000   1.0000   1.0000
     0.0000   0.0000   0.0000   0.0000   0.0000

     the Fermi energy is    18.6287 ev

!    total energy              =    -753.45515812 Ry
     total all-electron energy =     -5573.811849 Ry
     estimated scf accuracy    <       0.00000021 Ry
     smearing contrib. (-TS)   =      -0.00001924 Ry
     internal energy E=F+TS    =    -753.45513888 Ry

     The total energy is F=E-TS. E is the sum of the following terms:
     one-electron contribution =    -283.03211999 Ry
     hartree contribution      =     165.13778471 Ry
     xc contribution           =     -61.40165003 Ry
     ewald contribution        =    -398.98235232 Ry
     one-center paw contrib.   =    -175.17680126 Ry
      -> PAW hartree energy AE =     222.02742045 Ry
      -> PAW hartree energy PS =    -220.97255033 Ry
      -> PAW xc energy AE      =    -117.67280839 Ry
      -> PAW xc energy PS      =      29.02953765 Ry
      -> total E_H with PAW    =     166.19265482 Ry
      -> total E_XC with PAW   =    -150.04492077 Ry

     total magnetization       =     3.31 Bohr mag/cell
     absolute magnetization    =     3.63 Bohr mag/cell

     convergence has been achieved in  16 iterations

     Writing all to output data dir ./out2/Co.save/
 
     init_run     :      0.31s CPU      0.41s WALL (       1 calls)
     electrons    :     18.67s CPU     20.05s WALL (       1 calls)

     Called by init_run:
     wfcinit      :      0.13s CPU      0.19s WALL (       1 calls)
     potinit      :      0.09s CPU      0.12s WALL (       1 calls)
     hinit0       :      0.07s CPU      0.07s WALL (       1 calls)

     Called by electrons:
     c_bands      :     15.45s CPU     16.44s WALL (      16 calls)
     sum_band     :      1.68s CPU      1.79s WALL (      16 calls)
     v_of_rho     :      0.07s CPU      0.07s WALL (      17 calls)
     v_h          :      0.00s CPU      0.00s WALL (      17 calls)
     v_xc         :      0.06s CPU      0.06s WALL (      17 calls)
     newd         :      0.04s CPU      0.05s WALL (      17 calls)
     PAW_pot      :      1.47s CPU      1.77s WALL (      17 calls)
     mix_rho      :      0.02s CPU      0.02s WALL (      16 calls)

     Called by c_bands:
     init_us_2    :      0.12s CPU      0.13s WALL (    2432 calls)
     init_us_2:cp :      0.12s CPU      0.13s WALL (    2432 calls)
     cegterg      :     14.28s CPU     14.98s WALL (    1238 calls)

     Called by sum_band:
     sum_band:wei :      0.01s CPU      0.02s WALL (      16 calls)
     sum_band:loo :      1.56s CPU      1.66s WALL (      16 calls)
     sum_band:buf :      0.01s CPU      0.01s WALL (    1216 calls)
     sum_band:ini :      0.06s CPU      0.07s WALL (    1216 calls)
     sum_band:cal :      0.13s CPU      0.14s WALL (    1216 calls)
     sum_band:bec :      0.01s CPU      0.02s WALL (    1216 calls)
     addusdens    :      0.08s CPU      0.08s WALL (      16 calls)
                                        0.00s GPU  (      16 calls)
     addusd:skk   :      0.00s CPU      0.00s WALL (      16 calls)
                                        0.00s GPU  (      16 calls)

     Called by *egterg:
     cdiaghg      :      2.97s CPU      3.10s WALL (    6014 calls)
     cegterg:over :      0.43s CPU      0.46s WALL (    4874 calls)
     cegterg:upda :      0.13s CPU      0.13s WALL (    4874 calls)
     cegterg:last :      0.26s CPU      0.27s WALL (    3846 calls)
     h_psi        :      9.83s CPU     10.33s WALL (    6112 calls)
     s_psi        :      0.16s CPU      0.17s WALL (    6112 calls)
     g_psi        :      0.04s CPU      0.05s WALL (    4874 calls)

     Called by h_psi:
     h_psi:calbec :      0.51s CPU      0.54s WALL (    6112 calls)
     vloc_psi     :      9.04s CPU      9.50s WALL (    6112 calls)
     add_vuspsi   :      0.21s CPU      0.22s WALL (    6112 calls)

     General routines
     calbec       :      0.63s CPU      0.67s WALL (    7328 calls)
     fft          :      0.03s CPU      0.04s WALL (     419 calls)
     ffts         :      0.01s CPU      0.01s WALL (      66 calls)
     fftw         :      9.37s CPU      9.86s WALL (  207470 calls)
     interpolate  :      0.01s CPU      0.01s WALL (      34 calls)
 
     Parallel routines

     PAW routines
     PAW_pot      :      1.47s CPU      1.77s WALL (      17 calls)
     PAW_symme    :      0.02s CPU      0.02s WALL (      32 calls)
 
     PWSCF        :     19.20s CPU     21.02s WALL

 
   This run was terminated on:  10:57:59  22Mar2024            

=------------------------------------------------------------------------------=
   JOB DONE.
=------------------------------------------------------------------------------=
