
     Program PWSCF v.7.2 starts on 22Mar2024 at 10:49:25 

     This program is part of the open-source Quantum ESPRESSO suite
     for quantum simulation of materials; please cite
         "P. Giannozzi et al., J. Phys.:Condens. Matter 21 395502 (2009);
         "P. Giannozzi et al., J. Phys.:Condens. Matter 29 465901 (2017);
         "P. Giannozzi et al., J. Chem. Phys. 152 154105 (2020);
          URL http://www.quantum-espresso.org", 
     in publications or presentations arising from this work. More details at
     http://www.quantum-espresso.org/quote

     Parallel version (MPI), running on    28 processors

     MPI processes distributed on     1 nodes
     182151 MiB available memory on the printing compute node when the environment starts
 
     Waiting for input...
     Reading input from standard input

     Current dimensions of program PWSCF are:
     Max number of different atomic species (ntypx) = 10
     Max number of k-points (npk) = 120000
     Max angular momentum in pseudopotentials (lmaxx) =  4
     file Co.pbe-spn-kjpaw_psl.0.3.1.UPF: wavefunction(s)  3P 3D renormalized
 
     K-points division:     npool     =       2
     R & G space division:  proc/nbgrp/npool/nimage =      14
     Subspace diagonalization in iterative solution of the eigenvalue problem:
     a serial algorithm will be used

 
     Parallelization info
     --------------------
     sticks:   dense  smooth     PW     G-vecs:    dense   smooth      PW
     Min          48      48     14                 1649     1598     260
     Max          51      49     15                 1661     1603     267
     Sum         685     673    199                23127    22407    3669
 
     Using Slab Decomposition
 


     bravais-lattice index     =            4
     lattice parameter (alat)  =       4.7054  a.u.
     unit-cell volume          =     143.8522 (a.u.)^3
     number of atoms/cell      =            2
     number of atomic types    =            1
     number of electrons       =        34.00
     number of Kohn-Sham states=           21
     kinetic-energy cutoff     =     110.0000  Ry
     charge density cutoff     =     450.0000  Ry
     scf convergence threshold =      1.0E-06
     mixing beta               =       0.7000
     number of iterations used =            8  plain     mixing
     Exchange-correlation= SLA  PW   PBX  PBC
                           (   1   4   3   4   0   0   0)

     celldm(1)=   4.705418  celldm(2)=   0.000000  celldm(3)=   1.594378
     celldm(4)=   0.000000  celldm(5)=   0.000000  celldm(6)=   0.000000

     crystal axes: (cart. coord. in units of alat)
               a(1) = (   1.000000   0.000000   0.000000 )  
               a(2) = (  -0.500000   0.866025   0.000000 )  
               a(3) = (   0.000000   0.000000   1.594378 )  

     reciprocal axes: (cart. coord. in units 2 pi/alat)
               b(1) = (  1.000000  0.577350  0.000000 )  
               b(2) = (  0.000000  1.154701  0.000000 )  
               b(3) = (  0.000000  0.000000  0.627204 )  


     PseudoPot. # 1 for Co read from file:
     /truba/home/amuhaymin/ZnS/pseudo/QE/Co.pbe-spn-kjpaw_psl.0.3.1.UPF
     MD5 check sum: b0a1ad65bf214e88c1f3d33b20c7d919
     Pseudo is Projector augmented-wave + core cor, Zval = 17.0
     Generated using &quot;atomic&quot; code by A. Dal Corso  v.6.2.2
     Shape of augmentation charge: PSQ
     Using radial grid of 1193 points,  6 beta functions with: 
                l(1) =   0
                l(2) =   0
                l(3) =   1
                l(4) =   1
                l(5) =   2
                l(6) =   2
     Q(r) pseudized with 0 coefficients 


     atomic species   valence    mass     pseudopotential
        Co            17.00    58.93300     Co( 1.00)

     Starting magnetic structure 
     atomic species   magnetization
        Co           0.294

     24 Sym. Ops., with inversion, found (12 have fractional translation)


                                    s                        frac. trans.

      isym =  1     identity                                     

 cryst.   s( 1) = (     1          0          0      )
                  (     0          1          0      )
                  (     0          0          1      )

 cart.    s( 1) = (  1.0000000  0.0000000  0.0000000 )
                  (  0.0000000  1.0000000  0.0000000 )
                  (  0.0000000  0.0000000  1.0000000 )


      isym =  2     180 deg rotation - cart. axis [0,0,1]        

 cryst.   s( 2) = (    -1          0          0      )    f =(  0.0000000 )
                  (     0         -1          0      )       (  0.0000000 )
                  (     0          0          1      )       (  0.5000000 )

 cart.    s( 2) = ( -1.0000000  0.0000000  0.0000000 )    f =(  0.0000000 )
                  (  0.0000000 -1.0000000  0.0000000 )       (  0.0000000 )
                  (  0.0000000  0.0000000  1.0000000 )       (  0.7971888 )


      isym =  3     180 deg rotation - cart. axis [0,1,0]        

 cryst.   s( 3) = (    -1          0          0      )    f =(  0.0000000 )
                  (     1          1          0      )       (  0.0000000 )
                  (     0          0         -1      )       ( -0.5000000 )

 cart.    s( 3) = ( -1.0000000  0.0000000  0.0000000 )    f =(  0.0000000 )
                  (  0.0000000  1.0000000  0.0000000 )       (  0.0000000 )
                  (  0.0000000  0.0000000 -1.0000000 )       ( -0.7971888 )


      isym =  4     180 deg rotation - cart. axis [1,0,0]        

 cryst.   s( 4) = (     1          0          0      )
                  (    -1         -1          0      )
                  (     0          0         -1      )

 cart.    s( 4) = (  1.0000000  0.0000000  0.0000000 )
                  (  0.0000000 -1.0000000  0.0000000 )
                  (  0.0000000  0.0000000 -1.0000000 )


      isym =  5      60 deg rotation - cryst. axis [0,0,1]       

 cryst.   s( 5) = (     1          1          0      )    f =(  0.0000000 )
                  (    -1          0          0      )       ( -0.0000000 )
                  (     0          0          1      )       (  0.5000000 )

 cart.    s( 5) = (  0.5000000 -0.8660254  0.0000000 )    f =(  0.0000000 )
                  (  0.8660254  0.5000000  0.0000000 )       ( -0.0000000 )
                  (  0.0000000  0.0000000  1.0000000 )       (  0.7971888 )


      isym =  6      60 deg rotation - cryst. axis [0,0,-1]      

 cryst.   s( 6) = (     0         -1          0      )    f =(  0.0000000 )
                  (     1          1          0      )       ( -0.0000000 )
                  (     0          0          1      )       (  0.5000000 )

 cart.    s( 6) = (  0.5000000  0.8660254  0.0000000 )    f =(  0.0000000 )
                  ( -0.8660254  0.5000000  0.0000000 )       ( -0.0000000 )
                  (  0.0000000  0.0000000  1.0000000 )       (  0.7971888 )


      isym =  7     120 deg rotation - cryst. axis [0,0,1]       

 cryst.   s( 7) = (     0          1          0      )
                  (    -1         -1          0      )
                  (     0          0          1      )

 cart.    s( 7) = ( -0.5000000 -0.8660254  0.0000000 )
                  (  0.8660254 -0.5000000  0.0000000 )
                  (  0.0000000  0.0000000  1.0000000 )


      isym =  8     120 deg rotation - cryst. axis [0,0,-1]      

 cryst.   s( 8) = (    -1         -1          0      )
                  (     1          0          0      )
                  (     0          0          1      )

 cart.    s( 8) = ( -0.5000000  0.8660254  0.0000000 )
                  ( -0.8660254 -0.5000000  0.0000000 )
                  (  0.0000000  0.0000000  1.0000000 )


      isym =  9     180 deg rotation - cryst. axis [1,-1,0]      

 cryst.   s( 9) = (     0         -1          0      )    f =(  0.0000000 )
                  (    -1          0          0      )       (  0.0000000 )
                  (     0          0         -1      )       ( -0.5000000 )

 cart.    s( 9) = (  0.5000000 -0.8660254  0.0000000 )    f =(  0.0000000 )
                  ( -0.8660254 -0.5000000  0.0000000 )       (  0.0000000 )
                  (  0.0000000  0.0000000 -1.0000000 )       ( -0.7971888 )


      isym = 10     180 deg rotation - cryst. axis [2,1,0]       

 cryst.   s(10) = (     1          1          0      )    f =(  0.0000000 )
                  (     0         -1          0      )       ( -0.0000000 )
                  (     0          0         -1      )       ( -0.5000000 )

 cart.    s(10) = (  0.5000000  0.8660254  0.0000000 )    f =(  0.0000000 )
                  (  0.8660254 -0.5000000  0.0000000 )       ( -0.0000000 )
                  (  0.0000000  0.0000000 -1.0000000 )       ( -0.7971888 )


      isym = 11     180 deg rotation - cryst. axis [0,1,0]       

 cryst.   s(11) = (    -1         -1          0      )
                  (     0          1          0      )
                  (     0          0         -1      )

 cart.    s(11) = ( -0.5000000 -0.8660254  0.0000000 )
                  ( -0.8660254  0.5000000  0.0000000 )
                  (  0.0000000  0.0000000 -1.0000000 )


      isym = 12     180 deg rotation - cryst. axis [1,1,0]       

 cryst.   s(12) = (     0          1          0      )
                  (     1          0          0      )
                  (     0          0         -1      )

 cart.    s(12) = ( -0.5000000  0.8660254  0.0000000 )
                  (  0.8660254  0.5000000  0.0000000 )
                  (  0.0000000  0.0000000 -1.0000000 )


      isym = 13     inversion                                    

 cryst.   s(13) = (    -1          0          0      )
                  (     0         -1          0      )
                  (     0          0         -1      )

 cart.    s(13) = ( -1.0000000  0.0000000  0.0000000 )
                  (  0.0000000 -1.0000000  0.0000000 )
                  (  0.0000000  0.0000000 -1.0000000 )


      isym = 14     inv. 180 deg rotation - cart. axis [0,0,1]   

 cryst.   s(14) = (     1          0          0      )    f =(  0.0000000 )
                  (     0          1          0      )       (  0.0000000 )
                  (     0          0         -1      )       ( -0.5000000 )

 cart.    s(14) = (  1.0000000  0.0000000  0.0000000 )    f =(  0.0000000 )
                  (  0.0000000  1.0000000  0.0000000 )       (  0.0000000 )
                  (  0.0000000  0.0000000 -1.0000000 )       ( -0.7971888 )


      isym = 15     inv. 180 deg rotation - cart. axis [0,1,0]   

 cryst.   s(15) = (     1          0          0      )    f =(  0.0000000 )
                  (    -1         -1          0      )       (  0.0000000 )
                  (     0          0          1      )       (  0.5000000 )

 cart.    s(15) = (  1.0000000  0.0000000  0.0000000 )    f =(  0.0000000 )
                  (  0.0000000 -1.0000000  0.0000000 )       (  0.0000000 )
                  (  0.0000000  0.0000000  1.0000000 )       (  0.7971888 )


      isym = 16     inv. 180 deg rotation - cart. axis [1,0,0]   

 cryst.   s(16) = (    -1          0          0      )
                  (     1          1          0      )
                  (     0          0          1      )

 cart.    s(16) = ( -1.0000000  0.0000000  0.0000000 )
                  (  0.0000000  1.0000000  0.0000000 )
                  (  0.0000000  0.0000000  1.0000000 )


      isym = 17     inv.  60 deg rotation - cryst. axis [0,0,1]  

 cryst.   s(17) = (    -1         -1          0      )    f =(  0.0000000 )
                  (     1          0          0      )       (  0.0000000 )
                  (     0          0         -1      )       ( -0.5000000 )

 cart.    s(17) = ( -0.5000000  0.8660254  0.0000000 )    f =(  0.0000000 )
                  ( -0.8660254 -0.5000000  0.0000000 )       (  0.0000000 )
                  (  0.0000000  0.0000000 -1.0000000 )       ( -0.7971888 )


      isym = 18     inv.  60 deg rotation - cryst. axis [0,0,-1] 

 cryst.   s(18) = (     0          1          0      )    f =(  0.0000000 )
                  (    -1         -1          0      )       ( -0.0000000 )
                  (     0          0         -1      )       ( -0.5000000 )

 cart.    s(18) = ( -0.5000000 -0.8660254  0.0000000 )    f =(  0.0000000 )
                  (  0.8660254 -0.5000000  0.0000000 )       ( -0.0000000 )
                  (  0.0000000  0.0000000 -1.0000000 )       ( -0.7971888 )


      isym = 19     inv. 120 deg rotation - cryst. axis [0,0,1]  

 cryst.   s(19) = (     0         -1          0      )
                  (     1          1          0      )
                  (     0          0         -1      )

 cart.    s(19) = (  0.5000000  0.8660254  0.0000000 )
                  ( -0.8660254  0.5000000  0.0000000 )
                  (  0.0000000  0.0000000 -1.0000000 )


      isym = 20     inv. 120 deg rotation - cryst. axis [0,0,-1] 

 cryst.   s(20) = (     1          1          0      )
                  (    -1          0          0      )
                  (     0          0         -1      )

 cart.    s(20) = (  0.5000000 -0.8660254  0.0000000 )
                  (  0.8660254  0.5000000  0.0000000 )
                  (  0.0000000  0.0000000 -1.0000000 )


      isym = 21     inv. 180 deg rotation - cryst. axis [1,-1,0] 

 cryst.   s(21) = (     0          1          0      )    f =(  0.0000000 )
                  (     1          0          0      )       ( -0.0000000 )
                  (     0          0          1      )       (  0.5000000 )

 cart.    s(21) = ( -0.5000000  0.8660254  0.0000000 )    f =(  0.0000000 )
                  (  0.8660254  0.5000000  0.0000000 )       ( -0.0000000 )
                  (  0.0000000  0.0000000  1.0000000 )       (  0.7971888 )


      isym = 22     inv. 180 deg rotation - cryst. axis [2,1,0]  

 cryst.   s(22) = (    -1         -1          0      )    f =(  0.0000000 )
                  (     0          1          0      )       ( -0.0000000 )
                  (     0          0          1      )       (  0.5000000 )

 cart.    s(22) = ( -0.5000000 -0.8660254  0.0000000 )    f =(  0.0000000 )
                  ( -0.8660254  0.5000000  0.0000000 )       ( -0.0000000 )
                  (  0.0000000  0.0000000  1.0000000 )       (  0.7971888 )


      isym = 23     inv. 180 deg rotation - cryst. axis [0,1,0]  

 cryst.   s(23) = (     1          1          0      )
                  (     0         -1          0      )
                  (     0          0          1      )

 cart.    s(23) = (  0.5000000  0.8660254  0.0000000 )
                  (  0.8660254 -0.5000000  0.0000000 )
                  (  0.0000000  0.0000000  1.0000000 )


      isym = 24     inv. 180 deg rotation - cryst. axis [1,1,0]  

 cryst.   s(24) = (     0         -1          0      )
                  (    -1          0          0      )
                  (     0          0          1      )

 cart.    s(24) = (  0.5000000 -0.8660254  0.0000000 )
                  ( -0.8660254 -0.5000000  0.0000000 )
                  (  0.0000000  0.0000000  1.0000000 )


     point group D_6h(6/mmm)
     there are 12 classes
     the character table:

       E     2C6   2C3   C2    3C2'  3C2'' i     2S3   2S6   s_h   3s_d  3s_v 
A_1g   1.00  1.00  1.00  1.00  1.00  1.00  1.00  1.00  1.00  1.00  1.00  1.00
A_2g   1.00  1.00  1.00  1.00 -1.00 -1.00  1.00  1.00  1.00  1.00 -1.00 -1.00
B_1g   1.00 -1.00  1.00 -1.00  1.00 -1.00  1.00 -1.00  1.00 -1.00  1.00 -1.00
B_2g   1.00 -1.00  1.00 -1.00 -1.00  1.00  1.00 -1.00  1.00 -1.00 -1.00  1.00
E_1g   2.00  1.00 -1.00 -2.00  0.00  0.00  2.00  1.00 -1.00 -2.00  0.00  0.00
E_2g   2.00 -1.00 -1.00  2.00  0.00  0.00  2.00 -1.00 -1.00  2.00  0.00  0.00
A_1u   1.00  1.00  1.00  1.00  1.00  1.00 -1.00 -1.00 -1.00 -1.00 -1.00 -1.00
A_2u   1.00  1.00  1.00  1.00 -1.00 -1.00 -1.00 -1.00 -1.00 -1.00  1.00  1.00
B_1u   1.00 -1.00  1.00 -1.00  1.00 -1.00 -1.00  1.00 -1.00  1.00 -1.00  1.00
B_2u   1.00 -1.00  1.00 -1.00 -1.00  1.00 -1.00  1.00 -1.00  1.00  1.00 -1.00
E_1u   2.00  1.00 -1.00 -2.00  0.00  0.00 -2.00 -1.00  1.00  2.00  0.00  0.00
E_2u   2.00 -1.00 -1.00  2.00  0.00  0.00 -2.00  1.00  1.00 -2.00  0.00  0.00

     the symmetry operations in each class and the name of the first element:

     E        1
          identity                                               
     2C6      5    6
           60 deg rotation - cryst. axis [0,0,1]                 
     2C3      7    8
          120 deg rotation - cryst. axis [0,0,1]                 
     C2       2
          180 deg rotation - cart. axis [0,0,1]                  
     3C2'     4   12   11
          180 deg rotation - cart. axis [1,0,0]                  
     3C2''    3    9   10
          180 deg rotation - cart. axis [0,1,0]                  
     i       13
          inversion                                              
     2S3     17   18
          inv.  60 deg rotation - cryst. axis [0,0,1]            
     2S6     19   20
          inv. 120 deg rotation - cryst. axis [0,0,1]            
     s_h     14
          inv. 180 deg rotation - cart. axis [0,0,1]             
     3s_d    16   24   23
          inv. 180 deg rotation - cart. axis [1,0,0]             
     3s_v    15   21   22
          inv. 180 deg rotation - cart. axis [0,1,0]             

   Cartesian axes

     site n.     atom                  positions (alat units)
         1           Co  tau(   1) = (  -0.0000000   0.5773503   0.3985944  )
         2           Co  tau(   2) = (   0.5000000   0.2886751   1.1957831  )

   Crystallographic axes

     site n.     atom                  positions (cryst. coord.)
         1           Co  tau(   1) = (  0.3333333  0.6666667  0.2500000  )
         2           Co  tau(   2) = (  0.6666667  0.3333333  0.7500000  )

     number of k points=    76  Gaussian smearing, width (Ry)=  0.0010
                       cart. coord. in units 2pi/alat
        k(    1) = (   0.0000000   0.0000000   0.0000000), wk =   0.0011574
        k(    2) = (   0.0000000   0.0000000   0.1045340), wk =   0.0023148
        k(    3) = (   0.0000000   0.0000000   0.2090680), wk =   0.0023148
        k(    4) = (   0.0000000   0.0000000  -0.3136020), wk =   0.0011574
        k(    5) = (   0.0000000   0.0962250   0.0000000), wk =   0.0069444
        k(    6) = (   0.0000000   0.0962250   0.1045340), wk =   0.0138889
        k(    7) = (   0.0000000   0.0962250   0.2090680), wk =   0.0138889
        k(    8) = (   0.0000000   0.0962250  -0.3136020), wk =   0.0069444
        k(    9) = (   0.0000000   0.1924501   0.0000000), wk =   0.0069444
        k(   10) = (   0.0000000   0.1924501   0.1045340), wk =   0.0138889
        k(   11) = (   0.0000000   0.1924501   0.2090680), wk =   0.0138889
        k(   12) = (   0.0000000   0.1924501  -0.3136020), wk =   0.0069444
        k(   13) = (   0.0000000   0.2886751   0.0000000), wk =   0.0069444
        k(   14) = (   0.0000000   0.2886751   0.1045340), wk =   0.0138889
        k(   15) = (   0.0000000   0.2886751   0.2090680), wk =   0.0138889
        k(   16) = (   0.0000000   0.2886751  -0.3136020), wk =   0.0069444
        k(   17) = (   0.0000000   0.3849002   0.0000000), wk =   0.0069444
        k(   18) = (   0.0000000   0.3849002   0.1045340), wk =   0.0138889
        k(   19) = (   0.0000000   0.3849002   0.2090680), wk =   0.0138889
        k(   20) = (   0.0000000   0.3849002  -0.3136020), wk =   0.0069444
        k(   21) = (   0.0000000   0.4811252   0.0000000), wk =   0.0069444
        k(   22) = (   0.0000000   0.4811252   0.1045340), wk =   0.0138889
        k(   23) = (   0.0000000   0.4811252   0.2090680), wk =   0.0138889
        k(   24) = (   0.0000000   0.4811252  -0.3136020), wk =   0.0069444
        k(   25) = (   0.0000000  -0.5773503   0.0000000), wk =   0.0034722
        k(   26) = (   0.0000000  -0.5773503   0.1045340), wk =   0.0069444
        k(   27) = (   0.0000000  -0.5773503   0.2090680), wk =   0.0069444
        k(   28) = (   0.0000000  -0.5773503  -0.3136020), wk =   0.0034722
        k(   29) = (   0.0833333   0.1443376   0.0000000), wk =   0.0069444
        k(   30) = (   0.0833333   0.1443376   0.1045340), wk =   0.0138889
        k(   31) = (   0.0833333   0.1443376   0.2090680), wk =   0.0138889
        k(   32) = (   0.0833333   0.1443376  -0.3136020), wk =   0.0069444
        k(   33) = (   0.0833333   0.2405626   0.0000000), wk =   0.0138889
        k(   34) = (   0.0833333   0.2405626   0.1045340), wk =   0.0277778
        k(   35) = (   0.0833333   0.2405626   0.2090680), wk =   0.0277778
        k(   36) = (   0.0833333   0.2405626  -0.3136020), wk =   0.0138889
        k(   37) = (   0.0833333   0.3367877   0.0000000), wk =   0.0138889
        k(   38) = (   0.0833333   0.3367877   0.1045340), wk =   0.0277778
        k(   39) = (   0.0833333   0.3367877   0.2090680), wk =   0.0277778
        k(   40) = (   0.0833333   0.3367877  -0.3136020), wk =   0.0138889
        k(   41) = (   0.0833333   0.4330127   0.0000000), wk =   0.0138889
        k(   42) = (   0.0833333   0.4330127   0.1045340), wk =   0.0277778
        k(   43) = (   0.0833333   0.4330127   0.2090680), wk =   0.0277778
        k(   44) = (   0.0833333   0.4330127  -0.3136020), wk =   0.0138889
        k(   45) = (   0.0833333   0.5292377   0.0000000), wk =   0.0138889
        k(   46) = (   0.0833333   0.5292377   0.1045340), wk =   0.0277778
        k(   47) = (   0.0833333   0.5292377   0.2090680), wk =   0.0277778
        k(   48) = (   0.0833333   0.5292377  -0.3136020), wk =   0.0138889
        k(   49) = (   0.1666667   0.2886751   0.0000000), wk =   0.0069444
        k(   50) = (   0.1666667   0.2886751   0.1045340), wk =   0.0138889
        k(   51) = (   0.1666667   0.2886751   0.2090680), wk =   0.0138889
        k(   52) = (   0.1666667   0.2886751  -0.3136020), wk =   0.0069444
        k(   53) = (   0.1666667   0.3849002   0.0000000), wk =   0.0138889
        k(   54) = (   0.1666667   0.3849002   0.1045340), wk =   0.0277778
        k(   55) = (   0.1666667   0.3849002   0.2090680), wk =   0.0277778
        k(   56) = (   0.1666667   0.3849002  -0.3136020), wk =   0.0138889
        k(   57) = (   0.1666667   0.4811252   0.0000000), wk =   0.0138889
        k(   58) = (   0.1666667   0.4811252   0.1045340), wk =   0.0277778
        k(   59) = (   0.1666667   0.4811252   0.2090680), wk =   0.0277778
        k(   60) = (   0.1666667   0.4811252  -0.3136020), wk =   0.0138889
        k(   61) = (   0.1666667   0.5773503   0.0000000), wk =   0.0069444
        k(   62) = (   0.1666667   0.5773503   0.1045340), wk =   0.0138889
        k(   63) = (   0.1666667   0.5773503   0.2090680), wk =   0.0138889
        k(   64) = (   0.1666667   0.5773503  -0.3136020), wk =   0.0069444
        k(   65) = (   0.2500000   0.4330127   0.0000000), wk =   0.0069444
        k(   66) = (   0.2500000   0.4330127   0.1045340), wk =   0.0138889
        k(   67) = (   0.2500000   0.4330127   0.2090680), wk =   0.0138889
        k(   68) = (   0.2500000   0.4330127  -0.3136020), wk =   0.0069444
        k(   69) = (   0.2500000   0.5292377   0.0000000), wk =   0.0138889
        k(   70) = (   0.2500000   0.5292377   0.1045340), wk =   0.0277778
        k(   71) = (   0.2500000   0.5292377   0.2090680), wk =   0.0277778
        k(   72) = (   0.2500000   0.5292377  -0.3136020), wk =   0.0138889
        k(   73) = (   0.3333333   0.5773503   0.0000000), wk =   0.0023148
        k(   74) = (   0.3333333   0.5773503   0.1045340), wk =   0.0046296
        k(   75) = (   0.3333333   0.5773503   0.2090680), wk =   0.0046296
        k(   76) = (   0.3333333   0.5773503  -0.3136020), wk =   0.0023148

                       cryst. coord.
        k(    1) = (   0.0000000   0.0000000   0.0000000), wk =   0.0011574
        k(    2) = (   0.0000000   0.0000000   0.1666667), wk =   0.0023148
        k(    3) = (   0.0000000   0.0000000   0.3333333), wk =   0.0023148
        k(    4) = (   0.0000000   0.0000000  -0.5000000), wk =   0.0011574
        k(    5) = (   0.0000000   0.0833333   0.0000000), wk =   0.0069444
        k(    6) = (   0.0000000   0.0833333   0.1666667), wk =   0.0138889
        k(    7) = (   0.0000000   0.0833333   0.3333333), wk =   0.0138889
        k(    8) = (   0.0000000   0.0833333  -0.5000000), wk =   0.0069444
        k(    9) = (   0.0000000   0.1666667   0.0000000), wk =   0.0069444
        k(   10) = (   0.0000000   0.1666667   0.1666667), wk =   0.0138889
        k(   11) = (   0.0000000   0.1666667   0.3333333), wk =   0.0138889
        k(   12) = (   0.0000000   0.1666667  -0.5000000), wk =   0.0069444
        k(   13) = (   0.0000000   0.2500000   0.0000000), wk =   0.0069444
        k(   14) = (   0.0000000   0.2500000   0.1666667), wk =   0.0138889
        k(   15) = (   0.0000000   0.2500000   0.3333333), wk =   0.0138889
        k(   16) = (   0.0000000   0.2500000  -0.5000000), wk =   0.0069444
        k(   17) = (   0.0000000   0.3333333   0.0000000), wk =   0.0069444
        k(   18) = (   0.0000000   0.3333333   0.1666667), wk =   0.0138889
        k(   19) = (   0.0000000   0.3333333   0.3333333), wk =   0.0138889
        k(   20) = (   0.0000000   0.3333333  -0.5000000), wk =   0.0069444
        k(   21) = (   0.0000000   0.4166667   0.0000000), wk =   0.0069444
        k(   22) = (   0.0000000   0.4166667   0.1666667), wk =   0.0138889
        k(   23) = (   0.0000000   0.4166667   0.3333333), wk =   0.0138889
        k(   24) = (   0.0000000   0.4166667  -0.5000000), wk =   0.0069444
        k(   25) = (   0.0000000  -0.5000000   0.0000000), wk =   0.0034722
        k(   26) = (   0.0000000  -0.5000000   0.1666667), wk =   0.0069444
        k(   27) = (   0.0000000  -0.5000000   0.3333333), wk =   0.0069444
        k(   28) = (   0.0000000  -0.5000000  -0.5000000), wk =   0.0034722
        k(   29) = (   0.0833333   0.0833333   0.0000000), wk =   0.0069444
        k(   30) = (   0.0833333   0.0833333   0.1666667), wk =   0.0138889
        k(   31) = (   0.0833333   0.0833333   0.3333333), wk =   0.0138889
        k(   32) = (   0.0833333   0.0833333  -0.5000000), wk =   0.0069444
        k(   33) = (   0.0833333   0.1666667   0.0000000), wk =   0.0138889
        k(   34) = (   0.0833333   0.1666667   0.1666667), wk =   0.0277778
        k(   35) = (   0.0833333   0.1666667   0.3333333), wk =   0.0277778
        k(   36) = (   0.0833333   0.1666667  -0.5000000), wk =   0.0138889
        k(   37) = (   0.0833333   0.2500000   0.0000000), wk =   0.0138889
        k(   38) = (   0.0833333   0.2500000   0.1666667), wk =   0.0277778
        k(   39) = (   0.0833333   0.2500000   0.3333333), wk =   0.0277778
        k(   40) = (   0.0833333   0.2500000  -0.5000000), wk =   0.0138889
        k(   41) = (   0.0833333   0.3333333   0.0000000), wk =   0.0138889
        k(   42) = (   0.0833333   0.3333333   0.1666667), wk =   0.0277778
        k(   43) = (   0.0833333   0.3333333   0.3333333), wk =   0.0277778
        k(   44) = (   0.0833333   0.3333333  -0.5000000), wk =   0.0138889
        k(   45) = (   0.0833333   0.4166667   0.0000000), wk =   0.0138889
        k(   46) = (   0.0833333   0.4166667   0.1666667), wk =   0.0277778
        k(   47) = (   0.0833333   0.4166667   0.3333333), wk =   0.0277778
        k(   48) = (   0.0833333   0.4166667  -0.5000000), wk =   0.0138889
        k(   49) = (   0.1666667   0.1666667   0.0000000), wk =   0.0069444
        k(   50) = (   0.1666667   0.1666667   0.1666667), wk =   0.0138889
        k(   51) = (   0.1666667   0.1666667   0.3333333), wk =   0.0138889
        k(   52) = (   0.1666667   0.1666667  -0.5000000), wk =   0.0069444
        k(   53) = (   0.1666667   0.2500000   0.0000000), wk =   0.0138889
        k(   54) = (   0.1666667   0.2500000   0.1666667), wk =   0.0277778
        k(   55) = (   0.1666667   0.2500000   0.3333333), wk =   0.0277778
        k(   56) = (   0.1666667   0.2500000  -0.5000000), wk =   0.0138889
        k(   57) = (   0.1666667   0.3333333   0.0000000), wk =   0.0138889
        k(   58) = (   0.1666667   0.3333333   0.1666667), wk =   0.0277778
        k(   59) = (   0.1666667   0.3333333   0.3333333), wk =   0.0277778
        k(   60) = (   0.1666667   0.3333333  -0.5000000), wk =   0.0138889
        k(   61) = (   0.1666667   0.4166667   0.0000000), wk =   0.0069444
        k(   62) = (   0.1666667   0.4166667   0.1666667), wk =   0.0138889
        k(   63) = (   0.1666667   0.4166667   0.3333333), wk =   0.0138889
        k(   64) = (   0.1666667   0.4166667  -0.5000000), wk =   0.0069444
        k(   65) = (   0.2500000   0.2500000   0.0000000), wk =   0.0069444
        k(   66) = (   0.2500000   0.2500000   0.1666667), wk =   0.0138889
        k(   67) = (   0.2500000   0.2500000   0.3333333), wk =   0.0138889
        k(   68) = (   0.2500000   0.2500000  -0.5000000), wk =   0.0069444
        k(   69) = (   0.2500000   0.3333333   0.0000000), wk =   0.0138889
        k(   70) = (   0.2500000   0.3333333   0.1666667), wk =   0.0277778
        k(   71) = (   0.2500000   0.3333333   0.3333333), wk =   0.0277778
        k(   72) = (   0.2500000   0.3333333  -0.5000000), wk =   0.0138889
        k(   73) = (   0.3333333   0.3333333   0.0000000), wk =   0.0023148
        k(   74) = (   0.3333333   0.3333333   0.1666667), wk =   0.0046296
        k(   75) = (   0.3333333   0.3333333   0.3333333), wk =   0.0046296
        k(   76) = (   0.3333333   0.3333333  -0.5000000), wk =   0.0023148

     Dense  grid:    23127 G-vectors     FFT dimensions: (  32,  32,  54)

     Smooth grid:    22407 G-vectors     FFT dimensions: (  32,  32,  54)

     Dynamical RAM for                 wfc:       0.06 MB

     Dynamical RAM for     wfc (w. buffer):       4.93 MB

     Dynamical RAM for           str. fact:       0.03 MB

     Dynamical RAM for           local pot:       0.00 MB

     Dynamical RAM for          nlocal pot:       0.11 MB

     Dynamical RAM for                qrad:       1.70 MB

     Dynamical RAM for          rho,v,vnew:       0.34 MB

     Dynamical RAM for               rhoin:       0.11 MB

     Dynamical RAM for            rho*nmix:       0.81 MB

     Dynamical RAM for           G-vectors:       0.11 MB

     Dynamical RAM for          h,s,v(r/c):       0.08 MB

     Dynamical RAM for          <psi|beta>:       0.01 MB

     Dynamical RAM for                 psi:       0.13 MB

     Dynamical RAM for                hpsi:       0.13 MB

     Dynamical RAM for                spsi:       0.13 MB

     Dynamical RAM for      wfcinit/wfcrot:       0.14 MB

     Dynamical RAM for           addusdens:       2.41 MB

     Estimated static dynamical RAM per process >       7.57 MB

     Estimated max dynamical RAM per process >      10.78 MB

     Estimated total dynamical RAM >     290.61 MB

     Check: negative core charge=   -0.000043
     Generating pointlists ...
     new r_m :   0.4060 (alat units)  1.9105 (a.u.) for type    1

     The initial density is read from file :
     ./out2/Co.save/charge-density


     starting charge      34.0429, renormalised to      34.0000
     Starting wfcs from file
     Checking if some PAW data can be deallocated... 

     total cpu time spent up to now is        0.5 secs

     Self-consistent Calculation

     iteration #  1     ecut=   110.00 Ry     beta= 0.70
     Davidson diagonalization with overlap

---- Real-time Memory Report at c_bands before calling an iterative solver
            58 MiB given to the printing process from OS
             0 MiB allocation reported by mallinfo(arena+hblkhd)
        181350 MiB available memory on the node where the printing process lives
------------------
     ethr =  1.00E-05,  avg # of iterations =  5.4

     total cpu time spent up to now is        2.0 secs

     total energy              =    -753.45077318 Ry
     estimated scf accuracy    <       0.00287390 Ry

     total magnetization       =     3.22 Bohr mag/cell
     absolute magnetization    =     3.53 Bohr mag/cell

     iteration #  2     ecut=   110.00 Ry     beta= 0.70
     Davidson diagonalization with overlap

---- Real-time Memory Report at c_bands before calling an iterative solver
            81 MiB given to the printing process from OS
             0 MiB allocation reported by mallinfo(arena+hblkhd)
        181020 MiB available memory on the node where the printing process lives
------------------
     ethr =  8.45E-06,  avg # of iterations =  5.4

     total cpu time spent up to now is        3.4 secs

     total energy              =    -753.45221326 Ry
     estimated scf accuracy    <       0.01237558 Ry

     total magnetization       =     3.25 Bohr mag/cell
     absolute magnetization    =     3.56 Bohr mag/cell

     iteration #  3     ecut=   110.00 Ry     beta= 0.70
     Davidson diagonalization with overlap

---- Real-time Memory Report at c_bands before calling an iterative solver
            82 MiB given to the printing process from OS
             0 MiB allocation reported by mallinfo(arena+hblkhd)
        181000 MiB available memory on the node where the printing process lives
------------------
     ethr =  8.45E-06,  avg # of iterations =  4.0

     total cpu time spent up to now is        4.6 secs

     total energy              =    -753.45469704 Ry
     estimated scf accuracy    <       0.00024080 Ry

     total magnetization       =     3.23 Bohr mag/cell
     absolute magnetization    =     3.55 Bohr mag/cell

     iteration #  4     ecut=   110.00 Ry     beta= 0.70
     Davidson diagonalization with overlap

---- Real-time Memory Report at c_bands before calling an iterative solver
            84 MiB given to the printing process from OS
             0 MiB allocation reported by mallinfo(arena+hblkhd)
        180984 MiB available memory on the node where the printing process lives
------------------
     ethr =  7.08E-07,  avg # of iterations =  3.6

     total cpu time spent up to now is        5.6 secs

     total energy              =    -753.45481290 Ry
     estimated scf accuracy    <       0.00000570 Ry

     total magnetization       =     3.23 Bohr mag/cell
     absolute magnetization    =     3.55 Bohr mag/cell

     iteration #  5     ecut=   110.00 Ry     beta= 0.70
     Davidson diagonalization with overlap

---- Real-time Memory Report at c_bands before calling an iterative solver
            84 MiB given to the printing process from OS
             0 MiB allocation reported by mallinfo(arena+hblkhd)
        180977 MiB available memory on the node where the printing process lives
------------------
     ethr =  1.68E-08,  avg # of iterations =  8.0

     total cpu time spent up to now is        7.4 secs

     total energy              =    -753.45482020 Ry
     estimated scf accuracy    <       0.00001361 Ry

     total magnetization       =     3.23 Bohr mag/cell
     absolute magnetization    =     3.55 Bohr mag/cell

     iteration #  6     ecut=   110.00 Ry     beta= 0.70
     Davidson diagonalization with overlap

---- Real-time Memory Report at c_bands before calling an iterative solver
            85 MiB given to the printing process from OS
             0 MiB allocation reported by mallinfo(arena+hblkhd)
        180969 MiB available memory on the node where the printing process lives
------------------
     ethr =  1.68E-08,  avg # of iterations =  5.0

     total cpu time spent up to now is        8.8 secs

     total energy              =    -753.45482593 Ry
     estimated scf accuracy    <       0.00001050 Ry

     total magnetization       =     3.24 Bohr mag/cell
     absolute magnetization    =     3.56 Bohr mag/cell

     iteration #  7     ecut=   110.00 Ry     beta= 0.70
     Davidson diagonalization with overlap

---- Real-time Memory Report at c_bands before calling an iterative solver
            86 MiB given to the printing process from OS
             0 MiB allocation reported by mallinfo(arena+hblkhd)
        180999 MiB available memory on the node where the printing process lives
------------------
     ethr =  1.68E-08,  avg # of iterations =  1.2

     total cpu time spent up to now is        9.5 secs

     total energy              =    -753.45482567 Ry
     estimated scf accuracy    <       0.00000281 Ry

     total magnetization       =     3.24 Bohr mag/cell
     absolute magnetization    =     3.56 Bohr mag/cell

     iteration #  8     ecut=   110.00 Ry     beta= 0.70
     Davidson diagonalization with overlap

---- Real-time Memory Report at c_bands before calling an iterative solver
            86 MiB given to the printing process from OS
             0 MiB allocation reported by mallinfo(arena+hblkhd)
        180995 MiB available memory on the node where the printing process lives
------------------
     ethr =  8.26E-09,  avg # of iterations =  3.4
 
     Magnetic moment per site  (integrated on atomic sphere of radius R)
     atom   1 (R=0.406)  charge= 15.5467  magn=  1.6941
     atom   2 (R=0.406)  charge= 15.5467  magn=  1.6941

     total cpu time spent up to now is       10.5 secs

     End of self-consistent calculation

 ------ SPIN UP ------------


          k = 0.0000 0.0000 0.0000 (  2791 PWs)   bands (ev):

   -77.0334 -76.9685 -40.4426 -40.1464 -40.1464 -40.0916 -40.0916 -40.0807
     9.9870  13.8258  16.4403  16.4403  16.4910  16.7808  16.7808  17.0869
    17.0869  18.2828  18.2828  19.0027  25.7573

     occupation numbers 
     1.0000   1.0000   1.0000   1.0000   1.0000   1.0000   1.0000   1.0000
     1.0000   1.0000   1.0000   1.0000   1.0000   1.0000   1.0000   1.0000
     1.0000   1.0000   1.0000   0.9464   0.0000

          k = 0.0000 0.0000 0.1045 (  2809 PWs)   bands (ev):

   -77.0291 -76.9729 -40.4188 -40.1427 -40.1427 -40.1053 -40.0953 -40.0953
    10.2739  13.7673  16.3621  16.3621  16.4131  16.6973  16.6973  17.2721
    17.2721  18.0080  18.2690  18.2690  27.3216

     occupation numbers 
     1.0000   1.0000   1.0000   1.0000   1.0000   1.0000   1.0000   1.0000
     1.0000   1.0000   1.0000   1.0000   1.0000   1.0000   1.0000   1.0000
     1.0000   1.0000   1.0000   1.0000   0.0000

          k = 0.0000 0.0000 0.2091 (  2773 PWs)   bands (ev):

   -77.0172 -76.9848 -40.3532 -40.1722 -40.1327 -40.1327 -40.1053 -40.1053
    11.0954  13.3551  16.2317  16.2973  16.2973  16.5147  16.5147  16.6190
    17.6270  17.6270  18.1805  18.1805  30.6214

     occupation numbers 
     1.0000   1.0000   1.0000   1.0000   1.0000   1.0000   1.0000   1.0000
     1.0000   1.0000   1.0000   1.0000   1.0000   1.0000   1.0000   1.0000
     1.0000   1.0000   1.0000   1.0000   0.0000

          k = 0.0000 0.0000-0.3136 (  2810 PWs)   bands (ev):

   -77.0010 -77.0010 -40.2631 -40.2631 -40.1190 -40.1190 -40.1190 -40.1190
    12.2857  12.2857  16.1396  16.1396  16.3539  16.3539  16.3539  16.3539
    17.9606  17.9606  17.9606  17.9606  34.5436

     occupation numbers 
     1.0000   1.0000   1.0000   1.0000   1.0000   1.0000   1.0000   1.0000
     1.0000   1.0000   1.0000   1.0000   1.0000   1.0000   1.0000   1.0000
     1.0000   1.0000   1.0000   1.0000   0.0000

          k = 0.0000 0.0962 0.0000 (  2803 PWs)   bands (ev):

   -77.0301 -76.9672 -40.4350 -40.1621 -40.1517 -40.1081 -40.0941 -40.0842
    10.2295  13.9686  16.2108  16.5555  16.6746  16.7404  16.8817  16.9385
    17.0132  17.4865  18.3159  20.1162  25.7956

     occupation numbers 
     1.0000   1.0000   1.0000   1.0000   1.0000   1.0000   1.0000   1.0000
     1.0000   1.0000   1.0000   1.0000   1.0000   1.0000   1.0000   1.0000
     1.0000   1.0000   1.0000   0.0000   0.0000

          k = 0.0000 0.0962 0.1045 (  2795 PWs)   bands (ev):

   -77.0259 -76.9714 -40.4125 -40.1578 -40.1478 -40.1234 -40.0980 -40.0962
    10.5119  13.9252  16.2020  16.4577  16.4811  16.5441  16.7915  17.1369
    17.2291  17.3550  18.2940  19.3021  27.4279

     occupation numbers 
     1.0000   1.0000   1.0000   1.0000   1.0000   1.0000   1.0000   1.0000
     1.0000   1.0000   1.0000   1.0000   1.0000   1.0000   1.0000   1.0000
     1.0000   1.0000   1.0000   0.0000   0.0000

          k = 0.0000 0.0962 0.2091 (  2793 PWs)   bands (ev):

   -77.0144 -76.9829 -40.3509 -40.1819 -40.1459 -40.1373 -40.1126 -40.1085
    11.3202  13.5429  16.1042  16.1835  16.2417  16.3865  16.6083  16.7268
    17.6020  17.6536  18.1875  18.4929  30.7713

     occupation numbers 
     1.0000   1.0000   1.0000   1.0000   1.0000   1.0000   1.0000   1.0000
     1.0000   1.0000   1.0000   1.0000   1.0000   1.0000   1.0000   1.0000
     1.0000   1.0000   1.0000   1.0000   0.0000

          k = 0.0000 0.0962-0.3136 (  2808 PWs)   bands (ev):

   -76.9987 -76.9987 -40.2664 -40.2664 -40.1296 -40.1296 -40.1229 -40.1229
    12.4915  12.4915  15.9612  15.9612  16.3954  16.3954  16.4454  16.4454
    17.9498  17.9498  18.0576  18.0576  34.7067

     occupation numbers 
     1.0000   1.0000   1.0000   1.0000   1.0000   1.0000   1.0000   1.0000
     1.0000   1.0000   1.0000   1.0000   1.0000   1.0000   1.0000   1.0000
     1.0000   1.0000   1.0000   1.0000   0.0000

          k = 0.0000 0.1925 0.0000 (  2803 PWs)   bands (ev):

   -77.0208 -76.9636 -40.4132 -40.2053 -40.1659 -40.1525 -40.1012 -40.0946
    10.9306  14.3215  15.9150  16.2396  16.5723  16.8312  16.8809  16.9906
    17.0853  17.1649  18.3873  21.7314  25.9297

     occupation numbers 
     1.0000   1.0000   1.0000   1.0000   1.0000   1.0000   1.0000   1.0000
     1.0000   1.0000   1.0000   1.0000   1.0000   1.0000   1.0000   1.0000
     1.0000   1.0000   1.0000   0.0000   0.0000

          k = 0.0000 0.1925 0.1045 (  2792 PWs)   bands (ev):

   -77.0170 -76.9675 -40.3955 -40.1988 -40.1682 -40.1616 -40.1056 -40.1035
    11.1963  14.3240  15.9398  15.9696  16.4526  16.6573  16.8593  17.0361
    17.2197  17.3469  18.3472  20.5659  27.7729

     occupation numbers 
     1.0000   1.0000   1.0000   1.0000   1.0000   1.0000   1.0000   1.0000
     1.0000   1.0000   1.0000   1.0000   1.0000   1.0000   1.0000   1.0000
     1.0000   1.0000   1.0000   0.0000   0.0000

          k = 0.0000 0.1925 0.2091 (  2796 PWs)   bands (ev):

   -77.0065 -76.9779 -40.3470 -40.2160 -40.1785 -40.1498 -40.1255 -40.1174
    11.9533  14.0301  15.5876  16.0046  16.1658  16.6034  16.6645  16.8689
    17.5771  17.7583  18.2025  19.1633  31.2176

     occupation numbers 
     1.0000   1.0000   1.0000   1.0000   1.0000   1.0000   1.0000   1.0000
     1.0000   1.0000   1.0000   1.0000   1.0000   1.0000   1.0000   1.0000
     1.0000   1.0000   1.0000   0.0000   0.0000

          k = 0.0000 0.1925-0.3136 (  2794 PWs)   bands (ev):

   -76.9922 -76.9922 -40.2810 -40.2810 -40.1528 -40.1528 -40.1336 -40.1336
    13.0443  13.0443  15.7067  15.7067  16.3510  16.3510  16.6897  16.6897
    17.9342  17.9342  18.3177  18.3177  35.1335

     occupation numbers 
     1.0000   1.0000   1.0000   1.0000   1.0000   1.0000   1.0000   1.0000
     1.0000   1.0000   1.0000   1.0000   1.0000   1.0000   1.0000   1.0000
     1.0000   1.0000   1.0000   1.0000   0.0000

          k = 0.0000 0.2887 0.0000 (  2790 PWs)   bands (ev):

   -77.0076 -76.9593 -40.3804 -40.2649 -40.2122 -40.1847 -40.1117 -40.1114
    11.9920  14.6076  15.5005  15.7245  16.4893  16.6127  16.8898  17.3530
    17.4197  17.5723  18.4564  23.5485  26.1806

     occupation numbers 
     1.0000   1.0000   1.0000   1.0000   1.0000   1.0000   1.0000   1.0000
     1.0000   1.0000   1.0000   1.0000   1.0000   1.0000   1.0000   1.0000
     1.0000   1.0000   1.0000   0.0000   0.0000

          k = 0.0000 0.2887 0.1045 (  2795 PWs)   bands (ev):

   -77.0043 -76.9626 -40.3739 -40.2523 -40.2265 -40.1798 -40.1168 -40.1164
    12.2134  14.6647  15.3472  15.7779  16.3269  16.6503  16.8979  17.4051
    17.5209  17.5391  18.3984  21.8736  28.3805

     occupation numbers 
     1.0000   1.0000   1.0000   1.0000   1.0000   1.0000   1.0000   1.0000
     1.0000   1.0000   1.0000   1.0000   1.0000   1.0000   1.0000   1.0000
     1.0000   1.0000   1.0000   0.0000   0.0000

          k = 0.0000 0.2887 0.2091 (  2801 PWs)   bands (ev):

   -76.9955 -76.9714 -40.3521 -40.2707 -40.2114 -40.1664 -40.1359 -40.1298
    12.8290  14.4644  15.2355  15.8352  16.1672  16.7269  16.7746  17.2400
    17.6930  17.9330  18.2277  19.9593  31.7452

     occupation numbers 
     1.0000   1.0000   1.0000   1.0000   1.0000   1.0000   1.0000   1.0000
     1.0000   1.0000   1.0000   1.0000   1.0000   1.0000   1.0000   1.0000
     1.0000   1.0000   1.0000   0.0000   0.0000

          k = 0.0000 0.2887-0.3136 (  2800 PWs)   bands (ev):

   -76.9835 -76.9835 -40.3150 -40.3150 -40.1701 -40.1701 -40.1481 -40.1481
    13.6793  13.6793  15.5505  15.5505  16.4044  16.4044  16.9861  16.9861
    17.9718  17.9718  18.6776  18.6776  33.5550

     occupation numbers 
     1.0000   1.0000   1.0000   1.0000   1.0000   1.0000   1.0000   1.0000
     1.0000   1.0000   1.0000   1.0000   1.0000   1.0000   1.0000   1.0000
     1.0000   1.0000   1.0000   1.0000   0.0000

          k = 0.0000 0.3849 0.0000 (  2810 PWs)   bands (ev):

   -76.9933 -76.9560 -40.3419 -40.3250 -40.2708 -40.2030 -40.1346 -40.1221
    13.1559  14.5462  14.9581  15.8162  16.4162  16.6149  16.7222  17.8557
    18.0155  18.0973  18.5053  25.5222  26.1112

     occupation numbers 
     1.0000   1.0000   1.0000   1.0000   1.0000   1.0000   1.0000   1.0000
     1.0000   1.0000   1.0000   1.0000   1.0000   1.0000   1.0000   1.0000
     1.0000   1.0000   1.0000   0.0000   0.0000

          k = 0.0000 0.3849 0.1045 (  2806 PWs)   bands (ev):

   -76.9908 -76.9585 -40.3677 -40.2963 -40.2734 -40.1976 -40.1349 -40.1275
    13.2611  14.5945  14.9841  15.6984  16.5058  16.5129  17.0629  17.8844
    17.9162  18.0332  18.4406  23.1181  28.1285

     occupation numbers 
     1.0000   1.0000   1.0000   1.0000   1.0000   1.0000   1.0000   1.0000
     1.0000   1.0000   1.0000   1.0000   1.0000   1.0000   1.0000   1.0000
     1.0000   1.0000   1.0000   0.0000   0.0000

          k = 0.0000 0.3849 0.2091 (  2797 PWs)   bands (ev):

   -76.9840 -76.9654 -40.3767 -40.3275 -40.2229 -40.1829 -40.1453 -40.1424
    13.5548  14.4309  15.1154  15.6566  16.5720  16.7859  17.3371  17.5976
    17.9965  18.1657  18.2987  20.8504  29.1802

     occupation numbers 
     1.0000   1.0000   1.0000   1.0000   1.0000   1.0000   1.0000   1.0000
     1.0000   1.0000   1.0000   1.0000   1.0000   1.0000   1.0000   1.0000
     1.0000   1.0000   1.0000   0.0000   0.0000

          k = 0.0000 0.3849-0.3136 (  2796 PWs)   bands (ev):

   -76.9747 -76.9747 -40.3608 -40.3608 -40.1754 -40.1754 -40.1626 -40.1626
    13.9816  13.9816  15.4352  15.4352  16.9919  16.9919  17.1804  17.1804
    18.1404  18.1404  19.1612  19.1612  30.3352

     occupation numbers 
     1.0000   1.0000   1.0000   1.0000   1.0000   1.0000   1.0000   1.0000
     1.0000   1.0000   1.0000   1.0000   1.0000   1.0000   1.0000   1.0000
     1.0000   1.0000   0.0000   0.0000   0.0000

          k = 0.0000 0.4811 0.0000 (  2810 PWs)   bands (ev):

   -76.9815 -76.9550 -40.3694 -40.3129 -40.3061 -40.2162 -40.1590 -40.1301
    13.9364  14.3592  14.6318  16.1672  16.2823  16.6048  16.8167  18.2305
    18.3844  18.5322  19.1954  24.0950  27.5515

     occupation numbers 
     1.0000   1.0000   1.0000   1.0000   1.0000   1.0000   1.0000   1.0000
     1.0000   1.0000   1.0000   1.0000   1.0000   1.0000   1.0000   1.0000
     1.0000   1.0000   0.0000   0.0000   0.0000

          k = 0.0000 0.4811 0.1045 (  2797 PWs)   bands (ev):

   -76.9797 -76.9567 -40.3901 -40.3326 -40.2703 -40.2105 -40.1543 -40.1359
    13.8305  14.3663  14.9521  15.6021  16.4016  16.7970  17.4036  18.1988
    18.2840  18.4900  19.0291  23.3493  26.7678

     occupation numbers 
     1.0000   1.0000   1.0000   1.0000   1.0000   1.0000   1.0000   1.0000
     1.0000   1.0000   1.0000   1.0000   1.0000   1.0000   1.0000   1.0000
     1.0000   1.0000   0.1287   0.0000   0.0000

          k = 0.0000 0.4811 0.2091 (  2806 PWs)   bands (ev):

   -76.9749 -76.9616 -40.4063 -40.3689 -40.2172 -40.1948 -40.1546 -40.1517
    13.8048  14.3032  15.1068  15.4700  16.7409  17.0134  17.7876  18.3067
    18.4004  18.4326  18.6752  21.6346  26.8568

     occupation numbers 
     1.0000   1.0000   1.0000   1.0000   1.0000   1.0000   1.0000   1.0000
     1.0000   1.0000   1.0000   1.0000   1.0000   1.0000   1.0000   1.0000
     1.0000   1.0000   1.0000   0.0000   0.0000

          k = 0.0000 0.4811-0.3136 (  2798 PWs)   bands (ev):

   -76.9682 -76.9682 -40.3982 -40.3982 -40.1752 -40.1752 -40.1733 -40.1733
    14.0000  14.0000  15.3178  15.3178  17.2397  17.2398  17.7351  17.7351
    18.3681  18.3681  19.9531  19.9531  27.6472

     occupation numbers 
     1.0000   1.0000   1.0000   1.0000   1.0000   1.0000   1.0000   1.0000
     1.0000   1.0000   1.0000   1.0000   1.0000   1.0000   1.0000   1.0000
     1.0000   1.0000   0.0000   0.0000   0.0000

          k = 0.0000-0.5774 0.0000 (  2798 PWs)   bands (ev):

   -76.9765 -76.9552 -40.3857 -40.3282 -40.2893 -40.2210 -40.1716 -40.1331
    14.2072  14.2159  14.5232  16.2349  16.4105  16.5625  16.8965  18.3658
    18.5341  18.5406  20.3336  22.3614  28.8611

     occupation numbers 
     1.0000   1.0000   1.0000   1.0000   1.0000   1.0000   1.0000   1.0000
     1.0000   1.0000   1.0000   1.0000   1.0000   1.0000   1.0000   1.0000
     1.0000   1.0000   0.0000   0.0000   0.0000

          k = 0.0000-0.5774 0.1045 (  2814 PWs)   bands (ev):

   -76.9751 -76.9567 -40.4026 -40.3472 -40.2607 -40.2151 -40.1642 -40.1390
    13.9389  14.2648  14.9915  15.5764  16.3608  16.8910  17.5992  18.2821
    18.4452  18.5256  20.1177  22.1853  27.9456

     occupation numbers 
     1.0000   1.0000   1.0000   1.0000   1.0000   1.0000   1.0000   1.0000
     1.0000   1.0000   1.0000   1.0000   1.0000   1.0000   1.0000   1.0000
     1.0000   1.0000   0.0000   0.0000   0.0000

          k = 0.0000-0.5774 0.2091 (  2814 PWs)   bands (ev):

   -76.9712 -76.9606 -40.4188 -40.3840 -40.2122 -40.1991 -40.1593 -40.1551
    13.8266  14.2537  15.1295  15.3863  16.7190  17.1650  17.8323  18.4406
    18.5021  18.5173  19.7620  21.5860  26.8211

     occupation numbers 
     1.0000   1.0000   1.0000   1.0000   1.0000   1.0000   1.0000   1.0000
     1.0000   1.0000   1.0000   1.0000   1.0000   1.0000   1.0000   1.0000
     1.0000   1.0000   0.0000   0.0000   0.0000

          k = 0.0000-0.5774-0.3136 (  2804 PWs)   bands (ev):

   -76.9659 -76.9659 -40.4123 -40.4123 -40.1771 -40.1771 -40.1747 -40.1747
    13.9813  13.9813  15.2706  15.2706  17.2478  17.2478  17.9938  17.9938
    18.4703  18.4703  20.5679  20.5679  26.4141

     occupation numbers 
     1.0000   1.0000   1.0000   1.0000   1.0000   1.0000   1.0000   1.0000
     1.0000   1.0000   1.0000   1.0000   1.0000   1.0000   1.0000   1.0000
     1.0000   1.0000   0.0000   0.0000   0.0000

          k = 0.0833 0.1443 0.0000 (  2806 PWs)   bands (ev):

   -77.0238 -76.9647 -40.4203 -40.1888 -40.1674 -40.1333 -40.1010 -40.0911
    10.7021  14.2220  15.9790  16.4878  16.6321  16.7909  16.8116  16.8438
    17.1071  17.1994  18.3590  21.2787  25.8839

     occupation numbers 
     1.0000   1.0000   1.0000   1.0000   1.0000   1.0000   1.0000   1.0000
     1.0000   1.0000   1.0000   1.0000   1.0000   1.0000   1.0000   1.0000
     1.0000   1.0000   1.0000   0.0000   0.0000

          k = 0.0833 0.1443 0.1045 (  2797 PWs)   bands (ev):

   -77.0198 -76.9687 -40.4009 -40.1830 -40.1665 -40.1466 -40.1052 -40.1002
    10.9741  14.2097  16.0013  16.1444  16.4944  16.6287  16.8275  16.9538
    17.2645  17.3082  18.3276  20.2233  27.6557

     occupation numbers 
     1.0000   1.0000   1.0000   1.0000   1.0000   1.0000   1.0000   1.0000
     1.0000   1.0000   1.0000   1.0000   1.0000   1.0000   1.0000   1.0000
     1.0000   1.0000   1.0000   0.0000   0.0000

          k = 0.0833 0.1443 0.2091 (  2793 PWs)   bands (ev):

   -77.0090 -76.9795 -40.3477 -40.2041 -40.1672 -40.1482 -40.1198 -40.1164
    11.7509  13.8869  15.7170  16.0532  16.1797  16.5459  16.6740  16.7865
    17.6082  17.6967  18.2026  18.9690  31.0727

     occupation numbers 
     1.0000   1.0000   1.0000   1.0000   1.0000   1.0000   1.0000   1.0000
     1.0000   1.0000   1.0000   1.0000   1.0000   1.0000   1.0000   1.0000
     1.0000   1.0000   1.0000   1.0000   0.0000

          k = 0.0833 0.1443-0.3136 (  2776 PWs)   bands (ev):

   -76.9943 -76.9943 -40.2752 -40.2752 -40.1464 -40.1464 -40.1304 -40.1304
    12.8745  12.8745  15.7692  15.7692  16.3496  16.3496  16.6263  16.6263
    17.9402  17.9402  18.2364  18.2364  35.0179

     occupation numbers 
     1.0000   1.0000   1.0000   1.0000   1.0000   1.0000   1.0000   1.0000
     1.0000   1.0000   1.0000   1.0000   1.0000   1.0000   1.0000   1.0000
     1.0000   1.0000   1.0000   1.0000   0.0000

          k = 0.0833 0.2406 0.0000 (  2798 PWs)   bands (ev):

   -77.0125 -76.9608 -40.3929 -40.2362 -40.2048 -40.1652 -40.1129 -40.1049
    11.5916  14.5833  15.6894  15.7733  16.5204  16.5860  17.0399  17.0994
    17.2203  17.5264  18.4135  22.8933  26.0999

     occupation numbers 
     1.0000   1.0000   1.0000   1.0000   1.0000   1.0000   1.0000   1.0000
     1.0000   1.0000   1.0000   1.0000   1.0000   1.0000   1.0000   1.0000
     1.0000   1.0000   1.0000   0.0000   0.0000

          k = 0.0833 0.2406 0.1045 (  2798 PWs)   bands (ev):

   -77.0090 -76.9643 -40.3810 -40.2273 -40.2114 -40.1700 -40.1180 -40.1097
    11.8351  14.6310  15.5522  15.7395  16.3853  16.6432  16.8354  17.1844
    17.4352  17.5187  18.3741  21.4240  28.1570

     occupation numbers 
     1.0000   1.0000   1.0000   1.0000   1.0000   1.0000   1.0000   1.0000
     1.0000   1.0000   1.0000   1.0000   1.0000   1.0000   1.0000   1.0000
     1.0000   1.0000   1.0000   0.0000   0.0000

          k = 0.0833 0.2406 0.2091 (  2805 PWs)   bands (ev):

   -76.9996 -76.9737 -40.3474 -40.2489 -40.1980 -40.1660 -40.1318 -40.1258
    12.5224  14.4064  15.3206  15.8460  16.1216  16.5558  16.7555  17.1074
    17.6981  17.8362  18.2450  19.6833  31.6524

     occupation numbers 
     1.0000   1.0000   1.0000   1.0000   1.0000   1.0000   1.0000   1.0000
     1.0000   1.0000   1.0000   1.0000   1.0000   1.0000   1.0000   1.0000
     1.0000   1.0000   1.0000   0.0000   0.0000

          k = 0.0833 0.2406-0.3136 (  2792 PWs)   bands (ev):

   -76.9867 -76.9867 -40.2992 -40.2992 -40.1673 -40.1673 -40.1426 -40.1426
    13.4980  13.4980  15.6002  15.6002  16.2480  16.2480  16.9084  16.9084
    17.9823  17.9823  18.5486  18.5486  35.1328

     occupation numbers 
     1.0000   1.0000   1.0000   1.0000   1.0000   1.0000   1.0000   1.0000
     1.0000   1.0000   1.0000   1.0000   1.0000   1.0000   1.0000   1.0000
     1.0000   1.0000   1.0000   1.0000   0.0000

          k = 0.0833 0.3368 0.0000 (  2796 PWs)   bands (ev):

   -76.9987 -76.9571 -40.3570 -40.2947 -40.2527 -40.1940 -40.1256 -40.1253
    12.7397  14.7081  15.1795  15.5960  16.3947  16.5415  16.8503  17.4964
    17.7301  18.0948  18.4603  24.7497  26.3966

     occupation numbers 
     1.0000   1.0000   1.0000   1.0000   1.0000   1.0000   1.0000   1.0000
     1.0000   1.0000   1.0000   1.0000   1.0000   1.0000   1.0000   1.0000
     1.0000   1.0000   1.0000   0.0000   0.0000

          k = 0.0833 0.3368 0.1045 (  2799 PWs)   bands (ev):

   -76.9959 -76.9598 -40.3636 -40.2786 -40.2569 -40.1934 -40.1334 -40.1235
    12.9108  14.7891  15.0765  15.6524  16.2971  16.6303  16.8362  17.5083
    17.8313  17.9675  18.4541  22.7056  28.8056

     occupation numbers 
     1.0000   1.0000   1.0000   1.0000   1.0000   1.0000   1.0000   1.0000
     1.0000   1.0000   1.0000   1.0000   1.0000   1.0000   1.0000   1.0000
     1.0000   1.0000   1.0000   0.0000   0.0000

          k = 0.0833 0.3368 0.2091 (  2798 PWs)   bands (ev):

   -76.9883 -76.9675 -40.3612 -40.3035 -40.2197 -40.1839 -40.1483 -40.1331
    13.3732  14.5797  15.1616  15.7594  16.1903  16.6740  16.8518  17.4524
    17.9331  18.1016  18.4034  20.5521  30.8219

     occupation numbers 
     1.0000   1.0000   1.0000   1.0000   1.0000   1.0000   1.0000   1.0000
     1.0000   1.0000   1.0000   1.0000   1.0000   1.0000   1.0000   1.0000
     1.0000   1.0000   1.0000   0.0000   0.0000

          k = 0.0833 0.3368-0.3136 (  2802 PWs)   bands (ev):

   -76.9779 -76.9779 -40.3389 -40.3389 -40.1822 -40.1822 -40.1538 -40.1538
    13.9894  13.9894  15.5303  15.5303  16.4070  16.4070  17.1193  17.1193
    18.1692  18.1692  19.0137  19.0137  32.0400

     occupation numbers 
     1.0000   1.0000   1.0000   1.0000   1.0000   1.0000   1.0000   1.0000
     1.0000   1.0000   1.0000   1.0000   1.0000   1.0000   1.0000   1.0000
     1.0000   1.0000   0.6789   0.6789   0.0000

          k = 0.0833 0.4330 0.0000 (  2804 PWs)   bands (ev):

   -76.9855 -76.9551 -40.3467 -40.3187 -40.2954 -40.2159 -40.1500 -40.1366
    13.7605  14.5382  14.7746  15.8127  16.2669  16.6674  16.7352  17.9911
    18.1683  18.4903  18.8952  25.4736  26.7593

     occupation numbers 
     1.0000   1.0000   1.0000   1.0000   1.0000   1.0000   1.0000   1.0000
     1.0000   1.0000   1.0000   1.0000   1.0000   1.0000   1.0000   1.0000
     1.0000   1.0000   1.0000   0.0000   0.0000

          k = 0.0833 0.4330 0.1045 (  2803 PWs)   bands (ev):

   -76.9834 -76.9571 -40.3733 -40.3170 -40.2732 -40.2116 -40.1510 -40.1372
    13.7590  14.5776  14.9211  15.6032  16.3500  16.7137  17.0131  17.9359
    18.2357  18.2879  18.9031  23.7422  27.2218

     occupation numbers 
     1.0000   1.0000   1.0000   1.0000   1.0000   1.0000   1.0000   1.0000
     1.0000   1.0000   1.0000   1.0000   1.0000   1.0000   1.0000   1.0000
     1.0000   1.0000   1.0000   0.0000   0.0000

          k = 0.0833 0.4330 0.2091 (  2806 PWs)   bands (ev):

   -76.9779 -76.9627 -40.3888 -40.3501 -40.2254 -40.1945 -40.1638 -40.1407
    13.8532  14.4590  15.1054  15.6183  16.4611  16.8980  17.3755  17.6668
    18.1253  18.4218  18.9681  21.5512  27.9264

     occupation numbers 
     1.0000   1.0000   1.0000   1.0000   1.0000   1.0000   1.0000   1.0000
     1.0000   1.0000   1.0000   1.0000   1.0000   1.0000   1.0000   1.0000
     1.0000   1.0000   1.0000   0.0000   0.0000

          k = 0.0833 0.4330-0.3136 (  2806 PWs)   bands (ev):

   -76.9703 -76.9703 -40.3793 -40.3793 -40.1931 -40.1931 -40.1592 -40.1592
    14.1125  14.1125  15.4237  15.4237  16.9151  16.9151  17.3134  17.3134
    18.3720  18.3720  19.8352  19.8352  28.9977

     occupation numbers 
     1.0000   1.0000   1.0000   1.0000   1.0000   1.0000   1.0000   1.0000
     1.0000   1.0000   1.0000   1.0000   1.0000   1.0000   1.0000   1.0000
     1.0000   1.0000   0.0000   0.0000   0.0000

          k = 0.0833 0.5292 0.0000 (  2807 PWs)   bands (ev):

   -76.9765 -76.9552 -40.3770 -40.3203 -40.2895 -40.2280 -40.1714 -40.1429
    14.2288  14.3747  14.5711  16.1699  16.2104  16.5500  16.8923  18.3419
    18.4130  18.5041  20.1595  23.1182  28.6693

     occupation numbers 
     1.0000   1.0000   1.0000   1.0000   1.0000   1.0000   1.0000   1.0000
     1.0000   1.0000   1.0000   1.0000   1.0000   1.0000   1.0000   1.0000
     1.0000   1.0000   0.0000   0.0000   0.0000

          k = 0.0833 0.5292 0.1045 (  2806 PWs)   bands (ev):

   -76.9751 -76.9566 -40.3938 -40.3398 -40.2636 -40.2193 -40.1674 -40.1451
    14.0174  14.3969  15.0144  15.5527  16.2710  16.9236  17.2556  18.2377
    18.3933  18.4531  20.0886  22.8655  27.3437

     occupation numbers 
     1.0000   1.0000   1.0000   1.0000   1.0000   1.0000   1.0000   1.0000
     1.0000   1.0000   1.0000   1.0000   1.0000   1.0000   1.0000   1.0000
     1.0000   1.0000   0.0000   0.0000   0.0000

          k = 0.0833 0.5292 0.2091 (  2812 PWs)   bands (ev):

   -76.9712 -76.9605 -40.4101 -40.3763 -40.2277 -40.1924 -40.1758 -40.1465
    13.9304  14.3818  15.1355  15.4897  16.4521  17.2190  17.6713  17.8961
    18.3415  18.5458  20.1236  22.0182  26.5560

     occupation numbers 
     1.0000   1.0000   1.0000   1.0000   1.0000   1.0000   1.0000   1.0000
     1.0000   1.0000   1.0000   1.0000   1.0000   1.0000   1.0000   1.0000
     1.0000   1.0000   0.0000   0.0000   0.0000

          k = 0.0833 0.5292-0.3136 (  2802 PWs)   bands (ev):

   -76.9659 -76.9659 -40.4040 -40.4040 -40.1998 -40.1998 -40.1604 -40.1604
    14.0956  14.0956  15.3409  15.3409  17.0303  17.0303  17.7478  17.7478
    18.4137  18.4137  20.8799  20.8799  26.8211

     occupation numbers 
     1.0000   1.0000   1.0000   1.0000   1.0000   1.0000   1.0000   1.0000
     1.0000   1.0000   1.0000   1.0000   1.0000   1.0000   1.0000   1.0000
     1.0000   1.0000   0.0000   0.0000   0.0000

          k = 0.1667 0.2887 0.0000 (  2794 PWs)   bands (ev):

   -77.0006 -76.9575 -40.3622 -40.2700 -40.2601 -40.1834 -40.1339 -40.1221
    12.5929  14.8746  15.2950  15.3860  16.3305  16.5331  16.9361  17.2718
    17.7183  18.1121  18.4232  24.4881  26.4606

     occupation numbers 
     1.0000   1.0000   1.0000   1.0000   1.0000   1.0000   1.0000   1.0000
     1.0000   1.0000   1.0000   1.0000   1.0000   1.0000   1.0000   1.0000
     1.0000   1.0000   1.0000   0.0000   0.0000

          k = 0.1667 0.2887 0.1045 (  2794 PWs)   bands (ev):

   -76.9977 -76.9604 -40.3630 -40.2669 -40.2512 -40.1909 -40.1386 -40.1213
    12.7862  14.9777  15.1538  15.4413  16.3135  16.5433  16.7972  17.3353
    17.8485  17.9591  18.4649  22.5667  28.8547

     occupation numbers 
     1.0000   1.0000   1.0000   1.0000   1.0000   1.0000   1.0000   1.0000
     1.0000   1.0000   1.0000   1.0000   1.0000   1.0000   1.0000   1.0000
     1.0000   1.0000   1.0000   0.0000   0.0000

          k = 0.1667 0.2887 0.2091 (  2803 PWs)   bands (ev):

   -76.9898 -76.9683 -40.3542 -40.2932 -40.2121 -40.1927 -40.1500 -40.1301
    13.3154  14.7056  15.2584  15.6039  16.1467  16.3994  16.7800  17.3899
    17.9608  18.0661  18.4815  20.4740  32.2422

     occupation numbers 
     1.0000   1.0000   1.0000   1.0000   1.0000   1.0000   1.0000   1.0000
     1.0000   1.0000   1.0000   1.0000   1.0000   1.0000   1.0000   1.0000
     1.0000   1.0000   1.0000   0.0000   0.0000

          k = 0.1667 0.2887-0.3136 (  2798 PWs)   bands (ev):

   -76.9791 -76.9791 -40.3285 -40.3285 -40.1871 -40.1871 -40.1507 -40.1507
    14.0278  14.0278  15.6022  15.6022  16.0931  16.0931  17.0693  17.0693
    18.2220  18.2220  18.9914  18.9914  33.7417

     occupation numbers 
     1.0000   1.0000   1.0000   1.0000   1.0000   1.0000   1.0000   1.0000
     1.0000   1.0000   1.0000   1.0000   1.0000   1.0000   1.0000   1.0000
     1.0000   1.0000   0.9974   0.9974   0.0000

          k = 0.1667 0.3849 0.0000 (  2801 PWs)   bands (ev):

   -76.9877 -76.9552 -40.3255 -40.3167 -40.2924 -40.2120 -40.1541 -40.1453
    13.6929  14.8700  14.9147  15.3397  16.1757  16.6823  16.7479  17.5777
    18.1732  18.4279  18.9111  26.3609  26.7136

     occupation numbers 
     1.0000   1.0000   1.0000   1.0000   1.0000   1.0000   1.0000   1.0000
     1.0000   1.0000   1.0000   1.0000   1.0000   1.0000   1.0000   1.0000
     1.0000   1.0000   1.0000   0.0000   0.0000

          k = 0.1667 0.3849 0.1045 (  2803 PWs)   bands (ev):

   -76.9855 -76.9574 -40.3553 -40.3113 -40.2634 -40.2184 -40.1604 -40.1372
    13.7779  14.8395  14.9846  15.4304  16.2407  16.6409  16.7031  17.6009
    18.1858  18.2697  19.0164  23.8527  28.6498

     occupation numbers 
     1.0000   1.0000   1.0000   1.0000   1.0000   1.0000   1.0000   1.0000
     1.0000   1.0000   1.0000   1.0000   1.0000   1.0000   1.0000   1.0000
     1.0000   1.0000   0.5748   0.0000   0.0000

          k = 0.1667 0.3849 0.2091 (  2797 PWs)   bands (ev):

   -76.9796 -76.9633 -40.3698 -40.3346 -40.2269 -40.2100 -40.1692 -40.1357
    14.0073  14.6378  15.2471  15.6890  16.1631  16.4585  16.8250  17.5404
    18.0715  18.4350  19.2077  21.5800  29.6032

     occupation numbers 
     1.0000   1.0000   1.0000   1.0000   1.0000   1.0000   1.0000   1.0000
     1.0000   1.0000   1.0000   1.0000   1.0000   1.0000   1.0000   1.0000
     1.0000   1.0000   0.0000   0.0000   0.0000

          k = 0.1667 0.3849-0.3136 (  2800 PWs)   bands (ev):

   -76.9715 -76.9715 -40.3604 -40.3604 -40.2097 -40.2097 -40.1530 -40.1530
    14.3226  14.3226  15.6141  15.6141  16.2291  16.2291  17.1040  17.1040
    18.4345  18.4345  19.9301  19.9301  30.7909

     occupation numbers 
     1.0000   1.0000   1.0000   1.0000   1.0000   1.0000   1.0000   1.0000
     1.0000   1.0000   1.0000   1.0000   1.0000   1.0000   1.0000   1.0000
     1.0000   1.0000   0.0000   0.0000   0.0000

          k = 0.1667 0.4811 0.0000 (  2813 PWs)   bands (ev):

   -76.9766 -76.9552 -40.3542 -40.3069 -40.2899 -40.2399 -40.1710 -40.1677
    14.3998  14.6716  14.6778  15.6392  16.1296  16.5476  16.8875  17.9794
    18.4067  18.4297  20.0771  24.7679  28.3835

     occupation numbers 
     1.0000   1.0000   1.0000   1.0000   1.0000   1.0000   1.0000   1.0000
     1.0000   1.0000   1.0000   1.0000   1.0000   1.0000   1.0000   1.0000
     1.0000   1.0000   0.0000   0.0000   0.0000

          k = 0.1667 0.4811 0.1045 (  2813 PWs)   bands (ev):

   -76.9752 -76.9566 -40.3707 -40.3288 -40.2664 -40.2306 -40.1797 -40.1534
    14.2526  14.7456  14.9363  15.4796  16.1840  16.6671  16.9411  17.9598
    18.2137  18.4759  20.1665  24.2557  27.0926

     occupation numbers 
     1.0000   1.0000   1.0000   1.0000   1.0000   1.0000   1.0000   1.0000
     1.0000   1.0000   1.0000   1.0000   1.0000   1.0000   1.0000   1.0000
     1.0000   1.0000   0.0000   0.0000   0.0000

          k = 0.1667 0.4811 0.2091 (  2801 PWs)   bands (ev):

   -76.9712 -76.9605 -40.3883 -40.3603 -40.2492 -40.2092 -40.1796 -40.1426
    14.2197  14.6763  15.1435  15.7226  16.0686  16.7770  17.1418  17.6401
    18.1528  18.5620  20.4885  22.7483  27.1180

     occupation numbers 
     1.0000   1.0000   1.0000   1.0000   1.0000   1.0000   1.0000   1.0000
     1.0000   1.0000   1.0000   1.0000   1.0000   1.0000   1.0000   1.0000
     1.0000   1.0000   0.0000   0.0000   0.0000

          k = 0.1667 0.4811-0.3136 (  2804 PWs)   bands (ev):

   -76.9659 -76.9659 -40.3846 -40.3846 -40.2275 -40.2275 -40.1524 -40.1524
    14.3855  14.3855  15.5170  15.5170  16.4902  16.4902  17.2974  17.2974
    18.4402  18.4402  21.3155  21.3155  28.0105

     occupation numbers 
     1.0000   1.0000   1.0000   1.0000   1.0000   1.0000   1.0000   1.0000
     1.0000   1.0000   1.0000   1.0000   1.0000   1.0000   1.0000   1.0000
     1.0000   1.0000   0.0000   0.0000   0.0000

          k = 0.1667 0.5774 0.0000 (  2820 PWs)   bands (ev):

   -76.9716 -76.9560 -40.3679 -40.3107 -40.2718 -40.2518 -40.1855 -40.1725
    14.5735  14.5796  14.5980  15.8570  16.1400  16.4478  16.9751  18.2508
    18.3932  18.4299  21.3232  22.9228  29.2969

     occupation numbers 
     1.0000   1.0000   1.0000   1.0000   1.0000   1.0000   1.0000   1.0000
     1.0000   1.0000   1.0000   1.0000   1.0000   1.0000   1.0000   1.0000
     1.0000   1.0000   0.0000   0.0000   0.0000

          k = 0.1667 0.5774 0.1045 (  2812 PWs)   bands (ev):

   -76.9706 -76.9571 -40.3809 -40.3313 -40.2728 -40.2228 -40.1915 -40.1606
    14.2817  14.6563  15.1047  15.4641  16.1059  16.7838  17.0318  18.1817
    18.2464  18.4568  21.4289  22.8740  28.4071

     occupation numbers 
     1.0000   1.0000   1.0000   1.0000   1.0000   1.0000   1.0000   1.0000
     1.0000   1.0000   1.0000   1.0000   1.0000   1.0000   1.0000   1.0000
     1.0000   1.0000   0.0000   0.0000   0.0000

          k = 0.1667 0.5774 0.2091 (  2804 PWs)   bands (ev):

   -76.9677 -76.9599 -40.3969 -40.3681 -40.2581 -40.2096 -40.1805 -40.1464
    14.2177  14.6866  15.1815  15.6837  15.9814  16.9843  17.2612  17.7135
    18.2619  18.4990  21.7467  22.6770  27.1056

     occupation numbers 
     1.0000   1.0000   1.0000   1.0000   1.0000   1.0000   1.0000   1.0000
     1.0000   1.0000   1.0000   1.0000   1.0000   1.0000   1.0000   1.0000
     1.0000   1.0000   0.0000   0.0000   0.0000

          k = 0.1667 0.5774-0.3136 (  2810 PWs)   bands (ev):

   -76.9638 -76.9638 -40.3936 -40.3936 -40.2342 -40.2342 -40.1519 -40.1519
    14.3874  14.3874  15.4761  15.4761  16.5345  16.5345  17.5005  17.5005
    18.3777  18.3777  22.2478  22.2478  26.6091

     occupation numbers 
     1.0000   1.0000   1.0000   1.0000   1.0000   1.0000   1.0000   1.0000
     1.0000   1.0000   1.0000   1.0000   1.0000   1.0000   1.0000   1.0000
     1.0000   1.0000   0.0000   0.0000   0.0000

          k = 0.2500 0.4330 0.0000 (  2806 PWs)   bands (ev):

   -76.9766 -76.9551 -40.3344 -40.3102 -40.2901 -40.2384 -40.1860 -40.1708
    14.5234  14.7385  15.0576  15.1239  16.0737  16.5555  16.8929  17.7607
    18.3916  18.4159  20.0836  26.5585  27.2505

     occupation numbers 
     1.0000   1.0000   1.0000   1.0000   1.0000   1.0000   1.0000   1.0000
     1.0000   1.0000   1.0000   1.0000   1.0000   1.0000   1.0000   1.0000
     1.0000   1.0000   0.0000   0.0000   0.0000

          k = 0.2500 0.4330 0.1045 (  2817 PWs)   bands (ev):

   -76.9752 -76.9566 -40.3465 -40.3381 -40.2527 -40.2477 -40.1893 -40.1555
    14.5365  14.6882  15.1400  15.2516  16.2279  16.4060  16.8754  17.7868
    18.1642  18.4850  20.2193  25.1010  27.5462

     occupation numbers 
     1.0000   1.0000   1.0000   1.0000   1.0000   1.0000   1.0000   1.0000
     1.0000   1.0000   1.0000   1.0000   1.0000   1.0000   1.0000   1.0000
     1.0000   1.0000   0.0000   0.0000   0.0000

          k = 0.2500 0.4330 0.2091 (  2805 PWs)   bands (ev):

   -76.9712 -76.9605 -40.3716 -40.3549 -40.2574 -40.2261 -40.1778 -40.1417
    14.5535  14.6372  15.3195  15.6605  16.0666  16.3427  16.8929  17.5568
    18.1239  18.5683  20.6103  23.0450  28.3590

     occupation numbers 
     1.0000   1.0000   1.0000   1.0000   1.0000   1.0000   1.0000   1.0000
     1.0000   1.0000   1.0000   1.0000   1.0000   1.0000   1.0000   1.0000
     1.0000   1.0000   0.0000   0.0000   0.0000

          k = 0.2500 0.4330-0.3136 (  2802 PWs)   bands (ev):

   -76.9659 -76.9659 -40.3726 -40.3726 -40.2421 -40.2421 -40.1500 -40.1500
    14.5897  14.5897  15.6614  15.6614  16.1112  16.1112  17.1042  17.1042
    18.4605  18.4605  21.4808  21.4808  29.4202

     occupation numbers 
     1.0000   1.0000   1.0000   1.0000   1.0000   1.0000   1.0000   1.0000
     1.0000   1.0000   1.0000   1.0000   1.0000   1.0000   1.0000   1.0000
     1.0000   1.0000   0.0000   0.0000   0.0000

          k = 0.2500 0.5292 0.0000 (  2825 PWs)   bands (ev):

   -76.9682 -76.9571 -40.3484 -40.2999 -40.2686 -40.2583 -40.2062 -40.1969
    14.6527  14.8226  14.9269  15.4251  16.0944  16.3592  17.0645  18.0332
    18.3699  18.3731  21.7245  24.2930  26.6008

     occupation numbers 
     1.0000   1.0000   1.0000   1.0000   1.0000   1.0000   1.0000   1.0000
     1.0000   1.0000   1.0000   1.0000   1.0000   1.0000   1.0000   1.0000
     1.0000   1.0000   0.0000   0.0000   0.0000

          k = 0.2500 0.5292 0.1045 (  2815 PWs)   bands (ev):

   -76.9675 -76.9579 -40.3546 -40.3257 -40.2884 -40.2272 -40.2089 -40.1734
    14.5937  14.9610  15.0605  15.3331  16.1249  16.3486  17.0611  18.0417
    18.1366  18.4189  21.9240  24.3221  26.6679

     occupation numbers 
     1.0000   1.0000   1.0000   1.0000   1.0000   1.0000   1.0000   1.0000
     1.0000   1.0000   1.0000   1.0000   1.0000   1.0000   1.0000   1.0000
     1.0000   1.0000   0.0000   0.0000   0.0000

          k = 0.2500 0.5292 0.2091 (  2808 PWs)   bands (ev):

   -76.9654 -76.9599 -40.3724 -40.3564 -40.2872 -40.2401 -40.1721 -40.1494
    14.6179  14.9785  15.2394  15.5330  15.9925  16.3524  17.0930  17.5943
    18.1868  18.4582  22.4389  24.0550  26.6584

     occupation numbers 
     1.0000   1.0000   1.0000   1.0000   1.0000   1.0000   1.0000   1.0000
     1.0000   1.0000   1.0000   1.0000   1.0000   1.0000   1.0000   1.0000
     1.0000   1.0000   0.0000   0.0000   0.0000

          k = 0.2500 0.5292-0.3136 (  2802 PWs)   bands (ev):

   -76.9627 -76.9627 -40.3756 -40.3756 -40.2652 -40.2652 -40.1479 -40.1479
    14.7627  14.7627  15.5497  15.5497  16.1197  16.1197  17.2255  17.2255
    18.3664  18.3664  23.2202  23.2202  27.2187

     occupation numbers 
     1.0000   1.0000   1.0000   1.0000   1.0000   1.0000   1.0000   1.0000
     1.0000   1.0000   1.0000   1.0000   1.0000   1.0000   1.0000   1.0000
     1.0000   1.0000   0.0000   0.0000   0.0000

          k = 0.3333 0.5774 0.0000 (  2826 PWs)   bands (ev):

   -76.9615 -76.9615 -40.3409 -40.2864 -40.2864 -40.2292 -40.2266 -40.2266
    14.6529  15.0155  15.0155  15.3171  16.1817  16.1817  17.1647  18.1793
    18.1793  18.3461  23.4401  24.2886  24.2886

     occupation numbers 
     1.0000   1.0000   1.0000   1.0000   1.0000   1.0000   1.0000   1.0000
     1.0000   1.0000   1.0000   1.0000   1.0000   1.0000   1.0000   1.0000
     1.0000   1.0000   0.0000   0.0000   0.0000

          k = 0.3333 0.5774 0.1045 (  2817 PWs)   bands (ev):

   -76.9615 -76.9615 -40.3334 -40.3171 -40.3171 -40.2368 -40.1957 -40.1957
    14.7524  15.0478  15.0478  15.3405  16.1499  16.1499  17.1326  18.0889
    18.2160  18.2160  23.8623  24.3672  24.3672

     occupation numbers 
     1.0000   1.0000   1.0000   1.0000   1.0000   1.0000   1.0000   1.0000
     1.0000   1.0000   1.0000   1.0000   1.0000   1.0000   1.0000   1.0000
     1.0000   1.0000   0.0000   0.0000   0.0000

          k = 0.3333 0.5774 0.2091 (  2811 PWs)   bands (ev):

   -76.9615 -76.9615 -40.3525 -40.3525 -40.3131 -40.2573 -40.1600 -40.1600
    15.0061  15.1122  15.1122  15.3646  16.0924  16.0924  17.0869  17.5696
    18.2839  18.2839  24.5623  24.5623  24.9275

     occupation numbers 
     1.0000   1.0000   1.0000   1.0000   1.0000   1.0000   1.0000   1.0000
     1.0000   1.0000   1.0000   1.0000   1.0000   1.0000   1.0000   1.0000
     1.0000   1.0000   0.0000   0.0000   0.0000

          k = 0.3333 0.5774-0.3136 (  2802 PWs)   bands (ev):

   -76.9615 -76.9615 -40.3660 -40.3660 -40.2852 -40.2852 -40.1464 -40.1464
    15.1441  15.1441  15.2657  15.2657  16.0667  16.0667  17.1844  17.1844
    18.3154  18.3154  24.6880  24.6880  26.3754

     occupation numbers 
     1.0000   1.0000   1.0000   1.0000   1.0000   1.0000   1.0000   1.0000
     1.0000   1.0000   1.0000   1.0000   1.0000   1.0000   1.0000   1.0000
     1.0000   1.0000   0.0000   0.0000   0.0000

 ------ SPIN DOWN ----------


          k = 0.0000 0.0000 0.0000 (  2791 PWs)   bands (ev):

   -74.9577 -74.8880 -38.4482 -38.1202 -38.1202 -38.0614 -38.0614 -38.0544
     9.9843  14.7933  18.1037  18.1037  18.1716  18.5036  18.5036  18.8539
    18.8539  18.9446  20.1778  20.1778  26.7978

     occupation numbers 
     1.0000   1.0000   1.0000   1.0000   1.0000   1.0000   1.0000   1.0000
     1.0000   1.0000   1.0000   1.0000   1.0000   1.0000   1.0000   1.0000
     1.0000   1.0000   0.0000   0.0000   0.0000

          k = 0.0000 0.0000 0.1045 (  2809 PWs)   bands (ev):

   -74.9531 -74.8927 -38.4222 -38.1163 -38.1163 -38.0812 -38.0654 -38.0654
    10.2726  14.5798  18.0193  18.0193  18.0714  18.3082  18.4068  18.4068
    19.0593  19.0593  20.1672  20.1672  28.1599

     occupation numbers 
     1.0000   1.0000   1.0000   1.0000   1.0000   1.0000   1.0000   1.0000
     1.0000   1.0000   1.0000   1.0000   1.0000   1.0000   1.0000   1.0000
     0.0000   0.0000   0.0000   0.0000   0.0000

          k = 0.0000 0.0000 0.2091 (  2773 PWs)   bands (ev):

   -74.9403 -74.9055 -38.3510 -38.1541 -38.1055 -38.1055 -38.0761 -38.0761
    11.1053  13.7201  17.5975  17.8174  17.9493  17.9493  18.1972  18.1972
    19.4575  19.4575  20.0757  20.0757  31.2257

     occupation numbers 
     1.0000   1.0000   1.0000   1.0000   1.0000   1.0000   1.0000   1.0000
     1.0000   1.0000   1.0000   1.0000   1.0000   1.0000   1.0000   1.0000
     0.0000   0.0000   0.0000   0.0000   0.0000

          k = 0.0000 0.0000-0.3136 (  2810 PWs)   bands (ev):

   -74.9229 -74.9229 -38.2530 -38.2530 -38.0909 -38.0909 -38.0909 -38.0909
    12.3614  12.3614  17.5581  17.5581  18.0142  18.0142  18.0142  18.0142
    19.8323  19.8323  19.8323  19.8323  34.9630

     occupation numbers 
     1.0000   1.0000   1.0000   1.0000   1.0000   1.0000   1.0000   1.0000
     1.0000   1.0000   1.0000   1.0000   1.0000   1.0000   1.0000   1.0000
     0.0000   0.0000   0.0000   0.0000   0.0000

          k = 0.0000 0.0962 0.0000 (  2803 PWs)   bands (ev):

   -74.9541 -74.8865 -38.4398 -38.1374 -38.1260 -38.0793 -38.0641 -38.0581
    10.2280  14.9562  17.8296  18.2307  18.2395  18.3765  18.4488  18.6149
    18.7676  18.8042  20.2171  21.0860  26.8131

     occupation numbers 
     1.0000   1.0000   1.0000   1.0000   1.0000   1.0000   1.0000   1.0000
     1.0000   1.0000   1.0000   1.0000   1.0000   1.0000   1.0000   1.0000
     1.0000   1.0000   0.0000   0.0000   0.0000

          k = 0.0000 0.0962 0.1045 (  2795 PWs)   bands (ev):

   -74.9496 -74.8911 -38.4154 -38.1328 -38.1219 -38.0984 -38.0689 -38.0682
    10.5124  14.7570  17.7743  17.8225  18.1253  18.1568  18.4770  18.5088
    19.0086  19.0385  20.1968  20.7124  28.2405

     occupation numbers 
     1.0000   1.0000   1.0000   1.0000   1.0000   1.0000   1.0000   1.0000
     1.0000   1.0000   1.0000   1.0000   1.0000   1.0000   1.0000   1.0000
     0.8411   0.0174   0.0000   0.0000   0.0000

          k = 0.0000 0.0962 0.2091 (  2793 PWs)   bands (ev):

   -74.9373 -74.9035 -38.3484 -38.1641 -38.1200 -38.1106 -38.0846 -38.0796
    11.3335  13.9148  17.3343  17.7844  17.8548  18.0472  18.2539  18.2985
    19.4278  19.4703  20.0838  20.2800  31.3596

     occupation numbers 
     1.0000   1.0000   1.0000   1.0000   1.0000   1.0000   1.0000   1.0000
     1.0000   1.0000   1.0000   1.0000   1.0000   1.0000   1.0000   1.0000
     0.0000   0.0000   0.0000   0.0000   0.0000

          k = 0.0000 0.0962-0.3136 (  2808 PWs)   bands (ev):

   -74.9204 -74.9204 -38.2564 -38.2564 -38.1025 -38.1025 -38.0951 -38.0951
    12.5724  12.5724  17.4334  17.4334  18.0030  18.0030  18.1137  18.1137
    19.8193  19.8193  19.9017  19.9017  35.1196

     occupation numbers 
     1.0000   1.0000   1.0000   1.0000   1.0000   1.0000   1.0000   1.0000
     1.0000   1.0000   1.0000   1.0000   1.0000   1.0000   1.0000   1.0000
     0.0000   0.0000   0.0000   0.0000   0.0000

          k = 0.0000 0.1925 0.0000 (  2803 PWs)   bands (ev):

   -74.9442 -74.8827 -38.4160 -38.1846 -38.1415 -38.1278 -38.0717 -38.0693
    10.9368  15.3737  17.3509  17.4483  18.2263  18.5563  18.5918  18.6516
    18.7245  18.9280  20.3011  22.5985  26.8756

     occupation numbers 
     1.0000   1.0000   1.0000   1.0000   1.0000   1.0000   1.0000   1.0000
     1.0000   1.0000   1.0000   1.0000   1.0000   1.0000   1.0000   1.0000
     1.0000   1.0000   0.0000   0.0000   0.0000

          k = 0.0000 0.1925 0.1045 (  2792 PWs)   bands (ev):

   -74.9401 -74.8868 -38.3967 -38.1777 -38.1458 -38.1368 -38.0780 -38.0764
    11.2075  15.2217  17.0688  17.4840  18.1101  18.3502  18.4125  18.7675
    18.9964  19.0868  20.2589  21.7761  28.5114

     occupation numbers 
     1.0000   1.0000   1.0000   1.0000   1.0000   1.0000   1.0000   1.0000
     1.0000   1.0000   1.0000   1.0000   1.0000   1.0000   1.0000   1.0000
     0.9882   0.0000   0.0000   0.0000   0.0000

          k = 0.0000 0.1925 0.2091 (  2796 PWs)   bands (ev):

   -74.9288 -74.8981 -38.3438 -38.1997 -38.1558 -38.1240 -38.1001 -38.0892
    11.9875  14.4368  16.9042  17.5566  17.7514  18.2154  18.2861  18.5805
    19.3970  19.5493  20.1006  20.7777  31.7620

     occupation numbers 
     1.0000   1.0000   1.0000   1.0000   1.0000   1.0000   1.0000   1.0000
     1.0000   1.0000   1.0000   1.0000   1.0000   1.0000   1.0000   1.0000
     0.0000   0.0000   0.0000   0.0000   0.0000

          k = 0.0000 0.1925-0.3136 (  2794 PWs)   bands (ev):

   -74.9135 -74.9135 -38.2715 -38.2715 -38.1285 -38.1285 -38.1066 -38.1066
    13.1610  13.1610  17.1946  17.1946  17.9124  17.9124  18.3800  18.3800
    19.7998  19.7998  20.0967  20.0967  35.5354

     occupation numbers 
     1.0000   1.0000   1.0000   1.0000   1.0000   1.0000   1.0000   1.0000
     1.0000   1.0000   1.0000   1.0000   1.0000   1.0000   1.0000   1.0000
     0.0000   0.0000   0.0000   0.0000   0.0000

[...]
    20.3240  20.4344  21.5320  24.0614  29.1672

     occupation numbers 
     1.0000   1.0000   1.0000   1.0000   1.0000   1.0000   1.0000   1.0000
     1.0000   1.0000   1.0000   1.0000   1.0000   1.0000   1.0000   0.0000
     0.0000   0.0000   0.0000   0.0000   0.0000

          k = 0.0833 0.5292 0.1045 (  2806 PWs)   bands (ev):

   -74.8950 -74.8752 -38.3912 -38.3318 -38.2516 -38.1998 -38.1469 -38.1196
    14.9356  15.5737  16.1308  16.6511  17.8821  18.4570  18.5288  20.1232
    20.2977  20.3719  21.3917  23.7333  28.0490

     occupation numbers 
     1.0000   1.0000   1.0000   1.0000   1.0000   1.0000   1.0000   1.0000
     1.0000   1.0000   1.0000   1.0000   1.0000   1.0000   1.0000   0.0000
     0.0000   0.0000   0.0000   0.0000   0.0000

          k = 0.0833 0.5292 0.2091 (  2812 PWs)   bands (ev):

   -74.8908 -74.8794 -38.4093 -38.3721 -38.2108 -38.1719 -38.1539 -38.1227
    14.9158  15.4132  16.4395  16.7850  17.9573  18.7400  18.9653  19.6319
    20.2413  20.4790  21.1621  22.7992  27.4487

     occupation numbers 
     1.0000   1.0000   1.0000   1.0000   1.0000   1.0000   1.0000   1.0000
     1.0000   1.0000   1.0000   1.0000   1.0000   1.0000   1.0000   0.0000
     0.0000   0.0000   0.0000   0.0000   0.0000

          k = 0.0833 0.5292-0.3136 (  2802 PWs)   bands (ev):

   -74.8851 -74.8851 -38.4026 -38.4026 -38.1797 -38.1797 -38.1378 -38.1378
    15.1010  15.1010  16.7359  16.7359  18.4737  18.4737  19.2594  19.2594
    20.3225  20.3225  21.7218  21.7218  27.6989

     occupation numbers 
     1.0000   1.0000   1.0000   1.0000   1.0000   1.0000   1.0000   1.0000
     1.0000   1.0000   1.0000   1.0000   1.0000   1.0000   0.0000   0.0000
     0.0000   0.0000   0.0000   0.0000   0.0000

          k = 0.1667 0.2887 0.0000 (  2794 PWs)   bands (ev):

   -74.9225 -74.8761 -38.3602 -38.2550 -38.2449 -38.1606 -38.1071 -38.0991
    12.6600  16.0637  16.4499  16.7747  17.9438  18.1113  18.5407  19.0479
    19.5147  19.8956  20.3415  25.2379  27.2126

     occupation numbers 
     1.0000   1.0000   1.0000   1.0000   1.0000   1.0000   1.0000   1.0000
     1.0000   1.0000   1.0000   1.0000   1.0000   1.0000   1.0000   0.0010
     0.0000   0.0000   0.0000   0.0000   0.0000

          k = 0.1667 0.2887 0.1045 (  2794 PWs)   bands (ev):

   -74.9194 -74.8792 -38.3604 -38.2527 -38.2352 -38.1693 -38.1122 -38.0972
    12.8798  16.0403  16.3157  16.8432  17.8817  18.1400  18.4137  19.0981
    19.6520  19.7751  20.3480  23.5540  29.4429

     occupation numbers 
     1.0000   1.0000   1.0000   1.0000   1.0000   1.0000   1.0000   1.0000
     1.0000   1.0000   1.0000   1.0000   1.0000   1.0000   1.0000   0.0000
     0.0000   0.0000   0.0000   0.0000   0.0000

          k = 0.1667 0.2887 0.2091 (  2803 PWs)   bands (ev):

   -74.9109 -74.8877 -38.3501 -38.2823 -38.1936 -38.1714 -38.1245 -38.1055
    13.5017  15.3670  16.5663  17.0189  17.6538  17.9558  18.4659  19.0990
    19.8028  19.8945  20.2940  21.7679  32.7270

     occupation numbers 
     1.0000   1.0000   1.0000   1.0000   1.0000   1.0000   1.0000   1.0000
     1.0000   1.0000   1.0000   1.0000   1.0000   1.0000   1.0000   0.0000
     0.0000   0.0000   0.0000   0.0000   0.0000

          k = 0.1667 0.2887-0.3136 (  2798 PWs)   bands (ev):

   -74.8993 -74.8993 -38.3215 -38.3215 -38.1661 -38.1661 -38.1263 -38.1263
    14.4049  14.4049  16.9599  16.9599  17.6200  17.6200  18.7822  18.7822
    20.1004  20.1004  20.5453  20.5453  34.1623

     occupation numbers 
     1.0000   1.0000   1.0000   1.0000   1.0000   1.0000   1.0000   1.0000
     1.0000   1.0000   1.0000   1.0000   1.0000   1.0000   1.0000   1.0000
     0.0000   0.0000   0.0000   0.0000   0.0000

          k = 0.1667 0.3849 0.0000 (  2801 PWs)   bands (ev):

   -74.9085 -74.8737 -38.3201 -38.3064 -38.2797 -38.1918 -38.1290 -38.1241
    13.9122  16.1170  16.1368  16.5678  17.7482  18.2578  18.3162  19.3851
    20.0359  20.3467  20.6182  27.0330  27.3330

     occupation numbers 
     1.0000   1.0000   1.0000   1.0000   1.0000   1.0000   1.0000   1.0000
     1.0000   1.0000   1.0000   1.0000   1.0000   1.0000   1.0000   0.0000
     0.0000   0.0000   0.0000   0.0000   0.0000

          k = 0.1667 0.3849 0.1045 (  2803 PWs)   bands (ev):

   -74.9062 -74.8760 -38.3507 -38.3012 -38.2497 -38.1992 -38.1361 -38.1142
    14.0651  15.9822  16.2485  16.6777  17.7489  18.1782  18.2904  19.4019
    20.0544  20.1442  20.7462  24.6558  29.2684

     occupation numbers 
     1.0000   1.0000   1.0000   1.0000   1.0000   1.0000   1.0000   1.0000
     1.0000   1.0000   1.0000   1.0000   1.0000   1.0000   1.0000   0.0000
     0.0000   0.0000   0.0000   0.0000   0.0000

          k = 0.1667 0.3849 0.2091 (  2797 PWs)   bands (ev):

   -74.8998 -74.8824 -38.3660 -38.3271 -38.2094 -38.1910 -38.1458 -38.1117
    14.4825  15.6024  16.5522  16.9139  17.6355  17.8817  18.4639  19.2985
    19.9202  20.3400  20.8327  22.5937  30.2050

     occupation numbers 
     1.0000   1.0000   1.0000   1.0000   1.0000   1.0000   1.0000   1.0000
     1.0000   1.0000   1.0000   1.0000   1.0000   1.0000   1.0000   0.0000
     0.0000   0.0000   0.0000   0.0000   0.0000

          k = 0.1667 0.3849-0.3136 (  2800 PWs)   bands (ev):

   -74.8911 -74.8911 -38.3556 -38.3556 -38.1902 -38.1902 -38.1297 -38.1297
    15.0495  15.0495  16.9162  16.9162  17.6010  17.6010  18.8281  18.8281
    20.3519  20.3519  21.2109  21.2109  31.3495

     occupation numbers 
     1.0000   1.0000   1.0000   1.0000   1.0000   1.0000   1.0000   1.0000
     1.0000   1.0000   1.0000   1.0000   1.0000   1.0000   1.0000   1.0000
     0.0000   0.0000   0.0000   0.0000   0.0000

          k = 0.1667 0.4811 0.0000 (  2813 PWs)   bands (ev):

   -74.8966 -74.8736 -38.3474 -38.2955 -38.2812 -38.2220 -38.1519 -38.1437
    15.0149  15.9173  15.9189  16.6092  17.6890  18.0677  18.4997  19.8274
    20.3146  20.3483  21.5298  25.5258  28.9576

     occupation numbers 
     1.0000   1.0000   1.0000   1.0000   1.0000   1.0000   1.0000   1.0000
     1.0000   1.0000   1.0000   1.0000   1.0000   1.0000   1.0000   0.0000
     0.0000   0.0000   0.0000   0.0000   0.0000

          k = 0.1667 0.4811 0.1045 (  2813 PWs)   bands (ev):

   -74.8951 -74.8751 -38.3661 -38.3201 -38.2534 -38.2132 -38.1578 -38.1310
    15.0322  15.8796  16.0905  16.6547  17.7140  18.0548  18.5339  19.8040
    20.0955  20.3955  21.5881  24.9511  27.8388

     occupation numbers 
     1.0000   1.0000   1.0000   1.0000   1.0000   1.0000   1.0000   1.0000
     1.0000   1.0000   1.0000   1.0000   1.0000   1.0000   1.0000   0.0000
     0.0000   0.0000   0.0000   0.0000   0.0000

          k = 0.1667 0.4811 0.2091 (  2801 PWs)   bands (ev):

   -74.8909 -74.8794 -38.3856 -38.3548 -38.2334 -38.1901 -38.1581 -38.1191
    15.1403  15.6781  16.4448  16.9669  17.5563  18.0248  18.7135  19.4387
    20.0226  20.4990  21.7479  23.5088  27.9200

     occupation numbers 
     1.0000   1.0000   1.0000   1.0000   1.0000   1.0000   1.0000   1.0000
     1.0000   1.0000   1.0000   1.0000   1.0000   1.0000   1.0000   0.0000
     0.0000   0.0000   0.0000   0.0000   0.0000

          k = 0.1667 0.4811-0.3136 (  2804 PWs)   bands (ev):

   -74.8851 -74.8851 -38.3816 -38.3816 -38.2095 -38.2095 -38.1294 -38.1294
    15.3755  15.3755  16.8860  16.8860  17.7390  17.7390  18.9867  18.9867
    20.3460  20.3460  22.2977  22.2977  28.7427

     occupation numbers 
     1.0000   1.0000   1.0000   1.0000   1.0000   1.0000   1.0000   1.0000
     1.0000   1.0000   1.0000   1.0000   1.0000   1.0000   0.9995   0.9995
     0.0000   0.0000   0.0000   0.0000   0.0000

          k = 0.1667 0.5774 0.0000 (  2820 PWs)   bands (ev):

   -74.8913 -74.8746 -38.3622 -38.2996 -38.2615 -38.2350 -38.1677 -38.1489
    15.4807  15.7822  15.8514  16.6675  17.7143  17.9299  18.6083  20.1353
    20.3076  20.3484  22.4332  23.9454  29.7114

     occupation numbers 
     1.0000   1.0000   1.0000   1.0000   1.0000   1.0000   1.0000   1.0000
     1.0000   1.0000   1.0000   1.0000   1.0000   1.0000   1.0000   0.0000
     0.0000   0.0000   0.0000   0.0000   0.0000

          k = 0.1667 0.5774 0.1045 (  2812 PWs)   bands (ev):

   -74.8902 -74.8757 -38.3770 -38.3226 -38.2600 -38.2054 -38.1714 -38.1382
    15.3259  15.8349  16.2390  16.4984  17.6646  18.0971  18.6514  20.0579
    20.1308  20.3796  22.4695  23.8492  28.9971

     occupation numbers 
     1.0000   1.0000   1.0000   1.0000   1.0000   1.0000   1.0000   1.0000
     1.0000   1.0000   1.0000   1.0000   1.0000   1.0000   1.0000   0.0000
     0.0000   0.0000   0.0000   0.0000   0.0000

          k = 0.1667 0.5774 0.2091 (  2804 PWs)   bands (ev):

   -74.8871 -74.8787 -38.3948 -38.3633 -38.2430 -38.1900 -38.1599 -38.1232
    15.2877  15.7337  16.5076  16.8842  17.4624  18.2014  18.8631  19.5180
    20.1503  20.4233  22.6084  23.5273  27.8871

     occupation numbers 
     1.0000   1.0000   1.0000   1.0000   1.0000   1.0000   1.0000   1.0000
     1.0000   1.0000   1.0000   1.0000   1.0000   1.0000   1.0000   0.0000
     0.0000   0.0000   0.0000   0.0000   0.0000

          k = 0.1667 0.5774-0.3136 (  2810 PWs)   bands (ev):

   -74.8829 -74.8829 -38.3913 -38.3913 -38.2167 -38.2167 -38.1290 -38.1290
    15.4518  15.4518  16.8764  16.8764  17.7891  17.7891  19.1570  19.1570
    20.2794  20.2794  23.0145  23.0145  27.4956

     occupation numbers 
     1.0000   1.0000   1.0000   1.0000   1.0000   1.0000   1.0000   1.0000
     1.0000   1.0000   1.0000   1.0000   1.0000   1.0000   0.0000   0.0000
     0.0000   0.0000   0.0000   0.0000   0.0000

          k = 0.2500 0.4330 0.0000 (  2806 PWs)   bands (ev):

   -74.8967 -74.8736 -38.3257 -38.2989 -38.2815 -38.2206 -38.1636 -38.1517
    15.0215  15.9884  16.2674  16.2775  17.6048  18.0869  18.4991  19.5978
    20.3047  20.3238  21.5633  27.1222  27.8648

     occupation numbers 
     1.0000   1.0000   1.0000   1.0000   1.0000   1.0000   1.0000   1.0000
     1.0000   1.0000   1.0000   1.0000   1.0000   1.0000   1.0000   0.0000
     0.0000   0.0000   0.0000   0.0000   0.0000

          k = 0.2500 0.4330 0.1045 (  2817 PWs)   bands (ev):

   -74.8951 -74.8751 -38.3402 -38.3300 -38.2368 -38.2334 -38.1673 -38.1342
    15.1049  15.9077  16.3399  16.4763  17.6607  17.9099  18.4855  19.6176
    20.0408  20.4062  21.6795  25.7382  28.1664

     occupation numbers 
     1.0000   1.0000   1.0000   1.0000   1.0000   1.0000   1.0000   1.0000
     1.0000   1.0000   1.0000   1.0000   1.0000   1.0000   1.0000   0.0000
     0.0000   0.0000   0.0000   0.0000   0.0000

          k = 0.2500 0.4330 0.2091 (  2805 PWs)   bands (ev):

   -74.8909 -74.8793 -38.3677 -38.3490 -38.2419 -38.2082 -38.1564 -38.1184
    15.3164  15.7731  16.5762  16.8644  17.5174  17.6522  18.5378  19.3432
    19.9837  20.5066  21.9296  23.8399  28.9786

     occupation numbers 
     1.0000   1.0000   1.0000   1.0000   1.0000   1.0000   1.0000   1.0000
     1.0000   1.0000   1.0000   1.0000   1.0000   1.0000   1.0000   0.0000
     0.0000   0.0000   0.0000   0.0000   0.0000

          k = 0.2500 0.4330-0.3136 (  2802 PWs)   bands (ev):

   -74.8851 -74.8851 -38.3686 -38.3686 -38.2251 -38.2251 -38.1269 -38.1269
    15.5681  15.5681  16.9407  16.9407  17.4092  17.4092  18.8249  18.8249
    20.3700  20.3700  22.5181  22.5181  30.0249

     occupation numbers 
     1.0000   1.0000   1.0000   1.0000   1.0000   1.0000   1.0000   1.0000
     1.0000   1.0000   1.0000   1.0000   1.0000   1.0000   1.0000   1.0000
     0.0000   0.0000   0.0000   0.0000   0.0000

          k = 0.2500 0.5292 0.0000 (  2825 PWs)   bands (ev):

   -74.8876 -74.8757 -38.3408 -38.2878 -38.2536 -38.2468 -38.1856 -38.1800
    15.7360  15.9368  16.0994  16.3669  17.6103  17.8519  18.7034  19.9001
    20.2796  20.2838  22.8401  25.0986  27.1769

     occupation numbers 
     1.0000   1.0000   1.0000   1.0000   1.0000   1.0000   1.0000   1.0000
     1.0000   1.0000   1.0000   1.0000   1.0000   1.0000   1.0000   0.0000
     0.0000   0.0000   0.0000   0.0000   0.0000

          k = 0.2500 0.5292 0.1045 (  2815 PWs)   bands (ev):

   -74.8868 -74.8765 -38.3481 -38.3168 -38.2760 -38.2103 -38.1898 -38.1533
    15.6970  16.0665  16.1921  16.4337  17.5948  17.7536  18.6983  19.9038
    20.0111  20.3363  23.0152  25.0858  27.2709

     occupation numbers 
     1.0000   1.0000   1.0000   1.0000   1.0000   1.0000   1.0000   1.0000
     1.0000   1.0000   1.0000   1.0000   1.0000   1.0000   1.0000   0.0000
     0.0000   0.0000   0.0000   0.0000   0.0000

          k = 0.2500 0.5292 0.2091 (  2808 PWs)   bands (ev):

   -74.8846 -74.8787 -38.3682 -38.3507 -38.2743 -38.2228 -38.1510 -38.1267
    15.7410  16.0404  16.4830  16.7936  17.3600  17.6069  18.7428  19.3938
    20.0655  20.3764  23.4159  24.7480  27.4009

     occupation numbers 
     1.0000   1.0000   1.0000   1.0000   1.0000   1.0000   1.0000   1.0000
     1.0000   1.0000   1.0000   1.0000   1.0000   1.0000   1.0000   0.0000
     0.0000   0.0000   0.0000   0.0000   0.0000

          k = 0.2500 0.5292-0.3136 (  2802 PWs)   bands (ev):

   -74.8816 -74.8816 -38.3718 -38.3718 -38.2502 -38.2502 -38.1248 -38.1248
    15.8814  15.8814  16.8940  16.8940  17.3129  17.3129  18.9425  18.9425
    20.2641  20.2641  24.0208  24.0208  27.9664

     occupation numbers 
     1.0000   1.0000   1.0000   1.0000   1.0000   1.0000   1.0000   1.0000
     1.0000   1.0000   1.0000   1.0000   1.0000   1.0000   1.0000   1.0000
     0.0000   0.0000   0.0000   0.0000   0.0000

          k = 0.3333 0.5774 0.0000 (  2826 PWs)   bands (ev):

   -74.8804 -74.8804 -38.3324 -38.2732 -38.2732 -38.2123 -38.2123 -38.2105
    15.9590  16.0845  16.0845  16.3004  17.6697  17.6697  18.8122  20.0682
    20.0682  20.2522  24.2697  25.0863  25.0863

     occupation numbers 
     1.0000   1.0000   1.0000   1.0000   1.0000   1.0000   1.0000   1.0000
     1.0000   1.0000   1.0000   1.0000   1.0000   1.0000   1.0000   0.0000
     0.0000   0.0000   0.0000   0.0000   0.0000

          k = 0.3333 0.5774 0.1045 (  2817 PWs)   bands (ev):

   -74.8804 -74.8804 -38.3243 -38.3078 -38.3078 -38.2188 -38.1775 -38.1775
    16.0392  16.1646  16.1646  16.3356  17.5853  17.5853  18.7836  19.9534
    20.1074  20.1074  24.7092  25.1408  25.1408

     occupation numbers 
     1.0000   1.0000   1.0000   1.0000   1.0000   1.0000   1.0000   1.0000
     1.0000   1.0000   1.0000   1.0000   1.0000   1.0000   1.0000   0.0000
     0.0000   0.0000   0.0000   0.0000   0.0000

          k = 0.3333 0.5774 0.2091 (  2811 PWs)   bands (ev):

   -74.8804 -74.8804 -38.3467 -38.3467 -38.3021 -38.2412 -38.1382 -38.1382
    16.2288  16.3542  16.3542  16.4001  17.3953  17.3953  18.7633  19.3715
    20.1765  20.1765  25.2756  25.2756  25.7591

     occupation numbers 
     1.0000   1.0000   1.0000   1.0000   1.0000   1.0000   1.0000   1.0000
     1.0000   1.0000   1.0000   1.0000   1.0000   1.0000   1.0000   0.0000
     0.0000   0.0000   0.0000   0.0000   0.0000

          k = 0.3333 0.5774-0.3136 (  2802 PWs)   bands (ev):

   -74.8804 -74.8804 -38.3615 -38.3615 -38.2717 -38.2717 -38.1232 -38.1232
    16.3853  16.3853  16.4764  16.4764  17.2767  17.2767  18.9219  18.9219
    20.2067  20.2067  25.3610  25.3610  27.1268

     occupation numbers 
     1.0000   1.0000   1.0000   1.0000   1.0000   1.0000   1.0000   1.0000
     1.0000   1.0000   1.0000   1.0000   1.0000   1.0000   1.0000   1.0000
     0.0000   0.0000   0.0000   0.0000   0.0000

     the Fermi energy is    19.0182 ev

!    total energy              =    -753.45482641 Ry
     total all-electron energy =     -5573.811518 Ry
     estimated scf accuracy    <       0.00000009 Ry
     smearing contrib. (-TS)   =      -0.00002424 Ry
     internal energy E=F+TS    =    -753.45480217 Ry

     The total energy is F=E-TS. E is the sum of the following terms:
     one-electron contribution =    -279.19298912 Ry
     hartree contribution      =     163.71032156 Ry
     xc contribution           =     -61.42268454 Ry
     ewald contribution        =    -401.37420520 Ry
     one-center paw contrib.   =    -175.17524487 Ry
      -> PAW hartree energy AE =     222.15210131 Ry
      -> PAW hartree energy PS =    -221.09587532 Ry
      -> PAW xc energy AE      =    -117.67710344 Ry
      -> PAW xc energy PS      =      29.03325501 Ry
      -> total E_H with PAW    =     164.76654755 Ry
      -> total E_XC with PAW   =    -150.06653296 Ry

     total magnetization       =     3.24 Bohr mag/cell
     absolute magnetization    =     3.56 Bohr mag/cell

     convergence has been achieved in   8 iterations

     Writing all to output data dir ./out2/Co.save/
 
     init_run     :      0.29s CPU      0.38s WALL (       1 calls)
     electrons    :      9.29s CPU      9.96s WALL (       1 calls)

     Called by init_run:
     wfcinit      :      0.13s CPU      0.19s WALL (       1 calls)
     potinit      :      0.10s CPU      0.12s WALL (       1 calls)
     hinit0       :      0.05s CPU      0.05s WALL (       1 calls)

     Called by electrons:
     c_bands      :      7.67s CPU      8.15s WALL (       8 calls)
     sum_band     :      0.85s CPU      0.89s WALL (       8 calls)
     v_of_rho     :      0.04s CPU      0.04s WALL (       9 calls)
     v_h          :      0.00s CPU      0.00s WALL (       9 calls)
     v_xc         :      0.03s CPU      0.04s WALL (       9 calls)
     newd         :      0.02s CPU      0.03s WALL (       9 calls)
     PAW_pot      :      0.79s CPU      0.95s WALL (       9 calls)
     mix_rho      :      0.00s CPU      0.01s WALL (       8 calls)

     Called by c_bands:
     init_us_2    :      0.06s CPU      0.07s WALL (    1216 calls)
     init_us_2:cp :      0.06s CPU      0.06s WALL (    1216 calls)
     cegterg      :      7.27s CPU      7.66s WALL (     608 calls)

     Called by sum_band:
     sum_band:wei :      0.01s CPU      0.01s WALL (       8 calls)
     sum_band:loo :      0.79s CPU      0.83s WALL (       8 calls)
     sum_band:buf :      0.01s CPU      0.01s WALL (     608 calls)
     sum_band:ini :      0.03s CPU      0.03s WALL (     608 calls)
     sum_band:cal :      0.07s CPU      0.07s WALL (     608 calls)
     sum_band:bec :      0.01s CPU      0.01s WALL (     608 calls)
     addusdens    :      0.04s CPU      0.04s WALL (       8 calls)
                                        0.00s GPU  (       8 calls)
     addusd:skk   :      0.00s CPU      0.00s WALL (       8 calls)
                                        0.00s GPU  (       8 calls)

     Called by *egterg:
     cdiaghg      :      1.68s CPU      1.77s WALL (    3392 calls)
     cegterg:over :      0.24s CPU      0.25s WALL (    2860 calls)
     cegterg:upda :      0.07s CPU      0.08s WALL (    2860 calls)
     cegterg:last :      0.12s CPU      0.13s WALL (    1843 calls)
     h_psi        :      4.82s CPU      5.09s WALL (    3468 calls)
     s_psi        :      0.09s CPU      0.09s WALL (    3468 calls)
     g_psi        :      0.02s CPU      0.02s WALL (    2860 calls)

     Called by h_psi:
     h_psi:calbec :      0.25s CPU      0.27s WALL (    3468 calls)
     vloc_psi     :      4.43s CPU      4.67s WALL (    3468 calls)
     add_vuspsi   :      0.11s CPU      0.12s WALL (    3468 calls)

     General routines
     calbec       :      0.31s CPU      0.33s WALL (    4076 calls)
     fft          :      0.02s CPU      0.02s WALL (     219 calls)
     ffts         :      0.00s CPU      0.00s WALL (      34 calls)
     fftw         :      4.60s CPU      4.84s WALL (  101634 calls)
     interpolate  :      0.00s CPU      0.00s WALL (      18 calls)
 
     Parallel routines

     PAW routines
     PAW_pot      :      0.79s CPU      0.95s WALL (       9 calls)
     PAW_symme    :      0.01s CPU      0.01s WALL (      16 calls)
 
     PWSCF        :      9.84s CPU     10.93s WALL

 
   This run was terminated on:  10:49:36  22Mar2024            

=------------------------------------------------------------------------------=
   JOB DONE.
=------------------------------------------------------------------------------=
