
     Program PWSCF v.7.2 starts on 22Mar2024 at 10:49: 9 

     This program is part of the open-source Quantum ESPRESSO suite
     for quantum simulation of materials; please cite
         "P. Giannozzi et al., J. Phys.:Condens. Matter 21 395502 (2009);
         "P. Giannozzi et al., J. Phys.:Condens. Matter 29 465901 (2017);
         "P. Giannozzi et al., J. Chem. Phys. 152 154105 (2020);
          URL http://www.quantum-espresso.org", 
     in publications or presentations arising from this work. More details at
     http://www.quantum-espresso.org/quote

     Parallel version (MPI), running on    28 processors

     MPI processes distributed on     1 nodes
     182109 MiB available memory on the printing compute node when the environment starts
 
     Waiting for input...
     Reading input from standard input

     Current dimensions of program PWSCF are:
     Max number of different atomic species (ntypx) = 10
     Max number of k-points (npk) = 120000
     Max angular momentum in pseudopotentials (lmaxx) =  4
     file Co.pbe-spn-kjpaw_psl.0.3.1.UPF: wavefunction(s)  3P 3D renormalized
 
     K-points division:     npool     =       2
     R & G space division:  proc/nbgrp/npool/nimage =      14
     Subspace diagonalization in iterative solution of the eigenvalue problem:
     a serial algorithm will be used

 
     Parallelization info
     --------------------
     sticks:   dense  smooth     PW     G-vecs:    dense   smooth      PW
     Min          48      48     14                 1644     1596     260
     Max          51      49     15                 1664     1601     267
     Sum         685     673    199                23103    22383    3669
 
     Using Slab Decomposition
 


     bravais-lattice index     =            4
     lattice parameter (alat)  =       4.7054  a.u.
     unit-cell volume          =     143.6710 (a.u.)^3
     number of atoms/cell      =            2
     number of atomic types    =            1
     number of electrons       =        34.00
     number of Kohn-Sham states=           21
     kinetic-energy cutoff     =     110.0000  Ry
     charge density cutoff     =     450.0000  Ry
     scf convergence threshold =      1.0E-06
     mixing beta               =       0.7000
     number of iterations used =            8  plain     mixing
     Exchange-correlation= SLA  PW   PBX  PBC
                           (   1   4   3   4   0   0   0)

     celldm(1)=   4.705418  celldm(2)=   0.000000  celldm(3)=   1.592369
     celldm(4)=   0.000000  celldm(5)=   0.000000  celldm(6)=   0.000000

     crystal axes: (cart. coord. in units of alat)
               a(1) = (   1.000000   0.000000   0.000000 )  
               a(2) = (  -0.500000   0.866025   0.000000 )  
               a(3) = (   0.000000   0.000000   1.592369 )  

     reciprocal axes: (cart. coord. in units 2 pi/alat)
               b(1) = (  1.000000  0.577350  0.000000 )  
               b(2) = (  0.000000  1.154701  0.000000 )  
               b(3) = (  0.000000  0.000000  0.627995 )  


     PseudoPot. # 1 for Co read from file:
     /truba/home/amuhaymin/ZnS/pseudo/QE/Co.pbe-spn-kjpaw_psl.0.3.1.UPF
     MD5 check sum: b0a1ad65bf214e88c1f3d33b20c7d919
     Pseudo is Projector augmented-wave + core cor, Zval = 17.0
     Generated using &quot;atomic&quot; code by A. Dal Corso  v.6.2.2
     Shape of augmentation charge: PSQ
     Using radial grid of 1193 points,  6 beta functions with: 
                l(1) =   0
                l(2) =   0
                l(3) =   1
                l(4) =   1
                l(5) =   2
                l(6) =   2
     Q(r) pseudized with 0 coefficients 


     atomic species   valence    mass     pseudopotential
        Co            17.00    58.93300     Co( 1.00)

     Starting magnetic structure 
     atomic species   magnetization
        Co           0.294

     24 Sym. Ops., with inversion, found (12 have fractional translation)


                                    s                        frac. trans.

      isym =  1     identity                                     

 cryst.   s( 1) = (     1          0          0      )
                  (     0          1          0      )
                  (     0          0          1      )

 cart.    s( 1) = (  1.0000000  0.0000000  0.0000000 )
                  (  0.0000000  1.0000000  0.0000000 )
                  (  0.0000000  0.0000000  1.0000000 )


      isym =  2     180 deg rotation - cart. axis [0,0,1]        

 cryst.   s( 2) = (    -1          0          0      )    f =(  0.0000000 )
                  (     0         -1          0      )       ( -0.0000000 )
                  (     0          0          1      )       ( -0.5000000 )

 cart.    s( 2) = ( -1.0000000  0.0000000  0.0000000 )    f =(  0.0000000 )
                  (  0.0000000 -1.0000000  0.0000000 )       ( -0.0000000 )
                  (  0.0000000  0.0000000  1.0000000 )       ( -0.7961847 )


      isym =  3     180 deg rotation - cart. axis [0,1,0]        

 cryst.   s( 3) = (    -1          0          0      )    f =(  0.0000000 )
                  (     1          1          0      )       (  0.0000000 )
                  (     0          0         -1      )       (  0.5000000 )

 cart.    s( 3) = ( -1.0000000  0.0000000  0.0000000 )    f =(  0.0000000 )
                  (  0.0000000  1.0000000  0.0000000 )       (  0.0000000 )
                  (  0.0000000  0.0000000 -1.0000000 )       (  0.7961847 )


      isym =  4     180 deg rotation - cart. axis [1,0,0]        

 cryst.   s( 4) = (     1          0          0      )
                  (    -1         -1          0      )
                  (     0          0         -1      )

 cart.    s( 4) = (  1.0000000  0.0000000  0.0000000 )
                  (  0.0000000 -1.0000000  0.0000000 )
                  (  0.0000000  0.0000000 -1.0000000 )


      isym =  5      60 deg rotation - cryst. axis [0,0,1]       

 cryst.   s( 5) = (     1          1          0      )    f =(  0.0000000 )
                  (    -1          0          0      )       ( -0.0000000 )
                  (     0          0          1      )       ( -0.5000000 )

 cart.    s( 5) = (  0.5000000 -0.8660254  0.0000000 )    f =(  0.0000000 )
                  (  0.8660254  0.5000000  0.0000000 )       ( -0.0000000 )
                  (  0.0000000  0.0000000  1.0000000 )       ( -0.7961847 )


      isym =  6      60 deg rotation - cryst. axis [0,0,-1]      

 cryst.   s( 6) = (     0         -1          0      )    f =(  0.0000000 )
                  (     1          1          0      )       ( -0.0000000 )
                  (     0          0          1      )       ( -0.5000000 )

 cart.    s( 6) = (  0.5000000  0.8660254  0.0000000 )    f =(  0.0000000 )
                  ( -0.8660254  0.5000000  0.0000000 )       ( -0.0000000 )
                  (  0.0000000  0.0000000  1.0000000 )       ( -0.7961847 )


      isym =  7     120 deg rotation - cryst. axis [0,0,1]       

 cryst.   s( 7) = (     0          1          0      )
                  (    -1         -1          0      )
                  (     0          0          1      )

 cart.    s( 7) = ( -0.5000000 -0.8660254  0.0000000 )
                  (  0.8660254 -0.5000000  0.0000000 )
                  (  0.0000000  0.0000000  1.0000000 )


      isym =  8     120 deg rotation - cryst. axis [0,0,-1]      

 cryst.   s( 8) = (    -1         -1          0      )
                  (     1          0          0      )
                  (     0          0          1      )

 cart.    s( 8) = ( -0.5000000  0.8660254  0.0000000 )
                  ( -0.8660254 -0.5000000  0.0000000 )
                  (  0.0000000  0.0000000  1.0000000 )


      isym =  9     180 deg rotation - cryst. axis [1,-1,0]      

 cryst.   s( 9) = (     0         -1          0      )    f =( -0.0000000 )
                  (    -1          0          0      )       ( -0.0000000 )
                  (     0          0         -1      )       (  0.5000000 )

 cart.    s( 9) = (  0.5000000 -0.8660254  0.0000000 )    f =( -0.0000000 )
                  ( -0.8660254 -0.5000000  0.0000000 )       ( -0.0000000 )
                  (  0.0000000  0.0000000 -1.0000000 )       (  0.7961847 )


      isym = 10     180 deg rotation - cryst. axis [2,1,0]       

 cryst.   s(10) = (     1          1          0      )    f =(  0.0000000 )
                  (     0         -1          0      )       ( -0.0000000 )
                  (     0          0         -1      )       (  0.5000000 )

 cart.    s(10) = (  0.5000000  0.8660254  0.0000000 )    f =(  0.0000000 )
                  (  0.8660254 -0.5000000  0.0000000 )       ( -0.0000000 )
                  (  0.0000000  0.0000000 -1.0000000 )       (  0.7961847 )


      isym = 11     180 deg rotation - cryst. axis [0,1,0]       

 cryst.   s(11) = (    -1         -1          0      )
                  (     0          1          0      )
                  (     0          0         -1      )

 cart.    s(11) = ( -0.5000000 -0.8660254  0.0000000 )
                  ( -0.8660254  0.5000000  0.0000000 )
                  (  0.0000000  0.0000000 -1.0000000 )


      isym = 12     180 deg rotation - cryst. axis [1,1,0]       

 cryst.   s(12) = (     0          1          0      )
                  (     1          0          0      )
                  (     0          0         -1      )

 cart.    s(12) = ( -0.5000000  0.8660254  0.0000000 )
                  (  0.8660254  0.5000000  0.0000000 )
                  (  0.0000000  0.0000000 -1.0000000 )


      isym = 13     inversion                                    

 cryst.   s(13) = (    -1          0          0      )
                  (     0         -1          0      )
                  (     0          0         -1      )

 cart.    s(13) = ( -1.0000000  0.0000000  0.0000000 )
                  (  0.0000000 -1.0000000  0.0000000 )
                  (  0.0000000  0.0000000 -1.0000000 )


      isym = 14     inv. 180 deg rotation - cart. axis [0,0,1]   

 cryst.   s(14) = (     1          0          0      )    f =(  0.0000000 )
                  (     0          1          0      )       (  0.0000000 )
                  (     0          0         -1      )       (  0.5000000 )

 cart.    s(14) = (  1.0000000  0.0000000  0.0000000 )    f =(  0.0000000 )
                  (  0.0000000  1.0000000  0.0000000 )       (  0.0000000 )
                  (  0.0000000  0.0000000 -1.0000000 )       (  0.7961847 )


      isym = 15     inv. 180 deg rotation - cart. axis [0,1,0]   

 cryst.   s(15) = (     1          0          0      )    f =(  0.0000000 )
                  (    -1         -1          0      )       ( -0.0000000 )
                  (     0          0          1      )       ( -0.5000000 )

 cart.    s(15) = (  1.0000000  0.0000000  0.0000000 )    f =(  0.0000000 )
                  (  0.0000000 -1.0000000  0.0000000 )       ( -0.0000000 )
                  (  0.0000000  0.0000000  1.0000000 )       ( -0.7961847 )


      isym = 16     inv. 180 deg rotation - cart. axis [1,0,0]   

 cryst.   s(16) = (    -1          0          0      )
                  (     1          1          0      )
                  (     0          0          1      )

 cart.    s(16) = ( -1.0000000  0.0000000  0.0000000 )
                  (  0.0000000  1.0000000  0.0000000 )
                  (  0.0000000  0.0000000  1.0000000 )


      isym = 17     inv.  60 deg rotation - cryst. axis [0,0,1]  

 cryst.   s(17) = (    -1         -1          0      )    f =(  0.0000000 )
                  (     1          0          0      )       ( -0.0000000 )
                  (     0          0         -1      )       (  0.5000000 )

 cart.    s(17) = ( -0.5000000  0.8660254  0.0000000 )    f =(  0.0000000 )
                  ( -0.8660254 -0.5000000  0.0000000 )       ( -0.0000000 )
                  (  0.0000000  0.0000000 -1.0000000 )       (  0.7961847 )


      isym = 18     inv.  60 deg rotation - cryst. axis [0,0,-1] 

 cryst.   s(18) = (     0          1          0      )    f =( -0.0000000 )
                  (    -1         -1          0      )       ( -0.0000000 )
                  (     0          0         -1      )       (  0.5000000 )

 cart.    s(18) = ( -0.5000000 -0.8660254  0.0000000 )    f =(  0.0000000 )
                  (  0.8660254 -0.5000000  0.0000000 )       ( -0.0000000 )
                  (  0.0000000  0.0000000 -1.0000000 )       (  0.7961847 )


      isym = 19     inv. 120 deg rotation - cryst. axis [0,0,1]  

 cryst.   s(19) = (     0         -1          0      )
                  (     1          1          0      )
                  (     0          0         -1      )

 cart.    s(19) = (  0.5000000  0.8660254  0.0000000 )
                  ( -0.8660254  0.5000000  0.0000000 )
                  (  0.0000000  0.0000000 -1.0000000 )


      isym = 20     inv. 120 deg rotation - cryst. axis [0,0,-1] 

 cryst.   s(20) = (     1          1          0      )
                  (    -1          0          0      )
                  (     0          0         -1      )

 cart.    s(20) = (  0.5000000 -0.8660254  0.0000000 )
                  (  0.8660254  0.5000000  0.0000000 )
                  (  0.0000000  0.0000000 -1.0000000 )


      isym = 21     inv. 180 deg rotation - cryst. axis [1,-1,0] 

 cryst.   s(21) = (     0          1          0      )    f =(  0.0000000 )
                  (     1          0          0      )       ( -0.0000000 )
                  (     0          0          1      )       ( -0.5000000 )

 cart.    s(21) = ( -0.5000000  0.8660254  0.0000000 )    f =(  0.0000000 )
                  (  0.8660254  0.5000000  0.0000000 )       ( -0.0000000 )
                  (  0.0000000  0.0000000  1.0000000 )       ( -0.7961847 )


      isym = 22     inv. 180 deg rotation - cryst. axis [2,1,0]  

 cryst.   s(22) = (    -1         -1          0      )    f =(  0.0000000 )
                  (     0          1          0      )       ( -0.0000000 )
                  (     0          0          1      )       ( -0.5000000 )

 cart.    s(22) = ( -0.5000000 -0.8660254  0.0000000 )    f =(  0.0000000 )
                  ( -0.8660254  0.5000000  0.0000000 )       ( -0.0000000 )
                  (  0.0000000  0.0000000  1.0000000 )       ( -0.7961847 )


      isym = 23     inv. 180 deg rotation - cryst. axis [0,1,0]  

 cryst.   s(23) = (     1          1          0      )
                  (     0         -1          0      )
                  (     0          0          1      )

 cart.    s(23) = (  0.5000000  0.8660254  0.0000000 )
                  (  0.8660254 -0.5000000  0.0000000 )
                  (  0.0000000  0.0000000  1.0000000 )


      isym = 24     inv. 180 deg rotation - cryst. axis [1,1,0]  

 cryst.   s(24) = (     0         -1          0      )
                  (    -1          0          0      )
                  (     0          0          1      )

 cart.    s(24) = (  0.5000000 -0.8660254  0.0000000 )
                  ( -0.8660254 -0.5000000  0.0000000 )
                  (  0.0000000  0.0000000  1.0000000 )


     point group D_6h(6/mmm)
     there are 12 classes
     the character table:

       E     2C6   2C3   C2    3C2'  3C2'' i     2S3   2S6   s_h   3s_d  3s_v 
A_1g   1.00  1.00  1.00  1.00  1.00  1.00  1.00  1.00  1.00  1.00  1.00  1.00
A_2g   1.00  1.00  1.00  1.00 -1.00 -1.00  1.00  1.00  1.00  1.00 -1.00 -1.00
B_1g   1.00 -1.00  1.00 -1.00  1.00 -1.00  1.00 -1.00  1.00 -1.00  1.00 -1.00
B_2g   1.00 -1.00  1.00 -1.00 -1.00  1.00  1.00 -1.00  1.00 -1.00 -1.00  1.00
E_1g   2.00  1.00 -1.00 -2.00  0.00  0.00  2.00  1.00 -1.00 -2.00  0.00  0.00
E_2g   2.00 -1.00 -1.00  2.00  0.00  0.00  2.00 -1.00 -1.00  2.00  0.00  0.00
A_1u   1.00  1.00  1.00  1.00  1.00  1.00 -1.00 -1.00 -1.00 -1.00 -1.00 -1.00
A_2u   1.00  1.00  1.00  1.00 -1.00 -1.00 -1.00 -1.00 -1.00 -1.00  1.00  1.00
B_1u   1.00 -1.00  1.00 -1.00  1.00 -1.00 -1.00  1.00 -1.00  1.00 -1.00  1.00
B_2u   1.00 -1.00  1.00 -1.00 -1.00  1.00 -1.00  1.00 -1.00  1.00  1.00 -1.00
E_1u   2.00  1.00 -1.00 -2.00  0.00  0.00 -2.00 -1.00  1.00  2.00  0.00  0.00
E_2u   2.00 -1.00 -1.00  2.00  0.00  0.00 -2.00  1.00  1.00 -2.00  0.00  0.00

     the symmetry operations in each class and the name of the first element:

     E        1
          identity                                               
     2C6      5    6
           60 deg rotation - cryst. axis [0,0,1]                 
     2C3      7    8
          120 deg rotation - cryst. axis [0,0,1]                 
     C2       2
          180 deg rotation - cart. axis [0,0,1]                  
     3C2'     4   12   11
          180 deg rotation - cart. axis [1,0,0]                  
     3C2''    3    9   10
          180 deg rotation - cart. axis [0,1,0]                  
     i       13
          inversion                                              
     2S3     17   18
          inv.  60 deg rotation - cryst. axis [0,0,1]            
     2S6     19   20
          inv. 120 deg rotation - cryst. axis [0,0,1]            
     s_h     14
          inv. 180 deg rotation - cart. axis [0,0,1]             
     3s_d    16   24   23
          inv. 180 deg rotation - cart. axis [1,0,0]             
     3s_v    15   21   22
          inv. 180 deg rotation - cart. axis [0,1,0]             

   Cartesian axes

     site n.     atom                  positions (alat units)
         1           Co  tau(   1) = (  -0.0000000   0.5773503   0.3980924  )
         2           Co  tau(   2) = (   0.5000000   0.2886751   1.1942771  )

   Crystallographic axes

     site n.     atom                  positions (cryst. coord.)
         1           Co  tau(   1) = (  0.3333333  0.6666667  0.2500000  )
         2           Co  tau(   2) = (  0.6666667  0.3333333  0.7500000  )

     number of k points=    76  Gaussian smearing, width (Ry)=  0.0010
                       cart. coord. in units 2pi/alat
        k(    1) = (   0.0000000   0.0000000   0.0000000), wk =   0.0011574
        k(    2) = (   0.0000000   0.0000000   0.1046658), wk =   0.0023148
        k(    3) = (   0.0000000   0.0000000   0.2093317), wk =   0.0023148
        k(    4) = (   0.0000000   0.0000000  -0.3139975), wk =   0.0011574
        k(    5) = (   0.0000000   0.0962250   0.0000000), wk =   0.0069444
        k(    6) = (   0.0000000   0.0962250   0.1046658), wk =   0.0138889
        k(    7) = (   0.0000000   0.0962250   0.2093317), wk =   0.0138889
        k(    8) = (   0.0000000   0.0962250  -0.3139975), wk =   0.0069444
        k(    9) = (   0.0000000   0.1924501   0.0000000), wk =   0.0069444
        k(   10) = (   0.0000000   0.1924501   0.1046658), wk =   0.0138889
        k(   11) = (   0.0000000   0.1924501   0.2093317), wk =   0.0138889
        k(   12) = (   0.0000000   0.1924501  -0.3139975), wk =   0.0069444
        k(   13) = (   0.0000000   0.2886751   0.0000000), wk =   0.0069444
        k(   14) = (   0.0000000   0.2886751   0.1046658), wk =   0.0138889
        k(   15) = (   0.0000000   0.2886751   0.2093317), wk =   0.0138889
        k(   16) = (   0.0000000   0.2886751  -0.3139975), wk =   0.0069444
        k(   17) = (   0.0000000   0.3849002   0.0000000), wk =   0.0069444
        k(   18) = (   0.0000000   0.3849002   0.1046658), wk =   0.0138889
        k(   19) = (   0.0000000   0.3849002   0.2093317), wk =   0.0138889
        k(   20) = (   0.0000000   0.3849002  -0.3139975), wk =   0.0069444
        k(   21) = (   0.0000000   0.4811252   0.0000000), wk =   0.0069444
        k(   22) = (   0.0000000   0.4811252   0.1046658), wk =   0.0138889
        k(   23) = (   0.0000000   0.4811252   0.2093317), wk =   0.0138889
        k(   24) = (   0.0000000   0.4811252  -0.3139975), wk =   0.0069444
        k(   25) = (   0.0000000  -0.5773503   0.0000000), wk =   0.0034722
        k(   26) = (   0.0000000  -0.5773503   0.1046658), wk =   0.0069444
        k(   27) = (   0.0000000  -0.5773503   0.2093317), wk =   0.0069444
        k(   28) = (   0.0000000  -0.5773503  -0.3139975), wk =   0.0034722
        k(   29) = (   0.0833333   0.1443376   0.0000000), wk =   0.0069444
        k(   30) = (   0.0833333   0.1443376   0.1046658), wk =   0.0138889
        k(   31) = (   0.0833333   0.1443376   0.2093317), wk =   0.0138889
        k(   32) = (   0.0833333   0.1443376  -0.3139975), wk =   0.0069444
        k(   33) = (   0.0833333   0.2405626   0.0000000), wk =   0.0138889
        k(   34) = (   0.0833333   0.2405626   0.1046658), wk =   0.0277778
        k(   35) = (   0.0833333   0.2405626   0.2093317), wk =   0.0277778
        k(   36) = (   0.0833333   0.2405626  -0.3139975), wk =   0.0138889
        k(   37) = (   0.0833333   0.3367877   0.0000000), wk =   0.0138889
        k(   38) = (   0.0833333   0.3367877   0.1046658), wk =   0.0277778
        k(   39) = (   0.0833333   0.3367877   0.2093317), wk =   0.0277778
        k(   40) = (   0.0833333   0.3367877  -0.3139975), wk =   0.0138889
        k(   41) = (   0.0833333   0.4330127   0.0000000), wk =   0.0138889
        k(   42) = (   0.0833333   0.4330127   0.1046658), wk =   0.0277778
        k(   43) = (   0.0833333   0.4330127   0.2093317), wk =   0.0277778
        k(   44) = (   0.0833333   0.4330127  -0.3139975), wk =   0.0138889
        k(   45) = (   0.0833333   0.5292377   0.0000000), wk =   0.0138889
        k(   46) = (   0.0833333   0.5292377   0.1046658), wk =   0.0277778
        k(   47) = (   0.0833333   0.5292377   0.2093317), wk =   0.0277778
        k(   48) = (   0.0833333   0.5292377  -0.3139975), wk =   0.0138889
        k(   49) = (   0.1666667   0.2886751   0.0000000), wk =   0.0069444
        k(   50) = (   0.1666667   0.2886751   0.1046658), wk =   0.0138889
        k(   51) = (   0.1666667   0.2886751   0.2093317), wk =   0.0138889
        k(   52) = (   0.1666667   0.2886751  -0.3139975), wk =   0.0069444
        k(   53) = (   0.1666667   0.3849002   0.0000000), wk =   0.0138889
        k(   54) = (   0.1666667   0.3849002   0.1046658), wk =   0.0277778
        k(   55) = (   0.1666667   0.3849002   0.2093317), wk =   0.0277778
        k(   56) = (   0.1666667   0.3849002  -0.3139975), wk =   0.0138889
        k(   57) = (   0.1666667   0.4811252   0.0000000), wk =   0.0138889
        k(   58) = (   0.1666667   0.4811252   0.1046658), wk =   0.0277778
        k(   59) = (   0.1666667   0.4811252   0.2093317), wk =   0.0277778
        k(   60) = (   0.1666667   0.4811252  -0.3139975), wk =   0.0138889
        k(   61) = (   0.1666667   0.5773503   0.0000000), wk =   0.0069444
        k(   62) = (   0.1666667   0.5773503   0.1046658), wk =   0.0138889
        k(   63) = (   0.1666667   0.5773503   0.2093317), wk =   0.0138889
        k(   64) = (   0.1666667   0.5773503  -0.3139975), wk =   0.0069444
        k(   65) = (   0.2500000   0.4330127   0.0000000), wk =   0.0069444
        k(   66) = (   0.2500000   0.4330127   0.1046658), wk =   0.0138889
        k(   67) = (   0.2500000   0.4330127   0.2093317), wk =   0.0138889
        k(   68) = (   0.2500000   0.4330127  -0.3139975), wk =   0.0069444
        k(   69) = (   0.2500000   0.5292377   0.0000000), wk =   0.0138889
        k(   70) = (   0.2500000   0.5292377   0.1046658), wk =   0.0277778
        k(   71) = (   0.2500000   0.5292377   0.2093317), wk =   0.0277778
        k(   72) = (   0.2500000   0.5292377  -0.3139975), wk =   0.0138889
        k(   73) = (   0.3333333   0.5773503   0.0000000), wk =   0.0023148
        k(   74) = (   0.3333333   0.5773503   0.1046658), wk =   0.0046296
        k(   75) = (   0.3333333   0.5773503   0.2093317), wk =   0.0046296
        k(   76) = (   0.3333333   0.5773503  -0.3139975), wk =   0.0023148

                       cryst. coord.
        k(    1) = (   0.0000000   0.0000000   0.0000000), wk =   0.0011574
        k(    2) = (   0.0000000   0.0000000   0.1666667), wk =   0.0023148
        k(    3) = (   0.0000000   0.0000000   0.3333333), wk =   0.0023148
        k(    4) = (   0.0000000   0.0000000  -0.5000000), wk =   0.0011574
        k(    5) = (   0.0000000   0.0833333   0.0000000), wk =   0.0069444
        k(    6) = (   0.0000000   0.0833333   0.1666667), wk =   0.0138889
        k(    7) = (   0.0000000   0.0833333   0.3333333), wk =   0.0138889
        k(    8) = (   0.0000000   0.0833333  -0.5000000), wk =   0.0069444
        k(    9) = (   0.0000000   0.1666667   0.0000000), wk =   0.0069444
        k(   10) = (   0.0000000   0.1666667   0.1666667), wk =   0.0138889
        k(   11) = (   0.0000000   0.1666667   0.3333333), wk =   0.0138889
        k(   12) = (   0.0000000   0.1666667  -0.5000000), wk =   0.0069444
        k(   13) = (   0.0000000   0.2500000   0.0000000), wk =   0.0069444
        k(   14) = (   0.0000000   0.2500000   0.1666667), wk =   0.0138889
        k(   15) = (   0.0000000   0.2500000   0.3333333), wk =   0.0138889
        k(   16) = (   0.0000000   0.2500000  -0.5000000), wk =   0.0069444
        k(   17) = (   0.0000000   0.3333333   0.0000000), wk =   0.0069444
        k(   18) = (   0.0000000   0.3333333   0.1666667), wk =   0.0138889
        k(   19) = (   0.0000000   0.3333333   0.3333333), wk =   0.0138889
        k(   20) = (   0.0000000   0.3333333  -0.5000000), wk =   0.0069444
        k(   21) = (   0.0000000   0.4166667   0.0000000), wk =   0.0069444
        k(   22) = (   0.0000000   0.4166667   0.1666667), wk =   0.0138889
        k(   23) = (   0.0000000   0.4166667   0.3333333), wk =   0.0138889
        k(   24) = (   0.0000000   0.4166667  -0.5000000), wk =   0.0069444
        k(   25) = (   0.0000000  -0.5000000   0.0000000), wk =   0.0034722
        k(   26) = (   0.0000000  -0.5000000   0.1666667), wk =   0.0069444
        k(   27) = (   0.0000000  -0.5000000   0.3333333), wk =   0.0069444
        k(   28) = (   0.0000000  -0.5000000  -0.5000000), wk =   0.0034722
        k(   29) = (   0.0833333   0.0833333   0.0000000), wk =   0.0069444
        k(   30) = (   0.0833333   0.0833333   0.1666667), wk =   0.0138889
        k(   31) = (   0.0833333   0.0833333   0.3333333), wk =   0.0138889
        k(   32) = (   0.0833333   0.0833333  -0.5000000), wk =   0.0069444
        k(   33) = (   0.0833333   0.1666667   0.0000000), wk =   0.0138889
        k(   34) = (   0.0833333   0.1666667   0.1666667), wk =   0.0277778
        k(   35) = (   0.0833333   0.1666667   0.3333333), wk =   0.0277778
        k(   36) = (   0.0833333   0.1666667  -0.5000000), wk =   0.0138889
        k(   37) = (   0.0833333   0.2500000   0.0000000), wk =   0.0138889
        k(   38) = (   0.0833333   0.2500000   0.1666667), wk =   0.0277778
        k(   39) = (   0.0833333   0.2500000   0.3333333), wk =   0.0277778
        k(   40) = (   0.0833333   0.2500000  -0.5000000), wk =   0.0138889
        k(   41) = (   0.0833333   0.3333333   0.0000000), wk =   0.0138889
        k(   42) = (   0.0833333   0.3333333   0.1666667), wk =   0.0277778
        k(   43) = (   0.0833333   0.3333333   0.3333333), wk =   0.0277778
        k(   44) = (   0.0833333   0.3333333  -0.5000000), wk =   0.0138889
        k(   45) = (   0.0833333   0.4166667   0.0000000), wk =   0.0138889
        k(   46) = (   0.0833333   0.4166667   0.1666667), wk =   0.0277778
        k(   47) = (   0.0833333   0.4166667   0.3333333), wk =   0.0277778
        k(   48) = (   0.0833333   0.4166667  -0.5000000), wk =   0.0138889
        k(   49) = (   0.1666667   0.1666667   0.0000000), wk =   0.0069444
        k(   50) = (   0.1666667   0.1666667   0.1666667), wk =   0.0138889
        k(   51) = (   0.1666667   0.1666667   0.3333333), wk =   0.0138889
        k(   52) = (   0.1666667   0.1666667  -0.5000000), wk =   0.0069444
        k(   53) = (   0.1666667   0.2500000   0.0000000), wk =   0.0138889
        k(   54) = (   0.1666667   0.2500000   0.1666667), wk =   0.0277778
        k(   55) = (   0.1666667   0.2500000   0.3333333), wk =   0.0277778
        k(   56) = (   0.1666667   0.2500000  -0.5000000), wk =   0.0138889
        k(   57) = (   0.1666667   0.3333333   0.0000000), wk =   0.0138889
        k(   58) = (   0.1666667   0.3333333   0.1666667), wk =   0.0277778
        k(   59) = (   0.1666667   0.3333333   0.3333333), wk =   0.0277778
        k(   60) = (   0.1666667   0.3333333  -0.5000000), wk =   0.0138889
        k(   61) = (   0.1666667   0.4166667   0.0000000), wk =   0.0069444
        k(   62) = (   0.1666667   0.4166667   0.1666667), wk =   0.0138889
        k(   63) = (   0.1666667   0.4166667   0.3333333), wk =   0.0138889
        k(   64) = (   0.1666667   0.4166667  -0.5000000), wk =   0.0069444
        k(   65) = (   0.2500000   0.2500000   0.0000000), wk =   0.0069444
        k(   66) = (   0.2500000   0.2500000   0.1666667), wk =   0.0138889
        k(   67) = (   0.2500000   0.2500000   0.3333333), wk =   0.0138889
        k(   68) = (   0.2500000   0.2500000  -0.5000000), wk =   0.0069444
        k(   69) = (   0.2500000   0.3333333   0.0000000), wk =   0.0138889
        k(   70) = (   0.2500000   0.3333333   0.1666667), wk =   0.0277778
        k(   71) = (   0.2500000   0.3333333   0.3333333), wk =   0.0277778
        k(   72) = (   0.2500000   0.3333333  -0.5000000), wk =   0.0138889
        k(   73) = (   0.3333333   0.3333333   0.0000000), wk =   0.0023148
        k(   74) = (   0.3333333   0.3333333   0.1666667), wk =   0.0046296
        k(   75) = (   0.3333333   0.3333333   0.3333333), wk =   0.0046296
        k(   76) = (   0.3333333   0.3333333  -0.5000000), wk =   0.0023148

     Dense  grid:    23103 G-vectors     FFT dimensions: (  32,  32,  54)

     Smooth grid:    22383 G-vectors     FFT dimensions: (  32,  32,  54)

     Dynamical RAM for                 wfc:       0.06 MB

     Dynamical RAM for     wfc (w. buffer):       4.91 MB

     Dynamical RAM for           str. fact:       0.03 MB

     Dynamical RAM for           local pot:       0.00 MB

     Dynamical RAM for          nlocal pot:       0.11 MB

     Dynamical RAM for                qrad:       1.70 MB

     Dynamical RAM for          rho,v,vnew:       0.34 MB

     Dynamical RAM for               rhoin:       0.11 MB

     Dynamical RAM for            rho*nmix:       0.81 MB

     Dynamical RAM for           G-vectors:       0.11 MB

     Dynamical RAM for          h,s,v(r/c):       0.08 MB

     Dynamical RAM for          <psi|beta>:       0.01 MB

     Dynamical RAM for                 psi:       0.13 MB

     Dynamical RAM for                hpsi:       0.13 MB

     Dynamical RAM for                spsi:       0.13 MB

     Dynamical RAM for      wfcinit/wfcrot:       0.14 MB

     Dynamical RAM for           addusdens:       2.41 MB

     Estimated static dynamical RAM per process >       7.54 MB

     Estimated max dynamical RAM per process >      10.76 MB

     Estimated total dynamical RAM >     289.91 MB

     Check: negative core charge=   -0.000043
     Generating pointlists ...
     new r_m :   0.4057 (alat units)  1.9089 (a.u.) for type    1

     The initial density is read from file :
     ./out2/Co.save/charge-density


     starting charge      34.0429, renormalised to      34.0000

     negative rho (up, down):  1.411E-01 1.168E-01
     Starting wfcs from file
     Checking if some PAW data can be deallocated... 

     total cpu time spent up to now is        0.5 secs

     Self-consistent Calculation

     iteration #  1     ecut=   110.00 Ry     beta= 0.70
     Davidson diagonalization with overlap

---- Real-time Memory Report at c_bands before calling an iterative solver
            60 MiB given to the printing process from OS
             0 MiB allocation reported by mallinfo(arena+hblkhd)
        181308 MiB available memory on the node where the printing process lives
------------------
     c_bands:  1 eigenvalues not converged
     ethr =  1.00E-05,  avg # of iterations = 17.5

     negative rho (up, down):  3.286E-03 2.507E-03

     total cpu time spent up to now is        5.1 secs

     total energy              =    -753.32302712 Ry
     estimated scf accuracy    <       0.05953137 Ry

     total magnetization       =     3.30 Bohr mag/cell
     absolute magnetization    =     3.56 Bohr mag/cell

     iteration #  2     ecut=   110.00 Ry     beta= 0.70
     Davidson diagonalization with overlap

---- Real-time Memory Report at c_bands before calling an iterative solver
            82 MiB given to the printing process from OS
             0 MiB allocation reported by mallinfo(arena+hblkhd)
        180972 MiB available memory on the node where the printing process lives
------------------
     ethr =  1.75E-04,  avg # of iterations =  2.0

     total cpu time spent up to now is        6.0 secs

     total energy              =    -753.42004809 Ry
     estimated scf accuracy    <       0.01802428 Ry

     total magnetization       =     3.23 Bohr mag/cell
     absolute magnetization    =     3.49 Bohr mag/cell

     iteration #  3     ecut=   110.00 Ry     beta= 0.70
     Davidson diagonalization with overlap

---- Real-time Memory Report at c_bands before calling an iterative solver
            84 MiB given to the printing process from OS
             0 MiB allocation reported by mallinfo(arena+hblkhd)
        180951 MiB available memory on the node where the printing process lives
------------------
     ethr =  5.30E-05,  avg # of iterations =  5.1

     total cpu time spent up to now is        7.4 secs

     total energy              =    -753.45071955 Ry
     estimated scf accuracy    <       0.05534816 Ry

     total magnetization       =     3.25 Bohr mag/cell
     absolute magnetization    =     3.55 Bohr mag/cell

     iteration #  4     ecut=   110.00 Ry     beta= 0.70
     Davidson diagonalization with overlap

---- Real-time Memory Report at c_bands before calling an iterative solver
            84 MiB given to the printing process from OS
             0 MiB allocation reported by mallinfo(arena+hblkhd)
        180938 MiB available memory on the node where the printing process lives
------------------
     ethr =  5.30E-05,  avg # of iterations =  2.6

     total cpu time spent up to now is        8.3 secs

     total energy              =    -753.45075123 Ry
     estimated scf accuracy    <       0.01017338 Ry

     total magnetization       =     3.23 Bohr mag/cell
     absolute magnetization    =     3.54 Bohr mag/cell

     iteration #  5     ecut=   110.00 Ry     beta= 0.70
     Davidson diagonalization with overlap

---- Real-time Memory Report at c_bands before calling an iterative solver
            85 MiB given to the printing process from OS
             0 MiB allocation reported by mallinfo(arena+hblkhd)
        180930 MiB available memory on the node where the printing process lives
------------------
     ethr =  2.99E-05,  avg # of iterations =  4.1

     total cpu time spent up to now is        9.4 secs

     total energy              =    -753.45473487 Ry
     estimated scf accuracy    <       0.00146152 Ry

     total magnetization       =     3.21 Bohr mag/cell
     absolute magnetization    =     3.52 Bohr mag/cell

     iteration #  6     ecut=   110.00 Ry     beta= 0.70
     Davidson diagonalization with overlap

---- Real-time Memory Report at c_bands before calling an iterative solver
            85 MiB given to the printing process from OS
             0 MiB allocation reported by mallinfo(arena+hblkhd)
        180923 MiB available memory on the node where the printing process lives
------------------
     ethr =  4.30E-06,  avg # of iterations =  2.5

     total cpu time spent up to now is       10.2 secs

     total energy              =    -753.45465938 Ry
     estimated scf accuracy    <       0.00083581 Ry

     total magnetization       =     3.21 Bohr mag/cell
     absolute magnetization    =     3.52 Bohr mag/cell

     iteration #  7     ecut=   110.00 Ry     beta= 0.70
     Davidson diagonalization with overlap

---- Real-time Memory Report at c_bands before calling an iterative solver
            86 MiB given to the printing process from OS
             0 MiB allocation reported by mallinfo(arena+hblkhd)
        180917 MiB available memory on the node where the printing process lives
------------------
     ethr =  2.46E-06,  avg # of iterations =  1.8

     total cpu time spent up to now is       11.0 secs

     total energy              =    -753.45463520 Ry
     estimated scf accuracy    <       0.00017756 Ry

     total magnetization       =     3.21 Bohr mag/cell
     absolute magnetization    =     3.53 Bohr mag/cell

     iteration #  8     ecut=   110.00 Ry     beta= 0.70
     Davidson diagonalization with overlap

---- Real-time Memory Report at c_bands before calling an iterative solver
            86 MiB given to the printing process from OS
             0 MiB allocation reported by mallinfo(arena+hblkhd)
        180913 MiB available memory on the node where the printing process lives
------------------
     ethr =  5.22E-07,  avg # of iterations =  4.8

     total cpu time spent up to now is       12.3 secs

     total energy              =    -753.45480334 Ry
     estimated scf accuracy    <       0.00019680 Ry

     total magnetization       =     3.22 Bohr mag/cell
     absolute magnetization    =     3.54 Bohr mag/cell

     iteration #  9     ecut=   110.00 Ry     beta= 0.70
     Davidson diagonalization with overlap

---- Real-time Memory Report at c_bands before calling an iterative solver
            86 MiB given to the printing process from OS
             0 MiB allocation reported by mallinfo(arena+hblkhd)
        180993 MiB available memory on the node where the printing process lives
------------------
     ethr =  5.22E-07,  avg # of iterations =  1.3

     total cpu time spent up to now is       13.1 secs

     total energy              =    -753.45472728 Ry
     estimated scf accuracy    <       0.00024628 Ry

     total magnetization       =     3.22 Bohr mag/cell
     absolute magnetization    =     3.54 Bohr mag/cell

     iteration # 10     ecut=   110.00 Ry     beta= 0.70
     Davidson diagonalization with overlap

---- Real-time Memory Report at c_bands before calling an iterative solver
            87 MiB given to the printing process from OS
             0 MiB allocation reported by mallinfo(arena+hblkhd)
        180991 MiB available memory on the node where the printing process lives
------------------
     ethr =  5.22E-07,  avg # of iterations =  1.9

     total cpu time spent up to now is       13.8 secs

     total energy              =    -753.45474700 Ry
     estimated scf accuracy    <       0.00002380 Ry

     total magnetization       =     3.22 Bohr mag/cell
     absolute magnetization    =     3.54 Bohr mag/cell

     iteration # 11     ecut=   110.00 Ry     beta= 0.70
     Davidson diagonalization with overlap

---- Real-time Memory Report at c_bands before calling an iterative solver
            87 MiB given to the printing process from OS
             0 MiB allocation reported by mallinfo(arena+hblkhd)
        180989 MiB available memory on the node where the printing process lives
------------------
     ethr =  7.00E-08,  avg # of iterations =  4.2
 
     Magnetic moment per site  (integrated on atomic sphere of radius R)
     atom   1 (R=0.406)  charge= 15.5437  magn=  1.6829
     atom   2 (R=0.406)  charge= 15.5437  magn=  1.6829

     total cpu time spent up to now is       14.9 secs

     End of self-consistent calculation

 ------ SPIN UP ------------


          k = 0.0000 0.0000 0.0000 (  2791 PWs)   bands (ev):

   -76.9982 -76.9327 -40.4078 -40.1120 -40.1120 -40.0567 -40.0567 -40.0431
    10.0092  13.8524  16.4712  16.4712  16.5292  16.8141  16.8141  17.1186
    17.1186  18.3222  18.3222  19.0466  25.8193

     occupation numbers 
     1.0000   1.0000   1.0000   1.0000   1.0000   1.0000   1.0000   1.0000
     1.0000   1.0000   1.0000   1.0000   1.0000   1.0000   1.0000   1.0000
     1.0000   1.0000   1.0000   0.6661   0.0000

          k = 0.0000 0.0000 0.1047 (  2809 PWs)   bands (ev):

   -76.9939 -76.9371 -40.3838 -40.1083 -40.1083 -40.0678 -40.0604 -40.0604
    10.2968  13.7946  16.3921  16.3921  16.4507  16.7298  16.7298  17.3054
    17.3054  18.0491  18.3085  18.3085  27.3867

     occupation numbers 
     1.0000   1.0000   1.0000   1.0000   1.0000   1.0000   1.0000   1.0000
     1.0000   1.0000   1.0000   1.0000   1.0000   1.0000   1.0000   1.0000
     1.0000   1.0000   1.0000   1.0000   0.0000

          k = 0.0000 0.0000 0.2093 (  2773 PWs)   bands (ev):

   -76.9819 -76.9491 -40.3177 -40.1353 -40.0982 -40.0982 -40.0705 -40.0705
    11.1205  13.3838  16.2679  16.3266  16.3266  16.5457  16.5457  16.6555
    17.6630  17.6630  18.2199  18.2199  30.6929

     occupation numbers 
     1.0000   1.0000   1.0000   1.0000   1.0000   1.0000   1.0000   1.0000
     1.0000   1.0000   1.0000   1.0000   1.0000   1.0000   1.0000   1.0000
     1.0000   1.0000   1.0000   1.0000   0.0000

          k = 0.0000 0.0000-0.3140 (  2810 PWs)   bands (ev):

   -76.9655 -76.9655 -40.2269 -40.2269 -40.0844 -40.0844 -40.0844 -40.0844
    12.3136  12.3136  16.1745  16.1745  16.3836  16.3836  16.3836  16.3836
    17.9988  17.9988  17.9988  17.9988  34.6216

     occupation numbers 
     1.0000   1.0000   1.0000   1.0000   1.0000   1.0000   1.0000   1.0000
     1.0000   1.0000   1.0000   1.0000   1.0000   1.0000   1.0000   1.0000
     1.0000   1.0000   1.0000   1.0000   0.0000

          k = 0.0000 0.0962 0.0000 (  2799 PWs)   bands (ev):

   -76.9949 -76.9313 -40.4002 -40.1278 -40.1174 -40.0731 -40.0591 -40.0466
    10.2517  13.9951  16.2426  16.5865  16.7110  16.7746  16.9151  16.9706
    17.0446  17.5253  18.3555  20.1605  25.8574

     occupation numbers 
     1.0000   1.0000   1.0000   1.0000   1.0000   1.0000   1.0000   1.0000
     1.0000   1.0000   1.0000   1.0000   1.0000   1.0000   1.0000   1.0000
     1.0000   1.0000   1.0000   0.0000   0.0000

          k = 0.0000 0.0962 0.1047 (  2793 PWs)   bands (ev):

   -76.9906 -76.9356 -40.3775 -40.1234 -40.1135 -40.0876 -40.0630 -40.0597
    10.5348  13.9523  16.2330  16.4876  16.5166  16.5770  16.8241  17.1732
    17.2625  17.3916  18.3338  19.3443  27.4928

     occupation numbers 
     1.0000   1.0000   1.0000   1.0000   1.0000   1.0000   1.0000   1.0000
     1.0000   1.0000   1.0000   1.0000   1.0000   1.0000   1.0000   1.0000
     1.0000   1.0000   1.0000   0.0000   0.0000

          k = 0.0000 0.0962 0.2093 (  2791 PWs)   bands (ev):

   -76.9790 -76.9472 -40.3155 -40.1455 -40.1113 -40.1028 -40.0773 -40.0737
    11.3453  13.5716  16.1362  16.2158  16.2743  16.4157  16.6393  16.7617
    17.6380  17.6900  18.2271  18.5329  30.8426

     occupation numbers 
     1.0000   1.0000   1.0000   1.0000   1.0000   1.0000   1.0000   1.0000
     1.0000   1.0000   1.0000   1.0000   1.0000   1.0000   1.0000   1.0000
     1.0000   1.0000   1.0000   1.0000   0.0000

          k = 0.0000 0.0962-0.3140 (  2804 PWs)   bands (ev):

   -76.9632 -76.9632 -40.2303 -40.2303 -40.0948 -40.0948 -40.0883 -40.0883
    12.5193  12.5193  15.9935  15.9935  16.4273  16.4273  16.4750  16.4750
    17.9880  17.9880  18.0961  18.0961  34.7843

     occupation numbers 
     1.0000   1.0000   1.0000   1.0000   1.0000   1.0000   1.0000   1.0000
     1.0000   1.0000   1.0000   1.0000   1.0000   1.0000   1.0000   1.0000
     1.0000   1.0000   1.0000   1.0000   0.0000

          k = 0.0000 0.1925 0.0000 (  2795 PWs)   bands (ev):

   -76.9856 -76.9278 -40.3782 -40.1710 -40.1316 -40.1176 -40.0662 -40.0571
    10.9529  14.3475  15.9449  16.2737  16.6068  16.8621  16.9123  17.0282
    17.1209  17.1983  18.4276  21.7776  25.9908

     occupation numbers 
     1.0000   1.0000   1.0000   1.0000   1.0000   1.0000   1.0000   1.0000
     1.0000   1.0000   1.0000   1.0000   1.0000   1.0000   1.0000   1.0000
     1.0000   1.0000   1.0000   0.0000   0.0000

          k = 0.0000 0.1925 0.1047 (  2786 PWs)   bands (ev):

   -76.9817 -76.9317 -40.3604 -40.1644 -40.1331 -40.1272 -40.0706 -40.0665
    11.2193  14.3507  15.9701  16.0019  16.4874  16.6869  16.8956  17.0687
    17.2531  17.3834  18.3874  20.6101  27.8369

     occupation numbers 
     1.0000   1.0000   1.0000   1.0000   1.0000   1.0000   1.0000   1.0000
     1.0000   1.0000   1.0000   1.0000   1.0000   1.0000   1.0000   1.0000
     1.0000   1.0000   1.0000   0.0000   0.0000

          k = 0.0000 0.1925 0.2093 (  2790 PWs)   bands (ev):

   -76.9712 -76.9423 -40.3118 -40.1805 -40.1437 -40.1153 -40.0894 -40.0826
    11.9783  14.0588  15.6184  16.0340  16.2001  16.6327  16.6994  16.9000
    17.6129  17.7958  18.2422  19.2045  31.2878

     occupation numbers 
     1.0000   1.0000   1.0000   1.0000   1.0000   1.0000   1.0000   1.0000
     1.0000   1.0000   1.0000   1.0000   1.0000   1.0000   1.0000   1.0000
     1.0000   1.0000   1.0000   0.0000   0.0000

          k = 0.0000 0.1925-0.3140 (  2790 PWs)   bands (ev):

   -76.9567 -76.9567 -40.2455 -40.2455 -40.1174 -40.1174 -40.0990 -40.0990
    13.0719  13.0719  15.7375  15.7375  16.3836  16.3836  16.7195  16.7195
    17.9722  17.9722  18.3569  18.3569  35.2083

     occupation numbers 
     1.0000   1.0000   1.0000   1.0000   1.0000   1.0000   1.0000   1.0000
     1.0000   1.0000   1.0000   1.0000   1.0000   1.0000   1.0000   1.0000
     1.0000   1.0000   1.0000   1.0000   0.0000

          k = 0.0000 0.2887 0.0000 (  2784 PWs)   bands (ev):

   -76.9723 -76.9235 -40.3453 -40.2306 -40.1773 -40.1505 -40.0764 -40.0744
    12.0144  14.6334  15.5334  15.7524  16.5248  16.6429  16.9258  17.3849
    17.4570  17.6057  18.4975  23.5965  26.2397

     occupation numbers 
     1.0000   1.0000   1.0000   1.0000   1.0000   1.0000   1.0000   1.0000
     1.0000   1.0000   1.0000   1.0000   1.0000   1.0000   1.0000   1.0000
     1.0000   1.0000   1.0000   0.0000   0.0000

          k = 0.0000 0.2887 0.1047 (  2795 PWs)   bands (ev):

   -76.9691 -76.9268 -40.3389 -40.2176 -40.1916 -40.1455 -40.0814 -40.0797
    12.2365  14.6916  15.3790  15.8060  16.3618  16.6803  16.9336  17.4377
    17.5539  17.5766  18.4390  21.9196  28.4422

     occupation numbers 
     1.0000   1.0000   1.0000   1.0000   1.0000   1.0000   1.0000   1.0000
     1.0000   1.0000   1.0000   1.0000   1.0000   1.0000   1.0000   1.0000
     1.0000   1.0000   1.0000   0.0000   0.0000

          k = 0.0000 0.2887 0.2093 (  2793 PWs)   bands (ev):

   -76.9601 -76.9357 -40.3173 -40.2359 -40.1760 -40.1320 -40.0992 -40.0950
    12.8540  14.4937  15.2647  15.8653  16.1998  16.7610  16.8045  17.2717
    17.7280  17.9713  18.2671  20.0016  31.8051

     occupation numbers 
     1.0000   1.0000   1.0000   1.0000   1.0000   1.0000   1.0000   1.0000
     1.0000   1.0000   1.0000   1.0000   1.0000   1.0000   1.0000   1.0000
     1.0000   1.0000   1.0000   0.0000   0.0000

          k = 0.0000 0.2887-0.3140 (  2798 PWs)   bands (ev):

   -76.9480 -76.9480 -40.2803 -40.2803 -40.1340 -40.1340 -40.1135 -40.1135
    13.7068  13.7068  15.5810  15.5810  16.4363  16.4363  17.0166  17.0166
    18.0092  18.0092  18.7174  18.7174  33.5921

     occupation numbers 
     1.0000   1.0000   1.0000   1.0000   1.0000   1.0000   1.0000   1.0000
     1.0000   1.0000   1.0000   1.0000   1.0000   1.0000   1.0000   1.0000
     1.0000   1.0000   1.0000   1.0000   0.0000

          k = 0.0000 0.3849 0.0000 (  2810 PWs)   bands (ev):

   -76.9580 -76.9203 -40.3065 -40.2908 -40.2359 -40.1688 -40.0976 -40.0870
    13.1789  14.5726  14.9895  15.8424  16.4459  16.6508  16.7591  17.8880
    18.0491  18.1337  18.5469  25.5717  26.1590

     occupation numbers 
     1.0000   1.0000   1.0000   1.0000   1.0000   1.0000   1.0000   1.0000
     1.0000   1.0000   1.0000   1.0000   1.0000   1.0000   1.0000   1.0000
     1.0000   1.0000   1.0000   0.0000   0.0000

          k = 0.0000 0.3849 0.1047 (  2804 PWs)   bands (ev):

   -76.9555 -76.9228 -40.3332 -40.2615 -40.2382 -40.1634 -40.0979 -40.0925
    13.2848  14.6221  15.0146  15.7271  16.5395  16.5429  17.0987  17.9174
    17.9495  18.0697  18.4811  23.1637  28.1661

     occupation numbers 
     1.0000   1.0000   1.0000   1.0000   1.0000   1.0000   1.0000   1.0000
     1.0000   1.0000   1.0000   1.0000   1.0000   1.0000   1.0000   1.0000
     1.0000   1.0000   1.0000   0.0000   0.0000

          k = 0.0000 0.3849 0.2093 (  2795 PWs)   bands (ev):

   -76.9486 -76.9297 -40.3423 -40.2929 -40.1870 -40.1484 -40.1085 -40.1075
    13.5802  14.4600  15.1447  15.6887  16.6026  16.8168  17.3694  17.6310
    18.0303  18.2041  18.3366  20.8921  29.2145

     occupation numbers 
     1.0000   1.0000   1.0000   1.0000   1.0000   1.0000   1.0000   1.0000
     1.0000   1.0000   1.0000   1.0000   1.0000   1.0000   1.0000   1.0000
     1.0000   1.0000   1.0000   0.0000   0.0000

          k = 0.0000 0.3849-0.3140 (  2790 PWs)   bands (ev):

   -76.9392 -76.9392 -40.3265 -40.3265 -40.1389 -40.1389 -40.1280 -40.1280
    14.0090  14.0090  15.4667  15.4667  17.0226  17.0226  17.2126  17.2126
    18.1760  18.1760  19.2004  19.2004  30.3722

     occupation numbers 
     1.0000   1.0000   1.0000   1.0000   1.0000   1.0000   1.0000   1.0000
     1.0000   1.0000   1.0000   1.0000   1.0000   1.0000   1.0000   1.0000
     1.0000   1.0000   0.0000   0.0000   0.0000

          k = 0.0000 0.4811 0.0000 (  2806 PWs)   bands (ev):

   -76.9461 -76.9193 -40.3352 -40.2780 -40.2705 -40.1820 -40.1222 -40.0950
    13.9612  14.3856  14.6622  16.1925  16.3115  16.6424  16.8526  18.2630
    18.4183  18.5743  19.2301  24.1290  27.6020

     occupation numbers 
     1.0000   1.0000   1.0000   1.0000   1.0000   1.0000   1.0000   1.0000
     1.0000   1.0000   1.0000   1.0000   1.0000   1.0000   1.0000   1.0000
     1.0000   1.0000   0.0000   0.0000   0.0000

          k = 0.0000 0.4811 0.1047 (  2794 PWs)   bands (ev):

   -76.9443 -76.9211 -40.3558 -40.2979 -40.2345 -40.1762 -40.1175 -40.1009
    13.8560  14.3937  14.9824  15.6316  16.4315  16.8312  17.4382  18.2335
    18.3187  18.5281  19.0633  23.3862  26.8102

     occupation numbers 
     1.0000   1.0000   1.0000   1.0000   1.0000   1.0000   1.0000   1.0000
     1.0000   1.0000   1.0000   1.0000   1.0000   1.0000   1.0000   1.0000
     1.0000   1.0000   0.0958   0.0000   0.0000

          k = 0.0000 0.4811 0.2093 (  2802 PWs)   bands (ev):

   -76.9394 -76.9260 -40.3721 -40.3345 -40.1810 -40.1604 -40.1178 -40.1168
    13.8312  14.3312  15.1367  15.5028  16.7722  17.0450  17.8236  18.3401
    18.4381  18.4679  18.7055  21.6718  26.8952

     occupation numbers 
     1.0000   1.0000   1.0000   1.0000   1.0000   1.0000   1.0000   1.0000
     1.0000   1.0000   1.0000   1.0000   1.0000   1.0000   1.0000   1.0000
     1.0000   1.0000   1.0000   0.0000   0.0000

          k = 0.0000 0.4811-0.3140 (  2790 PWs)   bands (ev):

   -76.9327 -76.9327 -40.3640 -40.3640 -40.1386 -40.1386 -40.1386 -40.1386
    14.0272  14.0273  15.3498  15.3498  17.2734  17.2734  17.7676  17.7676
    18.4023  18.4023  19.9883  19.9883  27.6863

     occupation numbers 
     1.0000   1.0000   1.0000   1.0000   1.0000   1.0000   1.0000   1.0000
     1.0000   1.0000   1.0000   1.0000   1.0000   1.0000   1.0000   1.0000
     1.0000   1.0000   0.0000   0.0000   0.0000

          k = 0.0000-0.5774 0.0000 (  2790 PWs)   bands (ev):

   -76.9411 -76.9196 -40.3514 -40.2933 -40.2536 -40.1868 -40.1349 -40.0980
    14.2334  14.2418  14.5533  16.2641  16.4355  16.6005  16.9327  18.3984
    18.5683  18.5829  20.3664  22.3951  28.9117

     occupation numbers 
     1.0000   1.0000   1.0000   1.0000   1.0000   1.0000   1.0000   1.0000
     1.0000   1.0000   1.0000   1.0000   1.0000   1.0000   1.0000   1.0000
     1.0000   1.0000   0.0000   0.0000   0.0000

          k = 0.0000-0.5774 0.1047 (  2810 PWs)   bands (ev):

   -76.9397 -76.9210 -40.3684 -40.3125 -40.2247 -40.1809 -40.1275 -40.1040
    13.9654  14.2915  15.0222  15.6061  16.3905  16.9257  17.6333  18.3188
    18.4822  18.5597  20.1497  22.2190  27.9925

     occupation numbers 
     1.0000   1.0000   1.0000   1.0000   1.0000   1.0000   1.0000   1.0000
     1.0000   1.0000   1.0000   1.0000   1.0000   1.0000   1.0000   1.0000
     1.0000   1.0000   0.0000   0.0000   0.0000

          k = 0.0000-0.5774 0.2093 (  2810 PWs)   bands (ev):

   -76.9357 -76.9250 -40.3847 -40.3496 -40.1759 -40.1647 -40.1225 -40.1203
    13.8533  14.2813  15.1594  15.4195  16.7505  17.1973  17.8694  18.4744
    18.5361  18.5550  19.7905  21.6193  26.8643

     occupation numbers 
     1.0000   1.0000   1.0000   1.0000   1.0000   1.0000   1.0000   1.0000
     1.0000   1.0000   1.0000   1.0000   1.0000   1.0000   1.0000   1.0000
     1.0000   1.0000   0.0000   0.0000   0.0000

          k = 0.0000-0.5774-0.3140 (  2804 PWs)   bands (ev):

   -76.9304 -76.9303 -40.3782 -40.3782 -40.1425 -40.1425 -40.1381 -40.1380
    14.0085  14.0085  15.3026  15.3026  17.2819  17.2819  18.0278  18.0278
    18.5040  18.5040  20.5994  20.5995  26.4552

     occupation numbers 
     1.0000   1.0000   1.0000   1.0000   1.0000   1.0000   1.0000   1.0000
     1.0000   1.0000   1.0000   1.0000   1.0000   1.0000   1.0000   1.0000
     1.0000   1.0000   0.0000   0.0000   0.0000

          k = 0.0833 0.1443 0.0000 (  2806 PWs)   bands (ev):

   -76.9886 -76.9289 -40.3854 -40.1545 -40.1331 -40.0984 -40.0660 -40.0536
    10.7243  14.2481  16.0094  16.5220  16.6658  16.8222  16.8433  16.8815
    17.1408  17.2346  18.3991  21.3244  25.9452

     occupation numbers 
     1.0000   1.0000   1.0000   1.0000   1.0000   1.0000   1.0000   1.0000
     1.0000   1.0000   1.0000   1.0000   1.0000   1.0000   1.0000   1.0000
     1.0000   1.0000   1.0000   0.0000   0.0000

          k = 0.0833 0.1443 0.1047 (  2796 PWs)   bands (ev):

   -76.9846 -76.9329 -40.3658 -40.1486 -40.1320 -40.1115 -40.0702 -40.0633
    10.9971  14.2365  16.0314  16.1773  16.5291  16.6590  16.8632  16.9865
    17.2999  17.3428  18.3677  20.2670  27.7200

     occupation numbers 
     1.0000   1.0000   1.0000   1.0000   1.0000   1.0000   1.0000   1.0000
     1.0000   1.0000   1.0000   1.0000   1.0000   1.0000   1.0000   1.0000
     1.0000   1.0000   1.0000   0.0000   0.0000

          k = 0.0833 0.1443 0.2093 (  2793 PWs)   bands (ev):

   -76.9737 -76.9438 -40.3124 -40.1684 -40.1325 -40.1136 -40.0840 -40.0816
    11.7759  13.9155  15.7481  16.0827  16.2142  16.5755  16.7087  16.8175
    17.6442  17.7337  18.2423  19.0099  31.1433

     occupation numbers 
     1.0000   1.0000   1.0000   1.0000   1.0000   1.0000   1.0000   1.0000
     1.0000   1.0000   1.0000   1.0000   1.0000   1.0000   1.0000   1.0000
     1.0000   1.0000   1.0000   1.0000   0.0000

          k = 0.0833 0.1443-0.3140 (  2776 PWs)   bands (ev):

   -76.9588 -76.9588 -40.2395 -40.2395 -40.1113 -40.1113 -40.0957 -40.0957
    12.9021  12.9021  15.8003  15.8003  16.3821  16.3821  16.6561  16.6561
    17.9784  17.9784  18.2753  18.2753  35.0945

     occupation numbers 
     1.0000   1.0000   1.0000   1.0000   1.0000   1.0000   1.0000   1.0000
     1.0000   1.0000   1.0000   1.0000   1.0000   1.0000   1.0000   1.0000
     1.0000   1.0000   1.0000   1.0000   0.0000

          k = 0.0833 0.2406 0.0000 (  2796 PWs)   bands (ev):

   -76.9773 -76.9250 -40.3578 -40.2019 -40.1703 -40.1306 -40.0778 -40.0676
    11.6139  14.6089  15.7182  15.8067  16.5550  16.6176  17.0743  17.1369
    17.2521  17.5602  18.4544  22.9407  26.1600

     occupation numbers 
     1.0000   1.0000   1.0000   1.0000   1.0000   1.0000   1.0000   1.0000
     1.0000   1.0000   1.0000   1.0000   1.0000   1.0000   1.0000   1.0000
     1.0000   1.0000   1.0000   0.0000   0.0000

          k = 0.0833 0.2406 0.1047 (  2793 PWs)   bands (ev):

   -76.9738 -76.9285 -40.3459 -40.1927 -40.1767 -40.1354 -40.0829 -40.0728
    11.8582  14.6574  15.5846  15.7685  16.4193  16.6762  16.8683  17.2190
    17.4690  17.5538  18.4147  21.4695  28.2200

     occupation numbers 
     1.0000   1.0000   1.0000   1.0000   1.0000   1.0000   1.0000   1.0000
     1.0000   1.0000   1.0000   1.0000   1.0000   1.0000   1.0000   1.0000
     1.0000   1.0000   1.0000   0.0000   0.0000

          k = 0.0833 0.2406 0.2093 (  2800 PWs)   bands (ev):

   -76.9642 -76.9381 -40.3123 -40.2140 -40.1629 -40.1314 -40.0966 -40.0899
    12.5473  14.4354  15.3501  15.8752  16.1554  16.5903  16.7856  17.1388
    17.7337  17.8738  18.2847  19.7253  31.7211

     occupation numbers 
     1.0000   1.0000   1.0000   1.0000   1.0000   1.0000   1.0000   1.0000
     1.0000   1.0000   1.0000   1.0000   1.0000   1.0000   1.0000   1.0000
     1.0000   1.0000   1.0000   0.0000   0.0000

          k = 0.0833 0.2406-0.3140 (  2788 PWs)   bands (ev):

   -76.9512 -76.9512 -40.2642 -40.2642 -40.1317 -40.1317 -40.1078 -40.1078
    13.5255  13.5255  15.6303  15.6303  16.2807  16.2807  16.9386  16.9386
    18.0200  18.0200  18.5882  18.5882  35.1848

     occupation numbers 
     1.0000   1.0000   1.0000   1.0000   1.0000   1.0000   1.0000   1.0000
     1.0000   1.0000   1.0000   1.0000   1.0000   1.0000   1.0000   1.0000
     1.0000   1.0000   1.0000   1.0000   0.0000

          k = 0.0833 0.3368 0.0000 (  2790 PWs)   bands (ev):

   -76.9634 -76.9213 -40.3217 -40.2604 -40.2180 -40.1596 -40.0906 -40.0881
    12.7623  14.7341  15.2114  15.6229  16.4259  16.5771  16.8855  17.5332
    17.7624  18.1287  18.5019  24.7987  26.4525

     occupation numbers 
     1.0000   1.0000   1.0000   1.0000   1.0000   1.0000   1.0000   1.0000
     1.0000   1.0000   1.0000   1.0000   1.0000   1.0000   1.0000   1.0000
     1.0000   1.0000   1.0000   0.0000   0.0000

          k = 0.0833 0.3368 0.1047 (  2797 PWs)   bands (ev):

   -76.9606 -76.9241 -40.3288 -40.2439 -40.2219 -40.1590 -40.0979 -40.0869
    12.9341  14.8161  15.1073  15.6802  16.3307  16.6618  16.8713  17.5443
    17.8646  18.0025  18.4943  22.7519  28.8615

     occupation numbers 
     1.0000   1.0000   1.0000   1.0000   1.0000   1.0000   1.0000   1.0000
     1.0000   1.0000   1.0000   1.0000   1.0000   1.0000   1.0000   1.0000
     1.0000   1.0000   1.0000   0.0000   0.0000

          k = 0.0833 0.3368 0.2093 (  2796 PWs)   bands (ev):

   -76.9529 -76.9318 -40.3267 -40.2688 -40.1841 -40.1492 -40.1131 -40.0969
    13.3982  14.6093  15.1902  15.7898  16.2222  16.7063  16.8839  17.4854
    17.9689  18.1383  18.4418  20.5942  30.8561

     occupation numbers 
     1.0000   1.0000   1.0000   1.0000   1.0000   1.0000   1.0000   1.0000
     1.0000   1.0000   1.0000   1.0000   1.0000   1.0000   1.0000   1.0000
     1.0000   1.0000   1.0000   0.0000   0.0000

          k = 0.0833 0.3368-0.3140 (  2792 PWs)   bands (ev):

   -76.9424 -76.9424 -40.3044 -40.3044 -40.1466 -40.1466 -40.1185 -40.1185
    14.0168  14.0168  15.5610  15.5610  16.4383  16.4383  17.1513  17.1513
    18.2055  18.2055  19.0531  19.0531  32.0762

     occupation numbers 
     1.0000   1.0000   1.0000   1.0000   1.0000   1.0000   1.0000   1.0000
     1.0000   1.0000   1.0000   1.0000   1.0000   1.0000   1.0000   1.0000
     1.0000   1.0000   0.4005   0.4005   0.0000

          k = 0.0833 0.4330 0.0000 (  2804 PWs)   bands (ev):

   -76.9501 -76.9194 -40.3125 -40.2832 -40.2607 -40.1817 -40.1131 -40.1015
    13.7843  14.5645  14.8051  15.8384  16.2974  16.7036  16.7711  18.0267
    18.2013  18.5325  18.9290  25.5106  26.8095

     occupation numbers 
     1.0000   1.0000   1.0000   1.0000   1.0000   1.0000   1.0000   1.0000
     1.0000   1.0000   1.0000   1.0000   1.0000   1.0000   1.0000   1.0000
     1.0000   1.0000   1.0000   0.0000   0.0000

          k = 0.0833 0.4330 0.1047 (  2797 PWs)   bands (ev):

   -76.9481 -76.9215 -40.3390 -40.2822 -40.2377 -40.1773 -40.1149 -40.1015
    13.7835  14.6052  14.9508  15.6320  16.3808  16.7467  17.0483  17.9714
    18.2693  18.3279  18.9380  23.7847  27.2584

     occupation numbers 
     1.0000   1.0000   1.0000   1.0000   1.0000   1.0000   1.0000   1.0000
     1.0000   1.0000   1.0000   1.0000   1.0000   1.0000   1.0000   1.0000
     1.0000   1.0000   1.0000   0.0000   0.0000

          k = 0.0833 0.4330 0.2093 (  2800 PWs)   bands (ev):

   -76.9424 -76.9271 -40.3546 -40.3156 -40.1898 -40.1596 -40.1284 -40.1045
    13.8792  14.4876  15.1347  15.6506  16.4917  16.9292  17.4083  17.7020
    18.1620  18.4577  19.0027  21.5909  27.9619

     occupation numbers 
     1.0000   1.0000   1.0000   1.0000   1.0000   1.0000   1.0000   1.0000
     1.0000   1.0000   1.0000   1.0000   1.0000   1.0000   1.0000   1.0000
     1.0000   1.0000   1.0000   0.0000   0.0000

          k = 0.0833 0.4330-0.3140 (  2802 PWs)   bands (ev):

   -76.9348 -76.9348 -40.3450 -40.3450 -40.1578 -40.1578 -40.1234 -40.1234
    14.1399  14.1399  15.4553  15.4553  16.9466  16.9466  17.3461  17.3461
    18.4079  18.4079  19.8718  19.8718  29.0354

     occupation numbers 
     1.0000   1.0000   1.0000   1.0000   1.0000   1.0000   1.0000   1.0000
     1.0000   1.0000   1.0000   1.0000   1.0000   1.0000   1.0000   1.0000
     1.0000   1.0000   0.0000   0.0000   0.0000

          k = 0.0833 0.5292 0.0000 (  2801 PWs)   bands (ev):

   -76.9411 -76.9196 -40.3428 -40.2855 -40.2538 -40.1938 -40.1347 -40.1078
    14.2543  14.4008  14.6009  16.1949  16.2402  16.5874  16.9283  18.3761
    18.4472  18.5466  20.1919  23.1511  28.7200

     occupation numbers 
     1.0000   1.0000   1.0000   1.0000   1.0000   1.0000   1.0000   1.0000
     1.0000   1.0000   1.0000   1.0000   1.0000   1.0000   1.0000   1.0000
     1.0000   1.0000   0.0000   0.0000   0.0000

          k = 0.0833 0.5292 0.1047 (  2801 PWs)   bands (ev):

   -76.9397 -76.9210 -40.3596 -40.3051 -40.2279 -40.1849 -40.1310 -40.1097
    14.0437  14.4238  15.0445  15.5819  16.3014  16.9578  17.2891  18.2757
    18.4301  18.4886  20.1207  22.8989  27.3893

     occupation numbers 
     1.0000   1.0000   1.0000   1.0000   1.0000   1.0000   1.0000   1.0000
     1.0000   1.0000   1.0000   1.0000   1.0000   1.0000   1.0000   1.0000
     1.0000   1.0000   0.0000   0.0000   0.0000

          k = 0.0833 0.5292 0.2093 (  2808 PWs)   bands (ev):

   -76.9357 -76.9250 -40.3760 -40.3419 -40.1924 -40.1569 -40.1403 -40.1104
    13.9571  14.4096  15.1651  15.5226  16.4829  17.2512  17.7074  17.9293
    18.3770  18.5825  20.1548  22.0521  26.5970

     occupation numbers 
     1.0000   1.0000   1.0000   1.0000   1.0000   1.0000   1.0000   1.0000
     1.0000   1.0000   1.0000   1.0000   1.0000   1.0000   1.0000   1.0000
     1.0000   1.0000   0.0000   0.0000   0.0000

          k = 0.0833 0.5292-0.3140 (  2798 PWs)   bands (ev):

   -76.9304 -76.9304 -40.3699 -40.3699 -40.1647 -40.1647 -40.1243 -40.1243
    14.1229  14.1229  15.3727  15.3727  17.0636  17.0636  17.7801  17.7801
    18.4496  18.4496  20.9126  20.9126  26.8613

     occupation numbers 
     1.0000   1.0000   1.0000   1.0000   1.0000   1.0000   1.0000   1.0000
     1.0000   1.0000   1.0000   1.0000   1.0000   1.0000   1.0000   1.0000
     1.0000   1.0000   0.0000   0.0000   0.0000

          k = 0.1667 0.2887 0.0000 (  2794 PWs)   bands (ev):

   -76.9653 -76.9217 -40.3269 -40.2356 -40.2256 -40.1488 -40.0989 -40.0850
    12.6153  14.8996  15.3269  15.4140  16.3624  16.5680  16.9704  17.3099
    17.7506  18.1457  18.4650  24.5369  26.5185

     occupation numbers 
     1.0000   1.0000   1.0000   1.0000   1.0000   1.0000   1.0000   1.0000
     1.0000   1.0000   1.0000   1.0000   1.0000   1.0000   1.0000   1.0000
     1.0000   1.0000   1.0000   0.0000   0.0000

          k = 0.1667 0.2887 0.1047 (  2788 PWs)   bands (ev):

   -76.9624 -76.9247 -40.3280 -40.2323 -40.2163 -40.1563 -40.1037 -40.0843
    12.8093  15.0034  15.1855  15.4696  16.3462  16.5782  16.8299  17.3719
    17.8820  17.9941  18.5049  22.6130  28.9153

     occupation numbers 
     1.0000   1.0000   1.0000   1.0000   1.0000   1.0000   1.0000   1.0000
     1.0000   1.0000   1.0000   1.0000   1.0000   1.0000   1.0000   1.0000
     1.0000   1.0000   1.0000   0.0000   0.0000

          k = 0.1667 0.2887 0.2093 (  2800 PWs)   bands (ev):

   -76.9545 -76.9326 -40.3195 -40.2586 -40.1766 -40.1579 -40.1151 -40.0936
    13.3403  14.7357  15.2858  15.6330  16.1796  16.4338  16.8112  17.4228
    17.9983  18.1011  18.5200  20.5161  32.3031

     occupation numbers 
     1.0000   1.0000   1.0000   1.0000   1.0000   1.0000   1.0000   1.0000
     1.0000   1.0000   1.0000   1.0000   1.0000   1.0000   1.0000   1.0000
     1.0000   1.0000   1.0000   0.0000   0.0000

          k = 0.1667 0.2887-0.3140 (  2796 PWs)   bands (ev):

   -76.9436 -76.9436 -40.2939 -40.2939 -40.1517 -40.1517 -40.1151 -40.1151
    14.0553  14.0553  15.6316  15.6316  16.1256  16.1256  17.1013  17.1013
    18.2585  18.2585  19.0307  19.0307  33.7763

     occupation numbers 
     1.0000   1.0000   1.0000   1.0000   1.0000   1.0000   1.0000   1.0000
     1.0000   1.0000   1.0000   1.0000   1.0000   1.0000   1.0000   1.0000
     1.0000   1.0000   0.9814   0.9814   0.0000

          k = 0.1667 0.3849 0.0000 (  2793 PWs)   bands (ev):

   -76.9523 -76.9195 -40.2900 -40.2824 -40.2579 -40.1775 -40.1190 -40.1083
    13.7159  14.8959  14.9451  15.3661  16.2077  16.7177  16.7826  17.6153
    18.2066  18.4704  18.9440  26.4109  26.7607

     occupation numbers 
     1.0000   1.0000   1.0000   1.0000   1.0000   1.0000   1.0000   1.0000
     1.0000   1.0000   1.0000   1.0000   1.0000   1.0000   1.0000   1.0000
     1.0000   1.0000   1.0000   0.0000   0.0000

          k = 0.1667 0.3849 0.1047 (  2799 PWs)   bands (ev):

   -76.9501 -76.9217 -40.3207 -40.2768 -40.2280 -40.1839 -40.1253 -40.1005
    13.8016  14.8689  15.0118  15.4577  16.2732  16.6748  16.7372  17.6379
    18.2256  18.3039  19.0512  23.8980  28.6843

     occupation numbers 
     1.0000   1.0000   1.0000   1.0000   1.0000   1.0000   1.0000   1.0000
     1.0000   1.0000   1.0000   1.0000   1.0000   1.0000   1.0000   1.0000
     1.0000   1.0000   0.4784   0.0000   0.0000

          k = 0.1667 0.3849 0.2093 (  2796 PWs)   bands (ev):

   -76.9441 -76.9277 -40.3354 -40.3002 -40.1918 -40.1746 -40.1341 -40.0991
    14.0330  14.6670  15.2755  15.7182  16.1955  16.4908  16.8578  17.5758
    18.1092  18.4705  19.2431  21.6208  29.6364

     occupation numbers 
     1.0000   1.0000   1.0000   1.0000   1.0000   1.0000   1.0000   1.0000
     1.0000   1.0000   1.0000   1.0000   1.0000   1.0000   1.0000   1.0000
     1.0000   1.0000   0.0000   0.0000   0.0000

          k = 0.1667 0.3849-0.3140 (  2798 PWs)   bands (ev):

   -76.9359 -76.9359 -40.3261 -40.3261 -40.1746 -40.1746 -40.1169 -40.1169
    14.3503  14.3503  15.6447  15.6447  16.2600  16.2600  17.1375  17.1375
    18.4711  18.4711  19.9671  19.9671  30.8269

     occupation numbers 
     1.0000   1.0000   1.0000   1.0000   1.0000   1.0000   1.0000   1.0000
     1.0000   1.0000   1.0000   1.0000   1.0000   1.0000   1.0000   1.0000
     1.0000   1.0000   0.0000   0.0000   0.0000

          k = 0.1667 0.4811 0.0000 (  2809 PWs)   bands (ev):

   -76.9412 -76.9195 -40.3200 -40.2723 -40.2542 -40.2055 -40.1343 -40.1326
    14.4243  14.6977  14.7071  15.6645  16.1612  16.5832  16.9233  18.0162
    18.4415  18.4727  20.1088  24.7997  28.4343

     occupation numbers 
     1.0000   1.0000   1.0000   1.0000   1.0000   1.0000   1.0000   1.0000
     1.0000   1.0000   1.0000   1.0000   1.0000   1.0000   1.0000   1.0000
     1.0000   1.0000   0.0000   0.0000   0.0000

          k = 0.1667 0.4811 0.1047 (  2806 PWs)   bands (ev):

   -76.9397 -76.9210 -40.3364 -40.2942 -40.2311 -40.1956 -40.1443 -40.1171
    14.2786  14.7727  14.9644  15.5074  16.2157  16.7007  16.9757  17.9965
    18.2546  18.5114  20.1989  24.2908  27.1342

     occupation numbers 
     1.0000   1.0000   1.0000   1.0000   1.0000   1.0000   1.0000   1.0000
     1.0000   1.0000   1.0000   1.0000   1.0000   1.0000   1.0000   1.0000
     1.0000   1.0000   0.0000   0.0000   0.0000

          k = 0.1667 0.4811 0.2093 (  2795 PWs)   bands (ev):

   -76.9358 -76.9249 -40.3541 -40.3259 -40.2145 -40.1739 -40.1439 -40.1061
    14.2466  14.7044  15.1723  15.7540  16.0994  16.8086  17.1749  17.6765
    18.1898  18.5983  20.5216  22.7847  27.1552

     occupation numbers 
     1.0000   1.0000   1.0000   1.0000   1.0000   1.0000   1.0000   1.0000
     1.0000   1.0000   1.0000   1.0000   1.0000   1.0000   1.0000   1.0000
     1.0000   1.0000   0.0000   0.0000   0.0000

          k = 0.1667 0.4811-0.3140 (  2802 PWs)   bands (ev):

   -76.9304 -76.9304 -40.3504 -40.3504 -40.1926 -40.1926 -40.1161 -40.1161
    14.4132  14.4132  15.5482  15.5482  16.5214  16.5214  17.3308  17.3308
    18.4768  18.4768  21.3500  21.3500  28.0486

     occupation numbers 
     1.0000   1.0000   1.0000   1.0000   1.0000   1.0000   1.0000   1.0000
     1.0000   1.0000   1.0000   1.0000   1.0000   1.0000   1.0000   1.0000
     1.0000   1.0000   0.0000   0.0000   0.0000

          k = 0.1667 0.5774 0.0000 (  2816 PWs)   bands (ev):

   -76.9362 -76.9204 -40.3337 -40.2759 -40.2360 -40.2176 -40.1489 -40.1374
    14.5995  14.6049  14.6268  15.8821  16.1709  16.4843  17.0111  18.2870
    18.4289  18.4731  21.3531  22.9548  29.3239

     occupation numbers 
     1.0000   1.0000   1.0000   1.0000   1.0000   1.0000   1.0000   1.0000
     1.0000   1.0000   1.0000   1.0000   1.0000   1.0000   1.0000   1.0000
     1.0000   1.0000   0.0000   0.0000   0.0000

          k = 0.1667 0.5774 0.1047 (  2810 PWs)   bands (ev):

   -76.9351 -76.9215 -40.3467 -40.2967 -40.2379 -40.1874 -40.1559 -40.1246
    14.3085  14.6829  15.1330  15.4921  16.1377  16.8168  17.0663  18.2224
    18.2825  18.4936  21.4594  22.9061  28.4496

     occupation numbers 
     1.0000   1.0000   1.0000   1.0000   1.0000   1.0000   1.0000   1.0000
     1.0000   1.0000   1.0000   1.0000   1.0000   1.0000   1.0000   1.0000
     1.0000   1.0000   0.0000   0.0000   0.0000

          k = 0.1667 0.5774 0.2093 (  2801 PWs)   bands (ev):

   -76.9323 -76.9244 -40.3628 -40.3337 -40.2235 -40.1744 -40.1444 -40.1100
    14.2449  14.7145  15.2106  15.7156  16.0120  17.0166  17.2941  17.7501
    18.2980  18.5361  21.7782  22.7092  27.1470

     occupation numbers 
     1.0000   1.0000   1.0000   1.0000   1.0000   1.0000   1.0000   1.0000
     1.0000   1.0000   1.0000   1.0000   1.0000   1.0000   1.0000   1.0000
     1.0000   1.0000   0.0000   0.0000   0.0000

          k = 0.1667 0.5774-0.3140 (  2810 PWs)   bands (ev):

   -76.9283 -76.9283 -40.3594 -40.3594 -40.1994 -40.1994 -40.1155 -40.1155
    14.4151  14.4151  15.5073  15.5073  16.5663  16.5663  17.5336  17.5336
    18.4143  18.4143  22.2800  22.2800  26.6492

     occupation numbers 
     1.0000   1.0000   1.0000   1.0000   1.0000   1.0000   1.0000   1.0000
     1.0000   1.0000   1.0000   1.0000   1.0000   1.0000   1.0000   1.0000
     1.0000   1.0000   0.0000   0.0000   0.0000

          k = 0.2500 0.4330 0.0000 (  2806 PWs)   bands (ev):

   -76.9412 -76.9195 -40.3001 -40.2757 -40.2544 -40.2038 -40.1509 -40.1341
    14.5470  14.7674  15.0827  15.1504  16.1065  16.5902  16.9285  17.7986
    18.4349  18.4510  20.1151  26.5924  27.2787

     occupation numbers 
     1.0000   1.0000   1.0000   1.0000   1.0000   1.0000   1.0000   1.0000
     1.0000   1.0000   1.0000   1.0000   1.0000   1.0000   1.0000   1.0000
     1.0000   1.0000   0.0000   0.0000   0.0000

          k = 0.2500 0.4330 0.1047 (  2807 PWs)   bands (ev):

   -76.9398 -76.9210 -40.3119 -40.3038 -40.2182 -40.2120 -40.1542 -40.1189
    14.5611  14.7166  15.1670  15.2781  16.2603  16.4400  16.9102  17.8241
    18.2054  18.5206  20.2518  25.1414  27.5754

     occupation numbers 
     1.0000   1.0000   1.0000   1.0000   1.0000   1.0000   1.0000   1.0000
     1.0000   1.0000   1.0000   1.0000   1.0000   1.0000   1.0000   1.0000
     1.0000   1.0000   0.0000   0.0000   0.0000

          k = 0.2500 0.4330 0.2093 (  2805 PWs)   bands (ev):

   -76.9358 -76.9249 -40.3373 -40.3206 -40.2229 -40.1908 -40.1420 -40.1051
    14.5801  14.6658  15.3478  15.6889  16.0991  16.3745  16.9266  17.5936
    18.1613  18.6046  20.6440  23.0832  28.3909

     occupation numbers 
     1.0000   1.0000   1.0000   1.0000   1.0000   1.0000   1.0000   1.0000
     1.0000   1.0000   1.0000   1.0000   1.0000   1.0000   1.0000   1.0000
     1.0000   1.0000   0.0000   0.0000   0.0000

          k = 0.2500 0.4330-0.3140 (  2790 PWs)   bands (ev):

   -76.9304 -76.9304 -40.3384 -40.3384 -40.2073 -40.2073 -40.1136 -40.1136
    14.6178  14.6178  15.6918  15.6918  16.1417  16.1417  17.1386  17.1386
    18.4972  18.4972  21.5161  21.5161  29.4550

     occupation numbers 
     1.0000   1.0000   1.0000   1.0000   1.0000   1.0000   1.0000   1.0000
     1.0000   1.0000   1.0000   1.0000   1.0000   1.0000   1.0000   1.0000
     1.0000   1.0000   0.0000   0.0000   0.0000

          k = 0.2500 0.5292 0.0000 (  2823 PWs)   bands (ev):

   -76.9327 -76.9215 -40.3142 -40.2653 -40.2341 -40.2223 -40.1711 -40.1604
    14.6806  14.8474  14.9524  15.4505  16.1273  16.3942  17.1005  18.0706
    18.4096  18.4137  21.7543  24.3228  26.6290

     occupation numbers 
     1.0000   1.0000   1.0000   1.0000   1.0000   1.0000   1.0000   1.0000
     1.0000   1.0000   1.0000   1.0000   1.0000   1.0000   1.0000   1.0000
     1.0000   1.0000   0.0000   0.0000   0.0000

          k = 0.2500 0.5292 0.1047 (  2810 PWs)   bands (ev):

   -76.9320 -76.9223 -40.3203 -40.2911 -40.2538 -40.1915 -40.1734 -40.1370
    14.6209  14.9873  15.0871  15.3599  16.1577  16.3820  17.0963  18.0795
    18.1776  18.4556  21.9548  24.3528  26.6983

     occupation numbers 
     1.0000   1.0000   1.0000   1.0000   1.0000   1.0000   1.0000   1.0000
     1.0000   1.0000   1.0000   1.0000   1.0000   1.0000   1.0000   1.0000
     1.0000   1.0000   0.0000   0.0000   0.0000

          k = 0.2500 0.5292 0.2093 (  2803 PWs)   bands (ev):

   -76.9299 -76.9243 -40.3382 -40.3220 -40.2528 -40.2052 -40.1358 -40.1129
    14.6456  15.0067  15.2674  15.5616  16.0247  16.3838  17.1272  17.6319
    18.2235  18.4948  22.4712  24.0878  26.6942

     occupation numbers 
     1.0000   1.0000   1.0000   1.0000   1.0000   1.0000   1.0000   1.0000
     1.0000   1.0000   1.0000   1.0000   1.0000   1.0000   1.0000   1.0000
     1.0000   1.0000   0.0000   0.0000   0.0000

          k = 0.2500 0.5292-0.3140 (  2796 PWs)   bands (ev):

   -76.9271 -76.9271 -40.3414 -40.3414 -40.2306 -40.2306 -40.1114 -40.1114
    14.7911  14.7911  15.5798  15.5798  16.1503  16.1503  17.2602  17.2602
    18.4027  18.4027  23.2535  23.2535  27.2558

     occupation numbers 
     1.0000   1.0000   1.0000   1.0000   1.0000   1.0000   1.0000   1.0000
     1.0000   1.0000   1.0000   1.0000   1.0000   1.0000   1.0000   1.0000
     1.0000   1.0000   0.0000   0.0000   0.0000

          k = 0.3333 0.5774 0.0000 (  2814 PWs)   bands (ev):

   -76.9260 -76.9260 -40.3069 -40.2519 -40.2519 -40.1941 -40.1903 -40.1903
    14.6802  15.0403  15.0403  15.3432  16.2158  16.2158  17.2008  18.2167
    18.2167  18.3901  23.4677  24.3182  24.3182

     occupation numbers 
     1.0000   1.0000   1.0000   1.0000   1.0000   1.0000   1.0000   1.0000
     1.0000   1.0000   1.0000   1.0000   1.0000   1.0000   1.0000   1.0000
     1.0000   1.0000   0.0000   0.0000   0.0000

          k = 0.3333 0.5774 0.1047 (  2817 PWs)   bands (ev):

   -76.9260 -76.9260 -40.2994 -40.2826 -40.2826 -40.2017 -40.1595 -40.1595
    14.7800  15.0737  15.0737  15.3671  16.1832  16.1832  17.1683  18.1308
    18.2531  18.2531  23.8919  24.3972  24.3972

     occupation numbers 
     1.0000   1.0000   1.0000   1.0000   1.0000   1.0000   1.0000   1.0000
     1.0000   1.0000   1.0000   1.0000   1.0000   1.0000   1.0000   1.0000
     1.0000   1.0000   0.0000   0.0000   0.0000

          k = 0.3333 0.5774 0.2093 (  2805 PWs)   bands (ev):

   -76.9260 -76.9260 -40.3182 -40.3182 -40.2788 -40.2224 -40.1235 -40.1235
    15.0344  15.1406  15.1406  15.3922  16.1237  16.1237  17.1221  17.6077
    18.3204  18.3204  24.5932  24.5932  24.9606

     occupation numbers 
     1.0000   1.0000   1.0000   1.0000   1.0000   1.0000   1.0000   1.0000
     1.0000   1.0000   1.0000   1.0000   1.0000   1.0000   1.0000   1.0000
     1.0000   1.0000   0.0000   0.0000   0.0000

          k = 0.3333 0.5774-0.3140 (  2790 PWs)   bands (ev):

   -76.9260 -76.9260 -40.3318 -40.3318 -40.2506 -40.2506 -40.1098 -40.1098
    15.1738  15.1738  15.2942  15.2942  16.0968  16.0968  17.2200  17.2200
    18.3515  18.3515  24.7196  24.7196  26.4118

     occupation numbers 
     1.0000   1.0000   1.0000   1.0000   1.0000   1.0000   1.0000   1.0000
     1.0000   1.0000   1.0000   1.0000   1.0000   1.0000   1.0000   1.0000
     1.0000   1.0000   0.0000   0.0000   0.0000

 ------ SPIN DOWN ----------


          k = 0.0000 0.0000 0.0000 (  2791 PWs)   bands (ev):

   -74.9359 -74.8654 -38.4277 -38.0980 -38.0980 -38.0385 -38.0385 -38.0310
    10.0057  14.8166  18.1254  18.1254  18.2029  18.5276  18.5277  18.8700
    18.8700  18.9874  20.2014  20.2014  26.8538

     occupation numbers 
     1.0000   1.0000   1.0000   1.0000   1.0000   1.0000   1.0000   1.0000
     1.0000   1.0000   1.0000   1.0000   1.0000   1.0000   1.0000   1.0000
     1.0000   1.0000   0.0000   0.0000   0.0000

          k = 0.0000 0.0000 0.1047 (  2809 PWs)   bands (ev):

   -74.9312 -74.8702 -38.4015 -38.0940 -38.0940 -38.0580 -38.0425 -38.0425
    10.2948  14.6051  18.0393  18.0393  18.1022  18.3460  18.4298  18.4298
    19.0778  19.0778  20.1912  20.1912  28.2200

     occupation numbers 
     1.0000   1.0000   1.0000   1.0000   1.0000   1.0000   1.0000   1.0000
     1.0000   1.0000   1.0000   1.0000   1.0000   1.0000   1.0000   1.0000
     0.0025   0.0024   0.0000   0.0000   0.0000

          k = 0.0000 0.0000 0.2093 (  2773 PWs)   bands (ev):

   -74.9183 -74.8831 -38.3298 -38.1315 -38.0832 -38.0832 -38.0534 -38.0534
    11.1297  13.7484  17.6279  17.8469  17.9682  17.9682  18.2182  18.2182
    19.4790  19.4790  20.1001  20.1001  31.2935

     occupation numbers 
     1.0000   1.0000   1.0000   1.0000   1.0000   1.0000   1.0000   1.0000
     1.0000   1.0000   1.0000   1.0000   1.0000   1.0000   1.0000   1.0000
     0.0000   0.0000   0.0000   0.0000   0.0000

          k = 0.0000 0.0000-0.3140 (  2810 PWs)   bands (ev):

   -74.9007 -74.9007 -38.2311 -38.2311 -38.0683 -38.0683 -38.0683 -38.0683
    12.3886  12.3886  17.5865  17.5865  18.0335  18.0335  18.0335  18.0335
    19.8559  19.8559  19.8559  19.8559  35.0377

     occupation numbers 
     1.0000   1.0000   1.0000   1.0000   1.0000   1.0000   1.0000   1.0000
     1.0000   1.0000   1.0000   1.0000   1.0000   1.0000   1.0000   1.0000
     0.0000   0.0000   0.0000   0.0000   0.0000

          k = 0.0000 0.0962 0.0000 (  2799 PWs)   bands (ev):

   -74.9323 -74.8640 -38.4193 -38.1152 -38.1038 -38.0565 -38.0412 -38.0348
    10.2493  14.9792  17.8527  18.2525  18.2721  18.4048  18.4745  18.6389
    18.7835  18.8231  20.2409  21.1174  26.8691

     occupation numbers 
     1.0000   1.0000   1.0000   1.0000   1.0000   1.0000   1.0000   1.0000
     1.0000   1.0000   1.0000   1.0000   1.0000   1.0000   1.0000   1.0000
     1.0000   1.0000   0.0000   0.0000   0.0000

          k = 0.0000 0.0962 0.1047 (  2793 PWs)   bands (ev):

   -74.9277 -74.8686 -38.3947 -38.1105 -38.0996 -38.0755 -38.0458 -38.0454
    10.5345  14.7820  17.8037  17.8452  18.1450  18.1841  18.5039  18.5316
    19.0275  19.0588  20.2210  20.7404  28.3005

     occupation numbers 
     1.0000   1.0000   1.0000   1.0000   1.0000   1.0000   1.0000   1.0000
     1.0000   1.0000   1.0000   1.0000   1.0000   1.0000   1.0000   1.0000
     0.9921   0.2010   0.0000   0.0000   0.0000

          k = 0.0000 0.0962 0.2093 (  2791 PWs)   bands (ev):

   -74.9153 -74.8811 -38.3272 -38.1416 -38.0975 -38.0882 -38.0617 -38.0569
    11.3579  13.9430  17.3607  17.8101  17.8767  18.0658  18.2779  18.3193
    19.4496  19.4927  20.1084  20.3056  31.4271

     occupation numbers 
     1.0000   1.0000   1.0000   1.0000   1.0000   1.0000   1.0000   1.0000
     1.0000   1.0000   1.0000   1.0000   1.0000   1.0000   1.0000   1.0000
     0.0000   0.0000   0.0000   0.0000   0.0000

          k = 0.0000 0.0962-0.3140 (  2804 PWs)   bands (ev):

[...]
    20.3481  20.4612  21.5589  24.0907  29.2128

     occupation numbers 
     1.0000   1.0000   1.0000   1.0000   1.0000   1.0000   1.0000   1.0000
     1.0000   1.0000   1.0000   1.0000   1.0000   1.0000   1.0000   0.0000
     0.0000   0.0000   0.0000   0.0000   0.0000

          k = 0.0833 0.5292 0.1047 (  2801 PWs)   bands (ev):

   -74.8729 -74.8529 -38.3694 -38.3093 -38.2296 -38.1776 -38.1242 -38.0966
    14.9548  15.5938  16.1513  16.6709  17.8992  18.4817  18.5553  20.1474
    20.3234  20.3965  21.4182  23.7634  28.0889

     occupation numbers 
     1.0000   1.0000   1.0000   1.0000   1.0000   1.0000   1.0000   1.0000
     1.0000   1.0000   1.0000   1.0000   1.0000   1.0000   1.0000   0.0000
     0.0000   0.0000   0.0000   0.0000   0.0000

          k = 0.0833 0.5292 0.2093 (  2808 PWs)   bands (ev):

   -74.8687 -74.8571 -38.3877 -38.3502 -38.1885 -38.1493 -38.1311 -38.0997
    14.9347  15.4334  16.4607  16.8084  17.9773  18.7620  18.9900  19.6542
    20.2667  20.5050  21.1877  22.8293  27.4836

     occupation numbers 
     1.0000   1.0000   1.0000   1.0000   1.0000   1.0000   1.0000   1.0000
     1.0000   1.0000   1.0000   1.0000   1.0000   1.0000   1.0000   0.0000
     0.0000   0.0000   0.0000   0.0000   0.0000

          k = 0.0833 0.5292-0.3140 (  2798 PWs)   bands (ev):

   -74.8629 -74.8629 -38.3811 -38.3811 -38.1572 -38.1572 -38.1149 -38.1149
    15.1204  15.1204  16.7593  16.7593  18.4954  18.4954  19.2816  19.2816
    20.3477  20.3477  21.7498  21.7498  27.7333

     occupation numbers 
     1.0000   1.0000   1.0000   1.0000   1.0000   1.0000   1.0000   1.0000
     1.0000   1.0000   1.0000   1.0000   1.0000   1.0000   0.0000   0.0000
     0.0000   0.0000   0.0000   0.0000   0.0000

          k = 0.1667 0.2887 0.0000 (  2794 PWs)   bands (ev):

   -74.9005 -74.8537 -38.3392 -38.2327 -38.2225 -38.1381 -38.0842 -38.0762
    12.6813  16.0832  16.4729  16.7948  17.9615  18.1383  18.5602  19.0781
    19.5373  19.9199  20.3676  25.2788  27.2667

     occupation numbers 
     1.0000   1.0000   1.0000   1.0000   1.0000   1.0000   1.0000   1.0000
     1.0000   1.0000   1.0000   1.0000   1.0000   1.0000   1.0000   0.0022
     0.0000   0.0000   0.0000   0.0000   0.0000

          k = 0.1667 0.2887 0.1047 (  2788 PWs)   bands (ev):

   -74.8974 -74.8568 -38.3394 -38.2304 -38.2127 -38.1470 -38.0893 -38.0741
    12.9015  16.0635  16.3361  16.8633  17.9019  18.1670  18.4318  19.1250
    19.6751  19.7994  20.3743  23.5919  29.4999

     occupation numbers 
     1.0000   1.0000   1.0000   1.0000   1.0000   1.0000   1.0000   1.0000
     1.0000   1.0000   1.0000   1.0000   1.0000   1.0000   1.0000   0.0000
     0.0000   0.0000   0.0000   0.0000   0.0000

          k = 0.1667 0.2887 0.2093 (  2800 PWs)   bands (ev):

   -74.8888 -74.8654 -38.3289 -38.2604 -38.1708 -38.1491 -38.1018 -38.0824
    13.5247  15.3921  16.5866  17.0395  17.6774  17.9814  18.4839  19.1194
    19.8290  19.9186  20.3203  21.7998  32.7858

     occupation numbers 
     1.0000   1.0000   1.0000   1.0000   1.0000   1.0000   1.0000   1.0000
     1.0000   1.0000   1.0000   1.0000   1.0000   1.0000   1.0000   0.0000
     0.0000   0.0000   0.0000   0.0000   0.0000

          k = 0.1667 0.2887-0.3140 (  2796 PWs)   bands (ev):

   -74.8771 -74.8771 -38.3000 -38.3000 -38.1434 -38.1434 -38.1035 -38.1035
    14.4292  14.4292  16.9811  16.9811  17.6444  17.6444  18.8009  18.8009
    20.1255  20.1255  20.5733  20.5733  34.1941

     occupation numbers 
     1.0000   1.0000   1.0000   1.0000   1.0000   1.0000   1.0000   1.0000
     1.0000   1.0000   1.0000   1.0000   1.0000   1.0000   1.0000   1.0000
     0.0000   0.0000   0.0000   0.0000   0.0000

          k = 0.1667 0.3849 0.0000 (  2793 PWs)   bands (ev):

   -74.8865 -74.8513 -38.2989 -38.2841 -38.2572 -38.1694 -38.1060 -38.1015
    13.9331  16.1374  16.1558  16.5871  17.7665  18.2856  18.3366  19.4147
    20.0594  20.3736  20.6424  27.0762  27.3776

     occupation numbers 
     1.0000   1.0000   1.0000   1.0000   1.0000   1.0000   1.0000   1.0000
     1.0000   1.0000   1.0000   1.0000   1.0000   1.0000   1.0000   0.0000
     0.0000   0.0000   0.0000   0.0000   0.0000

          k = 0.1667 0.3849 0.1047 (  2799 PWs)   bands (ev):

   -74.8842 -74.8537 -38.3293 -38.2790 -38.2272 -38.1770 -38.1132 -38.0913
    14.0861  16.0030  16.2681  16.6974  17.7696  18.2002  18.3146  19.4294
    20.0799  20.1681  20.7716  24.6948  29.2994

     occupation numbers 
     1.0000   1.0000   1.0000   1.0000   1.0000   1.0000   1.0000   1.0000
     1.0000   1.0000   1.0000   1.0000   1.0000   1.0000   1.0000   0.0000
     0.0000   0.0000   0.0000   0.0000   0.0000

          k = 0.1667 0.3849 0.2093 (  2796 PWs)   bands (ev):

   -74.8777 -74.8601 -38.3447 -38.3052 -38.1870 -38.1685 -38.1230 -38.0886
    14.5040  15.6241  16.5732  16.9351  17.6589  17.9044  18.4849  19.3201
    19.9470  20.3646  20.8585  22.6268  30.2348

     occupation numbers 
     1.0000   1.0000   1.0000   1.0000   1.0000   1.0000   1.0000   1.0000
     1.0000   1.0000   1.0000   1.0000   1.0000   1.0000   1.0000   0.0000
     0.0000   0.0000   0.0000   0.0000   0.0000

          k = 0.1667 0.3849-0.3140 (  2798 PWs)   bands (ev):

   -74.8689 -74.8689 -38.3341 -38.3341 -38.1677 -38.1677 -38.1067 -38.1067
    15.0713  15.0713  16.9386  16.9386  17.6240  17.6241  18.8483  18.8483
    20.3774  20.3774  21.2391  21.2391  31.3820

     occupation numbers 
     1.0000   1.0000   1.0000   1.0000   1.0000   1.0000   1.0000   1.0000
     1.0000   1.0000   1.0000   1.0000   1.0000   1.0000   1.0000   1.0000
     0.0000   0.0000   0.0000   0.0000   0.0000

          k = 0.1667 0.4811 0.0000 (  2809 PWs)   bands (ev):

   -74.8746 -74.8513 -38.3251 -38.2728 -38.2598 -38.1998 -38.1295 -38.1206
    15.0350  15.9357  15.9381  16.6284  17.7072  18.0896  18.5280  19.8556
    20.3395  20.3758  21.5545  25.5546  29.0025

     occupation numbers 
     1.0000   1.0000   1.0000   1.0000   1.0000   1.0000   1.0000   1.0000
     1.0000   1.0000   1.0000   1.0000   1.0000   1.0000   1.0000   0.0000
     0.0000   0.0000   0.0000   0.0000   0.0000

          k = 0.1667 0.4811 0.1047 (  2806 PWs)   bands (ev):

   -74.8730 -74.8528 -38.3443 -38.2978 -38.2313 -38.1909 -38.1350 -38.1081
    15.0519  15.8995  16.1097  16.6740  17.7336  18.0776  18.5599  19.8309
    20.1221  20.4208  21.6133  24.9828  27.8747

     occupation numbers 
     1.0000   1.0000   1.0000   1.0000   1.0000   1.0000   1.0000   1.0000
     1.0000   1.0000   1.0000   1.0000   1.0000   1.0000   1.0000   0.0000
     0.0000   0.0000   0.0000   0.0000   0.0000

          k = 0.1667 0.4811 0.2093 (  2795 PWs)   bands (ev):

   -74.8687 -74.8571 -38.3641 -38.3330 -38.2112 -38.1674 -38.1353 -38.0961
    15.1598  15.6982  16.4657  16.9888  17.5773  18.0481  18.7364  19.4615
    20.0493  20.5246  21.7739  23.5401  27.9522

     occupation numbers 
     1.0000   1.0000   1.0000   1.0000   1.0000   1.0000   1.0000   1.0000
     1.0000   1.0000   1.0000   1.0000   1.0000   1.0000   1.0000   0.0000
     0.0000   0.0000   0.0000   0.0000   0.0000

          k = 0.1667 0.4811-0.3140 (  2802 PWs)   bands (ev):

   -74.8629 -74.8629 -38.3601 -38.3601 -38.1870 -38.1870 -38.1064 -38.1064
    15.3952  15.3952  16.9090  16.9090  17.7609  17.7609  19.0086  19.0086
    20.3718  20.3718  22.3258  22.3258  28.7761

     occupation numbers 
     1.0000   1.0000   1.0000   1.0000   1.0000   1.0000   1.0000   1.0000
     1.0000   1.0000   1.0000   1.0000   1.0000   1.0000   1.0000   1.0000
     0.0000   0.0000   0.0000   0.0000   0.0000

          k = 0.1667 0.5774 0.0000 (  2816 PWs)   bands (ev):

   -74.8692 -74.8523 -38.3400 -38.2768 -38.2399 -38.2129 -38.1454 -38.1258
    15.5001  15.8015  15.8690  16.6869  17.7313  17.9537  18.6368  20.1623
    20.3337  20.3761  22.4584  23.9726  29.7356

     occupation numbers 
     1.0000   1.0000   1.0000   1.0000   1.0000   1.0000   1.0000   1.0000
     1.0000   1.0000   1.0000   1.0000   1.0000   1.0000   1.0000   0.0000
     0.0000   0.0000   0.0000   0.0000   0.0000

          k = 0.1667 0.5774 0.1047 (  2810 PWs)   bands (ev):

   -74.8680 -74.8534 -38.3551 -38.3002 -38.2381 -38.1830 -38.1487 -38.1154
    15.3445  15.8548  16.2582  16.5177  17.6836  18.1208  18.6775  20.0836
    20.1575  20.4064  22.4952  23.8767  29.0345

     occupation numbers 
     1.0000   1.0000   1.0000   1.0000   1.0000   1.0000   1.0000   1.0000
     1.0000   1.0000   1.0000   1.0000   1.0000   1.0000   1.0000   0.0000
     0.0000   0.0000   0.0000   0.0000   0.0000

          k = 0.1667 0.5774 0.2093 (  2801 PWs)   bands (ev):

   -74.8649 -74.8565 -38.3733 -38.3414 -38.2208 -38.1673 -38.1371 -38.1001
    15.3062  15.7536  16.5281  16.9064  17.4830  18.2250  18.8861  19.5414
    20.1763  20.4498  22.6352  23.5552  27.9231

     occupation numbers 
     1.0000   1.0000   1.0000   1.0000   1.0000   1.0000   1.0000   1.0000
     1.0000   1.0000   1.0000   1.0000   1.0000   1.0000   1.0000   0.0000
     0.0000   0.0000   0.0000   0.0000   0.0000

          k = 0.1667 0.5774-0.3140 (  2810 PWs)   bands (ev):

   -74.8607 -74.8607 -38.3697 -38.3697 -38.1943 -38.1943 -38.1059 -38.1059
    15.4709  15.4709  16.8993  16.8993  17.8106  17.8106  19.1796  19.1796
    20.3052  20.3052  23.0423  23.0423  27.5299

     occupation numbers 
     1.0000   1.0000   1.0000   1.0000   1.0000   1.0000   1.0000   1.0000
     1.0000   1.0000   1.0000   1.0000   1.0000   1.0000   0.0000   0.0000
     0.0000   0.0000   0.0000   0.0000   0.0000

          k = 0.2500 0.4330 0.0000 (  2806 PWs)   bands (ev):

   -74.8746 -74.8513 -38.3035 -38.2764 -38.2600 -38.1981 -38.1406 -38.1293
    15.0416  16.0064  16.2869  16.2959  17.6240  18.1080  18.5269  19.6274
    20.3325  20.3493  21.5873  27.1536  27.8898

     occupation numbers 
     1.0000   1.0000   1.0000   1.0000   1.0000   1.0000   1.0000   1.0000
     1.0000   1.0000   1.0000   1.0000   1.0000   1.0000   1.0000   0.0000
     0.0000   0.0000   0.0000   0.0000   0.0000

          k = 0.2500 0.4330 0.1047 (  2807 PWs)   bands (ev):

   -74.8730 -74.8528 -38.3185 -38.3078 -38.2147 -38.2110 -38.1444 -38.1114
    15.1251  15.9261  16.3596  16.4955  17.6813  17.9312  18.5120  19.6454
    20.0676  20.4317  21.7044  25.7739  28.1924

     occupation numbers 
     1.0000   1.0000   1.0000   1.0000   1.0000   1.0000   1.0000   1.0000
     1.0000   1.0000   1.0000   1.0000   1.0000   1.0000   1.0000   0.0000
     0.0000   0.0000   0.0000   0.0000   0.0000

          k = 0.2500 0.4330 0.2093 (  2805 PWs)   bands (ev):

   -74.8687 -74.8571 -38.3462 -38.3272 -38.2197 -38.1855 -38.1335 -38.0953
    15.3365  15.7925  16.5970  16.8858  17.5387  17.6749  18.5616  19.3663
    20.0105  20.5321  21.9558  23.8722  29.0071

     occupation numbers 
     1.0000   1.0000   1.0000   1.0000   1.0000   1.0000   1.0000   1.0000
     1.0000   1.0000   1.0000   1.0000   1.0000   1.0000   1.0000   0.0000
     0.0000   0.0000   0.0000   0.0000   0.0000

          k = 0.2500 0.4330-0.3140 (  2790 PWs)   bands (ev):

   -74.8629 -74.8629 -38.3471 -38.3471 -38.2027 -38.2027 -38.1038 -38.1038
    15.5880  15.5880  16.9632  16.9632  17.4311  17.4311  18.8472  18.8472
    20.3958  20.3958  22.5465  22.5465  30.0563

     occupation numbers 
     1.0000   1.0000   1.0000   1.0000   1.0000   1.0000   1.0000   1.0000
     1.0000   1.0000   1.0000   1.0000   1.0000   1.0000   1.0000   1.0000
     0.0000   0.0000   0.0000   0.0000   0.0000

          k = 0.2500 0.5292 0.0000 (  2823 PWs)   bands (ev):

   -74.8655 -74.8534 -38.3187 -38.2652 -38.2311 -38.2251 -38.1625 -38.1578
    15.7550  15.9532  16.1184  16.3860  17.6300  17.8739  18.7314  19.9290
    20.3080  20.3111  22.8644  25.1245  27.2019

     occupation numbers 
     1.0000   1.0000   1.0000   1.0000   1.0000   1.0000   1.0000   1.0000
     1.0000   1.0000   1.0000   1.0000   1.0000   1.0000   1.0000   0.0000
     0.0000   0.0000   0.0000   0.0000   0.0000

          k = 0.2500 0.5292 0.1047 (  2810 PWs)   bands (ev):

   -74.8647 -74.8542 -38.3261 -38.2947 -38.2539 -38.1877 -38.1671 -38.1306
    15.7154  16.0845  16.2117  16.4524  17.6153  17.7760  18.7252  19.9311
    20.0386  20.3633  23.0405  25.1126  27.2978

     occupation numbers 
     1.0000   1.0000   1.0000   1.0000   1.0000   1.0000   1.0000   1.0000
     1.0000   1.0000   1.0000   1.0000   1.0000   1.0000   1.0000   0.0000
     0.0000   0.0000   0.0000   0.0000   0.0000

          k = 0.2500 0.5292 0.2093 (  2803 PWs)   bands (ev):

   -74.8625 -74.8564 -38.3467 -38.3290 -38.2522 -38.2001 -38.1281 -38.1037
    15.7596  16.0598  16.5033  16.8129  17.3826  17.6296  18.7675  19.4180
    20.0919  20.4025  23.4429  24.7768  27.4319

     occupation numbers 
     1.0000   1.0000   1.0000   1.0000   1.0000   1.0000   1.0000   1.0000
     1.0000   1.0000   1.0000   1.0000   1.0000   1.0000   1.0000   0.0000
     0.0000   0.0000   0.0000   0.0000   0.0000

          k = 0.2500 0.5292-0.3140 (  2796 PWs)   bands (ev):

   -74.8594 -74.8594 -38.3503 -38.3503 -38.2277 -38.2277 -38.1017 -38.1017
    15.9005  15.9005  16.9149  16.9149  17.3355  17.3355  18.9660  18.9660
    20.2897  20.2897  24.0492  24.0492  27.9990

     occupation numbers 
     1.0000   1.0000   1.0000   1.0000   1.0000   1.0000   1.0000   1.0000
     1.0000   1.0000   1.0000   1.0000   1.0000   1.0000   1.0000   1.0000
     0.0000   0.0000   0.0000   0.0000   0.0000

          k = 0.3333 0.5774 0.0000 (  2814 PWs)   bands (ev):

   -74.8582 -74.8582 -38.3105 -38.2506 -38.2506 -38.1903 -38.1903 -38.1874
    15.9743  16.1030  16.1030  16.3202  17.6910  17.6910  18.8401  20.0969
    20.0969  20.2810  24.2933  25.1117  25.1117

     occupation numbers 
     1.0000   1.0000   1.0000   1.0000   1.0000   1.0000   1.0000   1.0000
     1.0000   1.0000   1.0000   1.0000   1.0000   1.0000   1.0000   0.0000
     0.0000   0.0000   0.0000   0.0000   0.0000

          k = 0.3333 0.5774 0.1047 (  2817 PWs)   bands (ev):

   -74.8582 -74.8582 -38.3023 -38.2858 -38.2858 -38.1957 -38.1549 -38.1549
    16.0552  16.1834  16.1834  16.3555  17.6069  17.6069  18.8109  19.9805
    20.1353  20.1353  24.7346  25.1668  25.1668

     occupation numbers 
     1.0000   1.0000   1.0000   1.0000   1.0000   1.0000   1.0000   1.0000
     1.0000   1.0000   1.0000   1.0000   1.0000   1.0000   1.0000   0.0000
     0.0000   0.0000   0.0000   0.0000   0.0000

          k = 0.3333 0.5774 0.2093 (  2805 PWs)   bands (ev):

   -74.8582 -74.8582 -38.3252 -38.3252 -38.2798 -38.2183 -38.1152 -38.1152
    16.2464  16.3734  16.3734  16.4202  17.4179  17.4179  18.7889  19.3962
    20.2027  20.2027  25.3027  25.3027  25.7879

     occupation numbers 
     1.0000   1.0000   1.0000   1.0000   1.0000   1.0000   1.0000   1.0000
     1.0000   1.0000   1.0000   1.0000   1.0000   1.0000   1.0000   0.0000
     0.0000   0.0000   0.0000   0.0000   0.0000

          k = 0.3333 0.5774-0.3140 (  2790 PWs)   bands (ev):

   -74.8582 -74.8582 -38.3401 -38.3401 -38.2491 -38.2491 -38.1001 -38.1001
    16.4046  16.4046  16.4956  16.4956  17.2999  17.3000  18.9462  18.9462
    20.2319  20.2319  25.3888  25.3888  27.1588

     occupation numbers 
     1.0000   1.0000   1.0000   1.0000   1.0000   1.0000   1.0000   1.0000
     1.0000   1.0000   1.0000   1.0000   1.0000   1.0000   1.0000   1.0000
     0.0000   0.0000   0.0000   0.0000   0.0000

     the Fermi energy is    19.0507 ev

!    total energy              =    -753.45475852 Ry
     total all-electron energy =     -5573.811450 Ry
     estimated scf accuracy    <       0.00000013 Ry
     smearing contrib. (-TS)   =      -0.00002398 Ry
     internal energy E=F+TS    =    -753.45473453 Ry

     The total energy is F=E-TS. E is the sum of the following terms:
     one-electron contribution =    -278.94047691 Ry
     hartree contribution      =     163.62485260 Ry
     xc contribution           =     -61.42420232 Ry
     ewald contribution        =    -401.53928382 Ry
     one-center paw contrib.   =    -175.17562407 Ry
      -> PAW hartree energy AE =     222.17354203 Ry
      -> PAW hartree energy PS =    -221.11728511 Ry
      -> PAW xc energy AE      =    -117.67798559 Ry
      -> PAW xc energy PS      =      29.03391663 Ry
      -> total E_H with PAW    =     164.68110952 Ry
      -> total E_XC with PAW   =    -150.06827128 Ry

     total magnetization       =     3.22 Bohr mag/cell
     absolute magnetization    =     3.54 Bohr mag/cell

     convergence has been achieved in  11 iterations

     Writing all to output data dir ./out2/Co.save/
 
     init_run     :      0.30s CPU      0.38s WALL (       1 calls)
     electrons    :     13.49s CPU     14.43s WALL (       1 calls)

     Called by init_run:
     wfcinit      :      0.14s CPU      0.19s WALL (       1 calls)
     potinit      :      0.09s CPU      0.12s WALL (       1 calls)
     hinit0       :      0.05s CPU      0.05s WALL (       1 calls)

     Called by electrons:
     c_bands      :     11.29s CPU     11.95s WALL (      11 calls)
     sum_band     :      1.15s CPU      1.23s WALL (      11 calls)
     v_of_rho     :      0.05s CPU      0.05s WALL (      12 calls)
     v_h          :      0.00s CPU      0.00s WALL (      12 calls)
     v_xc         :      0.04s CPU      0.05s WALL (      12 calls)
     newd         :      0.03s CPU      0.04s WALL (      12 calls)
     PAW_pot      :      1.03s CPU      1.25s WALL (      12 calls)
     mix_rho      :      0.01s CPU      0.01s WALL (      11 calls)

     Called by c_bands:
     init_us_2    :      0.08s CPU      0.09s WALL (    1672 calls)
     init_us_2:cp :      0.08s CPU      0.09s WALL (    1672 calls)
     cegterg      :     10.62s CPU     11.15s WALL (     836 calls)

     Called by sum_band:
     sum_band:wei :      0.01s CPU      0.01s WALL (      11 calls)
     sum_band:loo :      1.07s CPU      1.14s WALL (      11 calls)
     sum_band:buf :      0.01s CPU      0.01s WALL (     836 calls)
     sum_band:ini :      0.04s CPU      0.05s WALL (     836 calls)
     sum_band:cal :      0.09s CPU      0.10s WALL (     836 calls)
     sum_band:bec :      0.01s CPU      0.01s WALL (     836 calls)
     addusdens    :      0.05s CPU      0.06s WALL (      11 calls)
                                        0.00s GPU  (      11 calls)
     addusd:skk   :      0.00s CPU      0.00s WALL (      11 calls)
                                        0.00s GPU  (      11 calls)

     Called by *egterg:
     cdiaghg      :      2.19s CPU      2.29s WALL (    4374 calls)
     cegterg:over :      0.34s CPU      0.36s WALL (    3614 calls)
     cegterg:upda :      0.10s CPU      0.10s WALL (    3614 calls)
     cegterg:last :      0.20s CPU      0.21s WALL (    2908 calls)
     h_psi        :      7.29s CPU      7.66s WALL (    4450 calls)
     s_psi        :      0.12s CPU      0.13s WALL (    4450 calls)
     g_psi        :      0.03s CPU      0.03s WALL (    3614 calls)

     Called by h_psi:
     h_psi:calbec :      0.38s CPU      0.41s WALL (    4450 calls)
     vloc_psi     :      6.70s CPU      7.04s WALL (    4450 calls)
     add_vuspsi   :      0.16s CPU      0.17s WALL (    4450 calls)

     General routines
     calbec       :      0.46s CPU      0.49s WALL (    5286 calls)
     fft          :      0.02s CPU      0.02s WALL (     294 calls)
     ffts         :      0.00s CPU      0.00s WALL (      46 calls)
     fftw         :      6.88s CPU      7.24s WALL (  151428 calls)
     interpolate  :      0.00s CPU      0.00s WALL (      24 calls)
 
     Parallel routines

     PAW routines
     PAW_pot      :      1.03s CPU      1.25s WALL (      12 calls)
     PAW_symme    :      0.01s CPU      0.01s WALL (      22 calls)
 
     PWSCF        :     14.01s CPU     15.40s WALL

 
   This run was terminated on:  10:49:25  22Mar2024            

=------------------------------------------------------------------------------=
   JOB DONE.
=------------------------------------------------------------------------------=
