
     Program PWSCF v.7.2 starts on 22Mar2024 at 10:55:46 

     This program is part of the open-source Quantum ESPRESSO suite
     for quantum simulation of materials; please cite
         "P. Giannozzi et al., J. Phys.:Condens. Matter 21 395502 (2009);
         "P. Giannozzi et al., J. Phys.:Condens. Matter 29 465901 (2017);
         "P. Giannozzi et al., J. Chem. Phys. 152 154105 (2020);
          URL http://www.quantum-espresso.org", 
     in publications or presentations arising from this work. More details at
     http://www.quantum-espresso.org/quote

     Parallel version (MPI), running on    28 processors

     MPI processes distributed on     1 nodes
     182191 MiB available memory on the printing compute node when the environment starts
 
     Waiting for input...
     Reading input from standard input

     Current dimensions of program PWSCF are:
     Max number of different atomic species (ntypx) = 10
     Max number of k-points (npk) = 120000
     Max angular momentum in pseudopotentials (lmaxx) =  4
     file Co.pbe-spn-kjpaw_psl.0.3.1.UPF: wavefunction(s)  3P 3D renormalized
 
     K-points division:     npool     =       2
     R & G space division:  proc/nbgrp/npool/nimage =      14
     Subspace diagonalization in iterative solution of the eigenvalue problem:
     a serial algorithm will be used

 
     Parallelization info
     --------------------
     sticks:   dense  smooth     PW     G-vecs:    dense   smooth      PW
     Min          48      48     14                 1663     1612     262
     Max          50      49     15                 1677     1619     269
     Sum         685     673    199                23331    22599    3705
 
     Using Slab Decomposition
 


     bravais-lattice index     =            4
     lattice parameter (alat)  =       4.7243  a.u.
     unit-cell volume          =     145.1926 (a.u.)^3
     number of atoms/cell      =            2
     number of atomic types    =            1
     number of electrons       =        34.00
     number of Kohn-Sham states=           21
     kinetic-energy cutoff     =     110.0000  Ry
     charge density cutoff     =     450.0000  Ry
     scf convergence threshold =      1.0E-06
     mixing beta               =       0.7000
     number of iterations used =            8  plain     mixing
     Exchange-correlation= SLA  PW   PBX  PBC
                           (   1   4   3   4   0   0   0)

     celldm(1)=   4.724315  celldm(2)=   0.000000  celldm(3)=   1.590000
     celldm(4)=   0.000000  celldm(5)=   0.000000  celldm(6)=   0.000000

     crystal axes: (cart. coord. in units of alat)
               a(1) = (   1.000000   0.000000   0.000000 )  
               a(2) = (  -0.500000   0.866025   0.000000 )  
               a(3) = (   0.000000   0.000000   1.590000 )  

     reciprocal axes: (cart. coord. in units 2 pi/alat)
               b(1) = (  1.000000  0.577350  0.000000 )  
               b(2) = (  0.000000  1.154701  0.000000 )  
               b(3) = (  0.000000  0.000000  0.628931 )  


     PseudoPot. # 1 for Co read from file:
     /truba/home/amuhaymin/ZnS/pseudo/QE/Co.pbe-spn-kjpaw_psl.0.3.1.UPF
     MD5 check sum: b0a1ad65bf214e88c1f3d33b20c7d919
     Pseudo is Projector augmented-wave + core cor, Zval = 17.0
     Generated using &quot;atomic&quot; code by A. Dal Corso  v.6.2.2
     Shape of augmentation charge: PSQ
     Using radial grid of 1193 points,  6 beta functions with: 
                l(1) =   0
                l(2) =   0
                l(3) =   1
                l(4) =   1
                l(5) =   2
                l(6) =   2
     Q(r) pseudized with 0 coefficients 


     atomic species   valence    mass     pseudopotential
        Co            17.00    58.93300     Co( 1.00)

     Starting magnetic structure 
     atomic species   magnetization
        Co           0.294

     24 Sym. Ops., with inversion, found (12 have fractional translation)


                                    s                        frac. trans.

      isym =  1     identity                                     

 cryst.   s( 1) = (     1          0          0      )
                  (     0          1          0      )
                  (     0          0          1      )

 cart.    s( 1) = (  1.0000000  0.0000000  0.0000000 )
                  (  0.0000000  1.0000000  0.0000000 )
                  (  0.0000000  0.0000000  1.0000000 )


      isym =  2     180 deg rotation - cart. axis [0,0,1]        

 cryst.   s( 2) = (    -1          0          0      )    f =(  0.0000000 )
                  (     0         -1          0      )       ( -0.0000000 )
                  (     0          0          1      )       ( -0.5000000 )

 cart.    s( 2) = ( -1.0000000  0.0000000  0.0000000 )    f =(  0.0000000 )
                  (  0.0000000 -1.0000000  0.0000000 )       ( -0.0000000 )
                  (  0.0000000  0.0000000  1.0000000 )       ( -0.7950000 )


      isym =  3     180 deg rotation - cart. axis [0,1,0]        

 cryst.   s( 3) = (    -1          0          0      )    f =(  0.0000000 )
                  (     1          1          0      )       (  0.0000000 )
                  (     0          0         -1      )       (  0.5000000 )

 cart.    s( 3) = ( -1.0000000  0.0000000  0.0000000 )    f =(  0.0000000 )
                  (  0.0000000  1.0000000  0.0000000 )       (  0.0000000 )
                  (  0.0000000  0.0000000 -1.0000000 )       (  0.7950000 )


      isym =  4     180 deg rotation - cart. axis [1,0,0]        

 cryst.   s( 4) = (     1          0          0      )
                  (    -1         -1          0      )
                  (     0          0         -1      )

 cart.    s( 4) = (  1.0000000  0.0000000  0.0000000 )
                  (  0.0000000 -1.0000000  0.0000000 )
                  (  0.0000000  0.0000000 -1.0000000 )


      isym =  5      60 deg rotation - cryst. axis [0,0,1]       

 cryst.   s( 5) = (     1          1          0      )    f =(  0.0000000 )
                  (    -1          0          0      )       ( -0.0000000 )
                  (     0          0          1      )       ( -0.5000000 )

 cart.    s( 5) = (  0.5000000 -0.8660254  0.0000000 )    f =(  0.0000000 )
                  (  0.8660254  0.5000000  0.0000000 )       ( -0.0000000 )
                  (  0.0000000  0.0000000  1.0000000 )       ( -0.7950000 )


      isym =  6      60 deg rotation - cryst. axis [0,0,-1]      

 cryst.   s( 6) = (     0         -1          0      )    f =(  0.0000000 )
                  (     1          1          0      )       ( -0.0000000 )
                  (     0          0          1      )       ( -0.5000000 )

 cart.    s( 6) = (  0.5000000  0.8660254  0.0000000 )    f =(  0.0000000 )
                  ( -0.8660254  0.5000000  0.0000000 )       ( -0.0000000 )
                  (  0.0000000  0.0000000  1.0000000 )       ( -0.7950000 )


      isym =  7     120 deg rotation - cryst. axis [0,0,1]       

 cryst.   s( 7) = (     0          1          0      )
                  (    -1         -1          0      )
                  (     0          0          1      )

 cart.    s( 7) = ( -0.5000000 -0.8660254  0.0000000 )
                  (  0.8660254 -0.5000000  0.0000000 )
                  (  0.0000000  0.0000000  1.0000000 )


      isym =  8     120 deg rotation - cryst. axis [0,0,-1]      

 cryst.   s( 8) = (    -1         -1          0      )
                  (     1          0          0      )
                  (     0          0          1      )

 cart.    s( 8) = ( -0.5000000  0.8660254  0.0000000 )
                  ( -0.8660254 -0.5000000  0.0000000 )
                  (  0.0000000  0.0000000  1.0000000 )


      isym =  9     180 deg rotation - cryst. axis [1,-1,0]      

 cryst.   s( 9) = (     0         -1          0      )    f =( -0.0000000 )
                  (    -1          0          0      )       ( -0.0000000 )
                  (     0          0         -1      )       (  0.5000000 )

 cart.    s( 9) = (  0.5000000 -0.8660254  0.0000000 )    f =( -0.0000000 )
                  ( -0.8660254 -0.5000000  0.0000000 )       ( -0.0000000 )
                  (  0.0000000  0.0000000 -1.0000000 )       (  0.7950000 )


      isym = 10     180 deg rotation - cryst. axis [2,1,0]       

 cryst.   s(10) = (     1          1          0      )    f =(  0.0000000 )
                  (     0         -1          0      )       ( -0.0000000 )
                  (     0          0         -1      )       (  0.5000000 )

 cart.    s(10) = (  0.5000000  0.8660254  0.0000000 )    f =(  0.0000000 )
                  (  0.8660254 -0.5000000  0.0000000 )       ( -0.0000000 )
                  (  0.0000000  0.0000000 -1.0000000 )       (  0.7950000 )


      isym = 11     180 deg rotation - cryst. axis [0,1,0]       

 cryst.   s(11) = (    -1         -1          0      )
                  (     0          1          0      )
                  (     0          0         -1      )

 cart.    s(11) = ( -0.5000000 -0.8660254  0.0000000 )
                  ( -0.8660254  0.5000000  0.0000000 )
                  (  0.0000000  0.0000000 -1.0000000 )


      isym = 12     180 deg rotation - cryst. axis [1,1,0]       

 cryst.   s(12) = (     0          1          0      )
                  (     1          0          0      )
                  (     0          0         -1      )

 cart.    s(12) = ( -0.5000000  0.8660254  0.0000000 )
                  (  0.8660254  0.5000000  0.0000000 )
                  (  0.0000000  0.0000000 -1.0000000 )


      isym = 13     inversion                                    

 cryst.   s(13) = (    -1          0          0      )
                  (     0         -1          0      )
                  (     0          0         -1      )

 cart.    s(13) = ( -1.0000000  0.0000000  0.0000000 )
                  (  0.0000000 -1.0000000  0.0000000 )
                  (  0.0000000  0.0000000 -1.0000000 )


      isym = 14     inv. 180 deg rotation - cart. axis [0,0,1]   

 cryst.   s(14) = (     1          0          0      )    f =(  0.0000000 )
                  (     0          1          0      )       (  0.0000000 )
                  (     0          0         -1      )       (  0.5000000 )

 cart.    s(14) = (  1.0000000  0.0000000  0.0000000 )    f =(  0.0000000 )
                  (  0.0000000  1.0000000  0.0000000 )       (  0.0000000 )
                  (  0.0000000  0.0000000 -1.0000000 )       (  0.7950000 )


      isym = 15     inv. 180 deg rotation - cart. axis [0,1,0]   

 cryst.   s(15) = (     1          0          0      )    f =(  0.0000000 )
                  (    -1         -1          0      )       ( -0.0000000 )
                  (     0          0          1      )       ( -0.5000000 )

 cart.    s(15) = (  1.0000000  0.0000000  0.0000000 )    f =(  0.0000000 )
                  (  0.0000000 -1.0000000  0.0000000 )       ( -0.0000000 )
                  (  0.0000000  0.0000000  1.0000000 )       ( -0.7950000 )


      isym = 16     inv. 180 deg rotation - cart. axis [1,0,0]   

 cryst.   s(16) = (    -1          0          0      )
                  (     1          1          0      )
                  (     0          0          1      )

 cart.    s(16) = ( -1.0000000  0.0000000  0.0000000 )
                  (  0.0000000  1.0000000  0.0000000 )
                  (  0.0000000  0.0000000  1.0000000 )


      isym = 17     inv.  60 deg rotation - cryst. axis [0,0,1]  

 cryst.   s(17) = (    -1         -1          0      )    f =(  0.0000000 )
                  (     1          0          0      )       ( -0.0000000 )
                  (     0          0         -1      )       (  0.5000000 )

 cart.    s(17) = ( -0.5000000  0.8660254  0.0000000 )    f =(  0.0000000 )
                  ( -0.8660254 -0.5000000  0.0000000 )       ( -0.0000000 )
                  (  0.0000000  0.0000000 -1.0000000 )       (  0.7950000 )


      isym = 18     inv.  60 deg rotation - cryst. axis [0,0,-1] 

 cryst.   s(18) = (     0          1          0      )    f =( -0.0000000 )
                  (    -1         -1          0      )       ( -0.0000000 )
                  (     0          0         -1      )       (  0.5000000 )

 cart.    s(18) = ( -0.5000000 -0.8660254  0.0000000 )    f =(  0.0000000 )
                  (  0.8660254 -0.5000000  0.0000000 )       ( -0.0000000 )
                  (  0.0000000  0.0000000 -1.0000000 )       (  0.7950000 )


      isym = 19     inv. 120 deg rotation - cryst. axis [0,0,1]  

 cryst.   s(19) = (     0         -1          0      )
                  (     1          1          0      )
                  (     0          0         -1      )

 cart.    s(19) = (  0.5000000  0.8660254  0.0000000 )
                  ( -0.8660254  0.5000000  0.0000000 )
                  (  0.0000000  0.0000000 -1.0000000 )


      isym = 20     inv. 120 deg rotation - cryst. axis [0,0,-1] 

 cryst.   s(20) = (     1          1          0      )
                  (    -1          0          0      )
                  (     0          0         -1      )

 cart.    s(20) = (  0.5000000 -0.8660254  0.0000000 )
                  (  0.8660254  0.5000000  0.0000000 )
                  (  0.0000000  0.0000000 -1.0000000 )


      isym = 21     inv. 180 deg rotation - cryst. axis [1,-1,0] 

 cryst.   s(21) = (     0          1          0      )    f =(  0.0000000 )
                  (     1          0          0      )       ( -0.0000000 )
                  (     0          0          1      )       ( -0.5000000 )

 cart.    s(21) = ( -0.5000000  0.8660254  0.0000000 )    f =(  0.0000000 )
                  (  0.8660254  0.5000000  0.0000000 )       ( -0.0000000 )
                  (  0.0000000  0.0000000  1.0000000 )       ( -0.7950000 )


      isym = 22     inv. 180 deg rotation - cryst. axis [2,1,0]  

 cryst.   s(22) = (    -1         -1          0      )    f =(  0.0000000 )
                  (     0          1          0      )       ( -0.0000000 )
                  (     0          0          1      )       ( -0.5000000 )

 cart.    s(22) = ( -0.5000000 -0.8660254  0.0000000 )    f =(  0.0000000 )
                  ( -0.8660254  0.5000000  0.0000000 )       ( -0.0000000 )
                  (  0.0000000  0.0000000  1.0000000 )       ( -0.7950000 )


      isym = 23     inv. 180 deg rotation - cryst. axis [0,1,0]  

 cryst.   s(23) = (     1          1          0      )
                  (     0         -1          0      )
                  (     0          0          1      )

 cart.    s(23) = (  0.5000000  0.8660254  0.0000000 )
                  (  0.8660254 -0.5000000  0.0000000 )
                  (  0.0000000  0.0000000  1.0000000 )


      isym = 24     inv. 180 deg rotation - cryst. axis [1,1,0]  

 cryst.   s(24) = (     0         -1          0      )
                  (    -1          0          0      )
                  (     0          0          1      )

 cart.    s(24) = (  0.5000000 -0.8660254  0.0000000 )
                  ( -0.8660254 -0.5000000  0.0000000 )
                  (  0.0000000  0.0000000  1.0000000 )


     point group D_6h(6/mmm)
     there are 12 classes
     the character table:

       E     2C6   2C3   C2    3C2'  3C2'' i     2S3   2S6   s_h   3s_d  3s_v 
A_1g   1.00  1.00  1.00  1.00  1.00  1.00  1.00  1.00  1.00  1.00  1.00  1.00
A_2g   1.00  1.00  1.00  1.00 -1.00 -1.00  1.00  1.00  1.00  1.00 -1.00 -1.00
B_1g   1.00 -1.00  1.00 -1.00  1.00 -1.00  1.00 -1.00  1.00 -1.00  1.00 -1.00
B_2g   1.00 -1.00  1.00 -1.00 -1.00  1.00  1.00 -1.00  1.00 -1.00 -1.00  1.00
E_1g   2.00  1.00 -1.00 -2.00  0.00  0.00  2.00  1.00 -1.00 -2.00  0.00  0.00
E_2g   2.00 -1.00 -1.00  2.00  0.00  0.00  2.00 -1.00 -1.00  2.00  0.00  0.00
A_1u   1.00  1.00  1.00  1.00  1.00  1.00 -1.00 -1.00 -1.00 -1.00 -1.00 -1.00
A_2u   1.00  1.00  1.00  1.00 -1.00 -1.00 -1.00 -1.00 -1.00 -1.00  1.00  1.00
B_1u   1.00 -1.00  1.00 -1.00  1.00 -1.00 -1.00  1.00 -1.00  1.00 -1.00  1.00
B_2u   1.00 -1.00  1.00 -1.00 -1.00  1.00 -1.00  1.00 -1.00  1.00  1.00 -1.00
E_1u   2.00  1.00 -1.00 -2.00  0.00  0.00 -2.00 -1.00  1.00  2.00  0.00  0.00
E_2u   2.00 -1.00 -1.00  2.00  0.00  0.00 -2.00  1.00  1.00 -2.00  0.00  0.00

     the symmetry operations in each class and the name of the first element:

     E        1
          identity                                               
     2C6      5    6
           60 deg rotation - cryst. axis [0,0,1]                 
     2C3      7    8
          120 deg rotation - cryst. axis [0,0,1]                 
     C2       2
          180 deg rotation - cart. axis [0,0,1]                  
     3C2'     4   12   11
          180 deg rotation - cart. axis [1,0,0]                  
     3C2''    3    9   10
          180 deg rotation - cart. axis [0,1,0]                  
     i       13
          inversion                                              
     2S3     17   18
          inv.  60 deg rotation - cryst. axis [0,0,1]            
     2S6     19   20
          inv. 120 deg rotation - cryst. axis [0,0,1]            
     s_h     14
          inv. 180 deg rotation - cart. axis [0,0,1]             
     3s_d    16   24   23
          inv. 180 deg rotation - cart. axis [1,0,0]             
     3s_v    15   21   22
          inv. 180 deg rotation - cart. axis [0,1,0]             

   Cartesian axes

     site n.     atom                  positions (alat units)
         1           Co  tau(   1) = (  -0.0000000   0.5773503   0.3975000  )
         2           Co  tau(   2) = (   0.5000000   0.2886751   1.1925000  )

   Crystallographic axes

     site n.     atom                  positions (cryst. coord.)
         1           Co  tau(   1) = (  0.3333333  0.6666667  0.2500000  )
         2           Co  tau(   2) = (  0.6666667  0.3333333  0.7500000  )

     number of k points=    76  Gaussian smearing, width (Ry)=  0.0010
                       cart. coord. in units 2pi/alat
        k(    1) = (   0.0000000   0.0000000   0.0000000), wk =   0.0011574
        k(    2) = (   0.0000000   0.0000000   0.1048218), wk =   0.0023148
        k(    3) = (   0.0000000   0.0000000   0.2096436), wk =   0.0023148
        k(    4) = (   0.0000000   0.0000000  -0.3144654), wk =   0.0011574
        k(    5) = (   0.0000000   0.0962250   0.0000000), wk =   0.0069444
        k(    6) = (   0.0000000   0.0962250   0.1048218), wk =   0.0138889
        k(    7) = (   0.0000000   0.0962250   0.2096436), wk =   0.0138889
        k(    8) = (   0.0000000   0.0962250  -0.3144654), wk =   0.0069444
        k(    9) = (   0.0000000   0.1924501   0.0000000), wk =   0.0069444
        k(   10) = (   0.0000000   0.1924501   0.1048218), wk =   0.0138889
        k(   11) = (   0.0000000   0.1924501   0.2096436), wk =   0.0138889
        k(   12) = (   0.0000000   0.1924501  -0.3144654), wk =   0.0069444
        k(   13) = (   0.0000000   0.2886751   0.0000000), wk =   0.0069444
        k(   14) = (   0.0000000   0.2886751   0.1048218), wk =   0.0138889
        k(   15) = (   0.0000000   0.2886751   0.2096436), wk =   0.0138889
        k(   16) = (   0.0000000   0.2886751  -0.3144654), wk =   0.0069444
        k(   17) = (   0.0000000   0.3849002   0.0000000), wk =   0.0069444
        k(   18) = (   0.0000000   0.3849002   0.1048218), wk =   0.0138889
        k(   19) = (   0.0000000   0.3849002   0.2096436), wk =   0.0138889
        k(   20) = (   0.0000000   0.3849002  -0.3144654), wk =   0.0069444
        k(   21) = (   0.0000000   0.4811252   0.0000000), wk =   0.0069444
        k(   22) = (   0.0000000   0.4811252   0.1048218), wk =   0.0138889
        k(   23) = (   0.0000000   0.4811252   0.2096436), wk =   0.0138889
        k(   24) = (   0.0000000   0.4811252  -0.3144654), wk =   0.0069444
        k(   25) = (   0.0000000  -0.5773503   0.0000000), wk =   0.0034722
        k(   26) = (   0.0000000  -0.5773503   0.1048218), wk =   0.0069444
        k(   27) = (   0.0000000  -0.5773503   0.2096436), wk =   0.0069444
        k(   28) = (   0.0000000  -0.5773503  -0.3144654), wk =   0.0034722
        k(   29) = (   0.0833333   0.1443376   0.0000000), wk =   0.0069444
        k(   30) = (   0.0833333   0.1443376   0.1048218), wk =   0.0138889
        k(   31) = (   0.0833333   0.1443376   0.2096436), wk =   0.0138889
        k(   32) = (   0.0833333   0.1443376  -0.3144654), wk =   0.0069444
        k(   33) = (   0.0833333   0.2405626   0.0000000), wk =   0.0138889
        k(   34) = (   0.0833333   0.2405626   0.1048218), wk =   0.0277778
        k(   35) = (   0.0833333   0.2405626   0.2096436), wk =   0.0277778
        k(   36) = (   0.0833333   0.2405626  -0.3144654), wk =   0.0138889
        k(   37) = (   0.0833333   0.3367877   0.0000000), wk =   0.0138889
        k(   38) = (   0.0833333   0.3367877   0.1048218), wk =   0.0277778
        k(   39) = (   0.0833333   0.3367877   0.2096436), wk =   0.0277778
        k(   40) = (   0.0833333   0.3367877  -0.3144654), wk =   0.0138889
        k(   41) = (   0.0833333   0.4330127   0.0000000), wk =   0.0138889
        k(   42) = (   0.0833333   0.4330127   0.1048218), wk =   0.0277778
        k(   43) = (   0.0833333   0.4330127   0.2096436), wk =   0.0277778
        k(   44) = (   0.0833333   0.4330127  -0.3144654), wk =   0.0138889
        k(   45) = (   0.0833333   0.5292377   0.0000000), wk =   0.0138889
        k(   46) = (   0.0833333   0.5292377   0.1048218), wk =   0.0277778
        k(   47) = (   0.0833333   0.5292377   0.2096436), wk =   0.0277778
        k(   48) = (   0.0833333   0.5292377  -0.3144654), wk =   0.0138889
        k(   49) = (   0.1666667   0.2886751   0.0000000), wk =   0.0069444
        k(   50) = (   0.1666667   0.2886751   0.1048218), wk =   0.0138889
        k(   51) = (   0.1666667   0.2886751   0.2096436), wk =   0.0138889
        k(   52) = (   0.1666667   0.2886751  -0.3144654), wk =   0.0069444
        k(   53) = (   0.1666667   0.3849002   0.0000000), wk =   0.0138889
        k(   54) = (   0.1666667   0.3849002   0.1048218), wk =   0.0277778
        k(   55) = (   0.1666667   0.3849002   0.2096436), wk =   0.0277778
        k(   56) = (   0.1666667   0.3849002  -0.3144654), wk =   0.0138889
        k(   57) = (   0.1666667   0.4811252   0.0000000), wk =   0.0138889
        k(   58) = (   0.1666667   0.4811252   0.1048218), wk =   0.0277778
        k(   59) = (   0.1666667   0.4811252   0.2096436), wk =   0.0277778
        k(   60) = (   0.1666667   0.4811252  -0.3144654), wk =   0.0138889
        k(   61) = (   0.1666667   0.5773503   0.0000000), wk =   0.0069444
        k(   62) = (   0.1666667   0.5773503   0.1048218), wk =   0.0138889
        k(   63) = (   0.1666667   0.5773503   0.2096436), wk =   0.0138889
        k(   64) = (   0.1666667   0.5773503  -0.3144654), wk =   0.0069444
        k(   65) = (   0.2500000   0.4330127   0.0000000), wk =   0.0069444
        k(   66) = (   0.2500000   0.4330127   0.1048218), wk =   0.0138889
        k(   67) = (   0.2500000   0.4330127   0.2096436), wk =   0.0138889
        k(   68) = (   0.2500000   0.4330127  -0.3144654), wk =   0.0069444
        k(   69) = (   0.2500000   0.5292377   0.0000000), wk =   0.0138889
        k(   70) = (   0.2500000   0.5292377   0.1048218), wk =   0.0277778
        k(   71) = (   0.2500000   0.5292377   0.2096436), wk =   0.0277778
        k(   72) = (   0.2500000   0.5292377  -0.3144654), wk =   0.0138889
        k(   73) = (   0.3333333   0.5773503   0.0000000), wk =   0.0023148
        k(   74) = (   0.3333333   0.5773503   0.1048218), wk =   0.0046296
        k(   75) = (   0.3333333   0.5773503   0.2096436), wk =   0.0046296
        k(   76) = (   0.3333333   0.5773503  -0.3144654), wk =   0.0023148

                       cryst. coord.
        k(    1) = (   0.0000000   0.0000000   0.0000000), wk =   0.0011574
        k(    2) = (   0.0000000   0.0000000   0.1666667), wk =   0.0023148
        k(    3) = (   0.0000000   0.0000000   0.3333333), wk =   0.0023148
        k(    4) = (   0.0000000   0.0000000  -0.5000000), wk =   0.0011574
        k(    5) = (   0.0000000   0.0833333   0.0000000), wk =   0.0069444
        k(    6) = (   0.0000000   0.0833333   0.1666667), wk =   0.0138889
        k(    7) = (   0.0000000   0.0833333   0.3333333), wk =   0.0138889
        k(    8) = (   0.0000000   0.0833333  -0.5000000), wk =   0.0069444
        k(    9) = (   0.0000000   0.1666667   0.0000000), wk =   0.0069444
        k(   10) = (   0.0000000   0.1666667   0.1666667), wk =   0.0138889
        k(   11) = (   0.0000000   0.1666667   0.3333333), wk =   0.0138889
        k(   12) = (   0.0000000   0.1666667  -0.5000000), wk =   0.0069444
        k(   13) = (   0.0000000   0.2500000   0.0000000), wk =   0.0069444
        k(   14) = (   0.0000000   0.2500000   0.1666667), wk =   0.0138889
        k(   15) = (   0.0000000   0.2500000   0.3333333), wk =   0.0138889
        k(   16) = (   0.0000000   0.2500000  -0.5000000), wk =   0.0069444
        k(   17) = (   0.0000000   0.3333333   0.0000000), wk =   0.0069444
        k(   18) = (   0.0000000   0.3333333   0.1666667), wk =   0.0138889
        k(   19) = (   0.0000000   0.3333333   0.3333333), wk =   0.0138889
        k(   20) = (   0.0000000   0.3333333  -0.5000000), wk =   0.0069444
        k(   21) = (   0.0000000   0.4166667   0.0000000), wk =   0.0069444
        k(   22) = (   0.0000000   0.4166667   0.1666667), wk =   0.0138889
        k(   23) = (   0.0000000   0.4166667   0.3333333), wk =   0.0138889
        k(   24) = (   0.0000000   0.4166667  -0.5000000), wk =   0.0069444
        k(   25) = (   0.0000000  -0.5000000   0.0000000), wk =   0.0034722
        k(   26) = (   0.0000000  -0.5000000   0.1666667), wk =   0.0069444
        k(   27) = (   0.0000000  -0.5000000   0.3333333), wk =   0.0069444
        k(   28) = (   0.0000000  -0.5000000  -0.5000000), wk =   0.0034722
        k(   29) = (   0.0833333   0.0833333   0.0000000), wk =   0.0069444
        k(   30) = (   0.0833333   0.0833333   0.1666667), wk =   0.0138889
        k(   31) = (   0.0833333   0.0833333   0.3333333), wk =   0.0138889
        k(   32) = (   0.0833333   0.0833333  -0.5000000), wk =   0.0069444
        k(   33) = (   0.0833333   0.1666667   0.0000000), wk =   0.0138889
        k(   34) = (   0.0833333   0.1666667   0.1666667), wk =   0.0277778
        k(   35) = (   0.0833333   0.1666667   0.3333333), wk =   0.0277778
        k(   36) = (   0.0833333   0.1666667  -0.5000000), wk =   0.0138889
        k(   37) = (   0.0833333   0.2500000   0.0000000), wk =   0.0138889
        k(   38) = (   0.0833333   0.2500000   0.1666667), wk =   0.0277778
        k(   39) = (   0.0833333   0.2500000   0.3333333), wk =   0.0277778
        k(   40) = (   0.0833333   0.2500000  -0.5000000), wk =   0.0138889
        k(   41) = (   0.0833333   0.3333333   0.0000000), wk =   0.0138889
        k(   42) = (   0.0833333   0.3333333   0.1666667), wk =   0.0277778
        k(   43) = (   0.0833333   0.3333333   0.3333333), wk =   0.0277778
        k(   44) = (   0.0833333   0.3333333  -0.5000000), wk =   0.0138889
        k(   45) = (   0.0833333   0.4166667   0.0000000), wk =   0.0138889
        k(   46) = (   0.0833333   0.4166667   0.1666667), wk =   0.0277778
        k(   47) = (   0.0833333   0.4166667   0.3333333), wk =   0.0277778
        k(   48) = (   0.0833333   0.4166667  -0.5000000), wk =   0.0138889
        k(   49) = (   0.1666667   0.1666667   0.0000000), wk =   0.0069444
        k(   50) = (   0.1666667   0.1666667   0.1666667), wk =   0.0138889
        k(   51) = (   0.1666667   0.1666667   0.3333333), wk =   0.0138889
        k(   52) = (   0.1666667   0.1666667  -0.5000000), wk =   0.0069444
        k(   53) = (   0.1666667   0.2500000   0.0000000), wk =   0.0138889
        k(   54) = (   0.1666667   0.2500000   0.1666667), wk =   0.0277778
        k(   55) = (   0.1666667   0.2500000   0.3333333), wk =   0.0277778
        k(   56) = (   0.1666667   0.2500000  -0.5000000), wk =   0.0138889
        k(   57) = (   0.1666667   0.3333333   0.0000000), wk =   0.0138889
        k(   58) = (   0.1666667   0.3333333   0.1666667), wk =   0.0277778
        k(   59) = (   0.1666667   0.3333333   0.3333333), wk =   0.0277778
        k(   60) = (   0.1666667   0.3333333  -0.5000000), wk =   0.0138889
        k(   61) = (   0.1666667   0.4166667   0.0000000), wk =   0.0069444
        k(   62) = (   0.1666667   0.4166667   0.1666667), wk =   0.0138889
        k(   63) = (   0.1666667   0.4166667   0.3333333), wk =   0.0138889
        k(   64) = (   0.1666667   0.4166667  -0.5000000), wk =   0.0069444
        k(   65) = (   0.2500000   0.2500000   0.0000000), wk =   0.0069444
        k(   66) = (   0.2500000   0.2500000   0.1666667), wk =   0.0138889
        k(   67) = (   0.2500000   0.2500000   0.3333333), wk =   0.0138889
        k(   68) = (   0.2500000   0.2500000  -0.5000000), wk =   0.0069444
        k(   69) = (   0.2500000   0.3333333   0.0000000), wk =   0.0138889
        k(   70) = (   0.2500000   0.3333333   0.1666667), wk =   0.0277778
        k(   71) = (   0.2500000   0.3333333   0.3333333), wk =   0.0277778
        k(   72) = (   0.2500000   0.3333333  -0.5000000), wk =   0.0138889
        k(   73) = (   0.3333333   0.3333333   0.0000000), wk =   0.0023148
        k(   74) = (   0.3333333   0.3333333   0.1666667), wk =   0.0046296
        k(   75) = (   0.3333333   0.3333333   0.3333333), wk =   0.0046296
        k(   76) = (   0.3333333   0.3333333  -0.5000000), wk =   0.0023148

     Dense  grid:    23331 G-vectors     FFT dimensions: (  32,  32,  54)

     Smooth grid:    22599 G-vectors     FFT dimensions: (  32,  32,  54)

     Dynamical RAM for                 wfc:       0.06 MB

     Dynamical RAM for     wfc (w. buffer):       4.98 MB

     Dynamical RAM for           str. fact:       0.03 MB

     Dynamical RAM for           local pot:       0.00 MB

     Dynamical RAM for          nlocal pot:       0.11 MB

     Dynamical RAM for                qrad:       1.70 MB

     Dynamical RAM for          rho,v,vnew:       0.34 MB

     Dynamical RAM for               rhoin:       0.11 MB

     Dynamical RAM for            rho*nmix:       0.81 MB

     Dynamical RAM for           G-vectors:       0.11 MB

     Dynamical RAM for          h,s,v(r/c):       0.08 MB

     Dynamical RAM for          <psi|beta>:       0.01 MB

     Dynamical RAM for                 psi:       0.13 MB

     Dynamical RAM for                hpsi:       0.13 MB

     Dynamical RAM for                spsi:       0.13 MB

     Dynamical RAM for      wfcinit/wfcrot:       0.14 MB

     Dynamical RAM for           addusdens:       2.43 MB

     Estimated static dynamical RAM per process >       7.62 MB

     Estimated max dynamical RAM per process >      10.86 MB

     Estimated total dynamical RAM >     292.80 MB

     Check: negative core charge=   -0.000042
     Generating pointlists ...
     new r_m :   0.4053 (alat units)  1.9147 (a.u.) for type    1

     The initial density is read from file :
     ./out2/Co.save/charge-density


     starting charge      34.0428, renormalised to      34.0000

     negative rho (up, down):  2.281E-01 1.934E-01
     Starting wfcs from file
     Checking if some PAW data can be deallocated... 

     total cpu time spent up to now is        0.5 secs

     Self-consistent Calculation

     iteration #  1     ecut=   110.00 Ry     beta= 0.70
     Davidson diagonalization with overlap

---- Real-time Memory Report at c_bands before calling an iterative solver
            58 MiB given to the printing process from OS
             0 MiB allocation reported by mallinfo(arena+hblkhd)
        181386 MiB available memory on the node where the printing process lives
------------------
     c_bands:  1 eigenvalues not converged
     c_bands:  1 eigenvalues not converged
     ethr =  1.00E-05,  avg # of iterations = 12.5

     negative rho (up, down):  6.365E-03 4.144E-03

     total cpu time spent up to now is        3.8 secs

     total energy              =    -753.24546446 Ry
     estimated scf accuracy    <       0.07842066 Ry

     total magnetization       =     3.31 Bohr mag/cell
     absolute magnetization    =     3.61 Bohr mag/cell

     iteration #  2     ecut=   110.00 Ry     beta= 0.70
     Davidson diagonalization with overlap

---- Real-time Memory Report at c_bands before calling an iterative solver
            83 MiB given to the printing process from OS
             0 MiB allocation reported by mallinfo(arena+hblkhd)
        181061 MiB available memory on the node where the printing process lives
------------------
     ethr =  2.31E-04,  avg # of iterations =  4.3

     negative rho (up, down):  2.611E-03 1.641E-03

     total cpu time spent up to now is        4.9 secs

     total energy              =    -753.28833246 Ry
     estimated scf accuracy    <       0.13503809 Ry

     total magnetization       =     3.16 Bohr mag/cell
     absolute magnetization    =     3.41 Bohr mag/cell

     iteration #  3     ecut=   110.00 Ry     beta= 0.70
     Davidson diagonalization with overlap

---- Real-time Memory Report at c_bands before calling an iterative solver
            85 MiB given to the printing process from OS
             0 MiB allocation reported by mallinfo(arena+hblkhd)
        181043 MiB available memory on the node where the printing process lives
------------------
     ethr =  2.31E-04,  avg # of iterations =  3.2

     total cpu time spent up to now is        5.8 secs

     total energy              =    -753.44335712 Ry
     estimated scf accuracy    <       0.00486552 Ry

     total magnetization       =     3.28 Bohr mag/cell
     absolute magnetization    =     3.54 Bohr mag/cell

     iteration #  4     ecut=   110.00 Ry     beta= 0.70
     Davidson diagonalization with overlap

---- Real-time Memory Report at c_bands before calling an iterative solver
            85 MiB given to the printing process from OS
             0 MiB allocation reported by mallinfo(arena+hblkhd)
        181032 MiB available memory on the node where the printing process lives
------------------
     ethr =  1.43E-05,  avg # of iterations =  6.6

     total cpu time spent up to now is        7.4 secs

     total energy              =    -753.44788635 Ry
     estimated scf accuracy    <       0.04039633 Ry

     total magnetization       =     3.29 Bohr mag/cell
     absolute magnetization    =     3.60 Bohr mag/cell

     iteration #  5     ecut=   110.00 Ry     beta= 0.70
     Davidson diagonalization with overlap

---- Real-time Memory Report at c_bands before calling an iterative solver
            85 MiB given to the printing process from OS
             0 MiB allocation reported by mallinfo(arena+hblkhd)
        181026 MiB available memory on the node where the printing process lives
------------------
     ethr =  1.43E-05,  avg # of iterations =  5.1

     total cpu time spent up to now is        8.8 secs

     total energy              =    -753.45484721 Ry
     estimated scf accuracy    <       0.00007659 Ry

     total magnetization       =     3.25 Bohr mag/cell
     absolute magnetization    =     3.56 Bohr mag/cell

     iteration #  6     ecut=   110.00 Ry     beta= 0.70
     Davidson diagonalization with overlap

---- Real-time Memory Report at c_bands before calling an iterative solver
            85 MiB given to the printing process from OS
             0 MiB allocation reported by mallinfo(arena+hblkhd)
        181020 MiB available memory on the node where the printing process lives
------------------
     ethr =  2.25E-07,  avg # of iterations =  5.8

     total cpu time spent up to now is       10.2 secs

     total energy              =    -753.45493305 Ry
     estimated scf accuracy    <       0.00004889 Ry

     total magnetization       =     3.26 Bohr mag/cell
     absolute magnetization    =     3.58 Bohr mag/cell

     iteration #  7     ecut=   110.00 Ry     beta= 0.70
     Davidson diagonalization with overlap

---- Real-time Memory Report at c_bands before calling an iterative solver
            86 MiB given to the printing process from OS
             0 MiB allocation reported by mallinfo(arena+hblkhd)
        181013 MiB available memory on the node where the printing process lives
------------------
     ethr =  1.44E-07,  avg # of iterations =  1.6

     total cpu time spent up to now is       11.0 secs

     total energy              =    -753.45493720 Ry
     estimated scf accuracy    <       0.00002794 Ry

     total magnetization       =     3.27 Bohr mag/cell
     absolute magnetization    =     3.59 Bohr mag/cell

     iteration #  8     ecut=   110.00 Ry     beta= 0.70
     Davidson diagonalization with overlap

---- Real-time Memory Report at c_bands before calling an iterative solver
            86 MiB given to the printing process from OS
             0 MiB allocation reported by mallinfo(arena+hblkhd)
        181009 MiB available memory on the node where the printing process lives
------------------
     ethr =  8.22E-08,  avg # of iterations =  4.7

     total cpu time spent up to now is       12.4 secs

     total energy              =    -753.45496023 Ry
     estimated scf accuracy    <       0.00006743 Ry

     total magnetization       =     3.29 Bohr mag/cell
     absolute magnetization    =     3.61 Bohr mag/cell

     iteration #  9     ecut=   110.00 Ry     beta= 0.70
     Davidson diagonalization with overlap

---- Real-time Memory Report at c_bands before calling an iterative solver
            87 MiB given to the printing process from OS
             0 MiB allocation reported by mallinfo(arena+hblkhd)
        181005 MiB available memory on the node where the printing process lives
------------------
     ethr =  8.22E-08,  avg # of iterations =  1.6

     total cpu time spent up to now is       13.2 secs

     total energy              =    -753.45495335 Ry
     estimated scf accuracy    <       0.00003302 Ry

     total magnetization       =     3.30 Bohr mag/cell
     absolute magnetization    =     3.63 Bohr mag/cell

     iteration # 10     ecut=   110.00 Ry     beta= 0.70
     Davidson diagonalization with overlap

---- Real-time Memory Report at c_bands before calling an iterative solver
            87 MiB given to the printing process from OS
             0 MiB allocation reported by mallinfo(arena+hblkhd)
        181002 MiB available memory on the node where the printing process lives
------------------
     ethr =  8.22E-08,  avg # of iterations =  3.0
 
     Magnetic moment per site  (integrated on atomic sphere of radius R)
     atom   1 (R=0.405)  charge= 15.5479  magn=  1.7252
     atom   2 (R=0.405)  charge= 15.5479  magn=  1.7252

     total cpu time spent up to now is       14.1 secs

     End of self-consistent calculation

 ------ SPIN UP ------------


          k = 0.0000 0.0000 0.0000 (  2815 PWs)   bands (ev):

   -77.2512 -77.1882 -40.6556 -40.3700 -40.3700 -40.3161 -40.3161 -40.3031
     9.8286  13.6562  16.2313  16.2313  16.2985  16.5695  16.5695  16.8577
    16.8577  18.0471  18.0471  18.8257  25.4968

     occupation numbers 
     1.0000   1.0000   1.0000   1.0000   1.0000   1.0000   1.0000   1.0000
     1.0000   1.0000   1.0000   1.0000   1.0000   1.0000   1.0000   1.0000
     1.0000   1.0000   1.0000   0.0129   0.0000

          k = 0.0000 0.0000 0.1048 (  2809 PWs)   bands (ev):

   -77.2470 -77.1925 -40.6323 -40.3664 -40.3664 -40.3270 -40.3197 -40.3197
    10.1146  13.5987  16.1515  16.1515  16.2210  16.4857  16.4857  17.0439
    17.0439  17.8237  18.0340  18.0340  27.0675

     occupation numbers 
     1.0000   1.0000   1.0000   1.0000   1.0000   1.0000   1.0000   1.0000
     1.0000   1.0000   1.0000   1.0000   1.0000   1.0000   1.0000   1.0000
     1.0000   1.0000   1.0000   1.0000   0.0000

          k = 0.0000 0.0000 0.2096 (  2797 PWs)   bands (ev):

   -77.2355 -77.2040 -40.5684 -40.3922 -40.3565 -40.3565 -40.3296 -40.3296
    10.9339  13.1893  16.0406  16.0858  16.0858  16.3029  16.3029  16.4293
    17.3980  17.3980  17.9472  17.9472  30.3705

     occupation numbers 
     1.0000   1.0000   1.0000   1.0000   1.0000   1.0000   1.0000   1.0000
     1.0000   1.0000   1.0000   1.0000   1.0000   1.0000   1.0000   1.0000
     1.0000   1.0000   1.0000   1.0000   0.0000

          k = 0.0000 0.0000-0.3145 (  2846 PWs)   bands (ev):

   -77.2198 -77.2198 -40.4807 -40.4807 -40.3431 -40.3431 -40.3431 -40.3431
    12.1219  12.1219  15.9490  15.9490  16.1421  16.1421  16.1421  16.1421
    17.7295  17.7295  17.7295  17.7295  34.2935

     occupation numbers 
     1.0000   1.0000   1.0000   1.0000   1.0000   1.0000   1.0000   1.0000
     1.0000   1.0000   1.0000   1.0000   1.0000   1.0000   1.0000   1.0000
     1.0000   1.0000   1.0000   1.0000   0.0000

          k = 0.0000 0.0962 0.0000 (  2815 PWs)   bands (ev):

   -77.2480 -77.1870 -40.6482 -40.3850 -40.3751 -40.3318 -40.3185 -40.3065
    10.0688  13.7966  16.0090  16.3446  16.4734  16.5327  16.6685  16.7149
    16.7851  17.2781  18.0799  19.9066  25.5358

     occupation numbers 
     1.0000   1.0000   1.0000   1.0000   1.0000   1.0000   1.0000   1.0000
     1.0000   1.0000   1.0000   1.0000   1.0000   1.0000   1.0000   1.0000
     1.0000   1.0000   1.0000   0.0000   0.0000

          k = 0.0000 0.0962 0.1048 (  2808 PWs)   bands (ev):

   -77.2439 -77.1911 -40.6263 -40.3808 -40.3713 -40.3460 -40.3222 -40.3191
    10.3504  13.7541  15.9981  16.2447  16.2811  16.3376  16.5780  16.9262
    17.0024  17.1408  18.0588  19.0786  27.1741

     occupation numbers 
     1.0000   1.0000   1.0000   1.0000   1.0000   1.0000   1.0000   1.0000
     1.0000   1.0000   1.0000   1.0000   1.0000   1.0000   1.0000   1.0000
     1.0000   1.0000   1.0000   0.0000   0.0000

          k = 0.0000 0.0962 0.2096 (  2819 PWs)   bands (ev):

   -77.2328 -77.2023 -40.5663 -40.4020 -40.3690 -40.3610 -40.3360 -40.3326
    11.1567  13.3749  15.9063  15.9817  16.0420  16.1729  16.3947  16.5242
    17.3739  17.4258  17.9544  18.2595  30.5198

     occupation numbers 
     1.0000   1.0000   1.0000   1.0000   1.0000   1.0000   1.0000   1.0000
     1.0000   1.0000   1.0000   1.0000   1.0000   1.0000   1.0000   1.0000
     1.0000   1.0000   1.0000   1.0000   0.0000

          k = 0.0000 0.0962-0.3145 (  2816 PWs)   bands (ev):

   -77.2175 -77.2175 -40.4841 -40.4841 -40.3530 -40.3530 -40.3468 -40.3468
    12.3257  12.3257  15.7663  15.7663  16.1898  16.1898  16.2317  16.2317
    17.7191  17.7191  17.8263  17.8263  34.4551

     occupation numbers 
     1.0000   1.0000   1.0000   1.0000   1.0000   1.0000   1.0000   1.0000
     1.0000   1.0000   1.0000   1.0000   1.0000   1.0000   1.0000   1.0000
     1.0000   1.0000   1.0000   1.0000   0.0000

          k = 0.0000 0.1925 0.0000 (  2823 PWs)   bands (ev):

   -77.2392 -77.1837 -40.6271 -40.4264 -40.3888 -40.3744 -40.3252 -40.3167
    10.7640  14.1434  15.7159  16.0405  16.3685  16.6059  16.6644  16.7865
    16.8700  16.9463  18.1510  21.5054  25.6721

     occupation numbers 
     1.0000   1.0000   1.0000   1.0000   1.0000   1.0000   1.0000   1.0000
     1.0000   1.0000   1.0000   1.0000   1.0000   1.0000   1.0000   1.0000
     1.0000   1.0000   1.0000   0.0000   0.0000

          k = 0.0000 0.1925 0.1048 (  2818 PWs)   bands (ev):

   -77.2355 -77.1874 -40.6099 -40.4200 -40.3896 -40.3845 -40.3295 -40.3257
    11.0290  14.1467  15.7407  15.7735  16.2507  16.4372  16.6553  16.8175
    16.9969  17.1283  18.1118  20.3329  27.5196

     occupation numbers 
     1.0000   1.0000   1.0000   1.0000   1.0000   1.0000   1.0000   1.0000
     1.0000   1.0000   1.0000   1.0000   1.0000   1.0000   1.0000   1.0000
     1.0000   1.0000   1.0000   0.0000   0.0000

          k = 0.0000 0.1925 0.2096 (  2823 PWs)   bands (ev):

   -77.2253 -77.1976 -40.5628 -40.4357 -40.3999 -40.3729 -40.3475 -40.3411
    11.7845  13.8566  15.3958  15.8003  15.9710  16.3844  16.4612  16.6503
    17.3507  17.5325  17.9696  18.9273  30.9639

     occupation numbers 
     1.0000   1.0000   1.0000   1.0000   1.0000   1.0000   1.0000   1.0000
     1.0000   1.0000   1.0000   1.0000   1.0000   1.0000   1.0000   1.0000
     1.0000   1.0000   1.0000   0.0000   0.0000

          k = 0.0000 0.1925-0.3145 (  2816 PWs)   bands (ev):

   -77.2115 -77.2115 -40.4987 -40.4987 -40.3745 -40.3745 -40.3570 -40.3570
    12.8737  12.8737  15.5125  15.5125  16.1488  16.1488  16.4710  16.4710
    17.7044  17.7044  18.0857  18.0857  34.8743

     occupation numbers 
     1.0000   1.0000   1.0000   1.0000   1.0000   1.0000   1.0000   1.0000
     1.0000   1.0000   1.0000   1.0000   1.0000   1.0000   1.0000   1.0000
     1.0000   1.0000   1.0000   1.0000   0.0000

          k = 0.0000 0.2887 0.0000 (  2828 PWs)   bands (ev):

   -77.2265 -77.1797 -40.5953 -40.4833 -40.4316 -40.4069 -40.3349 -40.3336
    11.8174  14.4250  15.3126  15.5265  16.2901  16.3906  16.6778  17.1281
    17.2073  17.3458  18.2201  23.3086  25.9260

     occupation numbers 
     1.0000   1.0000   1.0000   1.0000   1.0000   1.0000   1.0000   1.0000
     1.0000   1.0000   1.0000   1.0000   1.0000   1.0000   1.0000   1.0000
     1.0000   1.0000   1.0000   0.0000   0.0000

          k = 0.0000 0.2887 0.1048 (  2821 PWs)   bands (ev):

   -77.2234 -77.1828 -40.5890 -40.4709 -40.4457 -40.4021 -40.3398 -40.3385
    12.0388  14.4828  15.1611  15.5780  16.1287  16.4278  16.6895  17.1802
    17.2938  17.3218  18.1630  21.6323  28.1261

     occupation numbers 
     1.0000   1.0000   1.0000   1.0000   1.0000   1.0000   1.0000   1.0000
     1.0000   1.0000   1.0000   1.0000   1.0000   1.0000   1.0000   1.0000
     1.0000   1.0000   1.0000   0.0000   0.0000

          k = 0.0000 0.2887 0.2096 (  2834 PWs)   bands (ev):

   -77.2148 -77.1914 -40.5680 -40.4887 -40.4309 -40.3889 -40.3571 -40.3530
    12.6546  14.2873  15.0472  15.6364  15.9697  16.5216  16.5511  17.0146
    17.4652  17.7076  17.9948  19.7203  31.4719

     occupation numbers 
     1.0000   1.0000   1.0000   1.0000   1.0000   1.0000   1.0000   1.0000
     1.0000   1.0000   1.0000   1.0000   1.0000   1.0000   1.0000   1.0000
     1.0000   1.0000   1.0000   0.0000   0.0000

          k = 0.0000 0.2887-0.3145 (  2824 PWs)   bands (ev):

   -77.2031 -77.2031 -40.5319 -40.5319 -40.3905 -40.3905 -40.3710 -40.3710
    13.5045  13.5045  15.3588  15.3588  16.2015  16.2015  16.7615  16.7615
    17.7417  17.7417  18.4443  18.4443  33.2191

     occupation numbers 
     1.0000   1.0000   1.0000   1.0000   1.0000   1.0000   1.0000   1.0000
     1.0000   1.0000   1.0000   1.0000   1.0000   1.0000   1.0000   1.0000
     1.0000   1.0000   1.0000   1.0000   0.0000

          k = 0.0000 0.3849 0.0000 (  2826 PWs)   bands (ev):

   -77.2129 -77.1767 -40.5580 -40.5409 -40.4877 -40.4245 -40.3561 -40.3451
    12.9755  14.3658  14.7766  15.6156  16.1970  16.4152  16.5153  17.6214
    17.7805  17.8717  18.2693  25.2694  25.8500

     occupation numbers 
     1.0000   1.0000   1.0000   1.0000   1.0000   1.0000   1.0000   1.0000
     1.0000   1.0000   1.0000   1.0000   1.0000   1.0000   1.0000   1.0000
     1.0000   1.0000   1.0000   0.0000   0.0000

          k = 0.0000 0.3849 0.1048 (  2820 PWs)   bands (ev):

   -77.2105 -77.1791 -40.5829 -40.5128 -40.4907 -40.4192 -40.3562 -40.3504
    13.0823  14.4155  14.8010  15.5007  16.2927  16.3046  16.8528  17.6509
    17.6813  17.8076  18.2049  22.8712  27.8244

     occupation numbers 
     1.0000   1.0000   1.0000   1.0000   1.0000   1.0000   1.0000   1.0000
     1.0000   1.0000   1.0000   1.0000   1.0000   1.0000   1.0000   1.0000
     1.0000   1.0000   1.0000   0.0000   0.0000

          k = 0.0000 0.3849 0.2096 (  2836 PWs)   bands (ev):

   -77.2039 -77.1858 -40.5916 -40.5434 -40.4416 -40.4047 -40.3661 -40.3650
    13.3788  14.2548  14.9294  15.4652  16.3655  16.5628  17.1235  17.3666
    17.7618  17.9377  18.0635  20.6098  28.8551

     occupation numbers 
     1.0000   1.0000   1.0000   1.0000   1.0000   1.0000   1.0000   1.0000
     1.0000   1.0000   1.0000   1.0000   1.0000   1.0000   1.0000   1.0000
     1.0000   1.0000   1.0000   0.0000   0.0000

          k = 0.0000 0.3849-0.3145 (  2830 PWs)   bands (ev):

   -77.1948 -77.1948 -40.5761 -40.5761 -40.3953 -40.3953 -40.3849 -40.3849
    13.8065  13.8065  15.2478  15.2478  16.7801  16.7801  16.9534  16.9534
    17.9055  17.9055  18.9271  18.9271  30.0103

     occupation numbers 
     1.0000   1.0000   1.0000   1.0000   1.0000   1.0000   1.0000   1.0000
     1.0000   1.0000   1.0000   1.0000   1.0000   1.0000   1.0000   1.0000
     1.0000   1.0000   0.0000   0.0000   0.0000

          k = 0.0000 0.4811 0.0000 (  2846 PWs)   bands (ev):

   -77.2016 -77.1758 -40.5833 -40.5281 -40.5233 -40.4372 -40.3799 -40.3527
    13.7565  14.1817  14.4539  15.9624  16.0650  16.4018  16.6136  17.9887
    18.1426  18.2965  18.9539  23.8160  27.2869

     occupation numbers 
     1.0000   1.0000   1.0000   1.0000   1.0000   1.0000   1.0000   1.0000
     1.0000   1.0000   1.0000   1.0000   1.0000   1.0000   1.0000   1.0000
     1.0000   1.0000   0.0000   0.0000   0.0000

          k = 0.0000 0.4811 0.1048 (  2829 PWs)   bands (ev):

   -77.1999 -77.1776 -40.6039 -40.5476 -40.4879 -40.4316 -40.3751 -40.3584
    13.6538  14.1913  14.7689  15.4072  16.1832  16.5917  17.1893  17.9595
    18.0445  18.2510  18.7907  23.0899  26.4691

     occupation numbers 
     1.0000   1.0000   1.0000   1.0000   1.0000   1.0000   1.0000   1.0000
     1.0000   1.0000   1.0000   1.0000   1.0000   1.0000   1.0000   1.0000
     1.0000   1.0000   0.9193   0.0000   0.0000

          k = 0.0000 0.4811 0.2096 (  2830 PWs)   bands (ev):

   -77.1951 -77.1823 -40.6198 -40.5832 -40.4360 -40.4162 -40.3751 -40.3739
    13.6311  14.1285  14.9211  15.2836  16.5192  16.8011  17.5559  18.0652
    18.1661  18.1915  18.4530  21.3917  26.5434

     occupation numbers 
     1.0000   1.0000   1.0000   1.0000   1.0000   1.0000   1.0000   1.0000
     1.0000   1.0000   1.0000   1.0000   1.0000   1.0000   1.0000   1.0000
     1.0000   1.0000   1.0000   0.0000   0.0000

          k = 0.0000 0.4811-0.3145 (  2832 PWs)   bands (ev):

   -77.1887 -77.1887 -40.6119 -40.6119 -40.3951 -40.3951 -40.3951 -40.3951
    13.8263  13.8263  15.1332  15.1332  17.0135  17.0135  17.5128  17.5128
    18.1266  18.1266  19.7195  19.7195  27.3341

     occupation numbers 
     1.0000   1.0000   1.0000   1.0000   1.0000   1.0000   1.0000   1.0000
     1.0000   1.0000   1.0000   1.0000   1.0000   1.0000   1.0000   1.0000
     1.0000   1.0000   0.0000   0.0000   0.0000

          k = 0.0000-0.5774 0.0000 (  2814 PWs)   bands (ev):

   -77.1968 -77.1762 -40.5989 -40.5427 -40.5069 -40.4418 -40.3922 -40.3555
    14.0337  14.0344  14.3465  16.0183  16.2029  16.3610  16.6924  18.1211
    18.2896  18.3051  20.0835  22.0860  28.5892

     occupation numbers 
     1.0000   1.0000   1.0000   1.0000   1.0000   1.0000   1.0000   1.0000
     1.0000   1.0000   1.0000   1.0000   1.0000   1.0000   1.0000   1.0000
     1.0000   1.0000   0.0000   0.0000   0.0000

          k = 0.0000-0.5774 0.1048 (  2824 PWs)   bands (ev):

   -77.1954 -77.1775 -40.6157 -40.5615 -40.4786 -40.4360 -40.3848 -40.3613
    13.7637  14.0912  14.8084  15.3821  16.1430  16.6850  17.3816  18.0434
    18.2052  18.2811  19.8748  21.9161  27.6579

     occupation numbers 
     1.0000   1.0000   1.0000   1.0000   1.0000   1.0000   1.0000   1.0000
     1.0000   1.0000   1.0000   1.0000   1.0000   1.0000   1.0000   1.0000
     1.0000   1.0000   0.0000   0.0000   0.0000

          k = 0.0000-0.5774 0.2096 (  2842 PWs)   bands (ev):

   -77.1916 -77.1813 -40.6317 -40.5977 -40.4312 -40.4203 -40.3797 -40.3772
    13.6541  14.0798  14.9430  15.2023  16.4980  16.9512  17.6012  18.1969
    18.2577  18.2811  19.5388  21.3337  26.5157

     occupation numbers 
     1.0000   1.0000   1.0000   1.0000   1.0000   1.0000   1.0000   1.0000
     1.0000   1.0000   1.0000   1.0000   1.0000   1.0000   1.0000   1.0000
     1.0000   1.0000   0.0000   0.0000   0.0000

          k = 0.0000-0.5774-0.3145 (  2832 PWs)   bands (ev):

   -77.1865 -77.1865 -40.6255 -40.6255 -40.3988 -40.3988 -40.3946 -40.3946
    13.8082  13.8082  15.0869  15.0869  17.0220  17.0220  17.7675  17.7675
    18.2260  18.2260  20.3349  20.3349  26.1048

     occupation numbers 
     1.0000   1.0000   1.0000   1.0000   1.0000   1.0000   1.0000   1.0000
     1.0000   1.0000   1.0000   1.0000   1.0000   1.0000   1.0000   1.0000
     1.0000   1.0000   0.0000   0.0000   0.0000

          k = 0.0833 0.1443 0.0000 (  2812 PWs)   bands (ev):

   -77.2420 -77.1847 -40.6339 -40.4106 -40.3901 -40.3561 -40.3250 -40.3133
    10.5374  14.0456  15.7793  16.2840  16.4251  16.5760  16.5887  16.6426
    16.8905  16.9811  18.1230  21.0567  25.6255

     occupation numbers 
     1.0000   1.0000   1.0000   1.0000   1.0000   1.0000   1.0000   1.0000
     1.0000   1.0000   1.0000   1.0000   1.0000   1.0000   1.0000   1.0000
     1.0000   1.0000   1.0000   0.0000   0.0000

          k = 0.0833 0.1443 0.1048 (  2814 PWs)   bands (ev):

   -77.2382 -77.1885 -40.6150 -40.4048 -40.3889 -40.3691 -40.3291 -40.3226
    10.8087  14.0342  15.8000  15.9467  16.2910  16.4124  16.6227  16.7370
    17.0449  17.0855  18.0926  19.9928  27.4023

     occupation numbers 
     1.0000   1.0000   1.0000   1.0000   1.0000   1.0000   1.0000   1.0000
     1.0000   1.0000   1.0000   1.0000   1.0000   1.0000   1.0000   1.0000
     1.0000   1.0000   1.0000   0.0000   0.0000

          k = 0.0833 0.1443 0.2096 (  2812 PWs)   bands (ev):

   -77.2277 -77.1991 -40.5634 -40.4240 -40.3892 -40.3713 -40.3424 -40.3401
    11.5837  13.7149  15.5238  15.8478  15.9853  16.3294  16.4701  16.5692
    17.3812  17.4705  17.9699  18.7338  30.8198

     occupation numbers 
     1.0000   1.0000   1.0000   1.0000   1.0000   1.0000   1.0000   1.0000
     1.0000   1.0000   1.0000   1.0000   1.0000   1.0000   1.0000   1.0000
     1.0000   1.0000   1.0000   1.0000   0.0000

          k = 0.0833 0.1443-0.3145 (  2816 PWs)   bands (ev):

   -77.2134 -77.2134 -40.4929 -40.4929 -40.3687 -40.3687 -40.3539 -40.3539
    12.7052  12.7052  15.5745  15.5745  16.1468  16.1468  16.4092  16.4092
    17.7103  17.7103  18.0045  18.0045  34.7630

     occupation numbers 
     1.0000   1.0000   1.0000   1.0000   1.0000   1.0000   1.0000   1.0000
     1.0000   1.0000   1.0000   1.0000   1.0000   1.0000   1.0000   1.0000
     1.0000   1.0000   1.0000   1.0000   0.0000

          k = 0.0833 0.2406 0.0000 (  2818 PWs)   bands (ev):

   -77.2312 -77.1811 -40.6074 -40.4559 -40.4253 -40.3873 -40.3363 -40.3269
    11.4197  14.4006  15.4931  15.5818  16.3182  16.3679  16.8210  16.8928
    16.9981  17.3024  18.1779  22.6579  25.8438

     occupation numbers 
     1.0000   1.0000   1.0000   1.0000   1.0000   1.0000   1.0000   1.0000
     1.0000   1.0000   1.0000   1.0000   1.0000   1.0000   1.0000   1.0000
     1.0000   1.0000   1.0000   0.0000   0.0000

          k = 0.0833 0.2406 0.1048 (  2824 PWs)   bands (ev):

   -77.2279 -77.1844 -40.5959 -40.4470 -40.4315 -40.3923 -40.3412 -40.3318
    11.6629  14.4488  15.3637  15.5418  16.1815  16.4320  16.6202  16.9674
    17.2109  17.2965  18.1394  21.1850  27.9033

     occupation numbers 
     1.0000   1.0000   1.0000   1.0000   1.0000   1.0000   1.0000   1.0000
     1.0000   1.0000   1.0000   1.0000   1.0000   1.0000   1.0000   1.0000
     1.0000   1.0000   1.0000   0.0000   0.0000

          k = 0.0833 0.2406 0.2096 (  2821 PWs)   bands (ev):

   -77.2187 -77.1936 -40.5633 -40.4677 -40.4183 -40.3883 -40.3545 -40.3481
    12.3494  14.2291  15.1311  15.6452  15.9259  16.3530  16.5342  16.8841
    17.4709  17.6104  18.0126  19.4449  31.3954

     occupation numbers 
     1.0000   1.0000   1.0000   1.0000   1.0000   1.0000   1.0000   1.0000
     1.0000   1.0000   1.0000   1.0000   1.0000   1.0000   1.0000   1.0000
     1.0000   1.0000   1.0000   0.0000   0.0000

          k = 0.0833 0.2406-0.3145 (  2816 PWs)   bands (ev):

   -77.2062 -77.2062 -40.5166 -40.5166 -40.3883 -40.3883 -40.3654 -40.3654
    13.3238  13.3238  15.4067  15.4067  16.0480  16.0480  16.6856  16.6856
    17.7523  17.7523  18.3156  18.3156  34.8216

     occupation numbers 
     1.0000   1.0000   1.0000   1.0000   1.0000   1.0000   1.0000   1.0000
     1.0000   1.0000   1.0000   1.0000   1.0000   1.0000   1.0000   1.0000
     1.0000   1.0000   1.0000   1.0000   0.0000

          k = 0.0833 0.3368 0.0000 (  2827 PWs)   bands (ev):

   -77.2181 -77.1776 -40.5726 -40.5118 -40.4708 -40.4155 -40.3485 -40.3469
    12.5602  14.5242  14.9951  15.3992  16.1798  16.3420  16.6365  17.2805
    17.4989  17.8612  18.2252  24.5014  26.1418

     occupation numbers 
     1.0000   1.0000   1.0000   1.0000   1.0000   1.0000   1.0000   1.0000
     1.0000   1.0000   1.0000   1.0000   1.0000   1.0000   1.0000   1.0000
     1.0000   1.0000   1.0000   0.0000   0.0000

          k = 0.0833 0.3368 0.1048 (  2827 PWs)   bands (ev):

   -77.2154 -77.1804 -40.5791 -40.4960 -40.4749 -40.4150 -40.3558 -40.3454
    12.7319  14.6057  14.8928  15.4545  16.0955  16.4137  16.6269  17.2887
    17.5997  17.7363  18.2187  22.4597  28.5417

     occupation numbers 
     1.0000   1.0000   1.0000   1.0000   1.0000   1.0000   1.0000   1.0000
     1.0000   1.0000   1.0000   1.0000   1.0000   1.0000   1.0000   1.0000
     1.0000   1.0000   1.0000   0.0000   0.0000

          k = 0.0833 0.3368 0.2096 (  2828 PWs)   bands (ev):

   -77.2080 -77.1878 -40.5768 -40.5203 -40.4387 -40.4055 -40.3704 -40.3548
    13.1959  14.4016  14.9738  15.5632  15.9913  16.4627  16.6347  17.2244
    17.7031  17.8707  18.1688  20.3108  30.4927

     occupation numbers 
     1.0000   1.0000   1.0000   1.0000   1.0000   1.0000   1.0000   1.0000
     1.0000   1.0000   1.0000   1.0000   1.0000   1.0000   1.0000   1.0000
     1.0000   1.0000   1.0000   0.0000   0.0000

          k = 0.0833 0.3368-0.3145 (  2822 PWs)   bands (ev):

   -77.1979 -77.1979 -40.5550 -40.5550 -40.4027 -40.4027 -40.3757 -40.3757
    13.8128  13.8128  15.3397  15.3397  16.2032  16.2032  16.8941  16.8941
    17.9351  17.9351  18.7788  18.7788  31.7080

     occupation numbers 
     1.0000   1.0000   1.0000   1.0000   1.0000   1.0000   1.0000   1.0000
     1.0000   1.0000   1.0000   1.0000   1.0000   1.0000   1.0000   1.0000
     1.0000   1.0000   0.9958   0.9958   0.0000

          k = 0.0833 0.4330 0.0000 (  2832 PWs)   bands (ev):

   -77.2054 -77.1759 -40.5616 -40.5355 -40.5115 -40.4368 -40.3711 -40.3589
    13.5779  14.3579  14.5944  15.6120  16.0531  16.4598  16.5333  17.7622
    17.9295  18.2558  18.6515  25.1952  26.4985

     occupation numbers 
     1.0000   1.0000   1.0000   1.0000   1.0000   1.0000   1.0000   1.0000
     1.0000   1.0000   1.0000   1.0000   1.0000   1.0000   1.0000   1.0000
     1.0000   1.0000   1.0000   0.0000   0.0000

          k = 0.0833 0.4330 0.1048 (  2828 PWs)   bands (ev):

   -77.2034 -77.1779 -40.5880 -40.5327 -40.4907 -40.4325 -40.3723 -40.3592
    13.5791  14.3992  14.7371  15.4073  16.1378  16.5045  16.8034  17.7065
    17.9966  18.0560  18.6597  23.4895  26.9116

     occupation numbers 
     1.0000   1.0000   1.0000   1.0000   1.0000   1.0000   1.0000   1.0000
     1.0000   1.0000   1.0000   1.0000   1.0000   1.0000   1.0000   1.0000
     1.0000   1.0000   1.0000   0.0000   0.0000

          k = 0.0833 0.4330 0.2096 (  2827 PWs)   bands (ev):

   -77.1980 -77.1833 -40.6031 -40.5651 -40.4444 -40.4153 -40.3851 -40.3622
    13.6768  14.2821  14.9192  15.4283  16.2505  16.6806  17.1592  17.4371
    17.8938  18.1832  18.7271  21.3070  27.6073

     occupation numbers 
     1.0000   1.0000   1.0000   1.0000   1.0000   1.0000   1.0000   1.0000
     1.0000   1.0000   1.0000   1.0000   1.0000   1.0000   1.0000   1.0000
     1.0000   1.0000   1.0000   0.0000   0.0000

          k = 0.0833 0.4330-0.3145 (  2824 PWs)   bands (ev):

   -77.1906 -77.1906 -40.5938 -40.5938 -40.4135 -40.4135 -40.3803 -40.3803
    13.9366  13.9366  15.2367  15.2367  16.7000  16.7000  17.0900  17.0900
    18.1339  18.1339  19.5962  19.5962  28.6793

     occupation numbers 
     1.0000   1.0000   1.0000   1.0000   1.0000   1.0000   1.0000   1.0000
     1.0000   1.0000   1.0000   1.0000   1.0000   1.0000   1.0000   1.0000
     1.0000   1.0000   0.0000   0.0000   0.0000

          k = 0.0833 0.5292 0.0000 (  2830 PWs)   bands (ev):

   -77.1968 -77.1761 -40.5906 -40.5352 -40.5071 -40.4484 -40.3920 -40.3650
    14.0485  14.1958  14.3930  15.9646  15.9959  16.3474  16.6879  18.1021
    18.1717  18.2699  19.9064  22.8384  28.3976

     occupation numbers 
     1.0000   1.0000   1.0000   1.0000   1.0000   1.0000   1.0000   1.0000
     1.0000   1.0000   1.0000   1.0000   1.0000   1.0000   1.0000   1.0000
     1.0000   1.0000   0.0000   0.0000   0.0000

          k = 0.0833 0.5292 0.1048 (  2837 PWs)   bands (ev):

   -77.1954 -77.1775 -40.6074 -40.5545 -40.4817 -40.4398 -40.3880 -40.3670
    13.8405  14.2211  14.8295  15.3581  16.0579  16.7146  17.0410  18.0024
    18.1560  18.2129  19.8391  22.5950  27.0532

     occupation numbers 
     1.0000   1.0000   1.0000   1.0000   1.0000   1.0000   1.0000   1.0000
     1.0000   1.0000   1.0000   1.0000   1.0000   1.0000   1.0000   1.0000
     1.0000   1.0000   0.0000   0.0000   0.0000

          k = 0.0833 0.5292 0.2096 (  2829 PWs)   bands (ev):

   -77.1917 -77.1813 -40.6234 -40.5903 -40.4471 -40.4128 -40.3966 -40.3679
    13.7562  14.2059  14.9486  15.3033  16.2389  17.0001  17.4470  17.6646
    18.1041  18.3064  19.8824  21.7657  26.2488

     occupation numbers 
     1.0000   1.0000   1.0000   1.0000   1.0000   1.0000   1.0000   1.0000
     1.0000   1.0000   1.0000   1.0000   1.0000   1.0000   1.0000   1.0000
     1.0000   1.0000   0.0000   0.0000   0.0000

          k = 0.0833 0.5292-0.3145 (  2834 PWs)   bands (ev):

   -77.1865 -77.1865 -40.6175 -40.6175 -40.4202 -40.4202 -40.3812 -40.3812
    13.9209  13.9209  15.1556  15.1556  16.8109  16.8109  17.5206  17.5206
    18.1753  18.1753  20.6379  20.6379  26.5112

     occupation numbers 
     1.0000   1.0000   1.0000   1.0000   1.0000   1.0000   1.0000   1.0000
     1.0000   1.0000   1.0000   1.0000   1.0000   1.0000   1.0000   1.0000
     1.0000   1.0000   0.0000   0.0000   0.0000

          k = 0.1667 0.2887 0.0000 (  2830 PWs)   bands (ev):

   -77.2199 -77.1780 -40.5777 -40.4881 -40.4783 -40.4048 -40.3565 -40.3438
    12.4135  14.6861  15.1087  15.1943  16.1188  16.3318  16.7183  17.0630
    17.4877  17.8773  18.1893  24.2411  26.2054

     occupation numbers 
     1.0000   1.0000   1.0000   1.0000   1.0000   1.0000   1.0000   1.0000
     1.0000   1.0000   1.0000   1.0000   1.0000   1.0000   1.0000   1.0000
     1.0000   1.0000   1.0000   0.0000   0.0000

          k = 0.1667 0.2887 0.1048 (  2825 PWs)   bands (ev):

   -77.2171 -77.1808 -40.5785 -40.4849 -40.4696 -40.4123 -40.3611 -40.3430
    12.6072  14.7887  14.9702  15.2486  16.1066  16.3413  16.5793  17.1203
    17.6169  17.7275  18.2297  22.3207  28.5976

     occupation numbers 
     1.0000   1.0000   1.0000   1.0000   1.0000   1.0000   1.0000   1.0000
     1.0000   1.0000   1.0000   1.0000   1.0000   1.0000   1.0000   1.0000
     1.0000   1.0000   1.0000   0.0000   0.0000

          k = 0.1667 0.2887 0.2096 (  2831 PWs)   bands (ev):

   -77.2094 -77.1885 -40.5700 -40.5105 -40.4314 -40.4139 -40.3723 -40.3517
    13.1372  14.5259  15.0676  15.4088  15.9483  16.1993  16.5593  17.1630
    17.7333  17.8325  18.2462  20.2322  31.9679

     occupation numbers 
     1.0000   1.0000   1.0000   1.0000   1.0000   1.0000   1.0000   1.0000
     1.0000   1.0000   1.0000   1.0000   1.0000   1.0000   1.0000   1.0000
     1.0000   1.0000   1.0000   0.0000   0.0000

          k = 0.1667 0.2887-0.3145 (  2814 PWs)   bands (ev):

   -77.1990 -77.1990 -40.5450 -40.5450 -40.4076 -40.4076 -40.3723 -40.3723
    13.8499  13.8499  15.4080  15.4080  15.8960  15.8960  16.8452  16.8452
    17.9872  17.9872  18.7559  18.7559  33.4085

     occupation numbers 
     1.0000   1.0000   1.0000   1.0000   1.0000   1.0000   1.0000   1.0000
     1.0000   1.0000   1.0000   1.0000   1.0000   1.0000   1.0000   1.0000
     1.0000   1.0000   1.0000   1.0000   0.0000

          k = 0.1667 0.3849 0.0000 (  2833 PWs)   bands (ev):

   -77.2075 -77.1760 -40.5421 -40.5328 -40.5092 -40.4324 -40.3758 -40.3665
    13.5070  14.6833  14.7317  15.1468  15.9676  16.4799  16.5349  17.3620
    17.9357  18.1955  18.6637  26.1015  26.4479

     occupation numbers 
     1.0000   1.0000   1.0000   1.0000   1.0000   1.0000   1.0000   1.0000
     1.0000   1.0000   1.0000   1.0000   1.0000   1.0000   1.0000   1.0000
     1.0000   1.0000   1.0000   0.0000   0.0000

          k = 0.1667 0.3849 0.1048 (  2832 PWs)   bands (ev):

   -77.2054 -77.1781 -40.5709 -40.5276 -40.4810 -40.4388 -40.3819 -40.3586
    13.5936  14.6567  14.7984  15.2362  16.0358  16.4296  16.4963  17.3820
    17.9549  18.0314  18.7696  23.5997  28.3359

     occupation numbers 
     1.0000   1.0000   1.0000   1.0000   1.0000   1.0000   1.0000   1.0000
     1.0000   1.0000   1.0000   1.0000   1.0000   1.0000   1.0000   1.0000
     1.0000   1.0000   0.9998   0.0000   0.0000

          k = 0.1667 0.3849 0.2096 (  2825 PWs)   bands (ev):

   -77.1996 -77.1839 -40.5850 -40.5504 -40.4463 -40.4296 -40.3905 -40.3570
    13.8263  14.4579  15.0581  15.4935  15.9637  16.2522  16.6100  17.3140
    17.8428  18.1951  18.9619  21.3326  29.2777

     occupation numbers 
     1.0000   1.0000   1.0000   1.0000   1.0000   1.0000   1.0000   1.0000
     1.0000   1.0000   1.0000   1.0000   1.0000   1.0000   1.0000   1.0000
     1.0000   1.0000   0.0000   0.0000   0.0000

          k = 0.1667 0.3849-0.3145 (  2816 PWs)   bands (ev):

   -77.1918 -77.1918 -40.5757 -40.5757 -40.4296 -40.4296 -40.3740 -40.3740
    14.1434  14.1434  15.4221  15.4221  16.0276  16.0276  16.8823  16.8823
    18.1962  18.1962  19.6864  19.6864  30.4663

     occupation numbers 
     1.0000   1.0000   1.0000   1.0000   1.0000   1.0000   1.0000   1.0000
     1.0000   1.0000   1.0000   1.0000   1.0000   1.0000   1.0000   1.0000
     1.0000   1.0000   0.0000   0.0000   0.0000

          k = 0.1667 0.4811 0.0000 (  2835 PWs)   bands (ev):

   -77.1969 -77.1761 -40.5689 -40.5227 -40.5075 -40.4594 -40.3916 -40.3887
    14.2127  14.4888  14.4966  15.4407  15.9215  16.3409  16.6824  17.7535
    18.1672  18.1983  19.8181  24.4785  28.1118

     occupation numbers 
     1.0000   1.0000   1.0000   1.0000   1.0000   1.0000   1.0000   1.0000
     1.0000   1.0000   1.0000   1.0000   1.0000   1.0000   1.0000   1.0000
     1.0000   1.0000   0.0000   0.0000   0.0000

          k = 0.1667 0.4811 0.1048 (  2840 PWs)   bands (ev):

   -77.1955 -77.1775 -40.5852 -40.5442 -40.4845 -40.4501 -40.4003 -40.3745
    14.0710  14.5640  14.7486  15.2845  15.9775  16.4588  16.7315  17.7327
    17.9842  18.2361  19.9085  23.9842  26.7944

     occupation numbers 
     1.0000   1.0000   1.0000   1.0000   1.0000   1.0000   1.0000   1.0000
     1.0000   1.0000   1.0000   1.0000   1.0000   1.0000   1.0000   1.0000
     1.0000   1.0000   0.0000   0.0000   0.0000

          k = 0.1667 0.4811 0.2096 (  2827 PWs)   bands (ev):

   -77.1917 -77.1813 -40.6026 -40.5751 -40.4682 -40.4288 -40.4000 -40.3638
    14.0410  14.4951  14.9557  15.5296  15.8649  16.5665  16.9248  17.4136
    17.9222  18.3214  20.2331  22.4925  26.8059

     occupation numbers 
     1.0000   1.0000   1.0000   1.0000   1.0000   1.0000   1.0000   1.0000
     1.0000   1.0000   1.0000   1.0000   1.0000   1.0000   1.0000   1.0000
     1.0000   1.0000   0.0000   0.0000   0.0000

          k = 0.1667 0.4811-0.3145 (  2832 PWs)   bands (ev):

   -77.1865 -77.1865 -40.5990 -40.5990 -40.4469 -40.4469 -40.3733 -40.3733
    14.2065  14.2065  15.3275  15.3275  16.2827  16.2827  17.0752  17.0752
    18.2025  18.2025  21.0623  21.0623  27.6985

     occupation numbers 
     1.0000   1.0000   1.0000   1.0000   1.0000   1.0000   1.0000   1.0000
     1.0000   1.0000   1.0000   1.0000   1.0000   1.0000   1.0000   1.0000
     1.0000   1.0000   0.0000   0.0000   0.0000

          k = 0.1667 0.5774 0.0000 (  2830 PWs)   bands (ev):

   -77.1921 -77.1770 -40.5819 -40.5261 -40.4899 -40.4711 -40.4058 -40.3933
    14.3921  14.3930  14.4173  15.6553  15.9300  16.2454  16.7688  18.0175
    18.1561  18.1989  21.0598  22.6362  28.9745

     occupation numbers 
     1.0000   1.0000   1.0000   1.0000   1.0000   1.0000   1.0000   1.0000
     1.0000   1.0000   1.0000   1.0000   1.0000   1.0000   1.0000   1.0000
     1.0000   1.0000   0.0000   0.0000   0.0000

          k = 0.1667 0.5774 0.1048 (  2847 PWs)   bands (ev):

   -77.1911 -77.1780 -40.5950 -40.5465 -40.4912 -40.4422 -40.4116 -40.3816
    14.1020  14.4757  14.9147  15.2694  15.9002  16.5744  16.8205  17.9515
    18.0130  18.2203  21.1683  22.5916  28.1135

     occupation numbers 
     1.0000   1.0000   1.0000   1.0000   1.0000   1.0000   1.0000   1.0000
     1.0000   1.0000   1.0000   1.0000   1.0000   1.0000   1.0000   1.0000
     1.0000   1.0000   0.0000   0.0000   0.0000

          k = 0.1667 0.5774 0.2096 (  2840 PWs)   bands (ev):

   -77.1883 -77.1808 -40.6108 -40.5826 -40.4768 -40.4293 -40.4007 -40.3675
    14.0400  14.5061  14.9927  15.4920  15.7783  16.7719  17.0412  17.4863
    18.0277  18.2615  21.4916  22.4071  26.8041

     occupation numbers 
     1.0000   1.0000   1.0000   1.0000   1.0000   1.0000   1.0000   1.0000
     1.0000   1.0000   1.0000   1.0000   1.0000   1.0000   1.0000   1.0000
     1.0000   1.0000   0.0000   0.0000   0.0000

          k = 0.1667 0.5774-0.3145 (  2830 PWs)   bands (ev):

   -77.1845 -77.1845 -40.6076 -40.6076 -40.4534 -40.4534 -40.3727 -40.3727
    14.2088  14.2088  15.2873  15.2873  16.3259  16.3259  17.2757  17.2757
    18.1415  18.1415  21.9911  21.9911  26.3020

     occupation numbers 
     1.0000   1.0000   1.0000   1.0000   1.0000   1.0000   1.0000   1.0000
     1.0000   1.0000   1.0000   1.0000   1.0000   1.0000   1.0000   1.0000
     1.0000   1.0000   0.0000   0.0000   0.0000

          k = 0.2500 0.4330 0.0000 (  2850 PWs)   bands (ev):

   -77.1969 -77.1761 -40.5499 -40.5263 -40.5077 -40.4575 -40.4063 -40.3914
    14.3318  14.5553  14.8656  14.9365  15.8694  16.3465  16.6869  17.5419
    18.1618  18.1771  19.8222  26.2669  26.9395

     occupation numbers 
     1.0000   1.0000   1.0000   1.0000   1.0000   1.0000   1.0000   1.0000
     1.0000   1.0000   1.0000   1.0000   1.0000   1.0000   1.0000   1.0000
     1.0000   1.0000   0.0000   0.0000   0.0000

          k = 0.2500 0.4330 0.1048 (  2844 PWs)   bands (ev):

   -77.1955 -77.1775 -40.5621 -40.5535 -40.4717 -40.4658 -40.4095 -40.3764
    14.3467  14.5058  14.9524  15.0583  16.0234  16.1998  16.6673  17.5650
    17.9362  18.2452  19.9583  24.8351  27.2351

     occupation numbers 
     1.0000   1.0000   1.0000   1.0000   1.0000   1.0000   1.0000   1.0000
     1.0000   1.0000   1.0000   1.0000   1.0000   1.0000   1.0000   1.0000
     1.0000   1.0000   0.0000   0.0000   0.0000

          k = 0.2500 0.4330 0.2096 (  2825 PWs)   bands (ev):

   -77.1917 -77.1813 -40.5867 -40.5700 -40.4762 -40.4449 -40.3981 -40.3628
    14.3682  14.4562  15.1296  15.4642  15.8662  16.1401  16.6801  17.3327
    17.8943  18.3274  20.3508  22.7863  28.0482

     occupation numbers 
     1.0000   1.0000   1.0000   1.0000   1.0000   1.0000   1.0000   1.0000
     1.0000   1.0000   1.0000   1.0000   1.0000   1.0000   1.0000   1.0000
     1.0000   1.0000   0.0000   0.0000   0.0000

          k = 0.2500 0.4330-0.3145 (  2828 PWs)   bands (ev):

   -77.1865 -77.1865 -40.5875 -40.5875 -40.4609 -40.4609 -40.3708 -40.3708
    14.4078  14.4078  15.4676  15.4676  15.9112  15.9112  16.8856  16.8856
    18.2225  18.2225  21.2234  21.2234  29.1097

     occupation numbers 
     1.0000   1.0000   1.0000   1.0000   1.0000   1.0000   1.0000   1.0000
     1.0000   1.0000   1.0000   1.0000   1.0000   1.0000   1.0000   1.0000
     1.0000   1.0000   0.0000   0.0000   0.0000

          k = 0.2500 0.5292 0.0000 (  2854 PWs)   bands (ev):

   -77.1888 -77.1781 -40.5635 -40.5162 -40.4865 -40.4768 -40.4256 -40.4169
    14.4689  14.6312  14.7385  15.2304  15.8903  16.1550  16.8559  17.8078
    18.1385  18.1415  21.4518  23.9988  26.2938

     occupation numbers 
     1.0000   1.0000   1.0000   1.0000   1.0000   1.0000   1.0000   1.0000
     1.0000   1.0000   1.0000   1.0000   1.0000   1.0000   1.0000   1.0000
     1.0000   1.0000   0.0000   0.0000   0.0000

          k = 0.2500 0.5292 0.1048 (  2847 PWs)   bands (ev):

   -77.1881 -77.1788 -40.5696 -40.5416 -40.5060 -40.4459 -40.4283 -40.3938
    14.4100  14.7707  14.8708  15.1399  15.9222  16.1447  16.8504  17.8146
    17.9098  18.1833  21.6515  24.0331  26.3672

     occupation numbers 
     1.0000   1.0000   1.0000   1.0000   1.0000   1.0000   1.0000   1.0000
     1.0000   1.0000   1.0000   1.0000   1.0000   1.0000   1.0000   1.0000
     1.0000   1.0000   0.0000   0.0000   0.0000

          k = 0.2500 0.5292 0.2096 (  2834 PWs)   bands (ev):

   -77.1861 -77.1807 -40.5873 -40.5716 -40.5048 -40.4585 -40.3923 -40.3703
    14.4349  14.7910  15.0503  15.3360  15.7953  16.1489  16.8782  17.3712
    17.9551  18.2207  22.1677  23.7808  26.3603

     occupation numbers 
     1.0000   1.0000   1.0000   1.0000   1.0000   1.0000   1.0000   1.0000
     1.0000   1.0000   1.0000   1.0000   1.0000   1.0000   1.0000   1.0000
     1.0000   1.0000   0.0000   0.0000   0.0000

          k = 0.2500 0.5292-0.3145 (  2830 PWs)   bands (ev):

   -77.1834 -77.1834 -40.5905 -40.5905 -40.4832 -40.4832 -40.3687 -40.3687
    14.5788  14.5788  15.3568  15.3568  15.9193  15.9193  17.0068  17.0068
    18.1300  18.1300  22.9509  22.9509  26.9174

     occupation numbers 
     1.0000   1.0000   1.0000   1.0000   1.0000   1.0000   1.0000   1.0000
     1.0000   1.0000   1.0000   1.0000   1.0000   1.0000   1.0000   1.0000
     1.0000   1.0000   0.0000   0.0000   0.0000

          k = 0.3333 0.5774 0.0000 (  2844 PWs)   bands (ev):

   -77.1823 -77.1823 -40.5567 -40.5034 -40.5034 -40.4474 -40.4459 -40.4459
    14.4677  14.8221  14.8221  15.1267  15.9789  15.9789  16.9541  17.9509
    17.9509  18.1188  23.1624  23.9901  23.9901

     occupation numbers 
     1.0000   1.0000   1.0000   1.0000   1.0000   1.0000   1.0000   1.0000
     1.0000   1.0000   1.0000   1.0000   1.0000   1.0000   1.0000   1.0000
     1.0000   1.0000   0.0000   0.0000   0.0000

          k = 0.3333 0.5774 0.1048 (  2841 PWs)   bands (ev):

   -77.1823 -77.1823 -40.5494 -40.5336 -40.5336 -40.4548 -40.4155 -40.4155
    14.5665  14.8551  14.8551  15.1504  15.9480  15.9480  16.9216  17.8633
    17.9858  17.9858  23.5834  24.0715  24.0715

     occupation numbers 
     1.0000   1.0000   1.0000   1.0000   1.0000   1.0000   1.0000   1.0000
     1.0000   1.0000   1.0000   1.0000   1.0000   1.0000   1.0000   1.0000
     1.0000   1.0000   0.0000   0.0000   0.0000

          k = 0.3333 0.5774 0.2096 (  2850 PWs)   bands (ev):

   -77.1823 -77.1823 -40.5683 -40.5683 -40.5295 -40.4749 -40.3805 -40.3805
    14.8186  14.9209  14.9209  15.1751  15.8921  15.8921  16.8743  17.3481
    18.0500  18.0500  24.2738  24.2738  24.6457

     occupation numbers 
     1.0000   1.0000   1.0000   1.0000   1.0000   1.0000   1.0000   1.0000
     1.0000   1.0000   1.0000   1.0000   1.0000   1.0000   1.0000   1.0000
     1.0000   1.0000   0.0000   0.0000   0.0000

          k = 0.3333 0.5774-0.3145 (  2820 PWs)   bands (ev):

   -77.1823 -77.1823 -40.5814 -40.5814 -40.5022 -40.5022 -40.3672 -40.3672
    14.9535  14.9535  15.0771  15.0771  15.8672  15.8672  16.9679  16.9679
    18.0795  18.0795  24.4049  24.4049  26.0905

     occupation numbers 
     1.0000   1.0000   1.0000   1.0000   1.0000   1.0000   1.0000   1.0000
     1.0000   1.0000   1.0000   1.0000   1.0000   1.0000   1.0000   1.0000
     1.0000   1.0000   0.0000   0.0000   0.0000

 ------ SPIN DOWN ----------


          k = 0.0000 0.0000 0.0000 (  2815 PWs)   bands (ev):

   -75.1413 -75.0736 -38.6285 -38.3101 -38.3101 -38.2521 -38.2521 -38.2444
     9.8286  14.6425  17.9230  17.9230  18.0053  18.3217  18.3217  18.6546
    18.6546  18.7677  19.9742  19.9742  26.5496

     occupation numbers 
     1.0000   1.0000   1.0000   1.0000   1.0000   1.0000   1.0000   1.0000
     1.0000   1.0000   1.0000   1.0000   1.0000   1.0000   1.0000   1.0000
     1.0000   0.9999   0.0000   0.0000   0.0000

          k = 0.0000 0.0000 0.1048 (  2809 PWs)   bands (ev):

   -75.1368 -75.0781 -38.6032 -38.3062 -38.3062 -38.2705 -38.2560 -38.2560
    10.1161  14.4271  17.8369  17.8369  17.9054  18.1310  18.2244  18.2244
    18.8614  18.8614  19.9645  19.9645  27.9141

     occupation numbers 
     1.0000   1.0000   1.0000   1.0000   1.0000   1.0000   1.0000   1.0000
     1.0000   1.0000   1.0000   1.0000   1.0000   1.0000   1.0000   1.0000
     0.0000   0.0000   0.0000   0.0000   0.0000

          k = 0.0000 0.0000 0.2096 (  2797 PWs)   bands (ev):

   -75.1244 -75.0906 -38.5337 -38.3416 -38.2956 -38.2956 -38.2667 -38.2667
    10.9466  13.5617  17.4261  17.6518  17.7658  17.7658  18.0140  18.0140
    19.2595  19.2595  19.8747  19.8747  30.9809

     occupation numbers 
     1.0000   1.0000   1.0000   1.0000   1.0000   1.0000   1.0000   1.0000
     1.0000   1.0000   1.0000   1.0000   1.0000   1.0000   1.0000   1.0000
     0.0000   0.0000   0.0000   0.0000   0.0000

          k = 0.0000 0.0000-0.3145 (  2846 PWs)   bands (ev):

   -75.1075 -75.1075 -38.4381 -38.4381 -38.2812 -38.2812 -38.2812 -38.2812
    12.2009  12.2009  17.3914  17.3914  17.8306  17.8306  17.8306  17.8306
    19.6331  19.6331  19.6331  19.6331  34.7178

     occupation numbers 
     1.0000   1.0000   1.0000   1.0000   1.0000   1.0000   1.0000   1.0000
     1.0000   1.0000   1.0000   1.0000   1.0000   1.0000   1.0000   1.0000
     0.0000   0.0000   0.0000   0.0000   0.0000

          k = 0.0000 0.0962 0.0000 (  2815 PWs)   bands (ev):

   -75.1379 -75.0722 -38.6204 -38.3266 -38.3157 -38.2693 -38.2547 -38.2480
    10.0700  14.8032  17.6547  18.0483  18.0636  18.2029  18.2703  18.4312
    18.5693  18.6087  20.0134  20.8782  26.5655

     occupation numbers 
     1.0000   1.0000   1.0000   1.0000   1.0000   1.0000   1.0000   1.0000
     1.0000   1.0000   1.0000   1.0000   1.0000   1.0000   1.0000   1.0000
     1.0000   1.0000   0.0000   0.0000   0.0000

          k = 0.0000 0.0962 0.1048 (  2808 PWs)   bands (ev):

   -75.1335 -75.0766 -38.5966 -38.3220 -38.3116 -38.2876 -38.2589 -38.2588
    10.3536  14.6021  17.5995  17.6463  17.9408  17.9844  18.2973  18.3244
    18.8121  18.8435  19.9940  20.5045  27.9949

     occupation numbers 
     1.0000   1.0000   1.0000   1.0000   1.0000   1.0000   1.0000   1.0000
     1.0000   1.0000   1.0000   1.0000   1.0000   1.0000   1.0000   1.0000
     0.2055   0.0000   0.0000   0.0000   0.0000

          k = 0.0000 0.0962 0.2096 (  2819 PWs)   bands (ev):

   -75.1215 -75.0887 -38.5312 -38.3515 -38.3094 -38.3005 -38.2745 -38.2700
    11.1729  13.7545  17.1642  17.6138  17.6773  17.8618  18.0732  18.1135
    19.2307  19.2733  19.8830  20.0761  31.1141

     occupation numbers 
     1.0000   1.0000   1.0000   1.0000   1.0000   1.0000   1.0000   1.0000
     1.0000   1.0000   1.0000   1.0000   1.0000   1.0000   1.0000   1.0000
     0.0000   0.0000   0.0000   0.0000   0.0000

          k = 0.0000 0.0962-0.3145 (  2816 PWs)   bands (ev):

   -75.1051 -75.1051 -38.4415 -38.4415 -38.2922 -38.2922 -38.2852 -38.2852
    12.4101  12.4101  17.2655  17.2655  17.8227  17.8227  17.9283  17.9283
    19.6205  19.6205  19.7017  19.7017  34.8730

     occupation numbers 
     1.0000   1.0000   1.0000   1.0000   1.0000   1.0000   1.0000   1.0000
     1.0000   1.0000   1.0000   1.0000   1.0000   1.0000   1.0000   1.0000
     0.0000   0.0000   0.0000   0.0000   0.0000

          k = 0.0000 0.1925 0.0000 (  2823 PWs)   bands (ev):

   -75.1284 -75.0687 -38.5972 -38.3718 -38.3306 -38.3159 -38.2619 -38.2591
    10.7728  15.2151  17.1830  17.2754  18.0512  18.3605  18.4041  18.4607
    18.5483  18.7391  20.0972  22.3793  26.6293

[...]
    20.1129  20.2334  21.3017  23.7994  28.9019

     occupation numbers 
     1.0000   1.0000   1.0000   1.0000   1.0000   1.0000   1.0000   1.0000
     1.0000   1.0000   1.0000   1.0000   1.0000   1.0000   1.0000   0.0000
     0.0000   0.0000   0.0000   0.0000   0.0000

          k = 0.0833 0.5292 0.1048 (  2837 PWs)   bands (ev):

   -75.0813 -75.0620 -38.5709 -38.5125 -38.4367 -38.3866 -38.3348 -38.3079
    14.7724  15.4200  15.9681  16.4737  17.6981  18.2700  18.3461  19.9194
    20.0914  20.1616  21.1636  23.4789  27.7681

     occupation numbers 
     1.0000   1.0000   1.0000   1.0000   1.0000   1.0000   1.0000   1.0000
     1.0000   1.0000   1.0000   1.0000   1.0000   1.0000   1.0000   0.0000
     0.0000   0.0000   0.0000   0.0000   0.0000

          k = 0.0833 0.5292 0.2096 (  2829 PWs)   bands (ev):

   -75.0772 -75.0661 -38.5888 -38.5523 -38.3968 -38.3589 -38.3412 -38.3109
    14.7595  15.2567  16.2758  16.6204  17.7729  18.5459  18.7673  19.4316
    20.0341  20.2686  20.9366  22.5588  27.1560

     occupation numbers 
     1.0000   1.0000   1.0000   1.0000   1.0000   1.0000   1.0000   1.0000
     1.0000   1.0000   1.0000   1.0000   1.0000   1.0000   0.9999   0.0000
     0.0000   0.0000   0.0000   0.0000   0.0000

          k = 0.0833 0.5292-0.3145 (  2834 PWs)   bands (ev):

   -75.0716 -75.0716 -38.5824 -38.5824 -38.3665 -38.3665 -38.3256 -38.3256
    14.9459  14.9459  16.5752  16.5752  18.2804  18.2804  19.0585  19.0585
    20.1136  20.1136  21.4923  21.4923  27.4034

     occupation numbers 
     1.0000   1.0000   1.0000   1.0000   1.0000   1.0000   1.0000   1.0000
     1.0000   1.0000   1.0000   1.0000   1.0000   1.0000   0.0000   0.0000
     0.0000   0.0000   0.0000   0.0000   0.0000

          k = 0.1667 0.2887 0.0000 (  2830 PWs)   bands (ev):

   -75.1076 -75.0626 -38.5431 -38.4391 -38.4292 -38.3483 -38.2959 -38.2884
    12.4834  15.8959  16.2905  16.6080  17.7613  17.9389  18.3503  18.8671
    19.3132  19.6901  20.1406  24.9987  26.9672

     occupation numbers 
     1.0000   1.0000   1.0000   1.0000   1.0000   1.0000   1.0000   1.0000
     1.0000   1.0000   1.0000   1.0000   1.0000   1.0000   1.0000   0.0000
     0.0000   0.0000   0.0000   0.0000   0.0000

          k = 0.1667 0.2887 0.1048 (  2825 PWs)   bands (ev):

   -75.1046 -75.0656 -38.5432 -38.4368 -38.4199 -38.3571 -38.3009 -38.2862
    12.7037  15.8738  16.1539  16.6758  17.7028  17.9679  18.2225  18.9114
    19.4498  19.5732  20.1454  23.3210  29.1928

     occupation numbers 
     1.0000   1.0000   1.0000   1.0000   1.0000   1.0000   1.0000   1.0000
     1.0000   1.0000   1.0000   1.0000   1.0000   1.0000   1.0000   0.0000
     0.0000   0.0000   0.0000   0.0000   0.0000

          k = 0.1667 0.2887 0.2096 (  2831 PWs)   bands (ev):

   -75.0964 -75.0738 -38.5329 -38.4660 -38.3793 -38.3590 -38.3131 -38.2941
    13.3275  15.2008  16.3996  16.8497  17.4814  17.7830  18.2748  18.9016
    19.6049  19.6909  20.0899  21.5463  32.4607

     occupation numbers 
     1.0000   1.0000   1.0000   1.0000   1.0000   1.0000   1.0000   1.0000
     1.0000   1.0000   1.0000   1.0000   1.0000   1.0000   1.0000   0.0000
     0.0000   0.0000   0.0000   0.0000   0.0000

          k = 0.1667 0.2887-0.3145 (  2814 PWs)   bands (ev):

   -75.0851 -75.0851 -38.5047 -38.5047 -38.3531 -38.3531 -38.3146 -38.3146
    14.2343  14.2343  16.7908  16.7908  17.4492  17.4492  18.5874  18.5874
    19.8962  19.8962  20.3368  20.3368  33.8362

     occupation numbers 
     1.0000   1.0000   1.0000   1.0000   1.0000   1.0000   1.0000   1.0000
     1.0000   1.0000   1.0000   1.0000   1.0000   1.0000   1.0000   1.0000
     0.0000   0.0000   0.0000   0.0000   0.0000

          k = 0.1667 0.3849 0.0000 (  2833 PWs)   bands (ev):

   -75.0943 -75.0604 -38.5041 -38.4884 -38.4625 -38.3783 -38.3168 -38.3130
    13.7299  15.9605  15.9719  16.3975  17.5693  18.0840  18.1309  19.1979
    19.8276  20.1475  20.3992  26.7811  27.0762

     occupation numbers 
     1.0000   1.0000   1.0000   1.0000   1.0000   1.0000   1.0000   1.0000
     1.0000   1.0000   1.0000   1.0000   1.0000   1.0000   1.0000   0.0000
     0.0000   0.0000   0.0000   0.0000   0.0000

          k = 0.1667 0.3849 0.1048 (  2832 PWs)   bands (ev):

   -75.0920 -75.0627 -38.5331 -38.4835 -38.4339 -38.3859 -38.3238 -38.3029
    13.8849  15.8251  16.0834  16.5065  17.5719  17.9965  18.1106  19.2113
    19.8543  19.9353  20.5296  24.4134  28.9642

     occupation numbers 
     1.0000   1.0000   1.0000   1.0000   1.0000   1.0000   1.0000   1.0000
     1.0000   1.0000   1.0000   1.0000   1.0000   1.0000   1.0000   0.0000
     0.0000   0.0000   0.0000   0.0000   0.0000

          k = 0.1667 0.3849 0.2096 (  2825 PWs)   bands (ev):

   -75.0858 -75.0689 -38.5479 -38.5091 -38.3953 -38.3773 -38.3334 -38.3001
    14.3082  15.4423  16.3863  16.7411  17.4620  17.7031  18.2774  19.1020
    19.7212  20.1296  20.6149  22.3622  29.8891

     occupation numbers 
     1.0000   1.0000   1.0000   1.0000   1.0000   1.0000   1.0000   1.0000
     1.0000   1.0000   1.0000   1.0000   1.0000   1.0000   1.0000   0.0000
     0.0000   0.0000   0.0000   0.0000   0.0000

          k = 0.1667 0.3849-0.3145 (  2816 PWs)   bands (ev):

   -75.0773 -75.0773 -38.5374 -38.5374 -38.3766 -38.3766 -38.3175 -38.3175
    14.8829  14.8829  16.7474  16.7474  17.4252  17.4252  18.6364  18.6364
    20.1434  20.1434  20.9896  20.9896  31.0338

     occupation numbers 
     1.0000   1.0000   1.0000   1.0000   1.0000   1.0000   1.0000   1.0000
     1.0000   1.0000   1.0000   1.0000   1.0000   1.0000   1.0000   1.0000
     0.0000   0.0000   0.0000   0.0000   0.0000

          k = 0.1667 0.4811 0.0000 (  2835 PWs)   bands (ev):

   -75.0828 -75.0604 -38.5279 -38.4772 -38.4663 -38.4077 -38.3402 -38.3308
    14.8351  15.7594  15.7624  16.4288  17.5103  17.8887  18.3229  19.6310
    20.1043  20.1504  21.2953  25.2495  28.6926

     occupation numbers 
     1.0000   1.0000   1.0000   1.0000   1.0000   1.0000   1.0000   1.0000
     1.0000   1.0000   1.0000   1.0000   1.0000   1.0000   1.0000   0.0000
     0.0000   0.0000   0.0000   0.0000   0.0000

          k = 0.1667 0.4811 0.1048 (  2840 PWs)   bands (ev):

   -75.0813 -75.0619 -38.5468 -38.5017 -38.4383 -38.3991 -38.3449 -38.3191
    14.8586  15.7209  15.9279  16.4797  17.5356  17.8742  18.3526  19.6063
    19.8979  20.1850  21.3543  24.6906  27.5513

     occupation numbers 
     1.0000   1.0000   1.0000   1.0000   1.0000   1.0000   1.0000   1.0000
     1.0000   1.0000   1.0000   1.0000   1.0000   1.0000   1.0000   0.0000
     0.0000   0.0000   0.0000   0.0000   0.0000

          k = 0.1667 0.4811 0.2096 (  2827 PWs)   bands (ev):

   -75.0772 -75.0660 -38.5663 -38.5359 -38.4187 -38.3762 -38.3452 -38.3073
    14.9757  15.5178  16.2805  16.7945  17.3813  17.8396  18.5243  19.2432
    19.8210  20.2876  21.5138  23.2637  27.6211

     occupation numbers 
     1.0000   1.0000   1.0000   1.0000   1.0000   1.0000   1.0000   1.0000
     1.0000   1.0000   1.0000   1.0000   1.0000   1.0000   1.0000   0.0000
     0.0000   0.0000   0.0000   0.0000   0.0000

          k = 0.1667 0.4811-0.3145 (  2832 PWs)   bands (ev):

   -75.0716 -75.0716 -38.5623 -38.5623 -38.3952 -38.3952 -38.3172 -38.3172
    15.2153  15.2153  16.7205  16.7205  17.5551  17.5552  18.7942  18.7942
    20.1374  20.1374  22.0601  22.0601  28.4422

     occupation numbers 
     1.0000   1.0000   1.0000   1.0000   1.0000   1.0000   1.0000   1.0000
     1.0000   1.0000   1.0000   1.0000   1.0000   1.0000   0.8512   0.8512
     0.0000   0.0000   0.0000   0.0000   0.0000

          k = 0.1667 0.5774 0.0000 (  2830 PWs)   bands (ev):

   -75.0777 -75.0614 -38.5422 -38.4808 -38.4471 -38.4204 -38.3556 -38.3358
    15.3072  15.6244  15.6969  16.4789  17.5329  17.7561  18.4302  19.9324
    20.0995  20.1509  22.1876  23.6771  29.3956

     occupation numbers 
     1.0000   1.0000   1.0000   1.0000   1.0000   1.0000   1.0000   1.0000
     1.0000   1.0000   1.0000   1.0000   1.0000   1.0000   1.0000   0.0000
     0.0000   0.0000   0.0000   0.0000   0.0000

          k = 0.1667 0.5774 0.1048 (  2847 PWs)   bands (ev):

   -75.0766 -75.0625 -38.5571 -38.5038 -38.4450 -38.3915 -38.3582 -38.3260
    15.1634  15.6762  16.0725  16.3196  17.4870  17.9156  18.4683  19.8600
    19.9274  20.1721  22.2254  23.5842  28.7112

     occupation numbers 
     1.0000   1.0000   1.0000   1.0000   1.0000   1.0000   1.0000   1.0000
     1.0000   1.0000   1.0000   1.0000   1.0000   1.0000   1.0000   0.0000
     0.0000   0.0000   0.0000   0.0000   0.0000

          k = 0.1667 0.5774 0.2096 (  2840 PWs)   bands (ev):

   -75.0736 -75.0655 -38.5750 -38.5440 -38.4281 -38.3760 -38.3470 -38.3112
    15.1302  15.5727  16.3417  16.7119  17.2887  18.0134  18.6714  19.3225
    19.9453  20.2142  22.3661  23.2716  27.5960

     occupation numbers 
     1.0000   1.0000   1.0000   1.0000   1.0000   1.0000   1.0000   1.0000
     1.0000   1.0000   1.0000   1.0000   1.0000   1.0000   1.0000   0.0000
     0.0000   0.0000   0.0000   0.0000   0.0000

          k = 0.1667 0.5774-0.3145 (  2830 PWs)   bands (ev):

   -75.0695 -75.0695 -38.5716 -38.5716 -38.4022 -38.4022 -38.3168 -38.3168
    15.2940  15.2940  16.7124  16.7124  17.6037  17.6037  18.9619  18.9619
    20.0715  20.0715  22.7686  22.7686  27.2032

     occupation numbers 
     1.0000   1.0000   1.0000   1.0000   1.0000   1.0000   1.0000   1.0000
     1.0000   1.0000   1.0000   1.0000   1.0000   1.0000   0.0000   0.0000
     0.0000   0.0000   0.0000   0.0000   0.0000

          k = 0.2500 0.4330 0.0000 (  2850 PWs)   bands (ev):

   -75.0829 -75.0604 -38.5071 -38.4809 -38.4666 -38.4058 -38.3500 -38.3400
    14.8368  15.8318  16.1022  16.1060  17.4292  17.9060  18.3224  19.4072
    20.1083  20.1143  21.3269  26.8396  27.5632

     occupation numbers 
     1.0000   1.0000   1.0000   1.0000   1.0000   1.0000   1.0000   1.0000
     1.0000   1.0000   1.0000   1.0000   1.0000   1.0000   1.0000   0.0000
     0.0000   0.0000   0.0000   0.0000   0.0000

          k = 0.2500 0.4330 0.1048 (  2844 PWs)   bands (ev):

   -75.0814 -75.0619 -38.5224 -38.5114 -38.4221 -38.4184 -38.3537 -38.3223
    14.9235  15.7506  16.1747  16.3045  17.4839  17.7309  18.3069  19.4240
    19.8449  20.1957  21.4436  25.4804  27.8650

     occupation numbers 
     1.0000   1.0000   1.0000   1.0000   1.0000   1.0000   1.0000   1.0000
     1.0000   1.0000   1.0000   1.0000   1.0000   1.0000   1.0000   0.0000
     0.0000   0.0000   0.0000   0.0000   0.0000

          k = 0.2500 0.4330 0.2096 (  2825 PWs)   bands (ev):

   -75.0772 -75.0660 -38.5492 -38.5303 -38.4269 -38.3934 -38.3434 -38.3065
    15.1432  15.6148  16.4097  16.6899  17.3428  17.4748  18.3548  19.1500
    19.7828  20.2949  21.6925  23.5929  28.6774

     occupation numbers 
     1.0000   1.0000   1.0000   1.0000   1.0000   1.0000   1.0000   1.0000
     1.0000   1.0000   1.0000   1.0000   1.0000   1.0000   1.0000   0.0000
     0.0000   0.0000   0.0000   0.0000   0.0000

          k = 0.2500 0.4330-0.3145 (  2828 PWs)   bands (ev):

   -75.0716 -75.0716 -38.5500 -38.5500 -38.4102 -38.4102 -38.3147 -38.3147
    15.4040  15.4040  16.7703  16.7703  17.2331  17.2331  18.6369  18.6369
    20.1609  20.1610  22.2776  22.2776  29.7237

     occupation numbers 
     1.0000   1.0000   1.0000   1.0000   1.0000   1.0000   1.0000   1.0000
     1.0000   1.0000   1.0000   1.0000   1.0000   1.0000   1.0000   1.0000
     0.0000   0.0000   0.0000   0.0000   0.0000

          k = 0.2500 0.5292 0.0000 (  2854 PWs)   bands (ev):

   -75.0741 -75.0626 -38.5218 -38.4700 -38.4375 -38.4328 -38.3709 -38.3677
    15.5573  15.7796  15.9338  16.1891  17.4347  17.6760  18.5246  19.7035
    20.0782  20.0847  22.5859  24.8175  26.8791

     occupation numbers 
     1.0000   1.0000   1.0000   1.0000   1.0000   1.0000   1.0000   1.0000
     1.0000   1.0000   1.0000   1.0000   1.0000   1.0000   1.0000   0.0000
     0.0000   0.0000   0.0000   0.0000   0.0000

          k = 0.2500 0.5292 0.1048 (  2847 PWs)   bands (ev):

   -75.0734 -75.0633 -38.5293 -38.4990 -38.4600 -38.3958 -38.3757 -38.3409
    15.5282  15.8987  16.0268  16.2593  17.4195  17.5774  18.5176  19.7061
    19.8159  20.1295  22.7609  24.8091  26.9792

     occupation numbers 
     1.0000   1.0000   1.0000   1.0000   1.0000   1.0000   1.0000   1.0000
     1.0000   1.0000   1.0000   1.0000   1.0000   1.0000   1.0000   0.0000
     0.0000   0.0000   0.0000   0.0000   0.0000

          k = 0.2500 0.5292 0.2096 (  2834 PWs)   bands (ev):

   -75.0712 -75.0654 -38.5495 -38.5323 -38.4581 -38.4074 -38.3382 -38.3146
    15.5780  15.8743  16.3156  16.6195  17.1881  17.4281  18.5582  19.2024
    19.8618  20.1672  23.1606  24.4836  27.1143

     occupation numbers 
     1.0000   1.0000   1.0000   1.0000   1.0000   1.0000   1.0000   1.0000
     1.0000   1.0000   1.0000   1.0000   1.0000   1.0000   1.0000   0.0000
     0.0000   0.0000   0.0000   0.0000   0.0000

          k = 0.2500 0.5292-0.3145 (  2830 PWs)   bands (ev):

   -75.0683 -75.0683 -38.5531 -38.5531 -38.4342 -38.4342 -38.3126 -38.3126
    15.7190  15.7190  16.7253  16.7253  17.1349  17.1349  18.7547  18.7547
    20.0555  20.0555  23.7634  23.7634  27.6771

     occupation numbers 
     1.0000   1.0000   1.0000   1.0000   1.0000   1.0000   1.0000   1.0000
     1.0000   1.0000   1.0000   1.0000   1.0000   1.0000   1.0000   1.0000
     0.0000   0.0000   0.0000   0.0000   0.0000

          k = 0.3333 0.5774 0.0000 (  2844 PWs)   bands (ev):

   -75.0672 -75.0672 -38.5142 -38.4561 -38.4561 -38.3991 -38.3991 -38.3947
    15.8004  15.9086  15.9086  16.1292  17.4954  17.4954  18.6324  19.8684
    19.8684  20.0586  24.0046  24.8010  24.8010

     occupation numbers 
     1.0000   1.0000   1.0000   1.0000   1.0000   1.0000   1.0000   1.0000
     1.0000   1.0000   1.0000   1.0000   1.0000   1.0000   1.0000   0.0000
     0.0000   0.0000   0.0000   0.0000   0.0000

          k = 0.3333 0.5774 0.1048 (  2841 PWs)   bands (ev):

   -75.0671 -75.0671 -38.5062 -38.4906 -38.4906 -38.4028 -38.3644 -38.3644
    15.8796  15.9902  15.9902  16.1649  17.4111  17.4111  18.6034  19.7605
    19.9055  19.9055  24.4435  24.8578  24.8578

     occupation numbers 
     1.0000   1.0000   1.0000   1.0000   1.0000   1.0000   1.0000   1.0000
     1.0000   1.0000   1.0000   1.0000   1.0000   1.0000   1.0000   0.0000
     0.0000   0.0000   0.0000   0.0000   0.0000

          k = 0.3333 0.5774 0.2096 (  2850 PWs)   bands (ev):

   -75.0671 -75.0671 -38.5290 -38.5290 -38.4845 -38.4247 -38.3257 -38.3257
    16.0663  16.1839  16.1839  16.2311  17.2202  17.2202  18.5812  19.1819
    19.9702  19.9702  24.9982  24.9982  25.4902

     occupation numbers 
     1.0000   1.0000   1.0000   1.0000   1.0000   1.0000   1.0000   1.0000
     1.0000   1.0000   1.0000   1.0000   1.0000   1.0000   1.0000   0.0000
     0.0000   0.0000   0.0000   0.0000   0.0000

          k = 0.3333 0.5774-0.3145 (  2820 PWs)   bands (ev):

   -75.0671 -75.0671 -38.5435 -38.5435 -38.4546 -38.4546 -38.3110 -38.3110
    16.2192  16.2192  16.3093  16.3093  17.0999  17.0999  18.7366  18.7366
    19.9981  19.9981  25.0875  25.0875  26.8529

     occupation numbers 
     1.0000   1.0000   1.0000   1.0000   1.0000   1.0000   1.0000   1.0000
     1.0000   1.0000   1.0000   1.0000   1.0000   1.0000   1.0000   1.0000
     0.0000   0.0000   0.0000   0.0000   0.0000

     the Fermi energy is    18.8042 ev

!    total energy              =    -753.45496053 Ry
     total all-electron energy =     -5573.811652 Ry
     estimated scf accuracy    <       0.00000046 Ry
     smearing contrib. (-TS)   =      -0.00001968 Ry
     internal energy E=F+TS    =    -753.45494085 Ry

     The total energy is F=E-TS. E is the sum of the following terms:
     one-electron contribution =    -281.20267928 Ry
     hartree contribution      =     164.46606157 Ry
     xc contribution           =     -61.41527966 Ry
     ewald contribution        =    -400.12728497 Ry
     one-center paw contrib.   =    -175.17575851 Ry
      -> PAW hartree energy AE =     222.08955010 Ry
      -> PAW hartree energy PS =    -221.03393376 Ry
      -> PAW xc energy AE      =    -117.67628037 Ry
      -> PAW xc energy PS      =      29.03278477 Ry
      -> total E_H with PAW    =     165.52167791 Ry
      -> total E_XC with PAW   =    -150.05877526 Ry

     total magnetization       =     3.30 Bohr mag/cell
     absolute magnetization    =     3.62 Bohr mag/cell

     convergence has been achieved in  10 iterations

     Writing all to output data dir ./out2/Co.save/
 
     init_run     :      0.29s CPU      0.38s WALL (       1 calls)
     electrons    :     12.69s CPU     13.64s WALL (       1 calls)

     Called by init_run:
     wfcinit      :      0.13s CPU      0.19s WALL (       1 calls)
     potinit      :      0.10s CPU      0.12s WALL (       1 calls)
     hinit0       :      0.05s CPU      0.05s WALL (       1 calls)

     Called by electrons:
     c_bands      :     10.66s CPU     11.36s WALL (      10 calls)
     sum_band     :      1.07s CPU      1.13s WALL (      10 calls)
     v_of_rho     :      0.04s CPU      0.04s WALL (      11 calls)
     v_h          :      0.00s CPU      0.00s WALL (      11 calls)
     v_xc         :      0.04s CPU      0.04s WALL (      11 calls)
     newd         :      0.03s CPU      0.03s WALL (      11 calls)
     PAW_pot      :      0.95s CPU      1.16s WALL (      11 calls)
     mix_rho      :      0.01s CPU      0.01s WALL (      10 calls)

     Called by c_bands:
     init_us_2    :      0.08s CPU      0.08s WALL (    1520 calls)
     init_us_2:cp :      0.07s CPU      0.08s WALL (    1520 calls)
     cegterg      :      9.93s CPU     10.45s WALL (     760 calls)

     Called by sum_band:
     sum_band:wei :      0.01s CPU      0.01s WALL (      10 calls)
     sum_band:loo :      1.00s CPU      1.05s WALL (      10 calls)
     sum_band:buf :      0.01s CPU      0.01s WALL (     760 calls)
     sum_band:ini :      0.04s CPU      0.04s WALL (     760 calls)
     sum_band:cal :      0.09s CPU      0.09s WALL (     760 calls)
     sum_band:bec :      0.01s CPU      0.01s WALL (     760 calls)
     addusdens    :      0.05s CPU      0.05s WALL (      10 calls)
                                        0.00s GPU  (      10 calls)
     addusd:skk   :      0.00s CPU      0.00s WALL (      10 calls)
                                        0.00s GPU  (      10 calls)

     Called by *egterg:
     cdiaghg      :      2.14s CPU      2.23s WALL (    4352 calls)
     cegterg:over :      0.32s CPU      0.34s WALL (    3668 calls)
     cegterg:upda :      0.09s CPU      0.10s WALL (    3668 calls)
     cegterg:last :      0.19s CPU      0.19s WALL (    2716 calls)
     h_psi        :      6.72s CPU      7.10s WALL (    4428 calls)
     s_psi        :      0.12s CPU      0.13s WALL (    4428 calls)
     g_psi        :      0.03s CPU      0.03s WALL (    3668 calls)

     Called by h_psi:
     h_psi:calbec :      0.36s CPU      0.38s WALL (    4428 calls)
     vloc_psi     :      6.18s CPU      6.52s WALL (    4428 calls)
     add_vuspsi   :      0.15s CPU      0.16s WALL (    4428 calls)

     General routines
     calbec       :      0.43s CPU      0.46s WALL (    5188 calls)
     fft          :      0.02s CPU      0.02s WALL (     269 calls)
     ffts         :      0.00s CPU      0.00s WALL (      42 calls)
     fftw         :      6.35s CPU      6.70s WALL (  139624 calls)
     interpolate  :      0.00s CPU      0.00s WALL (      22 calls)
 
     Parallel routines

     PAW routines
     PAW_pot      :      0.95s CPU      1.16s WALL (      11 calls)
     PAW_symme    :      0.01s CPU      0.01s WALL (      20 calls)
 
     PWSCF        :     13.21s CPU     14.60s WALL

 
   This run was terminated on:  10:56: 0  22Mar2024            

=------------------------------------------------------------------------------=
   JOB DONE.
=------------------------------------------------------------------------------=
