
     Program PWSCF v.7.2 starts on 22Mar2024 at 10:49:52 

     This program is part of the open-source Quantum ESPRESSO suite
     for quantum simulation of materials; please cite
         "P. Giannozzi et al., J. Phys.:Condens. Matter 21 395502 (2009);
         "P. Giannozzi et al., J. Phys.:Condens. Matter 29 465901 (2017);
         "P. Giannozzi et al., J. Chem. Phys. 152 154105 (2020);
          URL http://www.quantum-espresso.org", 
     in publications or presentations arising from this work. More details at
     http://www.quantum-espresso.org/quote

     Parallel version (MPI), running on    28 processors

     MPI processes distributed on     1 nodes
     182183 MiB available memory on the printing compute node when the environment starts
 
     Waiting for input...
     Reading input from standard input

     Current dimensions of program PWSCF are:
     Max number of different atomic species (ntypx) = 10
     Max number of k-points (npk) = 120000
     Max angular momentum in pseudopotentials (lmaxx) =  4
     file Co.pbe-spn-kjpaw_psl.0.3.1.UPF: wavefunction(s)  3P 3D renormalized
 
     K-points division:     npool     =       2
     R & G space division:  proc/nbgrp/npool/nimage =      14
     Subspace diagonalization in iterative solution of the eigenvalue problem:
     a serial algorithm will be used

 
     Parallelization info
     --------------------
     sticks:   dense  smooth     PW     G-vecs:    dense   smooth      PW
     Min          48      48     14                 1652     1602     262
     Max          51      49     15                 1659     1607     269
     Sum         685     673    199                23163    22455    3705
 
     Using Slab Decomposition
 


     bravais-lattice index     =            4
     lattice parameter (alat)  =       4.7054  a.u.
     unit-cell volume          =     144.2145 (a.u.)^3
     number of atoms/cell      =            2
     number of atomic types    =            1
     number of electrons       =        34.00
     number of Kohn-Sham states=           21
     kinetic-energy cutoff     =     110.0000  Ry
     charge density cutoff     =     450.0000  Ry
     scf convergence threshold =      1.0E-06
     mixing beta               =       0.7000
     number of iterations used =            8  plain     mixing
     Exchange-correlation= SLA  PW   PBX  PBC
                           (   1   4   3   4   0   0   0)

     celldm(1)=   4.705418  celldm(2)=   0.000000  celldm(3)=   1.598394
     celldm(4)=   0.000000  celldm(5)=   0.000000  celldm(6)=   0.000000

     crystal axes: (cart. coord. in units of alat)
               a(1) = (   1.000000   0.000000   0.000000 )  
               a(2) = (  -0.500000   0.866025   0.000000 )  
               a(3) = (   0.000000   0.000000   1.598394 )  

     reciprocal axes: (cart. coord. in units 2 pi/alat)
               b(1) = (  1.000000  0.577350  0.000000 )  
               b(2) = (  0.000000  1.154701  0.000000 )  
               b(3) = (  0.000000  0.000000  0.625628 )  


     PseudoPot. # 1 for Co read from file:
     /truba/home/amuhaymin/ZnS/pseudo/QE/Co.pbe-spn-kjpaw_psl.0.3.1.UPF
     MD5 check sum: b0a1ad65bf214e88c1f3d33b20c7d919
     Pseudo is Projector augmented-wave + core cor, Zval = 17.0
     Generated using &quot;atomic&quot; code by A. Dal Corso  v.6.2.2
     Shape of augmentation charge: PSQ
     Using radial grid of 1193 points,  6 beta functions with: 
                l(1) =   0
                l(2) =   0
                l(3) =   1
                l(4) =   1
                l(5) =   2
                l(6) =   2
     Q(r) pseudized with 0 coefficients 


     atomic species   valence    mass     pseudopotential
        Co            17.00    58.93300     Co( 1.00)

     Starting magnetic structure 
     atomic species   magnetization
        Co           0.294

     24 Sym. Ops., with inversion, found (12 have fractional translation)


                                    s                        frac. trans.

      isym =  1     identity                                     

 cryst.   s( 1) = (     1          0          0      )
                  (     0          1          0      )
                  (     0          0          1      )

 cart.    s( 1) = (  1.0000000  0.0000000  0.0000000 )
                  (  0.0000000  1.0000000  0.0000000 )
                  (  0.0000000  0.0000000  1.0000000 )


      isym =  2     180 deg rotation - cart. axis [0,0,1]        

 cryst.   s( 2) = (    -1          0          0      )    f =(  0.0000000 )
                  (     0         -1          0      )       ( -0.0000000 )
                  (     0          0          1      )       ( -0.5000000 )

 cart.    s( 2) = ( -1.0000000  0.0000000  0.0000000 )    f =(  0.0000000 )
                  (  0.0000000 -1.0000000  0.0000000 )       ( -0.0000000 )
                  (  0.0000000  0.0000000  1.0000000 )       ( -0.7991968 )


      isym =  3     180 deg rotation - cart. axis [0,1,0]        

 cryst.   s( 3) = (    -1          0          0      )    f =(  0.0000000 )
                  (     1          1          0      )       (  0.0000000 )
                  (     0          0         -1      )       (  0.5000000 )

 cart.    s( 3) = ( -1.0000000  0.0000000  0.0000000 )    f =(  0.0000000 )
                  (  0.0000000  1.0000000  0.0000000 )       (  0.0000000 )
                  (  0.0000000  0.0000000 -1.0000000 )       (  0.7991968 )


      isym =  4     180 deg rotation - cart. axis [1,0,0]        

 cryst.   s( 4) = (     1          0          0      )
                  (    -1         -1          0      )
                  (     0          0         -1      )

 cart.    s( 4) = (  1.0000000  0.0000000  0.0000000 )
                  (  0.0000000 -1.0000000  0.0000000 )
                  (  0.0000000  0.0000000 -1.0000000 )


      isym =  5      60 deg rotation - cryst. axis [0,0,1]       

 cryst.   s( 5) = (     1          1          0      )    f =(  0.0000000 )
                  (    -1          0          0      )       ( -0.0000000 )
                  (     0          0          1      )       ( -0.5000000 )

 cart.    s( 5) = (  0.5000000 -0.8660254  0.0000000 )    f =(  0.0000000 )
                  (  0.8660254  0.5000000  0.0000000 )       ( -0.0000000 )
                  (  0.0000000  0.0000000  1.0000000 )       ( -0.7991968 )


      isym =  6      60 deg rotation - cryst. axis [0,0,-1]      

 cryst.   s( 6) = (     0         -1          0      )    f =(  0.0000000 )
                  (     1          1          0      )       ( -0.0000000 )
                  (     0          0          1      )       ( -0.5000000 )

 cart.    s( 6) = (  0.5000000  0.8660254  0.0000000 )    f =(  0.0000000 )
                  ( -0.8660254  0.5000000  0.0000000 )       ( -0.0000000 )
                  (  0.0000000  0.0000000  1.0000000 )       ( -0.7991968 )


      isym =  7     120 deg rotation - cryst. axis [0,0,1]       

 cryst.   s( 7) = (     0          1          0      )
                  (    -1         -1          0      )
                  (     0          0          1      )

 cart.    s( 7) = ( -0.5000000 -0.8660254  0.0000000 )
                  (  0.8660254 -0.5000000  0.0000000 )
                  (  0.0000000  0.0000000  1.0000000 )


      isym =  8     120 deg rotation - cryst. axis [0,0,-1]      

 cryst.   s( 8) = (    -1         -1          0      )
                  (     1          0          0      )
                  (     0          0          1      )

 cart.    s( 8) = ( -0.5000000  0.8660254  0.0000000 )
                  ( -0.8660254 -0.5000000  0.0000000 )
                  (  0.0000000  0.0000000  1.0000000 )


      isym =  9     180 deg rotation - cryst. axis [1,-1,0]      

 cryst.   s( 9) = (     0         -1          0      )    f =( -0.0000000 )
                  (    -1          0          0      )       ( -0.0000000 )
                  (     0          0         -1      )       (  0.5000000 )

 cart.    s( 9) = (  0.5000000 -0.8660254  0.0000000 )    f =( -0.0000000 )
                  ( -0.8660254 -0.5000000  0.0000000 )       ( -0.0000000 )
                  (  0.0000000  0.0000000 -1.0000000 )       (  0.7991968 )


      isym = 10     180 deg rotation - cryst. axis [2,1,0]       

 cryst.   s(10) = (     1          1          0      )    f =(  0.0000000 )
                  (     0         -1          0      )       ( -0.0000000 )
                  (     0          0         -1      )       (  0.5000000 )

 cart.    s(10) = (  0.5000000  0.8660254  0.0000000 )    f =(  0.0000000 )
                  (  0.8660254 -0.5000000  0.0000000 )       ( -0.0000000 )
                  (  0.0000000  0.0000000 -1.0000000 )       (  0.7991968 )


      isym = 11     180 deg rotation - cryst. axis [0,1,0]       

 cryst.   s(11) = (    -1         -1          0      )
                  (     0          1          0      )
                  (     0          0         -1      )

 cart.    s(11) = ( -0.5000000 -0.8660254  0.0000000 )
                  ( -0.8660254  0.5000000  0.0000000 )
                  (  0.0000000  0.0000000 -1.0000000 )


      isym = 12     180 deg rotation - cryst. axis [1,1,0]       

 cryst.   s(12) = (     0          1          0      )
                  (     1          0          0      )
                  (     0          0         -1      )

 cart.    s(12) = ( -0.5000000  0.8660254  0.0000000 )
                  (  0.8660254  0.5000000  0.0000000 )
                  (  0.0000000  0.0000000 -1.0000000 )


      isym = 13     inversion                                    

 cryst.   s(13) = (    -1          0          0      )
                  (     0         -1          0      )
                  (     0          0         -1      )

 cart.    s(13) = ( -1.0000000  0.0000000  0.0000000 )
                  (  0.0000000 -1.0000000  0.0000000 )
                  (  0.0000000  0.0000000 -1.0000000 )


      isym = 14     inv. 180 deg rotation - cart. axis [0,0,1]   

 cryst.   s(14) = (     1          0          0      )    f =(  0.0000000 )
                  (     0          1          0      )       (  0.0000000 )
                  (     0          0         -1      )       (  0.5000000 )

 cart.    s(14) = (  1.0000000  0.0000000  0.0000000 )    f =(  0.0000000 )
                  (  0.0000000  1.0000000  0.0000000 )       (  0.0000000 )
                  (  0.0000000  0.0000000 -1.0000000 )       (  0.7991968 )


      isym = 15     inv. 180 deg rotation - cart. axis [0,1,0]   

 cryst.   s(15) = (     1          0          0      )    f =(  0.0000000 )
                  (    -1         -1          0      )       ( -0.0000000 )
                  (     0          0          1      )       ( -0.5000000 )

 cart.    s(15) = (  1.0000000  0.0000000  0.0000000 )    f =(  0.0000000 )
                  (  0.0000000 -1.0000000  0.0000000 )       ( -0.0000000 )
                  (  0.0000000  0.0000000  1.0000000 )       ( -0.7991968 )


      isym = 16     inv. 180 deg rotation - cart. axis [1,0,0]   

 cryst.   s(16) = (    -1          0          0      )
                  (     1          1          0      )
                  (     0          0          1      )

 cart.    s(16) = ( -1.0000000  0.0000000  0.0000000 )
                  (  0.0000000  1.0000000  0.0000000 )
                  (  0.0000000  0.0000000  1.0000000 )


      isym = 17     inv.  60 deg rotation - cryst. axis [0,0,1]  

 cryst.   s(17) = (    -1         -1          0      )    f =(  0.0000000 )
                  (     1          0          0      )       ( -0.0000000 )
                  (     0          0         -1      )       (  0.5000000 )

 cart.    s(17) = ( -0.5000000  0.8660254  0.0000000 )    f =(  0.0000000 )
                  ( -0.8660254 -0.5000000  0.0000000 )       ( -0.0000000 )
                  (  0.0000000  0.0000000 -1.0000000 )       (  0.7991968 )


      isym = 18     inv.  60 deg rotation - cryst. axis [0,0,-1] 

 cryst.   s(18) = (     0          1          0      )    f =( -0.0000000 )
                  (    -1         -1          0      )       ( -0.0000000 )
                  (     0          0         -1      )       (  0.5000000 )

 cart.    s(18) = ( -0.5000000 -0.8660254  0.0000000 )    f =(  0.0000000 )
                  (  0.8660254 -0.5000000  0.0000000 )       ( -0.0000000 )
                  (  0.0000000  0.0000000 -1.0000000 )       (  0.7991968 )


      isym = 19     inv. 120 deg rotation - cryst. axis [0,0,1]  

 cryst.   s(19) = (     0         -1          0      )
                  (     1          1          0      )
                  (     0          0         -1      )

 cart.    s(19) = (  0.5000000  0.8660254  0.0000000 )
                  ( -0.8660254  0.5000000  0.0000000 )
                  (  0.0000000  0.0000000 -1.0000000 )


      isym = 20     inv. 120 deg rotation - cryst. axis [0,0,-1] 

 cryst.   s(20) = (     1          1          0      )
                  (    -1          0          0      )
                  (     0          0         -1      )

 cart.    s(20) = (  0.5000000 -0.8660254  0.0000000 )
                  (  0.8660254  0.5000000  0.0000000 )
                  (  0.0000000  0.0000000 -1.0000000 )


      isym = 21     inv. 180 deg rotation - cryst. axis [1,-1,0] 

 cryst.   s(21) = (     0          1          0      )    f =(  0.0000000 )
                  (     1          0          0      )       ( -0.0000000 )
                  (     0          0          1      )       ( -0.5000000 )

 cart.    s(21) = ( -0.5000000  0.8660254  0.0000000 )    f =(  0.0000000 )
                  (  0.8660254  0.5000000  0.0000000 )       ( -0.0000000 )
                  (  0.0000000  0.0000000  1.0000000 )       ( -0.7991968 )


      isym = 22     inv. 180 deg rotation - cryst. axis [2,1,0]  

 cryst.   s(22) = (    -1         -1          0      )    f =(  0.0000000 )
                  (     0          1          0      )       ( -0.0000000 )
                  (     0          0          1      )       ( -0.5000000 )

 cart.    s(22) = ( -0.5000000 -0.8660254  0.0000000 )    f =(  0.0000000 )
                  ( -0.8660254  0.5000000  0.0000000 )       ( -0.0000000 )
                  (  0.0000000  0.0000000  1.0000000 )       ( -0.7991968 )


      isym = 23     inv. 180 deg rotation - cryst. axis [0,1,0]  

 cryst.   s(23) = (     1          1          0      )
                  (     0         -1          0      )
                  (     0          0          1      )

 cart.    s(23) = (  0.5000000  0.8660254  0.0000000 )
                  (  0.8660254 -0.5000000  0.0000000 )
                  (  0.0000000  0.0000000  1.0000000 )


      isym = 24     inv. 180 deg rotation - cryst. axis [1,1,0]  

 cryst.   s(24) = (     0         -1          0      )
                  (    -1          0          0      )
                  (     0          0          1      )

 cart.    s(24) = (  0.5000000 -0.8660254  0.0000000 )
                  ( -0.8660254 -0.5000000  0.0000000 )
                  (  0.0000000  0.0000000  1.0000000 )


     point group D_6h(6/mmm)
     there are 12 classes
     the character table:

       E     2C6   2C3   C2    3C2'  3C2'' i     2S3   2S6   s_h   3s_d  3s_v 
A_1g   1.00  1.00  1.00  1.00  1.00  1.00  1.00  1.00  1.00  1.00  1.00  1.00
A_2g   1.00  1.00  1.00  1.00 -1.00 -1.00  1.00  1.00  1.00  1.00 -1.00 -1.00
B_1g   1.00 -1.00  1.00 -1.00  1.00 -1.00  1.00 -1.00  1.00 -1.00  1.00 -1.00
B_2g   1.00 -1.00  1.00 -1.00 -1.00  1.00  1.00 -1.00  1.00 -1.00 -1.00  1.00
E_1g   2.00  1.00 -1.00 -2.00  0.00  0.00  2.00  1.00 -1.00 -2.00  0.00  0.00
E_2g   2.00 -1.00 -1.00  2.00  0.00  0.00  2.00 -1.00 -1.00  2.00  0.00  0.00
A_1u   1.00  1.00  1.00  1.00  1.00  1.00 -1.00 -1.00 -1.00 -1.00 -1.00 -1.00
A_2u   1.00  1.00  1.00  1.00 -1.00 -1.00 -1.00 -1.00 -1.00 -1.00  1.00  1.00
B_1u   1.00 -1.00  1.00 -1.00  1.00 -1.00 -1.00  1.00 -1.00  1.00 -1.00  1.00
B_2u   1.00 -1.00  1.00 -1.00 -1.00  1.00 -1.00  1.00 -1.00  1.00  1.00 -1.00
E_1u   2.00  1.00 -1.00 -2.00  0.00  0.00 -2.00 -1.00  1.00  2.00  0.00  0.00
E_2u   2.00 -1.00 -1.00  2.00  0.00  0.00 -2.00  1.00  1.00 -2.00  0.00  0.00

     the symmetry operations in each class and the name of the first element:

     E        1
          identity                                               
     2C6      5    6
           60 deg rotation - cryst. axis [0,0,1]                 
     2C3      7    8
          120 deg rotation - cryst. axis [0,0,1]                 
     C2       2
          180 deg rotation - cart. axis [0,0,1]                  
     3C2'     4   12   11
          180 deg rotation - cart. axis [1,0,0]                  
     3C2''    3    9   10
          180 deg rotation - cart. axis [0,1,0]                  
     i       13
          inversion                                              
     2S3     17   18
          inv.  60 deg rotation - cryst. axis [0,0,1]            
     2S6     19   20
          inv. 120 deg rotation - cryst. axis [0,0,1]            
     s_h     14
          inv. 180 deg rotation - cart. axis [0,0,1]             
     3s_d    16   24   23
          inv. 180 deg rotation - cart. axis [1,0,0]             
     3s_v    15   21   22
          inv. 180 deg rotation - cart. axis [0,1,0]             

   Cartesian axes

     site n.     atom                  positions (alat units)
         1           Co  tau(   1) = (  -0.0000000   0.5773503   0.3995984  )
         2           Co  tau(   2) = (   0.5000000   0.2886751   1.1987952  )

   Crystallographic axes

     site n.     atom                  positions (cryst. coord.)
         1           Co  tau(   1) = (  0.3333333  0.6666667  0.2500000  )
         2           Co  tau(   2) = (  0.6666667  0.3333333  0.7500000  )

     number of k points=    76  Gaussian smearing, width (Ry)=  0.0010
                       cart. coord. in units 2pi/alat
        k(    1) = (   0.0000000   0.0000000   0.0000000), wk =   0.0011574
        k(    2) = (   0.0000000   0.0000000   0.1042714), wk =   0.0023148
        k(    3) = (   0.0000000   0.0000000   0.2085427), wk =   0.0023148
        k(    4) = (   0.0000000   0.0000000  -0.3128141), wk =   0.0011574
        k(    5) = (   0.0000000   0.0962250   0.0000000), wk =   0.0069444
        k(    6) = (   0.0000000   0.0962250   0.1042714), wk =   0.0138889
        k(    7) = (   0.0000000   0.0962250   0.2085427), wk =   0.0138889
        k(    8) = (   0.0000000   0.0962250  -0.3128141), wk =   0.0069444
        k(    9) = (   0.0000000   0.1924501   0.0000000), wk =   0.0069444
        k(   10) = (   0.0000000   0.1924501   0.1042714), wk =   0.0138889
        k(   11) = (   0.0000000   0.1924501   0.2085427), wk =   0.0138889
        k(   12) = (   0.0000000   0.1924501  -0.3128141), wk =   0.0069444
        k(   13) = (   0.0000000   0.2886751   0.0000000), wk =   0.0069444
        k(   14) = (   0.0000000   0.2886751   0.1042714), wk =   0.0138889
        k(   15) = (   0.0000000   0.2886751   0.2085427), wk =   0.0138889
        k(   16) = (   0.0000000   0.2886751  -0.3128141), wk =   0.0069444
        k(   17) = (   0.0000000   0.3849002   0.0000000), wk =   0.0069444
        k(   18) = (   0.0000000   0.3849002   0.1042714), wk =   0.0138889
        k(   19) = (   0.0000000   0.3849002   0.2085427), wk =   0.0138889
        k(   20) = (   0.0000000   0.3849002  -0.3128141), wk =   0.0069444
        k(   21) = (   0.0000000   0.4811252   0.0000000), wk =   0.0069444
        k(   22) = (   0.0000000   0.4811252   0.1042714), wk =   0.0138889
        k(   23) = (   0.0000000   0.4811252   0.2085427), wk =   0.0138889
        k(   24) = (   0.0000000   0.4811252  -0.3128141), wk =   0.0069444
        k(   25) = (   0.0000000  -0.5773503   0.0000000), wk =   0.0034722
        k(   26) = (   0.0000000  -0.5773503   0.1042714), wk =   0.0069444
        k(   27) = (   0.0000000  -0.5773503   0.2085427), wk =   0.0069444
        k(   28) = (   0.0000000  -0.5773503  -0.3128141), wk =   0.0034722
        k(   29) = (   0.0833333   0.1443376   0.0000000), wk =   0.0069444
        k(   30) = (   0.0833333   0.1443376   0.1042714), wk =   0.0138889
        k(   31) = (   0.0833333   0.1443376   0.2085427), wk =   0.0138889
        k(   32) = (   0.0833333   0.1443376  -0.3128141), wk =   0.0069444
        k(   33) = (   0.0833333   0.2405626   0.0000000), wk =   0.0138889
        k(   34) = (   0.0833333   0.2405626   0.1042714), wk =   0.0277778
        k(   35) = (   0.0833333   0.2405626   0.2085427), wk =   0.0277778
        k(   36) = (   0.0833333   0.2405626  -0.3128141), wk =   0.0138889
        k(   37) = (   0.0833333   0.3367877   0.0000000), wk =   0.0138889
        k(   38) = (   0.0833333   0.3367877   0.1042714), wk =   0.0277778
        k(   39) = (   0.0833333   0.3367877   0.2085427), wk =   0.0277778
        k(   40) = (   0.0833333   0.3367877  -0.3128141), wk =   0.0138889
        k(   41) = (   0.0833333   0.4330127   0.0000000), wk =   0.0138889
        k(   42) = (   0.0833333   0.4330127   0.1042714), wk =   0.0277778
        k(   43) = (   0.0833333   0.4330127   0.2085427), wk =   0.0277778
        k(   44) = (   0.0833333   0.4330127  -0.3128141), wk =   0.0138889
        k(   45) = (   0.0833333   0.5292377   0.0000000), wk =   0.0138889
        k(   46) = (   0.0833333   0.5292377   0.1042714), wk =   0.0277778
        k(   47) = (   0.0833333   0.5292377   0.2085427), wk =   0.0277778
        k(   48) = (   0.0833333   0.5292377  -0.3128141), wk =   0.0138889
        k(   49) = (   0.1666667   0.2886751   0.0000000), wk =   0.0069444
        k(   50) = (   0.1666667   0.2886751   0.1042714), wk =   0.0138889
        k(   51) = (   0.1666667   0.2886751   0.2085427), wk =   0.0138889
        k(   52) = (   0.1666667   0.2886751  -0.3128141), wk =   0.0069444
        k(   53) = (   0.1666667   0.3849002   0.0000000), wk =   0.0138889
        k(   54) = (   0.1666667   0.3849002   0.1042714), wk =   0.0277778
        k(   55) = (   0.1666667   0.3849002   0.2085427), wk =   0.0277778
        k(   56) = (   0.1666667   0.3849002  -0.3128141), wk =   0.0138889
        k(   57) = (   0.1666667   0.4811252   0.0000000), wk =   0.0138889
        k(   58) = (   0.1666667   0.4811252   0.1042714), wk =   0.0277778
        k(   59) = (   0.1666667   0.4811252   0.2085427), wk =   0.0277778
        k(   60) = (   0.1666667   0.4811252  -0.3128141), wk =   0.0138889
        k(   61) = (   0.1666667   0.5773503   0.0000000), wk =   0.0069444
        k(   62) = (   0.1666667   0.5773503   0.1042714), wk =   0.0138889
        k(   63) = (   0.1666667   0.5773503   0.2085427), wk =   0.0138889
        k(   64) = (   0.1666667   0.5773503  -0.3128141), wk =   0.0069444
        k(   65) = (   0.2500000   0.4330127   0.0000000), wk =   0.0069444
        k(   66) = (   0.2500000   0.4330127   0.1042714), wk =   0.0138889
        k(   67) = (   0.2500000   0.4330127   0.2085427), wk =   0.0138889
        k(   68) = (   0.2500000   0.4330127  -0.3128141), wk =   0.0069444
        k(   69) = (   0.2500000   0.5292377   0.0000000), wk =   0.0138889
        k(   70) = (   0.2500000   0.5292377   0.1042714), wk =   0.0277778
        k(   71) = (   0.2500000   0.5292377   0.2085427), wk =   0.0277778
        k(   72) = (   0.2500000   0.5292377  -0.3128141), wk =   0.0138889
        k(   73) = (   0.3333333   0.5773503   0.0000000), wk =   0.0023148
        k(   74) = (   0.3333333   0.5773503   0.1042714), wk =   0.0046296
        k(   75) = (   0.3333333   0.5773503   0.2085427), wk =   0.0046296
        k(   76) = (   0.3333333   0.5773503  -0.3128141), wk =   0.0023148

                       cryst. coord.
        k(    1) = (   0.0000000   0.0000000   0.0000000), wk =   0.0011574
        k(    2) = (   0.0000000   0.0000000   0.1666667), wk =   0.0023148
        k(    3) = (   0.0000000   0.0000000   0.3333333), wk =   0.0023148
        k(    4) = (   0.0000000   0.0000000  -0.5000000), wk =   0.0011574
        k(    5) = (   0.0000000   0.0833333   0.0000000), wk =   0.0069444
        k(    6) = (   0.0000000   0.0833333   0.1666667), wk =   0.0138889
        k(    7) = (   0.0000000   0.0833333   0.3333333), wk =   0.0138889
        k(    8) = (   0.0000000   0.0833333  -0.5000000), wk =   0.0069444
        k(    9) = (   0.0000000   0.1666667   0.0000000), wk =   0.0069444
        k(   10) = (   0.0000000   0.1666667   0.1666667), wk =   0.0138889
        k(   11) = (   0.0000000   0.1666667   0.3333333), wk =   0.0138889
        k(   12) = (   0.0000000   0.1666667  -0.5000000), wk =   0.0069444
        k(   13) = (   0.0000000   0.2500000   0.0000000), wk =   0.0069444
        k(   14) = (   0.0000000   0.2500000   0.1666667), wk =   0.0138889
        k(   15) = (   0.0000000   0.2500000   0.3333333), wk =   0.0138889
        k(   16) = (   0.0000000   0.2500000  -0.5000000), wk =   0.0069444
        k(   17) = (   0.0000000   0.3333333   0.0000000), wk =   0.0069444
        k(   18) = (   0.0000000   0.3333333   0.1666667), wk =   0.0138889
        k(   19) = (   0.0000000   0.3333333   0.3333333), wk =   0.0138889
        k(   20) = (   0.0000000   0.3333333  -0.5000000), wk =   0.0069444
        k(   21) = (   0.0000000   0.4166667   0.0000000), wk =   0.0069444
        k(   22) = (   0.0000000   0.4166667   0.1666667), wk =   0.0138889
        k(   23) = (   0.0000000   0.4166667   0.3333333), wk =   0.0138889
        k(   24) = (   0.0000000   0.4166667  -0.5000000), wk =   0.0069444
        k(   25) = (   0.0000000  -0.5000000   0.0000000), wk =   0.0034722
        k(   26) = (   0.0000000  -0.5000000   0.1666667), wk =   0.0069444
        k(   27) = (   0.0000000  -0.5000000   0.3333333), wk =   0.0069444
        k(   28) = (   0.0000000  -0.5000000  -0.5000000), wk =   0.0034722
        k(   29) = (   0.0833333   0.0833333   0.0000000), wk =   0.0069444
        k(   30) = (   0.0833333   0.0833333   0.1666667), wk =   0.0138889
        k(   31) = (   0.0833333   0.0833333   0.3333333), wk =   0.0138889
        k(   32) = (   0.0833333   0.0833333  -0.5000000), wk =   0.0069444
        k(   33) = (   0.0833333   0.1666667   0.0000000), wk =   0.0138889
        k(   34) = (   0.0833333   0.1666667   0.1666667), wk =   0.0277778
        k(   35) = (   0.0833333   0.1666667   0.3333333), wk =   0.0277778
        k(   36) = (   0.0833333   0.1666667  -0.5000000), wk =   0.0138889
        k(   37) = (   0.0833333   0.2500000   0.0000000), wk =   0.0138889
        k(   38) = (   0.0833333   0.2500000   0.1666667), wk =   0.0277778
        k(   39) = (   0.0833333   0.2500000   0.3333333), wk =   0.0277778
        k(   40) = (   0.0833333   0.2500000  -0.5000000), wk =   0.0138889
        k(   41) = (   0.0833333   0.3333333   0.0000000), wk =   0.0138889
        k(   42) = (   0.0833333   0.3333333   0.1666667), wk =   0.0277778
        k(   43) = (   0.0833333   0.3333333   0.3333333), wk =   0.0277778
        k(   44) = (   0.0833333   0.3333333  -0.5000000), wk =   0.0138889
        k(   45) = (   0.0833333   0.4166667   0.0000000), wk =   0.0138889
        k(   46) = (   0.0833333   0.4166667   0.1666667), wk =   0.0277778
        k(   47) = (   0.0833333   0.4166667   0.3333333), wk =   0.0277778
        k(   48) = (   0.0833333   0.4166667  -0.5000000), wk =   0.0138889
        k(   49) = (   0.1666667   0.1666667   0.0000000), wk =   0.0069444
        k(   50) = (   0.1666667   0.1666667   0.1666667), wk =   0.0138889
        k(   51) = (   0.1666667   0.1666667   0.3333333), wk =   0.0138889
        k(   52) = (   0.1666667   0.1666667  -0.5000000), wk =   0.0069444
        k(   53) = (   0.1666667   0.2500000   0.0000000), wk =   0.0138889
        k(   54) = (   0.1666667   0.2500000   0.1666667), wk =   0.0277778
        k(   55) = (   0.1666667   0.2500000   0.3333333), wk =   0.0277778
        k(   56) = (   0.1666667   0.2500000  -0.5000000), wk =   0.0138889
        k(   57) = (   0.1666667   0.3333333   0.0000000), wk =   0.0138889
        k(   58) = (   0.1666667   0.3333333   0.1666667), wk =   0.0277778
        k(   59) = (   0.1666667   0.3333333   0.3333333), wk =   0.0277778
        k(   60) = (   0.1666667   0.3333333  -0.5000000), wk =   0.0138889
        k(   61) = (   0.1666667   0.4166667   0.0000000), wk =   0.0069444
        k(   62) = (   0.1666667   0.4166667   0.1666667), wk =   0.0138889
        k(   63) = (   0.1666667   0.4166667   0.3333333), wk =   0.0138889
        k(   64) = (   0.1666667   0.4166667  -0.5000000), wk =   0.0069444
        k(   65) = (   0.2500000   0.2500000   0.0000000), wk =   0.0069444
        k(   66) = (   0.2500000   0.2500000   0.1666667), wk =   0.0138889
        k(   67) = (   0.2500000   0.2500000   0.3333333), wk =   0.0138889
        k(   68) = (   0.2500000   0.2500000  -0.5000000), wk =   0.0069444
        k(   69) = (   0.2500000   0.3333333   0.0000000), wk =   0.0138889
        k(   70) = (   0.2500000   0.3333333   0.1666667), wk =   0.0277778
        k(   71) = (   0.2500000   0.3333333   0.3333333), wk =   0.0277778
        k(   72) = (   0.2500000   0.3333333  -0.5000000), wk =   0.0138889
        k(   73) = (   0.3333333   0.3333333   0.0000000), wk =   0.0023148
        k(   74) = (   0.3333333   0.3333333   0.1666667), wk =   0.0046296
        k(   75) = (   0.3333333   0.3333333   0.3333333), wk =   0.0046296
        k(   76) = (   0.3333333   0.3333333  -0.5000000), wk =   0.0023148

     Dense  grid:    23163 G-vectors     FFT dimensions: (  32,  32,  54)

     Smooth grid:    22455 G-vectors     FFT dimensions: (  32,  32,  54)

     Dynamical RAM for                 wfc:       0.06 MB

     Dynamical RAM for     wfc (w. buffer):       4.93 MB

     Dynamical RAM for           str. fact:       0.03 MB

     Dynamical RAM for           local pot:       0.00 MB

     Dynamical RAM for          nlocal pot:       0.11 MB

     Dynamical RAM for                qrad:       1.70 MB

     Dynamical RAM for          rho,v,vnew:       0.34 MB

     Dynamical RAM for               rhoin:       0.11 MB

     Dynamical RAM for            rho*nmix:       0.81 MB

     Dynamical RAM for           G-vectors:       0.11 MB

     Dynamical RAM for          h,s,v(r/c):       0.08 MB

     Dynamical RAM for          <psi|beta>:       0.01 MB

     Dynamical RAM for                 psi:       0.13 MB

     Dynamical RAM for                hpsi:       0.13 MB

     Dynamical RAM for                spsi:       0.13 MB

     Dynamical RAM for      wfcinit/wfcrot:       0.14 MB

     Dynamical RAM for           addusdens:       2.41 MB

     Estimated static dynamical RAM per process >       7.57 MB

     Estimated max dynamical RAM per process >      10.78 MB

     Estimated total dynamical RAM >     290.63 MB

     Check: negative core charge=   -0.000043
     Generating pointlists ...
     new r_m :   0.4067 (alat units)  1.9137 (a.u.) for type    1

     The initial density is read from file :
     ./out2/Co.save/charge-density


     starting charge      34.0428, renormalised to      34.0000

     negative rho (up, down):  1.197E-01 9.804E-02
     Starting wfcs from file
     Checking if some PAW data can be deallocated... 

     total cpu time spent up to now is        0.5 secs

     Self-consistent Calculation

     iteration #  1     ecut=   110.00 Ry     beta= 0.70
     Davidson diagonalization with overlap

---- Real-time Memory Report at c_bands before calling an iterative solver
            60 MiB given to the printing process from OS
             0 MiB allocation reported by mallinfo(arena+hblkhd)
        181383 MiB available memory on the node where the printing process lives
------------------
     c_bands:  1 eigenvalues not converged
     ethr =  1.00E-05,  avg # of iterations =  9.5

     negative rho (up, down):  2.046E-03 1.285E-03

     total cpu time spent up to now is        3.0 secs

     total energy              =    -753.30898914 Ry
     estimated scf accuracy    <       0.05100353 Ry

     total magnetization       =     3.31 Bohr mag/cell
     absolute magnetization    =     3.58 Bohr mag/cell

     iteration #  2     ecut=   110.00 Ry     beta= 0.70
     Davidson diagonalization with overlap

---- Real-time Memory Report at c_bands before calling an iterative solver
            84 MiB given to the printing process from OS
             0 MiB allocation reported by mallinfo(arena+hblkhd)
        181060 MiB available memory on the node where the printing process lives
------------------
     ethr =  1.50E-04,  avg # of iterations =  2.4

     negative rho (up, down):  1.410E-04 3.296E-05

     total cpu time spent up to now is        3.9 secs

     total energy              =    -753.39040850 Ry
     estimated scf accuracy    <       0.02698084 Ry

     total magnetization       =     3.23 Bohr mag/cell
     absolute magnetization    =     3.49 Bohr mag/cell

     iteration #  3     ecut=   110.00 Ry     beta= 0.70
     Davidson diagonalization with overlap

---- Real-time Memory Report at c_bands before calling an iterative solver
            87 MiB given to the printing process from OS
             0 MiB allocation reported by mallinfo(arena+hblkhd)
        181040 MiB available memory on the node where the printing process lives
------------------
     ethr =  7.94E-05,  avg # of iterations =  3.9

     total cpu time spent up to now is        5.0 secs

     total energy              =    -753.45471644 Ry
     estimated scf accuracy    <       0.02526993 Ry

     total magnetization       =     3.26 Bohr mag/cell
     absolute magnetization    =     3.56 Bohr mag/cell

     iteration #  4     ecut=   110.00 Ry     beta= 0.70
     Davidson diagonalization with overlap

---- Real-time Memory Report at c_bands before calling an iterative solver
            88 MiB given to the printing process from OS
             0 MiB allocation reported by mallinfo(arena+hblkhd)
        181027 MiB available memory on the node where the printing process lives
------------------
     ethr =  7.43E-05,  avg # of iterations =  2.0

     total cpu time spent up to now is        5.8 secs

     total energy              =    -753.45277415 Ry
     estimated scf accuracy    <       0.00748514 Ry

     total magnetization       =     3.26 Bohr mag/cell
     absolute magnetization    =     3.57 Bohr mag/cell

     iteration #  5     ecut=   110.00 Ry     beta= 0.70
     Davidson diagonalization with overlap

---- Real-time Memory Report at c_bands before calling an iterative solver
            88 MiB given to the printing process from OS
             0 MiB allocation reported by mallinfo(arena+hblkhd)
        181019 MiB available memory on the node where the printing process lives
------------------
     ethr =  2.20E-05,  avg # of iterations =  3.8

     total cpu time spent up to now is        6.8 secs

     total energy              =    -753.45469820 Ry
     estimated scf accuracy    <       0.00004067 Ry

     total magnetization       =     3.25 Bohr mag/cell
     absolute magnetization    =     3.56 Bohr mag/cell

     iteration #  6     ecut=   110.00 Ry     beta= 0.70
     Davidson diagonalization with overlap

---- Real-time Memory Report at c_bands before calling an iterative solver
            88 MiB given to the printing process from OS
             0 MiB allocation reported by mallinfo(arena+hblkhd)
        181015 MiB available memory on the node where the printing process lives
------------------
     ethr =  1.20E-07,  avg # of iterations =  7.1

     total cpu time spent up to now is        8.6 secs

     total energy              =    -753.45493241 Ry
     estimated scf accuracy    <       0.00001616 Ry

     total magnetization       =     3.26 Bohr mag/cell
     absolute magnetization    =     3.57 Bohr mag/cell

     iteration #  7     ecut=   110.00 Ry     beta= 0.70
     Davidson diagonalization with overlap

---- Real-time Memory Report at c_bands before calling an iterative solver
            89 MiB given to the printing process from OS
             0 MiB allocation reported by mallinfo(arena+hblkhd)
        181011 MiB available memory on the node where the printing process lives
------------------
     ethr =  4.75E-08,  avg # of iterations =  2.3

     total cpu time spent up to now is        9.5 secs

     total energy              =    -753.45494454 Ry
     estimated scf accuracy    <       0.00000990 Ry

     total magnetization       =     3.26 Bohr mag/cell
     absolute magnetization    =     3.57 Bohr mag/cell

     iteration #  8     ecut=   110.00 Ry     beta= 0.70
     Davidson diagonalization with overlap

---- Real-time Memory Report at c_bands before calling an iterative solver
            90 MiB given to the printing process from OS
             0 MiB allocation reported by mallinfo(arena+hblkhd)
        181007 MiB available memory on the node where the printing process lives
------------------
     ethr =  2.91E-08,  avg # of iterations =  4.5

     total cpu time spent up to now is       10.7 secs

     total energy              =    -753.45493075 Ry
     estimated scf accuracy    <       0.00004119 Ry

     total magnetization       =     3.28 Bohr mag/cell
     absolute magnetization    =     3.59 Bohr mag/cell

     iteration #  9     ecut=   110.00 Ry     beta= 0.70
     Davidson diagonalization with overlap

---- Real-time Memory Report at c_bands before calling an iterative solver
            90 MiB given to the printing process from OS
             0 MiB allocation reported by mallinfo(arena+hblkhd)
        181004 MiB available memory on the node where the printing process lives
------------------
     ethr =  2.91E-08,  avg # of iterations =  6.4

     total cpu time spent up to now is       12.3 secs

     total energy              =    -753.45494730 Ry
     estimated scf accuracy    <       0.00006391 Ry

     total magnetization       =     3.28 Bohr mag/cell
     absolute magnetization    =     3.60 Bohr mag/cell

     iteration # 10     ecut=   110.00 Ry     beta= 0.70
     Davidson diagonalization with overlap

---- Real-time Memory Report at c_bands before calling an iterative solver
            91 MiB given to the printing process from OS
             0 MiB allocation reported by mallinfo(arena+hblkhd)
        181001 MiB available memory on the node where the printing process lives
------------------
     ethr =  2.91E-08,  avg # of iterations =  3.3

     total cpu time spent up to now is       13.4 secs

     total energy              =    -753.45495137 Ry
     estimated scf accuracy    <       0.00000958 Ry

     total magnetization       =     3.29 Bohr mag/cell
     absolute magnetization    =     3.61 Bohr mag/cell

     iteration # 11     ecut=   110.00 Ry     beta= 0.70
     Davidson diagonalization with overlap

---- Real-time Memory Report at c_bands before calling an iterative solver
            91 MiB given to the printing process from OS
             0 MiB allocation reported by mallinfo(arena+hblkhd)
        180998 MiB available memory on the node where the printing process lives
------------------
     ethr =  2.82E-08,  avg # of iterations =  1.5

     total cpu time spent up to now is       14.2 secs

     total energy              =    -753.45495176 Ry
     estimated scf accuracy    <       0.00000346 Ry

     total magnetization       =     3.29 Bohr mag/cell
     absolute magnetization    =     3.61 Bohr mag/cell

     iteration # 12     ecut=   110.00 Ry     beta= 0.70
     Davidson diagonalization with overlap

---- Real-time Memory Report at c_bands before calling an iterative solver
            91 MiB given to the printing process from OS
             0 MiB allocation reported by mallinfo(arena+hblkhd)
        180998 MiB available memory on the node where the printing process lives
------------------
     ethr =  1.02E-08,  avg # of iterations =  1.8

     total cpu time spent up to now is       15.0 secs

     total energy              =    -753.45495136 Ry
     estimated scf accuracy    <       0.00000194 Ry

     total magnetization       =     3.29 Bohr mag/cell
     absolute magnetization    =     3.61 Bohr mag/cell

     iteration # 13     ecut=   110.00 Ry     beta= 0.70
     Davidson diagonalization with overlap

---- Real-time Memory Report at c_bands before calling an iterative solver
            91 MiB given to the printing process from OS
             0 MiB allocation reported by mallinfo(arena+hblkhd)
        180997 MiB available memory on the node where the printing process lives
------------------
     ethr =  5.70E-09,  avg # of iterations =  3.4
 
     Magnetic moment per site  (integrated on atomic sphere of radius R)
     atom   1 (R=0.407)  charge= 15.5528  magn=  1.7197
     atom   2 (R=0.407)  charge= 15.5528  magn=  1.7197

     total cpu time spent up to now is       16.0 secs

     End of self-consistent calculation

 ------ SPIN UP ------------


          k = 0.0000 0.0000 0.0000 (  2791 PWs)   bands (ev):

   -77.1050 -77.0415 -40.5138 -40.2163 -40.2163 -40.1628 -40.1628 -40.1575
     9.9410  13.7708  16.3770  16.3770  16.4132  16.7128  16.7128  17.0224
    17.0224  18.2029  18.2029  18.9137  25.6321

     occupation numbers 
     1.0000   1.0000   1.0000   1.0000   1.0000   1.0000   1.0000   1.0000
     1.0000   1.0000   1.0000   1.0000   1.0000   1.0000   1.0000   1.0000
     1.0000   1.0000   1.0000   1.0000   0.0000

          k = 0.0000 0.0000 0.1043 (  2809 PWs)   bands (ev):

   -77.1007 -77.0458 -40.4903 -40.2128 -40.2128 -40.1817 -40.1664 -40.1664
    10.2263  13.7109  16.3008  16.3008  16.3365  16.6308  16.6308  17.2042
    17.2042  17.9244  18.1887  18.1887  27.1900

     occupation numbers 
     1.0000   1.0000   1.0000   1.0000   1.0000   1.0000   1.0000   1.0000
     1.0000   1.0000   1.0000   1.0000   1.0000   1.0000   1.0000   1.0000
     1.0000   1.0000   1.0000   1.0000   0.0000

          k = 0.0000 0.0000 0.2085 (  2785 PWs)   bands (ev):

   -77.0891 -77.0574 -40.4257 -40.2476 -40.2030 -40.2030 -40.1762 -40.1762
    11.0434  13.2959  16.1581  16.2374  16.2374  16.4514  16.4514  16.5449
    17.5538  17.5538  18.1004  18.1004  30.4769

     occupation numbers 
     1.0000   1.0000   1.0000   1.0000   1.0000   1.0000   1.0000   1.0000
     1.0000   1.0000   1.0000   1.0000   1.0000   1.0000   1.0000   1.0000
     1.0000   1.0000   1.0000   1.0000   0.0000

          k = 0.0000 0.0000-0.3128 (  2822 PWs)   bands (ev):

   -77.0733 -77.0733 -40.3370 -40.3370 -40.1896 -40.1896 -40.1896 -40.1896
    12.2283  12.2283  16.0686  16.0686  16.2932  16.2932  16.2932  16.2932
    17.8829  17.8829  17.8829  17.8829  34.3861

     occupation numbers 
     1.0000   1.0000   1.0000   1.0000   1.0000   1.0000   1.0000   1.0000
     1.0000   1.0000   1.0000   1.0000   1.0000   1.0000   1.0000   1.0000
     1.0000   1.0000   1.0000   1.0000   0.0000

          k = 0.0000 0.0962 0.0000 (  2807 PWs)   bands (ev):

   -77.1017 -77.0401 -40.5063 -40.2321 -40.2216 -40.1792 -40.1653 -40.1609
    10.1834  13.9141  16.1459  16.4920  16.6005  16.6708  16.8138  16.8730
    16.9491  17.4077  18.2354  20.0264  25.6707

     occupation numbers 
     1.0000   1.0000   1.0000   1.0000   1.0000   1.0000   1.0000   1.0000
     1.0000   1.0000   1.0000   1.0000   1.0000   1.0000   1.0000   1.0000
     1.0000   1.0000   1.0000   0.0000   0.0000

          k = 0.0000 0.0962 0.1043 (  2802 PWs)   bands (ev):

   -77.0975 -77.0443 -40.4841 -40.2279 -40.2179 -40.1968 -40.1703 -40.1691
    10.4643  13.8692  16.1385  16.3965  16.4090  16.4772  16.7252  17.0628
    17.1612  17.2808  18.2133  19.2166  27.2968

     occupation numbers 
     1.0000   1.0000   1.0000   1.0000   1.0000   1.0000   1.0000   1.0000
     1.0000   1.0000   1.0000   1.0000   1.0000   1.0000   1.0000   1.0000
     1.0000   1.0000   1.0000   0.0000   0.0000

          k = 0.0000 0.0962 0.2085 (  2800 PWs)   bands (ev):

   -77.0863 -77.0555 -40.4234 -40.2564 -40.2163 -40.2076 -40.1843 -40.1794
    11.2683  13.4838  16.0387  16.1165  16.1762  16.3266  16.5450  16.6559
    17.5289  17.5795  18.1074  18.4117  30.6274

     occupation numbers 
     1.0000   1.0000   1.0000   1.0000   1.0000   1.0000   1.0000   1.0000
     1.0000   1.0000   1.0000   1.0000   1.0000   1.0000   1.0000   1.0000
     1.0000   1.0000   1.0000   1.0000   0.0000

          k = 0.0000 0.0962-0.3128 (  2820 PWs)   bands (ev):

   -77.0709 -77.0709 -40.3400 -40.3400 -40.2005 -40.2005 -40.1935 -40.1935
    12.4342  12.4342  15.8950  15.8950  16.3305  16.3305  16.3846  16.3846
    17.8722  17.8722  17.9794  17.9794  34.5500

     occupation numbers 
     1.0000   1.0000   1.0000   1.0000   1.0000   1.0000   1.0000   1.0000
     1.0000   1.0000   1.0000   1.0000   1.0000   1.0000   1.0000   1.0000
     1.0000   1.0000   1.0000   1.0000   0.0000

          k = 0.0000 0.1925 0.0000 (  2803 PWs)   bands (ev):

   -77.0924 -77.0365 -40.4847 -40.2752 -40.2357 -40.2236 -40.1725 -40.1710
    10.8845  14.2680  15.8539  16.1701  16.5020  16.7682  16.8169  16.9144
    17.0128  17.0969  18.3056  21.6378  25.8062

     occupation numbers 
     1.0000   1.0000   1.0000   1.0000   1.0000   1.0000   1.0000   1.0000
     1.0000   1.0000   1.0000   1.0000   1.0000   1.0000   1.0000   1.0000
     1.0000   1.0000   1.0000   0.0000   0.0000

          k = 0.0000 0.1925 0.1043 (  2799 PWs)   bands (ev):

   -77.0887 -77.0403 -40.4672 -40.2690 -40.2399 -40.2315 -40.1790 -40.1767
    11.1487  14.2687  15.8773  15.9041  16.3816  16.5966  16.7854  16.9698
    17.1516  17.2727  18.2656  20.4762  27.6435

     occupation numbers 
     1.0000   1.0000   1.0000   1.0000   1.0000   1.0000   1.0000   1.0000
     1.0000   1.0000   1.0000   1.0000   1.0000   1.0000   1.0000   1.0000
     1.0000   1.0000   1.0000   0.0000   0.0000

          k = 0.0000 0.1925 0.2085 (  2804 PWs)   bands (ev):

   -77.0785 -77.0505 -40.4191 -40.2884 -40.2494 -40.2200 -40.1991 -40.1883
    11.9016  13.9710  15.5249  15.9442  16.0960  16.5436  16.5936  16.8053
    17.5042  17.6822  18.1222  19.0796  31.0758

     occupation numbers 
     1.0000   1.0000   1.0000   1.0000   1.0000   1.0000   1.0000   1.0000
     1.0000   1.0000   1.0000   1.0000   1.0000   1.0000   1.0000   1.0000
     1.0000   1.0000   1.0000   0.0000   0.0000

          k = 0.0000 0.1925-0.3128 (  2802 PWs)   bands (ev):

   -77.0645 -77.0645 -40.3535 -40.3535 -40.2247 -40.2247 -40.2042 -40.2042
    12.9874  12.9874  15.6437  15.6437  16.2844  16.2844  16.6288  16.6288
    17.8568  17.8568  18.2382  18.2382  34.9822

     occupation numbers 
     1.0000   1.0000   1.0000   1.0000   1.0000   1.0000   1.0000   1.0000
     1.0000   1.0000   1.0000   1.0000   1.0000   1.0000   1.0000   1.0000
     1.0000   1.0000   1.0000   1.0000   0.0000

          k = 0.0000 0.2887 0.0000 (  2794 PWs)   bands (ev):

   -77.0793 -77.0321 -40.4523 -40.3348 -40.2832 -40.2545 -40.1878 -40.1828
    11.9455  14.5543  15.4334  15.6674  16.4169  16.5510  16.8166  17.2881
    17.3436  17.5041  18.3733  23.4512  26.0610

     occupation numbers 
     1.0000   1.0000   1.0000   1.0000   1.0000   1.0000   1.0000   1.0000
     1.0000   1.0000   1.0000   1.0000   1.0000   1.0000   1.0000   1.0000
     1.0000   1.0000   1.0000   0.0000   0.0000

          k = 0.0000 0.2887 0.1043 (  2800 PWs)   bands (ev):

   -77.0762 -77.0353 -40.4455 -40.3228 -40.2977 -40.2497 -40.1925 -40.1876
    12.1656  14.6095  15.2821  15.7201  16.2557  16.5890  16.8254  17.3385
    17.4536  17.4626  18.3160  21.7805  28.2557

     occupation numbers 
     1.0000   1.0000   1.0000   1.0000   1.0000   1.0000   1.0000   1.0000
     1.0000   1.0000   1.0000   1.0000   1.0000   1.0000   1.0000   1.0000
     1.0000   1.0000   1.0000   0.0000   0.0000

          k = 0.0000 0.2887 0.2085 (  2812 PWs)   bands (ev):

   -77.0675 -77.0439 -40.4233 -40.3417 -40.2833 -40.2366 -40.2106 -40.2007
    12.7775  14.4042  15.1757  15.7733  16.1009  16.6574  16.7134  17.1753
    17.6219  17.8552  18.1478  19.8736  31.6230

     occupation numbers 
     1.0000   1.0000   1.0000   1.0000   1.0000   1.0000   1.0000   1.0000
     1.0000   1.0000   1.0000   1.0000   1.0000   1.0000   1.0000   1.0000
     1.0000   1.0000   1.0000   0.0000   0.0000

          k = 0.0000 0.2887-0.3128 (  2808 PWs)   bands (ev):

   -77.0558 -77.0558 -40.3860 -40.3860 -40.2435 -40.2435 -40.2187 -40.2187
    13.6228  13.6228  15.4879  15.4879  16.3391  16.3391  16.9238  16.9238
    17.8959  17.8959  18.5968  18.5968  33.4791

     occupation numbers 
     1.0000   1.0000   1.0000   1.0000   1.0000   1.0000   1.0000   1.0000
     1.0000   1.0000   1.0000   1.0000   1.0000   1.0000   1.0000   1.0000
     1.0000   1.0000   1.0000   1.0000   0.0000

          k = 0.0000 0.3849 0.0000 (  2822 PWs)   bands (ev):

   -77.0652 -77.0287 -40.4143 -40.3949 -40.3417 -40.2727 -40.2102 -40.1935
    13.1081  14.4919  14.8938  15.7621  16.3556  16.5418  16.6471  17.7899
    17.9469  18.0231  18.4208  25.4220  26.0138

     occupation numbers 
     1.0000   1.0000   1.0000   1.0000   1.0000   1.0000   1.0000   1.0000
     1.0000   1.0000   1.0000   1.0000   1.0000   1.0000   1.0000   1.0000
     1.0000   1.0000   1.0000   0.0000   0.0000

          k = 0.0000 0.3849 0.1043 (  2807 PWs)   bands (ev):

   -77.0628 -77.0312 -40.4383 -40.3673 -40.3451 -40.2674 -40.2104 -40.1988
    13.2120  14.5376  14.9218  15.6395  16.4373  16.4517  16.9901  17.8169
    17.8484  17.9587  18.3585  23.0255  28.0514

     occupation numbers 
     1.0000   1.0000   1.0000   1.0000   1.0000   1.0000   1.0000   1.0000
     1.0000   1.0000   1.0000   1.0000   1.0000   1.0000   1.0000   1.0000
     1.0000   1.0000   1.0000   0.0000   0.0000

          k = 0.0000 0.3849 0.2085 (  2812 PWs)   bands (ev):

   -77.0561 -77.0379 -40.4467 -40.3979 -40.2962 -40.2530 -40.2203 -40.2134
    13.5025  14.3714  15.0553  15.5909  16.5094  16.7228  17.2711  17.5294
    17.9276  18.0878  18.2217  20.7659  29.1101

     occupation numbers 
     1.0000   1.0000   1.0000   1.0000   1.0000   1.0000   1.0000   1.0000
     1.0000   1.0000   1.0000   1.0000   1.0000   1.0000   1.0000   1.0000
     1.0000   1.0000   1.0000   0.0000   0.0000

          k = 0.0000 0.3849-0.3128 (  2804 PWs)   bands (ev):

   -77.0470 -77.0470 -40.4309 -40.4309 -40.2497 -40.2497 -40.2332 -40.2332
    13.9254  13.9254  15.3708  15.3708  16.9291  16.9291  17.1146  17.1146
    18.0680  18.0680  19.0816  19.0816  30.2597

     occupation numbers 
     1.0000   1.0000   1.0000   1.0000   1.0000   1.0000   1.0000   1.0000
     1.0000   1.0000   1.0000   1.0000   1.0000   1.0000   1.0000   1.0000
     1.0000   1.0000   0.0000   0.0000   0.0000

          k = 0.0000 0.4811 0.0000 (  2814 PWs)   bands (ev):

   -77.0535 -77.0276 -40.4392 -40.3838 -40.3790 -40.2858 -40.2341 -40.2016
    13.8852  14.3048  14.5697  16.1149  16.2224  16.5283  16.7437  18.1642
    18.3151  18.4469  19.1244  24.0252  27.4495

     occupation numbers 
     1.0000   1.0000   1.0000   1.0000   1.0000   1.0000   1.0000   1.0000
     1.0000   1.0000   1.0000   1.0000   1.0000   1.0000   1.0000   1.0000
     1.0000   1.0000   0.0000   0.0000   0.0000

          k = 0.0000 0.4811 0.1043 (  2807 PWs)   bands (ev):

   -77.0518 -77.0293 -40.4599 -40.4033 -40.3433 -40.2802 -40.2295 -40.2072
    13.7780  14.3102  14.8899  15.5417  16.3407  16.7274  17.3333  18.1276
    18.2136  18.4130  18.9593  23.2737  26.6818

     occupation numbers 
     1.0000   1.0000   1.0000   1.0000   1.0000   1.0000   1.0000   1.0000
     1.0000   1.0000   1.0000   1.0000   1.0000   1.0000   1.0000   1.0000
     1.0000   1.0000   0.6102   0.0000   0.0000

          k = 0.0000 0.4811 0.2085 (  2815 PWs)   bands (ev):

   -77.0470 -77.0340 -40.4759 -40.4391 -40.2911 -40.2648 -40.2296 -40.2227
    13.7507  14.2457  15.0457  15.4029  16.6768  16.9489  17.7141  18.2384
    18.3237  18.3608  18.6130  21.5587  26.7786

     occupation numbers 
     1.0000   1.0000   1.0000   1.0000   1.0000   1.0000   1.0000   1.0000
     1.0000   1.0000   1.0000   1.0000   1.0000   1.0000   1.0000   1.0000
     1.0000   1.0000   1.0000   0.0000   0.0000

          k = 0.0000 0.4811-0.3128 (  2802 PWs)   bands (ev):

   -77.0405 -77.0405 -40.4679 -40.4679 -40.2499 -40.2499 -40.2438 -40.2438
    13.9441  13.9441  15.2526  15.2526  17.1711  17.1711  17.6688  17.6688
    18.2985  18.2985  19.8815  19.8815  27.5676

     occupation numbers 
     1.0000   1.0000   1.0000   1.0000   1.0000   1.0000   1.0000   1.0000
     1.0000   1.0000   1.0000   1.0000   1.0000   1.0000   1.0000   1.0000
     1.0000   1.0000   0.0000   0.0000   0.0000

          k = 0.0000-0.5774 0.0000 (  2798 PWs)   bands (ev):

   -77.0486 -77.0278 -40.4555 -40.3991 -40.3624 -40.2906 -40.2465 -40.2045
    14.1533  14.1626  14.4618  16.1753  16.3589  16.4855  16.8230  18.2994
    18.4550  18.4645  20.2664  22.2925  28.7590

     occupation numbers 
     1.0000   1.0000   1.0000   1.0000   1.0000   1.0000   1.0000   1.0000
     1.0000   1.0000   1.0000   1.0000   1.0000   1.0000   1.0000   1.0000
     1.0000   1.0000   0.0000   0.0000   0.0000

          k = 0.0000-0.5774 0.1043 (  2818 PWs)   bands (ev):

   -77.0472 -77.0292 -40.4723 -40.4178 -40.3340 -40.2848 -40.2392 -40.2103
    13.8844  14.2097  14.9285  15.5157  16.3000  16.8202  17.5298  18.2069
    18.3707  18.4561  20.0521  22.1165  27.8509

     occupation numbers 
     1.0000   1.0000   1.0000   1.0000   1.0000   1.0000   1.0000   1.0000
     1.0000   1.0000   1.0000   1.0000   1.0000   1.0000   1.0000   1.0000
     1.0000   1.0000   0.0000   0.0000   0.0000

          k = 0.0000-0.5774 0.2085 (  2822 PWs)   bands (ev):

   -77.0434 -77.0330 -40.4883 -40.4541 -40.2863 -40.2691 -40.2343 -40.2261
    13.7718  14.1971  15.0685  15.3185  16.6548  17.0991  17.7569  18.3719
    18.4330  18.4406  19.7031  21.5179  26.7336

     occupation numbers 
     1.0000   1.0000   1.0000   1.0000   1.0000   1.0000   1.0000   1.0000
     1.0000   1.0000   1.0000   1.0000   1.0000   1.0000   1.0000   1.0000
     1.0000   1.0000   0.0000   0.0000   0.0000

          k = 0.0000-0.5774-0.3128 (  2816 PWs)   bands (ev):

   -77.0382 -77.0382 -40.4820 -40.4820 -40.2494 -40.2494 -40.2477 -40.2477
    13.9255  13.9255  15.2052  15.2052  17.1783  17.1783  17.9243  17.9243
    18.4015  18.4015  20.5032  20.5032  26.3307

     occupation numbers 
     1.0000   1.0000   1.0000   1.0000   1.0000   1.0000   1.0000   1.0000
     1.0000   1.0000   1.0000   1.0000   1.0000   1.0000   1.0000   1.0000
     1.0000   1.0000   0.0000   0.0000   0.0000

          k = 0.0833 0.1443 0.0000 (  2806 PWs)   bands (ev):

   -77.0954 -77.0376 -40.4917 -40.2588 -40.2374 -40.2043 -40.1722 -40.1677
    10.6560  14.1682  15.9168  16.4181  16.5634  16.7270  16.7470  16.7672
    17.0385  17.1279  18.2775  21.1862  25.7598

     occupation numbers 
     1.0000   1.0000   1.0000   1.0000   1.0000   1.0000   1.0000   1.0000
     1.0000   1.0000   1.0000   1.0000   1.0000   1.0000   1.0000   1.0000
     1.0000   1.0000   1.0000   0.0000   0.0000

          k = 0.0833 0.1443 0.1043 (  2805 PWs)   bands (ev):

   -77.0915 -77.0415 -40.4725 -40.2532 -40.2371 -40.2181 -40.1763 -40.1754
    10.9265  14.1542  15.9398  16.0771  16.4236  16.5668  16.7548  16.8871
    17.1926  17.2378  18.2461  20.1347  27.5257

     occupation numbers 
     1.0000   1.0000   1.0000   1.0000   1.0000   1.0000   1.0000   1.0000
     1.0000   1.0000   1.0000   1.0000   1.0000   1.0000   1.0000   1.0000
     1.0000   1.0000   1.0000   0.0000   0.0000

          k = 0.0833 0.1443 0.2085 (  2797 PWs)   bands (ev):

   -77.0810 -77.0521 -40.4200 -40.2770 -40.2379 -40.2187 -40.1926 -40.1873
    11.6992  13.8279  15.6535  15.9927  16.1094  16.4855  16.6034  16.7232
    17.5349  17.6215  18.1221  18.8862  30.9300

     occupation numbers 
     1.0000   1.0000   1.0000   1.0000   1.0000   1.0000   1.0000   1.0000
     1.0000   1.0000   1.0000   1.0000   1.0000   1.0000   1.0000   1.0000
     1.0000   1.0000   1.0000   1.0000   0.0000

          k = 0.0833 0.1443-0.3128 (  2796 PWs)   bands (ev):

   -77.0666 -77.0666 -40.3481 -40.3481 -40.2179 -40.2179 -40.2010 -40.2010
    12.8174  12.8174  15.7056  15.7056  16.2832  16.2832  16.5653  16.5653
    17.8627  17.8627  18.1572  18.1572  34.8633

     occupation numbers 
     1.0000   1.0000   1.0000   1.0000   1.0000   1.0000   1.0000   1.0000
     1.0000   1.0000   1.0000   1.0000   1.0000   1.0000   1.0000   1.0000
     1.0000   1.0000   1.0000   1.0000   0.0000

          k = 0.0833 0.2406 0.0000 (  2806 PWs)   bands (ev):

   -77.0842 -77.0336 -40.4647 -40.3062 -40.2751 -40.2357 -40.1842 -40.1812
    11.5453  14.5306  15.6302  15.7051  16.4499  16.5216  16.9697  17.0230
    17.1555  17.4574  18.3305  22.7973  25.9781

     occupation numbers 
     1.0000   1.0000   1.0000   1.0000   1.0000   1.0000   1.0000   1.0000
     1.0000   1.0000   1.0000   1.0000   1.0000   1.0000   1.0000   1.0000
     1.0000   1.0000   1.0000   0.0000   0.0000

          k = 0.0833 0.2406 0.1043 (  2801 PWs)   bands (ev):

   -77.0808 -77.0370 -40.4527 -40.2976 -40.2822 -40.2405 -40.1896 -40.1847
    11.7875  14.5764  15.4862  15.6802  16.3161  16.5757  16.7684  17.1139
    17.3662  17.4473  18.2916  21.3319  28.0296

     occupation numbers 
     1.0000   1.0000   1.0000   1.0000   1.0000   1.0000   1.0000   1.0000
     1.0000   1.0000   1.0000   1.0000   1.0000   1.0000   1.0000   1.0000
     1.0000   1.0000   1.0000   0.0000   0.0000

          k = 0.0833 0.2406 0.2085 (  2812 PWs)   bands (ev):

   -77.0716 -77.0463 -40.4190 -40.3203 -40.2695 -40.2367 -40.2041 -40.1984
    12.4709  14.3467  15.2603  15.7863  16.0527  16.4856  16.6941  17.0434
    17.6256  17.7598  18.1644  19.5982  31.5137

     occupation numbers 
     1.0000   1.0000   1.0000   1.0000   1.0000   1.0000   1.0000   1.0000
     1.0000   1.0000   1.0000   1.0000   1.0000   1.0000   1.0000   1.0000
     1.0000   1.0000   1.0000   0.0000   0.0000

          k = 0.0833 0.2406-0.3128 (  2794 PWs)   bands (ev):

   -77.0590 -77.0590 -40.3708 -40.3708 -40.2398 -40.2398 -40.2136 -40.2136
    13.4413  13.4413  15.5385  15.5385  16.1813  16.1813  16.8464  16.8464
    17.9057  17.9057  18.4682  18.4682  35.0255

     occupation numbers 
     1.0000   1.0000   1.0000   1.0000   1.0000   1.0000   1.0000   1.0000
     1.0000   1.0000   1.0000   1.0000   1.0000   1.0000   1.0000   1.0000
     1.0000   1.0000   1.0000   1.0000   0.0000

          k = 0.0833 0.3368 0.0000 (  2802 PWs)   bands (ev):

   -77.0705 -77.0298 -40.4292 -40.3646 -40.3234 -40.2640 -40.2011 -40.1970
    12.6929  14.6546  15.1144  15.5406  16.3309  16.4690  16.7789  17.4214
    17.6643  18.0255  18.3758  24.6506  26.2832

     occupation numbers 
     1.0000   1.0000   1.0000   1.0000   1.0000   1.0000   1.0000   1.0000
     1.0000   1.0000   1.0000   1.0000   1.0000   1.0000   1.0000   1.0000
     1.0000   1.0000   1.0000   0.0000   0.0000

          k = 0.0833 0.3368 0.1043 (  2805 PWs)   bands (ev):

   -77.0678 -77.0325 -40.4349 -40.3494 -40.3280 -40.2635 -40.2061 -40.1975
    12.8626  14.7333  15.0134  15.5953  16.2285  16.5660  16.7646  17.4350
    17.7634  17.8961  18.3725  22.6118  28.6923

     occupation numbers 
     1.0000   1.0000   1.0000   1.0000   1.0000   1.0000   1.0000   1.0000
     1.0000   1.0000   1.0000   1.0000   1.0000   1.0000   1.0000   1.0000
     1.0000   1.0000   1.0000   0.0000   0.0000

          k = 0.0833 0.3368 0.2085 (  2803 PWs)   bands (ev):

   -77.0604 -77.0400 -40.4318 -40.3741 -40.2923 -40.2545 -40.2203 -40.2066
    13.3214  14.5190  15.1030  15.6971  16.1253  16.6078  16.7864  17.3851
    17.8601  18.0271  18.3255  20.4666  30.7520

     occupation numbers 
     1.0000   1.0000   1.0000   1.0000   1.0000   1.0000   1.0000   1.0000
     1.0000   1.0000   1.0000   1.0000   1.0000   1.0000   1.0000   1.0000
     1.0000   1.0000   1.0000   0.0000   0.0000

          k = 0.0833 0.3368-0.3128 (  2808 PWs)   bands (ev):

   -77.0502 -77.0502 -40.4093 -40.4093 -40.2550 -40.2550 -40.2256 -40.2256
    13.9329  13.9329  15.4674  15.4674  16.3430  16.3430  17.0541  17.0541
    18.0954  18.0954  18.9338  18.9338  31.9661

     occupation numbers 
     1.0000   1.0000   1.0000   1.0000   1.0000   1.0000   1.0000   1.0000
     1.0000   1.0000   1.0000   1.0000   1.0000   1.0000   1.0000   1.0000
     1.0000   1.0000   0.9983   0.9983   0.0000

          k = 0.0833 0.4330 0.0000 (  2814 PWs)   bands (ev):

   -77.0574 -77.0277 -40.4166 -40.3914 -40.3663 -40.2857 -40.2253 -40.2080
    13.7114  14.4840  14.7121  15.7597  16.2044  16.5937  16.6622  17.9186
    18.1010  18.4048  18.8260  25.3978  26.6578

     occupation numbers 
     1.0000   1.0000   1.0000   1.0000   1.0000   1.0000   1.0000   1.0000
     1.0000   1.0000   1.0000   1.0000   1.0000   1.0000   1.0000   1.0000
     1.0000   1.0000   1.0000   0.0000   0.0000

          k = 0.0833 0.4330 0.1043 (  2816 PWs)   bands (ev):

   -77.0554 -77.0297 -40.4434 -40.3877 -40.3458 -40.2816 -40.2250 -40.2098
    13.7083  14.5208  14.8604  15.5443  16.2873  16.6463  16.9415  17.8636
    18.1672  18.2066  18.8322  23.6558  27.1474

     occupation numbers 
     1.0000   1.0000   1.0000   1.0000   1.0000   1.0000   1.0000   1.0000
     1.0000   1.0000   1.0000   1.0000   1.0000   1.0000   1.0000   1.0000
     1.0000   1.0000   1.0000   0.0000   0.0000

          k = 0.0833 0.4330 0.2085 (  2812 PWs)   bands (ev):

   -77.0500 -77.0351 -40.4586 -40.4203 -40.2983 -40.2656 -40.2359 -40.2144
    13.7998  14.4005  15.0454  15.5521  16.3985  16.8341  17.3086  17.5950
    18.0507  18.3486  18.8975  21.4705  27.8538

     occupation numbers 
     1.0000   1.0000   1.0000   1.0000   1.0000   1.0000   1.0000   1.0000
     1.0000   1.0000   1.0000   1.0000   1.0000   1.0000   1.0000   1.0000
     1.0000   1.0000   1.0000   0.0000   0.0000

          k = 0.0833 0.4330-0.3128 (  2808 PWs)   bands (ev):

   -77.0426 -77.0426 -40.4492 -40.4492 -40.2653 -40.2653 -40.2321 -40.2321
    14.0562  14.0562  15.3591  15.3591  16.8507  16.8507  17.2468  17.2468
    18.2990  18.2990  19.7606  19.7606  28.9209

     occupation numbers 
     1.0000   1.0000   1.0000   1.0000   1.0000   1.0000   1.0000   1.0000
     1.0000   1.0000   1.0000   1.0000   1.0000   1.0000   1.0000   1.0000
     1.0000   1.0000   0.0000   0.0000   0.0000

          k = 0.0833 0.5292 0.0000 (  2807 PWs)   bands (ev):

   -77.0486 -77.0278 -40.4468 -40.3912 -40.3626 -40.2976 -40.2463 -40.2144
    14.1763  14.3208  14.5101  16.1183  16.1495  16.4742  16.8190  18.2720
    18.3432  18.4180  20.0930  23.0510  28.5670

     occupation numbers 
     1.0000   1.0000   1.0000   1.0000   1.0000   1.0000   1.0000   1.0000
     1.0000   1.0000   1.0000   1.0000   1.0000   1.0000   1.0000   1.0000
     1.0000   1.0000   0.0000   0.0000   0.0000

          k = 0.0833 0.5292 0.1043 (  2815 PWs)   bands (ev):

   -77.0472 -77.0292 -40.4636 -40.4104 -40.3366 -40.2895 -40.2417 -40.2170
    13.9633  14.3416  14.9529  15.4929  16.2088  16.8538  17.1873  18.1602
    18.3185  18.3812  20.0230  22.7971  27.2514

     occupation numbers 
     1.0000   1.0000   1.0000   1.0000   1.0000   1.0000   1.0000   1.0000
     1.0000   1.0000   1.0000   1.0000   1.0000   1.0000   1.0000   1.0000
     1.0000   1.0000   0.0000   0.0000   0.0000

          k = 0.0833 0.5292 0.2085 (  2819 PWs)   bands (ev):

   -77.0434 -77.0330 -40.4797 -40.4464 -40.2997 -40.2645 -40.2482 -40.2200
    13.8756  14.3248  15.0749  15.4224  16.3891  17.1531  17.5976  17.8285
    18.2690  18.4711  20.0597  21.9489  26.4726

     occupation numbers 
     1.0000   1.0000   1.0000   1.0000   1.0000   1.0000   1.0000   1.0000
     1.0000   1.0000   1.0000   1.0000   1.0000   1.0000   1.0000   1.0000
     1.0000   1.0000   0.0000   0.0000   0.0000

          k = 0.0833 0.5292-0.3128 (  2816 PWs)   bands (ev):

   -77.0382 -77.0382 -40.4737 -40.4737 -40.2716 -40.2716 -40.2339 -40.2339
    14.0396  14.0396  15.2758  15.2758  16.9622  16.9622  17.6819  17.6819
    18.3406  18.3406  20.8131  20.8131  26.7393

     occupation numbers 
     1.0000   1.0000   1.0000   1.0000   1.0000   1.0000   1.0000   1.0000
     1.0000   1.0000   1.0000   1.0000   1.0000   1.0000   1.0000   1.0000
     1.0000   1.0000   0.0000   0.0000   0.0000

          k = 0.1667 0.2887 0.0000 (  2798 PWs)   bands (ev):

   -77.0724 -77.0302 -40.4343 -40.3401 -40.3302 -40.2538 -40.2052 -40.1980
    12.5463  14.8228  15.2297  15.3285  16.2653  16.4621  16.8664  17.1945
    17.6523  18.0437  18.3385  24.3894  26.3433

     occupation numbers 
     1.0000   1.0000   1.0000   1.0000   1.0000   1.0000   1.0000   1.0000
     1.0000   1.0000   1.0000   1.0000   1.0000   1.0000   1.0000   1.0000
     1.0000   1.0000   1.0000   0.0000   0.0000

          k = 0.1667 0.2887 0.1043 (  2802 PWs)   bands (ev):

   -77.0696 -77.0331 -40.4345 -40.3373 -40.3222 -40.2615 -40.2098 -40.1966
    12.7384  14.9246  15.0892  15.3834  16.2468  16.4722  16.7308  17.2608
    17.7802  17.8876  18.3838  22.4728  28.7319

     occupation numbers 
     1.0000   1.0000   1.0000   1.0000   1.0000   1.0000   1.0000   1.0000
     1.0000   1.0000   1.0000   1.0000   1.0000   1.0000   1.0000   1.0000
     1.0000   1.0000   1.0000   0.0000   0.0000

          k = 0.1667 0.2887 0.2085 (  2809 PWs)   bands (ev):

   -77.0619 -77.0408 -40.4250 -40.3638 -40.2846 -40.2635 -40.2209 -40.2044
    13.2639  14.6440  15.2018  15.5443  16.0795  16.3293  16.7162  17.3225
    17.8845  17.9947  18.4035  20.3885  32.1189

     occupation numbers 
     1.0000   1.0000   1.0000   1.0000   1.0000   1.0000   1.0000   1.0000
     1.0000   1.0000   1.0000   1.0000   1.0000   1.0000   1.0000   1.0000
     1.0000   1.0000   1.0000   0.0000   0.0000

          k = 0.1667 0.2887-0.3128 (  2798 PWs)   bands (ev):

   -77.0514 -77.0514 -40.3991 -40.3991 -40.2591 -40.2591 -40.2229 -40.2229
    13.9712  13.9712  15.5419  15.5419  16.0266  16.0266  17.0039  17.0039
    18.1477  18.1477  18.9116  18.9116  33.6716

     occupation numbers 
     1.0000   1.0000   1.0000   1.0000   1.0000   1.0000   1.0000   1.0000
     1.0000   1.0000   1.0000   1.0000   1.0000   1.0000   1.0000   1.0000
     1.0000   1.0000   1.0000   1.0000   0.0000

          k = 0.1667 0.3849 0.0000 (  2811 PWs)   bands (ev):

   -77.0596 -77.0279 -40.3981 -40.3866 -40.3628 -40.2823 -40.2255 -40.2207
    13.6455  14.8167  14.8526  15.2855  16.1103  16.6101  16.6773  17.5011
    18.1050  18.3417  18.8438  26.2598  26.6174

     occupation numbers 
     1.0000   1.0000   1.0000   1.0000   1.0000   1.0000   1.0000   1.0000
     1.0000   1.0000   1.0000   1.0000   1.0000   1.0000   1.0000   1.0000
     1.0000   1.0000   1.0000   0.0000   0.0000

          k = 0.1667 0.3849 0.1043 (  2808 PWs)   bands (ev):

   -77.0575 -77.0300 -40.4261 -40.3817 -40.3355 -40.2888 -40.2319 -40.2121
    13.7289  14.7792  14.9288  15.3744  16.1743  16.5716  16.6336  17.5257
    18.1050  18.2000  18.9455  23.7608  28.5793

     occupation numbers 
     1.0000   1.0000   1.0000   1.0000   1.0000   1.0000   1.0000   1.0000
     1.0000   1.0000   1.0000   1.0000   1.0000   1.0000   1.0000   1.0000
     1.0000   1.0000   0.9564   0.0000   0.0000

          k = 0.1667 0.3849 0.2085 (  2804 PWs)   bands (ev):

   -77.0517 -77.0358 -40.4399 -40.4048 -40.2985 -40.2820 -40.2406 -40.2101
    13.9546  14.5780  15.1887  15.6289  16.0971  16.3926  16.7580  17.4683
    17.9948  18.3626  19.1357  21.4972  29.5352

     occupation numbers 
     1.0000   1.0000   1.0000   1.0000   1.0000   1.0000   1.0000   1.0000
     1.0000   1.0000   1.0000   1.0000   1.0000   1.0000   1.0000   1.0000
     1.0000   1.0000   0.0000   0.0000   0.0000

          k = 0.1667 0.3849-0.3128 (  2806 PWs)   bands (ev):

   -77.0438 -77.0438 -40.4305 -40.4305 -40.2811 -40.2811 -40.2264 -40.2264
    14.2658  14.2658  15.5514  15.5514  16.1661  16.1661  17.0356  17.0356
    18.3598  18.3598  19.8547  19.8547  30.7174

     occupation numbers 
     1.0000   1.0000   1.0000   1.0000   1.0000   1.0000   1.0000   1.0000
     1.0000   1.0000   1.0000   1.0000   1.0000   1.0000   1.0000   1.0000
     1.0000   1.0000   0.0000   0.0000   0.0000

          k = 0.1667 0.4811 0.0000 (  2821 PWs)   bands (ev):

   -77.0487 -77.0277 -40.4240 -40.3776 -40.3630 -40.3098 -40.2459 -40.2391
    14.3494  14.6179  14.6180  15.5871  16.0649  16.4753  16.8146  17.9045
    18.3359  18.3425  20.0122  24.7028  28.2810

     occupation numbers 
     1.0000   1.0000   1.0000   1.0000   1.0000   1.0000   1.0000   1.0000
     1.0000   1.0000   1.0000   1.0000   1.0000   1.0000   1.0000   1.0000
     1.0000   1.0000   0.0000   0.0000   0.0000

          k = 0.1667 0.4811 0.1043 (  2819 PWs)   bands (ev):

   -77.0473 -77.0291 -40.4406 -40.3993 -40.3383 -40.3018 -40.2518 -40.2274
    14.1992  14.6900  14.8788  15.4225  16.1193  16.5988  16.8707  17.8853
    18.1306  18.4037  20.1004  24.1839  27.0082

     occupation numbers 
     1.0000   1.0000   1.0000   1.0000   1.0000   1.0000   1.0000   1.0000
     1.0000   1.0000   1.0000   1.0000   1.0000   1.0000   1.0000   1.0000
     1.0000   1.0000   0.0000   0.0000   0.0000

          k = 0.1667 0.4811 0.2085 (  2805 PWs)   bands (ev):

   -77.0434 -77.0329 -40.4580 -40.4304 -40.3201 -40.2813 -40.2522 -40.2169
    14.1646  14.6185  15.0847  15.6581  16.0057  16.7122  17.0743  17.5660
    18.0773  18.4879  20.4209  22.6738  27.0424

     occupation numbers 
     1.0000   1.0000   1.0000   1.0000   1.0000   1.0000   1.0000   1.0000
     1.0000   1.0000   1.0000   1.0000   1.0000   1.0000   1.0000   1.0000
     1.0000   1.0000   0.0000   0.0000   0.0000

          k = 0.1667 0.4811-0.3128 (  2810 PWs)   bands (ev):

   -77.0382 -77.0382 -40.4544 -40.4544 -40.2986 -40.2986 -40.2264 -40.2264
    14.3287  14.3287  15.4532  15.4532  16.4265  16.4265  17.2291  17.2291
    18.3655  18.3655  21.2451  21.2451  27.9329

     occupation numbers 
     1.0000   1.0000   1.0000   1.0000   1.0000   1.0000   1.0000   1.0000
     1.0000   1.0000   1.0000   1.0000   1.0000   1.0000   1.0000   1.0000
     1.0000   1.0000   0.0000   0.0000   0.0000

          k = 0.1667 0.5774 0.0000 (  2820 PWs)   bands (ev):

   -77.0438 -77.0285 -40.4376 -40.3816 -40.3452 -40.3216 -40.2601 -40.2439
    14.5199  14.5275  14.5389  15.8055  16.0767  16.3736  16.9019  18.1773
    18.3206  18.3424  21.2618  22.8574  29.2413

     occupation numbers 
     1.0000   1.0000   1.0000   1.0000   1.0000   1.0000   1.0000   1.0000
     1.0000   1.0000   1.0000   1.0000   1.0000   1.0000   1.0000   1.0000
     1.0000   1.0000   0.0000   0.0000   0.0000

          k = 0.1667 0.5774 0.1043 (  2824 PWs)   bands (ev):

   -77.0428 -77.0295 -40.4507 -40.4020 -40.3440 -40.2949 -40.2642 -40.2340
    14.2267  14.6014  15.0467  15.4065  16.0410  16.7164  16.9614  18.0991
    18.1730  18.3820  21.3662  22.8084  28.3209

     occupation numbers 
     1.0000   1.0000   1.0000   1.0000   1.0000   1.0000   1.0000   1.0000
     1.0000   1.0000   1.0000   1.0000   1.0000   1.0000   1.0000   1.0000
     1.0000   1.0000   0.0000   0.0000   0.0000

          k = 0.1667 0.5774 0.2085 (  2812 PWs)   bands (ev):

   -77.0400 -77.0323 -40.4666 -40.4382 -40.3288 -40.2812 -40.2540 -40.2206
    14.1621  14.6294  15.1220  15.6185  15.9190  16.9183  17.1942  17.6389
    18.1883  18.4236  21.6822  22.6110  27.0219

     occupation numbers 
     1.0000   1.0000   1.0000   1.0000   1.0000   1.0000   1.0000   1.0000
     1.0000   1.0000   1.0000   1.0000   1.0000   1.0000   1.0000   1.0000
     1.0000   1.0000   0.0000   0.0000   0.0000

          k = 0.1667 0.5774-0.3128 (  2814 PWs)   bands (ev):

   -77.0361 -77.0361 -40.4633 -40.4633 -40.3052 -40.3052 -40.2260 -40.2260
    14.3307  14.3307  15.4122  15.4122  16.4694  16.4694  17.4329  17.4329
    18.3032  18.3032  22.1819  22.1819  26.5274

     occupation numbers 
     1.0000   1.0000   1.0000   1.0000   1.0000   1.0000   1.0000   1.0000
     1.0000   1.0000   1.0000   1.0000   1.0000   1.0000   1.0000   1.0000
     1.0000   1.0000   0.0000   0.0000   0.0000

          k = 0.2500 0.4330 0.0000 (  2822 PWs)   bands (ev):

   -77.0487 -77.0277 -40.4041 -40.3805 -40.3632 -40.3087 -40.2574 -40.2457
    14.4745  14.6793  15.0057  15.0695  16.0070  16.4849  16.8205  17.6837
    18.3038  18.3444  20.0190  26.4888  27.1926

     occupation numbers 
     1.0000   1.0000   1.0000   1.0000   1.0000   1.0000   1.0000   1.0000
     1.0000   1.0000   1.0000   1.0000   1.0000   1.0000   1.0000   1.0000
     1.0000   1.0000   0.0000   0.0000   0.0000

          k = 0.2500 0.4330 0.1043 (  2825 PWs)   bands (ev):

   -77.0473 -77.0291 -40.4169 -40.4080 -40.3231 -40.3207 -40.2606 -40.2302
    14.4857  14.6298  15.0843  15.1971  16.1618  16.3367  16.8045  17.7110
    18.0804  18.4126  20.1528  25.0187  27.4861

     occupation numbers 
     1.0000   1.0000   1.0000   1.0000   1.0000   1.0000   1.0000   1.0000
     1.0000   1.0000   1.0000   1.0000   1.0000   1.0000   1.0000   1.0000
     1.0000   1.0000   0.0000   0.0000   0.0000

          k = 0.2500 0.4330 0.2085 (  2813 PWs)   bands (ev):

   -77.0434 -77.0329 -40.4416 -40.4249 -40.3278 -40.2980 -40.2507 -40.2163
    14.4988  14.5787  15.2613  15.6021  16.0004  16.2776  16.8241  17.4819
    18.0480  18.4945  20.5417  22.9671  28.2938

     occupation numbers 
     1.0000   1.0000   1.0000   1.0000   1.0000   1.0000   1.0000   1.0000
     1.0000   1.0000   1.0000   1.0000   1.0000   1.0000   1.0000   1.0000
     1.0000   1.0000   0.0000   0.0000   0.0000

          k = 0.2500 0.4330-0.3128 (  2808 PWs)   bands (ev):

   -77.0382 -77.0382 -40.4425 -40.4425 -40.3129 -40.3129 -40.2242 -40.2242
    14.5322  14.5322  15.5992  15.5992  16.0489  16.0489  17.0341  17.0341
    18.3857  18.3857  21.4089  21.4089  29.3490

     occupation numbers 
     1.0000   1.0000   1.0000   1.0000   1.0000   1.0000   1.0000   1.0000
     1.0000   1.0000   1.0000   1.0000   1.0000   1.0000   1.0000   1.0000
     1.0000   1.0000   0.0000   0.0000   0.0000

          k = 0.2500 0.5292 0.0000 (  2829 PWs)   bands (ev):

   -77.0404 -77.0296 -40.4179 -40.3704 -40.3388 -40.3318 -40.2776 -40.2714
    14.5954  14.7715  14.8744  15.3728  16.0273  16.2879  16.9914  17.9570
    18.2812  18.2989  21.6633  24.2317  26.5429

     occupation numbers 
     1.0000   1.0000   1.0000   1.0000   1.0000   1.0000   1.0000   1.0000
     1.0000   1.0000   1.0000   1.0000   1.0000   1.0000   1.0000   1.0000
     1.0000   1.0000   0.0000   0.0000   0.0000

          k = 0.2500 0.5292 0.1043 (  2824 PWs)   bands (ev):

   -77.0397 -77.0303 -40.4244 -40.3961 -40.3587 -40.2998 -40.2812 -40.2477
    14.5378  14.9071  15.0059  15.2780  16.0581  16.2804  16.9894  17.9648
    18.0535  18.3442  21.8608  24.2593  26.6054

     occupation numbers 
     1.0000   1.0000   1.0000   1.0000   1.0000   1.0000   1.0000   1.0000
     1.0000   1.0000   1.0000   1.0000   1.0000   1.0000   1.0000   1.0000
     1.0000   1.0000   0.0000   0.0000   0.0000

          k = 0.2500 0.5292 0.2085 (  2815 PWs)   bands (ev):

   -77.0377 -77.0323 -40.4423 -40.4265 -40.3574 -40.3113 -40.2460 -40.2239
    14.5610  14.9206  15.1819  15.4742  15.9269  16.2882  17.0234  17.5177
    18.1122  18.3836  22.3728  23.9879  26.5855

     occupation numbers 
     1.0000   1.0000   1.0000   1.0000   1.0000   1.0000   1.0000   1.0000
     1.0000   1.0000   1.0000   1.0000   1.0000   1.0000   1.0000   1.0000
     1.0000   1.0000   0.0000   0.0000   0.0000

          k = 0.2500 0.5292-0.3128 (  2814 PWs)   bands (ev):

   -77.0350 -77.0350 -40.4454 -40.4454 -40.3358 -40.3358 -40.2224 -40.2224
    14.7046  14.7046  15.4881  15.4881  16.0570  16.0570  17.1547  17.1547
    18.2923  18.2923  23.1521  23.1521  27.1429

     occupation numbers 
     1.0000   1.0000   1.0000   1.0000   1.0000   1.0000   1.0000   1.0000
     1.0000   1.0000   1.0000   1.0000   1.0000   1.0000   1.0000   1.0000
     1.0000   1.0000   0.0000   0.0000   0.0000

          k = 0.3333 0.5774 0.0000 (  2826 PWs)   bands (ev):

   -77.0338 -77.0338 -40.4102 -40.3568 -40.3568 -40.3008 -40.3006 -40.3006
    14.5970  14.9646  14.9646  15.2632  16.1121  16.1121  17.0914  18.1032
    18.1032  18.2568  23.3831  24.2279  24.2279

     occupation numbers 
     1.0000   1.0000   1.0000   1.0000   1.0000   1.0000   1.0000   1.0000
     1.0000   1.0000   1.0000   1.0000   1.0000   1.0000   1.0000   1.0000
     1.0000   1.0000   0.0000   0.0000   0.0000

          k = 0.3333 0.5774 0.1043 (  2817 PWs)   bands (ev):

   -77.0338 -77.0338 -40.4029 -40.3876 -40.3876 -40.3082 -40.2696 -40.2696
    14.6958  14.9947  14.9947  15.2858  16.0822  16.0822  17.0599  18.0039
    18.1404  18.1404  23.8013  24.3058  24.3058

     occupation numbers 
     1.0000   1.0000   1.0000   1.0000   1.0000   1.0000   1.0000   1.0000
     1.0000   1.0000   1.0000   1.0000   1.0000   1.0000   1.0000   1.0000
     1.0000   1.0000   0.0000   0.0000   0.0000

          k = 0.3333 0.5774 0.2085 (  2811 PWs)   bands (ev):

   -77.0338 -77.0338 -40.4226 -40.4226 -40.3829 -40.3283 -40.2344 -40.2344
    14.9480  15.0542  15.0542  15.3078  16.0285  16.0285  17.0154  17.4920
    18.2097  18.2097  24.4990  24.4990  24.8595

     occupation numbers 
     1.0000   1.0000   1.0000   1.0000   1.0000   1.0000   1.0000   1.0000
     1.0000   1.0000   1.0000   1.0000   1.0000   1.0000   1.0000   1.0000
     1.0000   1.0000   0.0000   0.0000   0.0000

          k = 0.3333 0.5774-0.3128 (  2808 PWs)   bands (ev):

   -77.0338 -77.0338 -40.4358 -40.4358 -40.3557 -40.3557 -40.2210 -40.2210
    15.0834  15.0834  15.2072  15.2072  16.0049  16.0049  17.1120  17.1120
    18.2419  18.2419  24.6236  24.6236  26.3010

     occupation numbers 
     1.0000   1.0000   1.0000   1.0000   1.0000   1.0000   1.0000   1.0000
     1.0000   1.0000   1.0000   1.0000   1.0000   1.0000   1.0000   1.0000
     1.0000   1.0000   0.0000   0.0000   0.0000

 ------ SPIN DOWN ----------


          k = 0.0000 0.0000 0.0000 (  2791 PWs)   bands (ev):

   -74.9994 -74.9311 -38.4884 -38.1618 -38.1618 -38.1042 -38.1042 -38.1003
     9.9440  14.7501  18.0638  18.0638  18.1107  18.4590  18.4590  18.8227
    18.8227  18.8601  20.1319  20.1319  26.6886

     occupation numbers 
     1.0000   1.0000   1.0000   1.0000   1.0000   1.0000   1.0000   1.0000
     1.0000   1.0000   1.0000   1.0000   1.0000   1.0000   1.0000   1.0000
     1.0000   1.0000   0.0000   0.0000   0.0000

          k = 0.0000 0.0000 0.1043 (  2809 PWs)   bands (ev):

   -74.9948 -74.9357 -38.4628 -38.1579 -38.1579 -38.1267 -38.1081 -38.1081
    10.2308  14.5328  17.9824  17.9824  18.0117  18.2335  18.3642  18.3642
    19.0238  19.0238  20.1204  20.1204  28.0425

     occupation numbers 
     1.0000   1.0000   1.0000   1.0000   1.0000   1.0000   1.0000   1.0000
     1.0000   1.0000   1.0000   1.0000   1.0000   1.0000   1.0000   1.0000
     0.0000   0.0000   0.0000   0.0000   0.0000

          k = 0.0000 0.0000 0.2085 (  2785 PWs)   bands (ev):

   -74.9824 -74.9482 -38.3926 -38.1985 -38.1474 -38.1474 -38.1186 -38.1186
    11.0592  13.6667  17.5379  17.7602  17.9144  17.9144  18.1585  18.1585
    19.4160  19.4160  20.0282  20.0282  31.0932

     occupation numbers 
     1.0000   1.0000   1.0000   1.0000   1.0000   1.0000   1.0000   1.0000
     1.0000   1.0000   1.0000   1.0000   1.0000   1.0000   1.0000   1.0000
     0.0000   0.0000   0.0000   0.0000   0.0000

          k = 0.0000 0.0000-0.3128 (  2822 PWs)   bands (ev):

   -74.9653 -74.9653 -38.2960 -38.2960 -38.1330 -38.1330 -38.1330 -38.1330
    12.3098  12.3098  17.5027  17.5027  17.9785  17.9785  17.9785  17.9785
    19.7866  19.7866  19.7866  19.7866  34.8168

     occupation numbers 
     1.0000   1.0000   1.0000   1.0000   1.0000   1.0000   1.0000   1.0000
     1.0000   1.0000   1.0000   1.0000   1.0000   1.0000   1.0000   1.0000
     0.0000   0.0000   0.0000   0.0000   0.0000

          k = 0.0000 0.0962 0.0000 (  2807 PWs)   bands (ev):

[...]
    20.2793  20.3820  21.4813  24.0060  29.0766

     occupation numbers 
     1.0000   1.0000   1.0000   1.0000   1.0000   1.0000   1.0000   1.0000
     1.0000   1.0000   1.0000   1.0000   1.0000   1.0000   1.0000   0.0000
     0.0000   0.0000   0.0000   0.0000   0.0000

          k = 0.0833 0.5292 0.1043 (  2815 PWs)   bands (ev):

   -74.9372 -74.9178 -38.4323 -38.3740 -38.2942 -38.2414 -38.1910 -38.1629
    14.8992  15.5366  16.0916  16.6132  17.8489  18.4098  18.4780  20.0767
    20.2488  20.3254  21.3415  23.6761  27.9713

     occupation numbers 
     1.0000   1.0000   1.0000   1.0000   1.0000   1.0000   1.0000   1.0000
     1.0000   1.0000   1.0000   1.0000   1.0000   1.0000   1.0000   0.0000
     0.0000   0.0000   0.0000   0.0000   0.0000

          k = 0.0833 0.5292 0.2085 (  2819 PWs)   bands (ev):

   -74.9331 -74.9219 -38.4499 -38.4135 -38.2535 -38.2147 -38.1972 -38.1666
    14.8798  15.3753  16.3994  16.7409  17.9184  18.6979  18.9182  19.5891
    20.1930  20.4293  21.1140  22.7417  27.3812

     occupation numbers 
     1.0000   1.0000   1.0000   1.0000   1.0000   1.0000   1.0000   1.0000
     1.0000   1.0000   1.0000   1.0000   1.0000   1.0000   1.0000   0.0000
     0.0000   0.0000   0.0000   0.0000   0.0000

          k = 0.0833 0.5292-0.3128 (  2816 PWs)   bands (ev):

   -74.9275 -74.9275 -38.4434 -38.4434 -38.2225 -38.2225 -38.1817 -38.1817
    15.0643  15.0643  16.6917  16.6917  18.4318  18.4318  19.2173  19.2173
    20.2743  20.2743  21.6687  21.6687  27.6323

     occupation numbers 
     1.0000   1.0000   1.0000   1.0000   1.0000   1.0000   1.0000   1.0000
     1.0000   1.0000   1.0000   1.0000   1.0000   1.0000   0.0000   0.0000
     0.0000   0.0000   0.0000   0.0000   0.0000

          k = 0.1667 0.2887 0.0000 (  2798 PWs)   bands (ev):

   -74.9644 -74.9190 -38.4013 -38.2968 -38.2868 -38.2027 -38.1501 -38.1440
    12.6199  16.0278  16.4050  16.7379  17.9094  18.0611  18.5030  18.9900
    19.4729  19.8503  20.2906  25.1569  27.1080

     occupation numbers 
     1.0000   1.0000   1.0000   1.0000   1.0000   1.0000   1.0000   1.0000
     1.0000   1.0000   1.0000   1.0000   1.0000   1.0000   1.0000   0.0018
     0.0000   0.0000   0.0000   0.0000   0.0000

          k = 0.1667 0.2887 0.1043 (  2802 PWs)   bands (ev):

   -74.9613 -74.9220 -38.4014 -38.2947 -38.2775 -38.2112 -38.1551 -38.1420
    12.8386  15.9963  16.2767  16.8062  17.8426  18.0895  18.3786  19.0465
    19.6089  19.7292  20.2971  23.4797  29.3319

     occupation numbers 
     1.0000   1.0000   1.0000   1.0000   1.0000   1.0000   1.0000   1.0000
     1.0000   1.0000   1.0000   1.0000   1.0000   1.0000   1.0000   0.0000
     0.0000   0.0000   0.0000   0.0000   0.0000

          k = 0.1667 0.2887 0.2085 (  2809 PWs)   bands (ev):

   -74.9530 -74.9304 -38.3909 -38.3240 -38.2368 -38.2135 -38.1671 -38.1500
    13.4581  15.3189  16.5284  16.9813  17.6084  17.9074  18.4318  19.0601
    19.7521  19.8492  20.2439  21.7054  32.6122

     occupation numbers 
     1.0000   1.0000   1.0000   1.0000   1.0000   1.0000   1.0000   1.0000
     1.0000   1.0000   1.0000   1.0000   1.0000   1.0000   1.0000   0.0000
     0.0000   0.0000   0.0000   0.0000   0.0000

          k = 0.1667 0.2887-0.3128 (  2798 PWs)   bands (ev):

   -74.9417 -74.9417 -38.3626 -38.3626 -38.2091 -38.2091 -38.1695 -38.1695
    14.3584  14.3584  16.9206  16.9206  17.5738  17.5738  18.7468  18.7468
    20.0530  20.0530  20.4906  20.4906  34.1016

     occupation numbers 
     1.0000   1.0000   1.0000   1.0000   1.0000   1.0000   1.0000   1.0000
     1.0000   1.0000   1.0000   1.0000   1.0000   1.0000   1.0000   1.0000
     0.0000   0.0000   0.0000   0.0000   0.0000

          k = 0.1667 0.3849 0.0000 (  2811 PWs)   bands (ev):

   -74.9506 -74.9164 -38.3617 -38.3481 -38.3218 -38.2337 -38.1720 -38.1686
    13.8728  16.0775  16.1019  16.5323  17.7126  18.2055  18.2765  19.3285
    19.9919  20.2940  20.5731  26.9476  27.2472

     occupation numbers 
     1.0000   1.0000   1.0000   1.0000   1.0000   1.0000   1.0000   1.0000
     1.0000   1.0000   1.0000   1.0000   1.0000   1.0000   1.0000   0.0000
     0.0000   0.0000   0.0000   0.0000   0.0000

          k = 0.1667 0.3849 0.1043 (  2808 PWs)   bands (ev):

   -74.9483 -74.9187 -38.3917 -38.3430 -38.2924 -38.2410 -38.1791 -38.1587
    14.0252  15.9417  16.2124  16.6413  17.7090  18.1350  18.2457  19.3491
    20.0050  20.0994  20.6982  24.5797  29.2088

     occupation numbers 
     1.0000   1.0000   1.0000   1.0000   1.0000   1.0000   1.0000   1.0000
     1.0000   1.0000   1.0000   1.0000   1.0000   1.0000   1.0000   0.0000
     0.0000   0.0000   0.0000   0.0000   0.0000

          k = 0.1667 0.3849 0.2085 (  2804 PWs)   bands (ev):

   -74.9420 -74.9250 -38.4067 -38.3685 -38.2520 -38.2339 -38.1886 -38.1562
    14.4416  15.5607  16.5135  16.8746  17.5907  17.8381  18.4243  19.2569
    19.8681  20.2935  20.7839  22.5294  30.1480

     occupation numbers 
     1.0000   1.0000   1.0000   1.0000   1.0000   1.0000   1.0000   1.0000
     1.0000   1.0000   1.0000   1.0000   1.0000   1.0000   1.0000   0.0000
     0.0000   0.0000   0.0000   0.0000   0.0000

          k = 0.1667 0.3849-0.3128 (  2806 PWs)   bands (ev):

   -74.9335 -74.9335 -38.3965 -38.3965 -38.2329 -38.2329 -38.1736 -38.1736
    15.0078  15.0078  16.8747  16.8747  17.5571  17.5571  18.7894  18.7894
    20.3029  20.3029  21.1567  21.1567  31.2867

     occupation numbers 
     1.0000   1.0000   1.0000   1.0000   1.0000   1.0000   1.0000   1.0000
     1.0000   1.0000   1.0000   1.0000   1.0000   1.0000   1.0000   1.0000
     0.0000   0.0000   0.0000   0.0000   0.0000

          k = 0.1667 0.4811 0.0000 (  2821 PWs)   bands (ev):

   -74.9388 -74.9162 -38.3889 -38.3380 -38.3233 -38.2636 -38.1959 -38.1868
    14.9773  15.8817  15.8839  16.5735  17.6535  18.0251  18.4461  19.7737
    20.2676  20.2946  21.4837  25.4713  28.8684

     occupation numbers 
     1.0000   1.0000   1.0000   1.0000   1.0000   1.0000   1.0000   1.0000
     1.0000   1.0000   1.0000   1.0000   1.0000   1.0000   1.0000   0.0000
     0.0000   0.0000   0.0000   0.0000   0.0000

          k = 0.1667 0.4811 0.1043 (  2819 PWs)   bands (ev):

   -74.9373 -74.9177 -38.4072 -38.3620 -38.2957 -38.2553 -38.2011 -38.1750
    14.9950  15.8421  16.0545  16.6185  17.6764  18.0109  18.4847  19.7528
    20.0438  20.3475  21.5408  24.8903  27.7692

     occupation numbers 
     1.0000   1.0000   1.0000   1.0000   1.0000   1.0000   1.0000   1.0000
     1.0000   1.0000   1.0000   1.0000   1.0000   1.0000   1.0000   0.0000
     0.0000   0.0000   0.0000   0.0000   0.0000

          k = 0.1667 0.4811 0.2085 (  2805 PWs)   bands (ev):

   -74.9331 -74.9219 -38.4263 -38.3961 -38.2753 -38.2332 -38.2015 -38.1636
    15.1032  15.6398  16.4058  16.9258  17.5159  17.9806  18.6702  19.3948
    19.9710  20.4500  21.6988  23.4485  27.8580

     occupation numbers 
     1.0000   1.0000   1.0000   1.0000   1.0000   1.0000   1.0000   1.0000
     1.0000   1.0000   1.0000   1.0000   1.0000   1.0000   1.0000   0.0000
     0.0000   0.0000   0.0000   0.0000   0.0000

          k = 0.1667 0.4811-0.3128 (  2810 PWs)   bands (ev):

   -74.9275 -74.9275 -38.4224 -38.4224 -38.2518 -38.2518 -38.1737 -38.1737
    15.3379  15.3379  16.8428  16.8428  17.6974  17.6974  18.9449  18.9449
    20.2962  20.2962  22.2440  22.2440  28.6781

     occupation numbers 
     1.0000   1.0000   1.0000   1.0000   1.0000   1.0000   1.0000   1.0000
     1.0000   1.0000   1.0000   1.0000   1.0000   1.0000   0.9617   0.9617
     0.0000   0.0000   0.0000   0.0000   0.0000

          k = 0.1667 0.5774 0.0000 (  2820 PWs)   bands (ev):

   -74.9335 -74.9171 -38.4037 -38.3423 -38.3038 -38.2764 -38.2114 -38.1920
    15.4445  15.7469  15.8173  16.6312  17.6816  17.8834  18.5541  20.0844
    20.2581  20.2943  22.3860  23.8940  29.6655

     occupation numbers 
     1.0000   1.0000   1.0000   1.0000   1.0000   1.0000   1.0000   1.0000
     1.0000   1.0000   1.0000   1.0000   1.0000   1.0000   1.0000   0.0000
     0.0000   0.0000   0.0000   0.0000   0.0000

          k = 0.1667 0.5774 0.1043 (  2824 PWs)   bands (ev):

   -74.9324 -74.9182 -38.4182 -38.3647 -38.3017 -38.2480 -38.2148 -38.1820
    15.2908  15.7984  16.2023  16.4616  17.6280  18.0516  18.6017  20.0079
    20.0802  20.3283  22.4210  23.7973  28.9237

     occupation numbers 
     1.0000   1.0000   1.0000   1.0000   1.0000   1.0000   1.0000   1.0000
     1.0000   1.0000   1.0000   1.0000   1.0000   1.0000   1.0000   0.0000
     0.0000   0.0000   0.0000   0.0000   0.0000

          k = 0.1667 0.5774 0.2085 (  2812 PWs)   bands (ev):

   -74.9294 -74.9212 -38.4356 -38.4045 -38.2848 -38.2329 -38.2037 -38.1675
    15.2523  15.6963  16.4687  16.8425  17.4228  18.1567  18.8195  19.4731
    20.1005  20.3722  22.5576  23.4743  27.8174

     occupation numbers 
     1.0000   1.0000   1.0000   1.0000   1.0000   1.0000   1.0000   1.0000
     1.0000   1.0000   1.0000   1.0000   1.0000   1.0000   1.0000   0.0000
     0.0000   0.0000   0.0000   0.0000   0.0000

          k = 0.1667 0.5774-0.3128 (  2814 PWs)   bands (ev):

   -74.9253 -74.9253 -38.4320 -38.4320 -38.2590 -38.2590 -38.1733 -38.1733
    15.4155  15.4155  16.8333  16.8333  17.7480  17.7480  19.1143  19.1143
    20.2296  20.2296  22.9616  22.9616  27.4294

     occupation numbers 
     1.0000   1.0000   1.0000   1.0000   1.0000   1.0000   1.0000   1.0000
     1.0000   1.0000   1.0000   1.0000   1.0000   1.0000   0.0000   0.0000
     0.0000   0.0000   0.0000   0.0000   0.0000

          k = 0.2500 0.4330 0.0000 (  2822 PWs)   bands (ev):

   -74.9388 -74.9162 -38.3672 -38.3410 -38.3236 -38.2627 -38.2067 -38.1957
    14.9836  15.9536  16.2317  16.2435  17.5673  18.0459  18.4469  19.5409
    20.2501  20.2757  21.5183  27.0624  27.8175

     occupation numbers 
     1.0000   1.0000   1.0000   1.0000   1.0000   1.0000   1.0000   1.0000
     1.0000   1.0000   1.0000   1.0000   1.0000   1.0000   1.0000   0.0000
     0.0000   0.0000   0.0000   0.0000   0.0000

          k = 0.2500 0.4330 0.1043 (  2825 PWs)   bands (ev):

   -74.9373 -74.9177 -38.3814 -38.3716 -38.2785 -38.2765 -38.2103 -38.1784
    15.0668  15.8722  16.3037  16.4407  17.6210  17.8686  18.4358  19.5641
    19.9886  20.3579  21.6326  25.6691  28.1170

     occupation numbers 
     1.0000   1.0000   1.0000   1.0000   1.0000   1.0000   1.0000   1.0000
     1.0000   1.0000   1.0000   1.0000   1.0000   1.0000   1.0000   0.0000
     0.0000   0.0000   0.0000   0.0000   0.0000

          k = 0.2500 0.4330 0.2085 (  2813 PWs)   bands (ev):

   -74.9332 -74.9219 -38.4084 -38.3902 -38.2836 -38.2513 -38.2000 -38.1630
    15.2780  15.7359  16.5379  16.8245  17.4765  17.6090  18.4931  19.2987
    19.9315  20.4579  21.8801  23.7775  28.9242

     occupation numbers 
     1.0000   1.0000   1.0000   1.0000   1.0000   1.0000   1.0000   1.0000
     1.0000   1.0000   1.0000   1.0000   1.0000   1.0000   1.0000   0.0000
     0.0000   0.0000   0.0000   0.0000   0.0000

          k = 0.2500 0.4330-0.3128 (  2808 PWs)   bands (ev):

   -74.9275 -74.9275 -38.4094 -38.4094 -38.2674 -38.2674 -38.1713 -38.1713
    15.5298  15.5298  16.8989  16.8989  17.3675  17.3675  18.7825  18.7825
    20.3202  20.3202  22.4638  22.4638  29.9649

     occupation numbers 
     1.0000   1.0000   1.0000   1.0000   1.0000   1.0000   1.0000   1.0000
     1.0000   1.0000   1.0000   1.0000   1.0000   1.0000   1.0000   1.0000
     0.0000   0.0000   0.0000   0.0000   0.0000

          k = 0.2500 0.5292 0.0000 (  2829 PWs)   bands (ev):

   -74.9299 -74.9182 -38.3821 -38.3301 -38.2955 -38.2893 -38.2288 -38.2235
    15.7004  15.9052  16.0646  16.3313  17.5721  17.8091  18.6508  19.8448
    20.2240  20.2317  22.7945  25.0496  27.1296

     occupation numbers 
     1.0000   1.0000   1.0000   1.0000   1.0000   1.0000   1.0000   1.0000
     1.0000   1.0000   1.0000   1.0000   1.0000   1.0000   1.0000   0.0000
     0.0000   0.0000   0.0000   0.0000   0.0000

          k = 0.2500 0.5292 0.1043 (  2824 PWs)   bands (ev):

   -74.9291 -74.9190 -38.3894 -38.3584 -38.3175 -38.2535 -38.2330 -38.1973
    15.6621  16.0321  16.1561  16.3986  17.5551  17.7104  18.6479  19.8513
    19.9578  20.2846  22.9674  25.0348  27.2196

     occupation numbers 
     1.0000   1.0000   1.0000   1.0000   1.0000   1.0000   1.0000   1.0000
     1.0000   1.0000   1.0000   1.0000   1.0000   1.0000   1.0000   0.0000
     0.0000   0.0000   0.0000   0.0000   0.0000

          k = 0.2500 0.5292 0.2085 (  2815 PWs)   bands (ev):

   -74.9270 -74.9211 -38.4090 -38.3917 -38.3159 -38.2656 -38.1951 -38.1712
    15.7054  16.0036  16.4451  16.7570  17.3173  17.5638  18.6964  19.3472
    20.0145  20.3261  23.3648  24.6930  27.3417

     occupation numbers 
     1.0000   1.0000   1.0000   1.0000   1.0000   1.0000   1.0000   1.0000
     1.0000   1.0000   1.0000   1.0000   1.0000   1.0000   1.0000   0.0000
     0.0000   0.0000   0.0000   0.0000   0.0000

          k = 0.2500 0.5292-0.3128 (  2814 PWs)   bands (ev):

   -74.9240 -74.9240 -38.4125 -38.4125 -38.2923 -38.2923 -38.1694 -38.1694
    15.8448  15.8448  16.8542  16.8542  17.2707  17.2707  18.8979  18.8979
    20.2148  20.2148  23.9665  23.9665  27.9040

     occupation numbers 
     1.0000   1.0000   1.0000   1.0000   1.0000   1.0000   1.0000   1.0000
     1.0000   1.0000   1.0000   1.0000   1.0000   1.0000   1.0000   1.0000
     0.0000   0.0000   0.0000   0.0000   0.0000

          k = 0.3333 0.5774 0.0000 (  2826 PWs)   bands (ev):

   -74.9228 -74.9228 -38.3734 -38.3154 -38.3154 -38.2553 -38.2553 -38.2539
    15.9293  16.0502  16.0502  16.2642  17.6284  17.6284  18.7600  20.0132
    20.0132  20.1960  24.2255  25.0381  25.0381

     occupation numbers 
     1.0000   1.0000   1.0000   1.0000   1.0000   1.0000   1.0000   1.0000
     1.0000   1.0000   1.0000   1.0000   1.0000   1.0000   1.0000   0.0000
     0.0000   0.0000   0.0000   0.0000   0.0000

          k = 0.3333 0.5774 0.1043 (  2817 PWs)   bands (ev):

   -74.9228 -74.9228 -38.3655 -38.3493 -38.3493 -38.2620 -38.2212 -38.2212
    16.0086  16.1295  16.1295  16.2990  17.5436  17.5436  18.7326  19.9006
    20.0539  20.0539  24.6612  25.0917  25.0917

     occupation numbers 
     1.0000   1.0000   1.0000   1.0000   1.0000   1.0000   1.0000   1.0000
     1.0000   1.0000   1.0000   1.0000   1.0000   1.0000   1.0000   0.0000
     0.0000   0.0000   0.0000   0.0000   0.0000

          k = 0.3333 0.5774 0.2085 (  2811 PWs)   bands (ev):

   -74.9228 -74.9228 -38.3875 -38.3875 -38.3437 -38.2840 -38.1826 -38.1826
    16.1953  16.3174  16.3174  16.3628  17.3528  17.3528  18.7151  19.3239
    20.1260  20.1260  25.2239  25.2239  25.7046

     occupation numbers 
     1.0000   1.0000   1.0000   1.0000   1.0000   1.0000   1.0000   1.0000
     1.0000   1.0000   1.0000   1.0000   1.0000   1.0000   1.0000   0.0000
     0.0000   0.0000   0.0000   0.0000   0.0000

          k = 0.3333 0.5774-0.3128 (  2808 PWs)   bands (ev):

   -74.9228 -74.9228 -38.4020 -38.4020 -38.3139 -38.3139 -38.1679 -38.1679
    16.3488  16.3488  16.4387  16.4387  17.2337  17.2337  18.8760  18.8760
    20.1578  20.1578  25.3078  25.3078  27.0660

     occupation numbers 
     1.0000   1.0000   1.0000   1.0000   1.0000   1.0000   1.0000   1.0000
     1.0000   1.0000   1.0000   1.0000   1.0000   1.0000   1.0000   1.0000
     0.0000   0.0000   0.0000   0.0000   0.0000

     the Fermi energy is    18.9619 ev

!    total energy              =    -753.45495190 Ry
     total all-electron energy =     -5573.811643 Ry
     estimated scf accuracy    <       0.00000004 Ry
     smearing contrib. (-TS)   =      -0.00002039 Ry
     internal energy E=F+TS    =    -753.45493151 Ry

     The total energy is F=E-TS. E is the sum of the following terms:
     one-electron contribution =    -279.71319684 Ry
     hartree contribution      =     163.90119802 Ry
     xc contribution           =     -61.42262679 Ry
     ewald contribution        =    -401.04438357 Ry
     one-center paw contrib.   =    -175.17592234 Ry
      -> PAW hartree energy AE =     222.11932372 Ry
      -> PAW hartree energy PS =    -221.06352344 Ry
      -> PAW xc energy AE      =    -117.67725909 Ry
      -> PAW xc energy PS      =      29.03349763 Ry
      -> total E_H with PAW    =     164.95699831 Ry
      -> total E_XC with PAW   =    -150.06638825 Ry

     total magnetization       =     3.29 Bohr mag/cell
     absolute magnetization    =     3.61 Bohr mag/cell

     convergence has been achieved in  13 iterations

     Writing all to output data dir ./out2/Co.save/
 
     init_run     :      0.29s CPU      0.39s WALL (       1 calls)
     electrons    :     14.38s CPU     15.53s WALL (       1 calls)

     Called by init_run:
     wfcinit      :      0.14s CPU      0.20s WALL (       1 calls)
     potinit      :      0.09s CPU      0.12s WALL (       1 calls)
     hinit0       :      0.05s CPU      0.05s WALL (       1 calls)

     Called by electrons:
     c_bands      :     11.75s CPU     12.60s WALL (      13 calls)
     sum_band     :      1.38s CPU      1.45s WALL (      13 calls)
     v_of_rho     :      0.05s CPU      0.05s WALL (      14 calls)
     v_h          :      0.00s CPU      0.00s WALL (      14 calls)
     v_xc         :      0.05s CPU      0.05s WALL (      14 calls)
     newd         :      0.04s CPU      0.04s WALL (      14 calls)
     PAW_pot      :      1.21s CPU      1.46s WALL (      14 calls)
     mix_rho      :      0.01s CPU      0.01s WALL (      13 calls)

     Called by c_bands:
     init_us_2    :      0.10s CPU      0.11s WALL (    1976 calls)
     init_us_2:cp :      0.10s CPU      0.10s WALL (    1976 calls)
     cegterg      :     10.47s CPU     11.02s WALL (     988 calls)

     Called by sum_band:
     sum_band:wei :      0.01s CPU      0.01s WALL (      13 calls)
     sum_band:loo :      1.28s CPU      1.35s WALL (      13 calls)
     sum_band:buf :      0.01s CPU      0.01s WALL (     988 calls)
     sum_band:ini :      0.05s CPU      0.06s WALL (     988 calls)
     sum_band:cal :      0.11s CPU      0.12s WALL (     988 calls)
     sum_band:bec :      0.01s CPU      0.01s WALL (     988 calls)
     addusdens    :      0.07s CPU      0.07s WALL (      13 calls)
                                        0.00s GPU  (      13 calls)
     addusd:skk   :      0.00s CPU      0.00s WALL (      13 calls)
                                        0.00s GPU  (      13 calls)

     Called by *egterg:
     cdiaghg      :      2.22s CPU      2.32s WALL (    4722 calls)
     cegterg:over :      0.32s CPU      0.34s WALL (    3810 calls)
     cegterg:upda :      0.10s CPU      0.10s WALL (    3810 calls)
     cegterg:last :      0.19s CPU      0.19s WALL (    2899 calls)
     h_psi        :      7.16s CPU      7.55s WALL (    4798 calls)
     s_psi        :      0.13s CPU      0.13s WALL (    4798 calls)
     g_psi        :      0.03s CPU      0.03s WALL (    3810 calls)

     Called by h_psi:
     h_psi:calbec :      0.38s CPU      0.40s WALL (    4798 calls)
     vloc_psi     :      6.57s CPU      6.93s WALL (    4798 calls)
     add_vuspsi   :      0.16s CPU      0.17s WALL (    4798 calls)

     General routines
     calbec       :      0.47s CPU      0.50s WALL (    5786 calls)
     fft          :      0.03s CPU      0.03s WALL (     344 calls)
     ffts         :      0.00s CPU      0.00s WALL (      54 calls)
     fftw         :      6.92s CPU      7.29s WALL (  153614 calls)
     interpolate  :      0.01s CPU      0.01s WALL (      28 calls)
 
     Parallel routines

     PAW routines
     PAW_pot      :      1.21s CPU      1.46s WALL (      14 calls)
     PAW_symme    :      0.01s CPU      0.01s WALL (      26 calls)
 
     PWSCF        :     14.91s CPU     16.49s WALL

 
   This run was terminated on:  10:50: 8  22Mar2024            

=------------------------------------------------------------------------------=
   JOB DONE.
=------------------------------------------------------------------------------=
