
     Program PWSCF v.7.2 starts on 22Mar2024 at 10:46:46 

     This program is part of the open-source Quantum ESPRESSO suite
     for quantum simulation of materials; please cite
         "P. Giannozzi et al., J. Phys.:Condens. Matter 21 395502 (2009);
         "P. Giannozzi et al., J. Phys.:Condens. Matter 29 465901 (2017);
         "P. Giannozzi et al., J. Chem. Phys. 152 154105 (2020);
          URL http://www.quantum-espresso.org", 
     in publications or presentations arising from this work. More details at
     http://www.quantum-espresso.org/quote

     Parallel version (MPI), running on    28 processors

     MPI processes distributed on     1 nodes
     182195 MiB available memory on the printing compute node when the environment starts
 
     Waiting for input...
     Reading input from standard input

     Current dimensions of program PWSCF are:
     Max number of different atomic species (ntypx) = 10
     Max number of k-points (npk) = 120000
     Max angular momentum in pseudopotentials (lmaxx) =  4
     file Co.pbe-spn-kjpaw_psl.0.3.1.UPF: wavefunction(s)  3P 3D renormalized
 
     K-points division:     npool     =       2
     R & G space division:  proc/nbgrp/npool/nimage =      14
     Subspace diagonalization in iterative solution of the eigenvalue problem:
     a serial algorithm will be used

 
     Parallelization info
     --------------------
     sticks:   dense  smooth     PW     G-vecs:    dense   smooth      PW
     Min          48      48     14                 1640     1598     260
     Max          49      49     15                 1654     1603     267
     Sum         673     673    199                23091    22395    3669
 
     Using Slab Decomposition
 


     bravais-lattice index     =            4
     lattice parameter (alat)  =       4.6960  a.u.
     unit-cell volume          =     143.4555 (a.u.)^3
     number of atoms/cell      =            2
     number of atomic types    =            1
     number of electrons       =        34.00
     number of Kohn-Sham states=           21
     kinetic-energy cutoff     =     110.0000  Ry
     charge density cutoff     =     450.0000  Ry
     scf convergence threshold =      1.0E-06
     mixing beta               =       0.7000
     number of iterations used =            8  plain     mixing
     Exchange-correlation= SLA  PW   PBX  PBC
                           (   1   4   3   4   0   0   0)

     celldm(1)=   4.695969  celldm(2)=   0.000000  celldm(3)=   1.599598
     celldm(4)=   0.000000  celldm(5)=   0.000000  celldm(6)=   0.000000

     crystal axes: (cart. coord. in units of alat)
               a(1) = (   1.000000   0.000000   0.000000 )  
               a(2) = (  -0.500000   0.866025   0.000000 )  
               a(3) = (   0.000000   0.000000   1.599598 )  

     reciprocal axes: (cart. coord. in units 2 pi/alat)
               b(1) = (  1.000000  0.577350  0.000000 )  
               b(2) = (  0.000000  1.154701  0.000000 )  
               b(3) = (  0.000000  0.000000  0.625157 )  


     PseudoPot. # 1 for Co read from file:
     /truba/home/amuhaymin/ZnS/pseudo/QE/Co.pbe-spn-kjpaw_psl.0.3.1.UPF
     MD5 check sum: b0a1ad65bf214e88c1f3d33b20c7d919
     Pseudo is Projector augmented-wave + core cor, Zval = 17.0
     Generated using &quot;atomic&quot; code by A. Dal Corso  v.6.2.2
     Shape of augmentation charge: PSQ
     Using radial grid of 1193 points,  6 beta functions with: 
                l(1) =   0
                l(2) =   0
                l(3) =   1
                l(4) =   1
                l(5) =   2
                l(6) =   2
     Q(r) pseudized with 0 coefficients 


     atomic species   valence    mass     pseudopotential
        Co            17.00    58.93300     Co( 1.00)

     Starting magnetic structure 
     atomic species   magnetization
        Co           0.294

     24 Sym. Ops., with inversion, found (12 have fractional translation)


                                    s                        frac. trans.

      isym =  1     identity                                     

 cryst.   s( 1) = (     1          0          0      )
                  (     0          1          0      )
                  (     0          0          1      )

 cart.    s( 1) = (  1.0000000  0.0000000  0.0000000 )
                  (  0.0000000  1.0000000  0.0000000 )
                  (  0.0000000  0.0000000  1.0000000 )


      isym =  2     180 deg rotation - cart. axis [0,0,1]        

 cryst.   s( 2) = (    -1          0          0      )    f =(  0.0000000 )
                  (     0         -1          0      )       (  0.0000000 )
                  (     0          0          1      )       (  0.5000000 )

 cart.    s( 2) = ( -1.0000000  0.0000000  0.0000000 )    f =(  0.0000000 )
                  (  0.0000000 -1.0000000  0.0000000 )       (  0.0000000 )
                  (  0.0000000  0.0000000  1.0000000 )       (  0.7997988 )


      isym =  3     180 deg rotation - cart. axis [0,1,0]        

 cryst.   s( 3) = (    -1          0          0      )    f =(  0.0000000 )
                  (     1          1          0      )       (  0.0000000 )
                  (     0          0         -1      )       ( -0.5000000 )

 cart.    s( 3) = ( -1.0000000  0.0000000  0.0000000 )    f =(  0.0000000 )
                  (  0.0000000  1.0000000  0.0000000 )       (  0.0000000 )
                  (  0.0000000  0.0000000 -1.0000000 )       ( -0.7997988 )


      isym =  4     180 deg rotation - cart. axis [1,0,0]        

 cryst.   s( 4) = (     1          0          0      )
                  (    -1         -1          0      )
                  (     0          0         -1      )

 cart.    s( 4) = (  1.0000000  0.0000000  0.0000000 )
                  (  0.0000000 -1.0000000  0.0000000 )
                  (  0.0000000  0.0000000 -1.0000000 )


      isym =  5      60 deg rotation - cryst. axis [0,0,1]       

 cryst.   s( 5) = (     1          1          0      )    f =(  0.0000000 )
                  (    -1          0          0      )       ( -0.0000000 )
                  (     0          0          1      )       (  0.5000000 )

 cart.    s( 5) = (  0.5000000 -0.8660254  0.0000000 )    f =(  0.0000000 )
                  (  0.8660254  0.5000000  0.0000000 )       ( -0.0000000 )
                  (  0.0000000  0.0000000  1.0000000 )       (  0.7997988 )


      isym =  6      60 deg rotation - cryst. axis [0,0,-1]      

 cryst.   s( 6) = (     0         -1          0      )    f =(  0.0000000 )
                  (     1          1          0      )       ( -0.0000000 )
                  (     0          0          1      )       (  0.5000000 )

 cart.    s( 6) = (  0.5000000  0.8660254  0.0000000 )    f =(  0.0000000 )
                  ( -0.8660254  0.5000000  0.0000000 )       ( -0.0000000 )
                  (  0.0000000  0.0000000  1.0000000 )       (  0.7997988 )


      isym =  7     120 deg rotation - cryst. axis [0,0,1]       

 cryst.   s( 7) = (     0          1          0      )
                  (    -1         -1          0      )
                  (     0          0          1      )

 cart.    s( 7) = ( -0.5000000 -0.8660254  0.0000000 )
                  (  0.8660254 -0.5000000  0.0000000 )
                  (  0.0000000  0.0000000  1.0000000 )


      isym =  8     120 deg rotation - cryst. axis [0,0,-1]      

 cryst.   s( 8) = (    -1         -1          0      )
                  (     1          0          0      )
                  (     0          0          1      )

 cart.    s( 8) = ( -0.5000000  0.8660254  0.0000000 )
                  ( -0.8660254 -0.5000000  0.0000000 )
                  (  0.0000000  0.0000000  1.0000000 )


      isym =  9     180 deg rotation - cryst. axis [1,-1,0]      

 cryst.   s( 9) = (     0         -1          0      )    f =(  0.0000000 )
                  (    -1          0          0      )       (  0.0000000 )
                  (     0          0         -1      )       ( -0.5000000 )

 cart.    s( 9) = (  0.5000000 -0.8660254  0.0000000 )    f =(  0.0000000 )
                  ( -0.8660254 -0.5000000  0.0000000 )       (  0.0000000 )
                  (  0.0000000  0.0000000 -1.0000000 )       ( -0.7997988 )


      isym = 10     180 deg rotation - cryst. axis [2,1,0]       

 cryst.   s(10) = (     1          1          0      )    f =(  0.0000000 )
                  (     0         -1          0      )       ( -0.0000000 )
                  (     0          0         -1      )       ( -0.5000000 )

 cart.    s(10) = (  0.5000000  0.8660254  0.0000000 )    f =(  0.0000000 )
                  (  0.8660254 -0.5000000  0.0000000 )       ( -0.0000000 )
                  (  0.0000000  0.0000000 -1.0000000 )       ( -0.7997988 )


      isym = 11     180 deg rotation - cryst. axis [0,1,0]       

 cryst.   s(11) = (    -1         -1          0      )
                  (     0          1          0      )
                  (     0          0         -1      )

 cart.    s(11) = ( -0.5000000 -0.8660254  0.0000000 )
                  ( -0.8660254  0.5000000  0.0000000 )
                  (  0.0000000  0.0000000 -1.0000000 )


      isym = 12     180 deg rotation - cryst. axis [1,1,0]       

 cryst.   s(12) = (     0          1          0      )
                  (     1          0          0      )
                  (     0          0         -1      )

 cart.    s(12) = ( -0.5000000  0.8660254  0.0000000 )
                  (  0.8660254  0.5000000  0.0000000 )
                  (  0.0000000  0.0000000 -1.0000000 )


      isym = 13     inversion                                    

 cryst.   s(13) = (    -1          0          0      )
                  (     0         -1          0      )
                  (     0          0         -1      )

 cart.    s(13) = ( -1.0000000  0.0000000  0.0000000 )
                  (  0.0000000 -1.0000000  0.0000000 )
                  (  0.0000000  0.0000000 -1.0000000 )


      isym = 14     inv. 180 deg rotation - cart. axis [0,0,1]   

 cryst.   s(14) = (     1          0          0      )    f =(  0.0000000 )
                  (     0          1          0      )       (  0.0000000 )
                  (     0          0         -1      )       ( -0.5000000 )

 cart.    s(14) = (  1.0000000  0.0000000  0.0000000 )    f =(  0.0000000 )
                  (  0.0000000  1.0000000  0.0000000 )       (  0.0000000 )
                  (  0.0000000  0.0000000 -1.0000000 )       ( -0.7997988 )


      isym = 15     inv. 180 deg rotation - cart. axis [0,1,0]   

 cryst.   s(15) = (     1          0          0      )    f =(  0.0000000 )
                  (    -1         -1          0      )       (  0.0000000 )
                  (     0          0          1      )       (  0.5000000 )

 cart.    s(15) = (  1.0000000  0.0000000  0.0000000 )    f =(  0.0000000 )
                  (  0.0000000 -1.0000000  0.0000000 )       (  0.0000000 )
                  (  0.0000000  0.0000000  1.0000000 )       (  0.7997988 )


      isym = 16     inv. 180 deg rotation - cart. axis [1,0,0]   

 cryst.   s(16) = (    -1          0          0      )
                  (     1          1          0      )
                  (     0          0          1      )

 cart.    s(16) = ( -1.0000000  0.0000000  0.0000000 )
                  (  0.0000000  1.0000000  0.0000000 )
                  (  0.0000000  0.0000000  1.0000000 )


      isym = 17     inv.  60 deg rotation - cryst. axis [0,0,1]  

 cryst.   s(17) = (    -1         -1          0      )    f =(  0.0000000 )
                  (     1          0          0      )       (  0.0000000 )
                  (     0          0         -1      )       ( -0.5000000 )

 cart.    s(17) = ( -0.5000000  0.8660254  0.0000000 )    f =(  0.0000000 )
                  ( -0.8660254 -0.5000000  0.0000000 )       (  0.0000000 )
                  (  0.0000000  0.0000000 -1.0000000 )       ( -0.7997988 )


      isym = 18     inv.  60 deg rotation - cryst. axis [0,0,-1] 

 cryst.   s(18) = (     0          1          0      )    f =(  0.0000000 )
                  (    -1         -1          0      )       ( -0.0000000 )
                  (     0          0         -1      )       ( -0.5000000 )

 cart.    s(18) = ( -0.5000000 -0.8660254  0.0000000 )    f =(  0.0000000 )
                  (  0.8660254 -0.5000000  0.0000000 )       ( -0.0000000 )
                  (  0.0000000  0.0000000 -1.0000000 )       ( -0.7997988 )


      isym = 19     inv. 120 deg rotation - cryst. axis [0,0,1]  

 cryst.   s(19) = (     0         -1          0      )
                  (     1          1          0      )
                  (     0          0         -1      )

 cart.    s(19) = (  0.5000000  0.8660254  0.0000000 )
                  ( -0.8660254  0.5000000  0.0000000 )
                  (  0.0000000  0.0000000 -1.0000000 )


      isym = 20     inv. 120 deg rotation - cryst. axis [0,0,-1] 

 cryst.   s(20) = (     1          1          0      )
                  (    -1          0          0      )
                  (     0          0         -1      )

 cart.    s(20) = (  0.5000000 -0.8660254  0.0000000 )
                  (  0.8660254  0.5000000  0.0000000 )
                  (  0.0000000  0.0000000 -1.0000000 )


      isym = 21     inv. 180 deg rotation - cryst. axis [1,-1,0] 

 cryst.   s(21) = (     0          1          0      )    f =(  0.0000000 )
                  (     1          0          0      )       ( -0.0000000 )
                  (     0          0          1      )       (  0.5000000 )

 cart.    s(21) = ( -0.5000000  0.8660254  0.0000000 )    f =(  0.0000000 )
                  (  0.8660254  0.5000000  0.0000000 )       ( -0.0000000 )
                  (  0.0000000  0.0000000  1.0000000 )       (  0.7997988 )


      isym = 22     inv. 180 deg rotation - cryst. axis [2,1,0]  

 cryst.   s(22) = (    -1         -1          0      )    f =(  0.0000000 )
                  (     0          1          0      )       ( -0.0000000 )
                  (     0          0          1      )       (  0.5000000 )

 cart.    s(22) = ( -0.5000000 -0.8660254  0.0000000 )    f =(  0.0000000 )
                  ( -0.8660254  0.5000000  0.0000000 )       ( -0.0000000 )
                  (  0.0000000  0.0000000  1.0000000 )       (  0.7997988 )


      isym = 23     inv. 180 deg rotation - cryst. axis [0,1,0]  

 cryst.   s(23) = (     1          1          0      )
                  (     0         -1          0      )
                  (     0          0          1      )

 cart.    s(23) = (  0.5000000  0.8660254  0.0000000 )
                  (  0.8660254 -0.5000000  0.0000000 )
                  (  0.0000000  0.0000000  1.0000000 )


      isym = 24     inv. 180 deg rotation - cryst. axis [1,1,0]  

 cryst.   s(24) = (     0         -1          0      )
                  (    -1          0          0      )
                  (     0          0          1      )

 cart.    s(24) = (  0.5000000 -0.8660254  0.0000000 )
                  ( -0.8660254 -0.5000000  0.0000000 )
                  (  0.0000000  0.0000000  1.0000000 )


     point group D_6h(6/mmm)
     there are 12 classes
     the character table:

       E     2C6   2C3   C2    3C2'  3C2'' i     2S3   2S6   s_h   3s_d  3s_v 
A_1g   1.00  1.00  1.00  1.00  1.00  1.00  1.00  1.00  1.00  1.00  1.00  1.00
A_2g   1.00  1.00  1.00  1.00 -1.00 -1.00  1.00  1.00  1.00  1.00 -1.00 -1.00
B_1g   1.00 -1.00  1.00 -1.00  1.00 -1.00  1.00 -1.00  1.00 -1.00  1.00 -1.00
B_2g   1.00 -1.00  1.00 -1.00 -1.00  1.00  1.00 -1.00  1.00 -1.00 -1.00  1.00
E_1g   2.00  1.00 -1.00 -2.00  0.00  0.00  2.00  1.00 -1.00 -2.00  0.00  0.00
E_2g   2.00 -1.00 -1.00  2.00  0.00  0.00  2.00 -1.00 -1.00  2.00  0.00  0.00
A_1u   1.00  1.00  1.00  1.00  1.00  1.00 -1.00 -1.00 -1.00 -1.00 -1.00 -1.00
A_2u   1.00  1.00  1.00  1.00 -1.00 -1.00 -1.00 -1.00 -1.00 -1.00  1.00  1.00
B_1u   1.00 -1.00  1.00 -1.00  1.00 -1.00 -1.00  1.00 -1.00  1.00 -1.00  1.00
B_2u   1.00 -1.00  1.00 -1.00 -1.00  1.00 -1.00  1.00 -1.00  1.00  1.00 -1.00
E_1u   2.00  1.00 -1.00 -2.00  0.00  0.00 -2.00 -1.00  1.00  2.00  0.00  0.00
E_2u   2.00 -1.00 -1.00  2.00  0.00  0.00 -2.00  1.00  1.00 -2.00  0.00  0.00

     the symmetry operations in each class and the name of the first element:

     E        1
          identity                                               
     2C6      5    6
           60 deg rotation - cryst. axis [0,0,1]                 
     2C3      7    8
          120 deg rotation - cryst. axis [0,0,1]                 
     C2       2
          180 deg rotation - cart. axis [0,0,1]                  
     3C2'     4   12   11
          180 deg rotation - cart. axis [1,0,0]                  
     3C2''    3    9   10
          180 deg rotation - cart. axis [0,1,0]                  
     i       13
          inversion                                              
     2S3     17   18
          inv.  60 deg rotation - cryst. axis [0,0,1]            
     2S6     19   20
          inv. 120 deg rotation - cryst. axis [0,0,1]            
     s_h     14
          inv. 180 deg rotation - cart. axis [0,0,1]             
     3s_d    16   24   23
          inv. 180 deg rotation - cart. axis [1,0,0]             
     3s_v    15   21   22
          inv. 180 deg rotation - cart. axis [0,1,0]             

   Cartesian axes

     site n.     atom                  positions (alat units)
         1           Co  tau(   1) = (  -0.0000000   0.5773503   0.3998994  )
         2           Co  tau(   2) = (   0.5000000   0.2886751   1.1996982  )

   Crystallographic axes

     site n.     atom                  positions (cryst. coord.)
         1           Co  tau(   1) = (  0.3333333  0.6666667  0.2500000  )
         2           Co  tau(   2) = (  0.6666667  0.3333333  0.7500000  )

     number of k points=    76  Gaussian smearing, width (Ry)=  0.0010
                       cart. coord. in units 2pi/alat
        k(    1) = (   0.0000000   0.0000000   0.0000000), wk =   0.0011574
        k(    2) = (   0.0000000   0.0000000   0.1041929), wk =   0.0023148
        k(    3) = (   0.0000000   0.0000000   0.2083857), wk =   0.0023148
        k(    4) = (   0.0000000   0.0000000  -0.3125786), wk =   0.0011574
        k(    5) = (   0.0000000   0.0962250   0.0000000), wk =   0.0069444
        k(    6) = (   0.0000000   0.0962250   0.1041929), wk =   0.0138889
        k(    7) = (   0.0000000   0.0962250   0.2083857), wk =   0.0138889
        k(    8) = (   0.0000000   0.0962250  -0.3125786), wk =   0.0069444
        k(    9) = (   0.0000000   0.1924501   0.0000000), wk =   0.0069444
        k(   10) = (   0.0000000   0.1924501   0.1041929), wk =   0.0138889
        k(   11) = (   0.0000000   0.1924501   0.2083857), wk =   0.0138889
        k(   12) = (   0.0000000   0.1924501  -0.3125786), wk =   0.0069444
        k(   13) = (   0.0000000   0.2886751   0.0000000), wk =   0.0069444
        k(   14) = (   0.0000000   0.2886751   0.1041929), wk =   0.0138889
        k(   15) = (   0.0000000   0.2886751   0.2083857), wk =   0.0138889
        k(   16) = (   0.0000000   0.2886751  -0.3125786), wk =   0.0069444
        k(   17) = (   0.0000000   0.3849002   0.0000000), wk =   0.0069444
        k(   18) = (   0.0000000   0.3849002   0.1041929), wk =   0.0138889
        k(   19) = (   0.0000000   0.3849002   0.2083857), wk =   0.0138889
        k(   20) = (   0.0000000   0.3849002  -0.3125786), wk =   0.0069444
        k(   21) = (   0.0000000   0.4811252   0.0000000), wk =   0.0069444
        k(   22) = (   0.0000000   0.4811252   0.1041929), wk =   0.0138889
        k(   23) = (   0.0000000   0.4811252   0.2083857), wk =   0.0138889
        k(   24) = (   0.0000000   0.4811252  -0.3125786), wk =   0.0069444
        k(   25) = (   0.0000000  -0.5773503   0.0000000), wk =   0.0034722
        k(   26) = (   0.0000000  -0.5773503   0.1041929), wk =   0.0069444
        k(   27) = (   0.0000000  -0.5773503   0.2083857), wk =   0.0069444
        k(   28) = (   0.0000000  -0.5773503  -0.3125786), wk =   0.0034722
        k(   29) = (   0.0833333   0.1443376   0.0000000), wk =   0.0069444
        k(   30) = (   0.0833333   0.1443376   0.1041929), wk =   0.0138889
        k(   31) = (   0.0833333   0.1443376   0.2083857), wk =   0.0138889
        k(   32) = (   0.0833333   0.1443376  -0.3125786), wk =   0.0069444
        k(   33) = (   0.0833333   0.2405626   0.0000000), wk =   0.0138889
        k(   34) = (   0.0833333   0.2405626   0.1041929), wk =   0.0277778
        k(   35) = (   0.0833333   0.2405626   0.2083857), wk =   0.0277778
        k(   36) = (   0.0833333   0.2405626  -0.3125786), wk =   0.0138889
        k(   37) = (   0.0833333   0.3367877   0.0000000), wk =   0.0138889
        k(   38) = (   0.0833333   0.3367877   0.1041929), wk =   0.0277778
        k(   39) = (   0.0833333   0.3367877   0.2083857), wk =   0.0277778
        k(   40) = (   0.0833333   0.3367877  -0.3125786), wk =   0.0138889
        k(   41) = (   0.0833333   0.4330127   0.0000000), wk =   0.0138889
        k(   42) = (   0.0833333   0.4330127   0.1041929), wk =   0.0277778
        k(   43) = (   0.0833333   0.4330127   0.2083857), wk =   0.0277778
        k(   44) = (   0.0833333   0.4330127  -0.3125786), wk =   0.0138889
        k(   45) = (   0.0833333   0.5292377   0.0000000), wk =   0.0138889
        k(   46) = (   0.0833333   0.5292377   0.1041929), wk =   0.0277778
        k(   47) = (   0.0833333   0.5292377   0.2083857), wk =   0.0277778
        k(   48) = (   0.0833333   0.5292377  -0.3125786), wk =   0.0138889
        k(   49) = (   0.1666667   0.2886751   0.0000000), wk =   0.0069444
        k(   50) = (   0.1666667   0.2886751   0.1041929), wk =   0.0138889
        k(   51) = (   0.1666667   0.2886751   0.2083857), wk =   0.0138889
        k(   52) = (   0.1666667   0.2886751  -0.3125786), wk =   0.0069444
        k(   53) = (   0.1666667   0.3849002   0.0000000), wk =   0.0138889
        k(   54) = (   0.1666667   0.3849002   0.1041929), wk =   0.0277778
        k(   55) = (   0.1666667   0.3849002   0.2083857), wk =   0.0277778
        k(   56) = (   0.1666667   0.3849002  -0.3125786), wk =   0.0138889
        k(   57) = (   0.1666667   0.4811252   0.0000000), wk =   0.0138889
        k(   58) = (   0.1666667   0.4811252   0.1041929), wk =   0.0277778
        k(   59) = (   0.1666667   0.4811252   0.2083857), wk =   0.0277778
        k(   60) = (   0.1666667   0.4811252  -0.3125786), wk =   0.0138889
        k(   61) = (   0.1666667   0.5773503   0.0000000), wk =   0.0069444
        k(   62) = (   0.1666667   0.5773503   0.1041929), wk =   0.0138889
        k(   63) = (   0.1666667   0.5773503   0.2083857), wk =   0.0138889
        k(   64) = (   0.1666667   0.5773503  -0.3125786), wk =   0.0069444
        k(   65) = (   0.2500000   0.4330127   0.0000000), wk =   0.0069444
        k(   66) = (   0.2500000   0.4330127   0.1041929), wk =   0.0138889
        k(   67) = (   0.2500000   0.4330127   0.2083857), wk =   0.0138889
        k(   68) = (   0.2500000   0.4330127  -0.3125786), wk =   0.0069444
        k(   69) = (   0.2500000   0.5292377   0.0000000), wk =   0.0138889
        k(   70) = (   0.2500000   0.5292377   0.1041929), wk =   0.0277778
        k(   71) = (   0.2500000   0.5292377   0.2083857), wk =   0.0277778
        k(   72) = (   0.2500000   0.5292377  -0.3125786), wk =   0.0138889
        k(   73) = (   0.3333333   0.5773503   0.0000000), wk =   0.0023148
        k(   74) = (   0.3333333   0.5773503   0.1041929), wk =   0.0046296
        k(   75) = (   0.3333333   0.5773503   0.2083857), wk =   0.0046296
        k(   76) = (   0.3333333   0.5773503  -0.3125786), wk =   0.0023148

                       cryst. coord.
        k(    1) = (   0.0000000   0.0000000   0.0000000), wk =   0.0011574
        k(    2) = (   0.0000000   0.0000000   0.1666667), wk =   0.0023148
        k(    3) = (   0.0000000   0.0000000   0.3333333), wk =   0.0023148
        k(    4) = (   0.0000000   0.0000000  -0.5000000), wk =   0.0011574
        k(    5) = (   0.0000000   0.0833333   0.0000000), wk =   0.0069444
        k(    6) = (   0.0000000   0.0833333   0.1666667), wk =   0.0138889
        k(    7) = (   0.0000000   0.0833333   0.3333333), wk =   0.0138889
        k(    8) = (   0.0000000   0.0833333  -0.5000000), wk =   0.0069444
        k(    9) = (   0.0000000   0.1666667   0.0000000), wk =   0.0069444
        k(   10) = (   0.0000000   0.1666667   0.1666667), wk =   0.0138889
        k(   11) = (   0.0000000   0.1666667   0.3333333), wk =   0.0138889
        k(   12) = (   0.0000000   0.1666667  -0.5000000), wk =   0.0069444
        k(   13) = (   0.0000000   0.2500000   0.0000000), wk =   0.0069444
        k(   14) = (   0.0000000   0.2500000   0.1666667), wk =   0.0138889
        k(   15) = (   0.0000000   0.2500000   0.3333333), wk =   0.0138889
        k(   16) = (   0.0000000   0.2500000  -0.5000000), wk =   0.0069444
        k(   17) = (   0.0000000   0.3333333   0.0000000), wk =   0.0069444
        k(   18) = (   0.0000000   0.3333333   0.1666667), wk =   0.0138889
        k(   19) = (   0.0000000   0.3333333   0.3333333), wk =   0.0138889
        k(   20) = (   0.0000000   0.3333333  -0.5000000), wk =   0.0069444
        k(   21) = (   0.0000000   0.4166667   0.0000000), wk =   0.0069444
        k(   22) = (   0.0000000   0.4166667   0.1666667), wk =   0.0138889
        k(   23) = (   0.0000000   0.4166667   0.3333333), wk =   0.0138889
        k(   24) = (   0.0000000   0.4166667  -0.5000000), wk =   0.0069444
        k(   25) = (   0.0000000  -0.5000000   0.0000000), wk =   0.0034722
        k(   26) = (   0.0000000  -0.5000000   0.1666667), wk =   0.0069444
        k(   27) = (   0.0000000  -0.5000000   0.3333333), wk =   0.0069444
        k(   28) = (   0.0000000  -0.5000000  -0.5000000), wk =   0.0034722
        k(   29) = (   0.0833333   0.0833333   0.0000000), wk =   0.0069444
        k(   30) = (   0.0833333   0.0833333   0.1666667), wk =   0.0138889
        k(   31) = (   0.0833333   0.0833333   0.3333333), wk =   0.0138889
        k(   32) = (   0.0833333   0.0833333  -0.5000000), wk =   0.0069444
        k(   33) = (   0.0833333   0.1666667   0.0000000), wk =   0.0138889
        k(   34) = (   0.0833333   0.1666667   0.1666667), wk =   0.0277778
        k(   35) = (   0.0833333   0.1666667   0.3333333), wk =   0.0277778
        k(   36) = (   0.0833333   0.1666667  -0.5000000), wk =   0.0138889
        k(   37) = (   0.0833333   0.2500000   0.0000000), wk =   0.0138889
        k(   38) = (   0.0833333   0.2500000   0.1666667), wk =   0.0277778
        k(   39) = (   0.0833333   0.2500000   0.3333333), wk =   0.0277778
        k(   40) = (   0.0833333   0.2500000  -0.5000000), wk =   0.0138889
        k(   41) = (   0.0833333   0.3333333   0.0000000), wk =   0.0138889
        k(   42) = (   0.0833333   0.3333333   0.1666667), wk =   0.0277778
        k(   43) = (   0.0833333   0.3333333   0.3333333), wk =   0.0277778
        k(   44) = (   0.0833333   0.3333333  -0.5000000), wk =   0.0138889
        k(   45) = (   0.0833333   0.4166667   0.0000000), wk =   0.0138889
        k(   46) = (   0.0833333   0.4166667   0.1666667), wk =   0.0277778
        k(   47) = (   0.0833333   0.4166667   0.3333333), wk =   0.0277778
        k(   48) = (   0.0833333   0.4166667  -0.5000000), wk =   0.0138889
        k(   49) = (   0.1666667   0.1666667   0.0000000), wk =   0.0069444
        k(   50) = (   0.1666667   0.1666667   0.1666667), wk =   0.0138889
        k(   51) = (   0.1666667   0.1666667   0.3333333), wk =   0.0138889
        k(   52) = (   0.1666667   0.1666667  -0.5000000), wk =   0.0069444
        k(   53) = (   0.1666667   0.2500000   0.0000000), wk =   0.0138889
        k(   54) = (   0.1666667   0.2500000   0.1666667), wk =   0.0277778
        k(   55) = (   0.1666667   0.2500000   0.3333333), wk =   0.0277778
        k(   56) = (   0.1666667   0.2500000  -0.5000000), wk =   0.0138889
        k(   57) = (   0.1666667   0.3333333   0.0000000), wk =   0.0138889
        k(   58) = (   0.1666667   0.3333333   0.1666667), wk =   0.0277778
        k(   59) = (   0.1666667   0.3333333   0.3333333), wk =   0.0277778
        k(   60) = (   0.1666667   0.3333333  -0.5000000), wk =   0.0138889
        k(   61) = (   0.1666667   0.4166667   0.0000000), wk =   0.0069444
        k(   62) = (   0.1666667   0.4166667   0.1666667), wk =   0.0138889
        k(   63) = (   0.1666667   0.4166667   0.3333333), wk =   0.0138889
        k(   64) = (   0.1666667   0.4166667  -0.5000000), wk =   0.0069444
        k(   65) = (   0.2500000   0.2500000   0.0000000), wk =   0.0069444
        k(   66) = (   0.2500000   0.2500000   0.1666667), wk =   0.0138889
        k(   67) = (   0.2500000   0.2500000   0.3333333), wk =   0.0138889
        k(   68) = (   0.2500000   0.2500000  -0.5000000), wk =   0.0069444
        k(   69) = (   0.2500000   0.3333333   0.0000000), wk =   0.0138889
        k(   70) = (   0.2500000   0.3333333   0.1666667), wk =   0.0277778
        k(   71) = (   0.2500000   0.3333333   0.3333333), wk =   0.0277778
        k(   72) = (   0.2500000   0.3333333  -0.5000000), wk =   0.0138889
        k(   73) = (   0.3333333   0.3333333   0.0000000), wk =   0.0023148
        k(   74) = (   0.3333333   0.3333333   0.1666667), wk =   0.0046296
        k(   75) = (   0.3333333   0.3333333   0.3333333), wk =   0.0046296
        k(   76) = (   0.3333333   0.3333333  -0.5000000), wk =   0.0023148

     Dense  grid:    23091 G-vectors     FFT dimensions: (  32,  32,  54)

     Smooth grid:    22395 G-vectors     FFT dimensions: (  32,  32,  54)

     Dynamical RAM for                 wfc:       0.06 MB

     Dynamical RAM for     wfc (w. buffer):       4.91 MB

     Dynamical RAM for           str. fact:       0.03 MB

     Dynamical RAM for           local pot:       0.00 MB

     Dynamical RAM for          nlocal pot:       0.11 MB

     Dynamical RAM for                qrad:       1.70 MB

     Dynamical RAM for          rho,v,vnew:       0.34 MB

     Dynamical RAM for               rhoin:       0.11 MB

     Dynamical RAM for            rho*nmix:       0.80 MB

     Dynamical RAM for           G-vectors:       0.11 MB

     Dynamical RAM for          h,s,v(r/c):       0.08 MB

     Dynamical RAM for          <psi|beta>:       0.01 MB

     Dynamical RAM for                 psi:       0.13 MB

     Dynamical RAM for                hpsi:       0.13 MB

     Dynamical RAM for                spsi:       0.13 MB

     Dynamical RAM for      wfcinit/wfcrot:       0.14 MB

     Dynamical RAM for           addusdens:       2.40 MB

     Estimated static dynamical RAM per process >       7.54 MB

     Estimated max dynamical RAM per process >      10.75 MB

     Estimated total dynamical RAM >     289.69 MB

     Check: negative core charge=   -0.000043
     Generating pointlists ...
     new r_m :   0.4069 (alat units)  1.9108 (a.u.) for type    1

     The initial density is read from file :
     ./out2/Co.save/charge-density


     starting charge      34.0428, renormalised to      34.0000

     negative rho (up, down):  1.977E-02 1.394E-02
     Starting wfcs from file
     Checking if some PAW data can be deallocated... 

     total cpu time spent up to now is        0.5 secs

     Self-consistent Calculation

     iteration #  1     ecut=   110.00 Ry     beta= 0.70
     Davidson diagonalization with overlap

---- Real-time Memory Report at c_bands before calling an iterative solver
            59 MiB given to the printing process from OS
             0 MiB allocation reported by mallinfo(arena+hblkhd)
        181396 MiB available memory on the node where the printing process lives
------------------
     ethr =  1.00E-05,  avg # of iterations =  7.7

     negative rho (up, down):  8.239E-05 2.549E-05

     total cpu time spent up to now is        2.6 secs

     total energy              =    -753.37070911 Ry
     estimated scf accuracy    <       0.01911223 Ry

     total magnetization       =     3.28 Bohr mag/cell
     absolute magnetization    =     3.51 Bohr mag/cell

     iteration #  2     ecut=   110.00 Ry     beta= 0.70
     Davidson diagonalization with overlap

---- Real-time Memory Report at c_bands before calling an iterative solver
            82 MiB given to the printing process from OS
             0 MiB allocation reported by mallinfo(arena+hblkhd)
        181068 MiB available memory on the node where the printing process lives
------------------
     ethr =  5.62E-05,  avg # of iterations =  4.7

     negative rho (up, down):  2.194E-06 0.000E+00

     total cpu time spent up to now is        3.9 secs

     total energy              =    -753.41492146 Ry
     estimated scf accuracy    <       0.02198579 Ry

     total magnetization       =     3.24 Bohr mag/cell
     absolute magnetization    =     3.53 Bohr mag/cell

     iteration #  3     ecut=   110.00 Ry     beta= 0.70
     Davidson diagonalization with overlap

---- Real-time Memory Report at c_bands before calling an iterative solver
            86 MiB given to the printing process from OS
             0 MiB allocation reported by mallinfo(arena+hblkhd)
        181047 MiB available memory on the node where the printing process lives
------------------
     ethr =  5.62E-05,  avg # of iterations =  2.1

     total cpu time spent up to now is        4.8 secs

     total energy              =    -753.45348126 Ry
     estimated scf accuracy    <       0.00081811 Ry

     total magnetization       =     3.21 Bohr mag/cell
     absolute magnetization    =     3.52 Bohr mag/cell

     iteration #  4     ecut=   110.00 Ry     beta= 0.70
     Davidson diagonalization with overlap

---- Real-time Memory Report at c_bands before calling an iterative solver
            87 MiB given to the printing process from OS
             0 MiB allocation reported by mallinfo(arena+hblkhd)
        181036 MiB available memory on the node where the printing process lives
------------------
     ethr =  2.41E-06,  avg # of iterations =  5.9

     total cpu time spent up to now is        6.3 secs

     total energy              =    -753.45469022 Ry
     estimated scf accuracy    <       0.00118543 Ry

     total magnetization       =     3.20 Bohr mag/cell
     absolute magnetization    =     3.52 Bohr mag/cell

     iteration #  5     ecut=   110.00 Ry     beta= 0.70
     Davidson diagonalization with overlap

---- Real-time Memory Report at c_bands before calling an iterative solver
            87 MiB given to the printing process from OS
             0 MiB allocation reported by mallinfo(arena+hblkhd)
        181027 MiB available memory on the node where the printing process lives
------------------
     ethr =  2.41E-06,  avg # of iterations =  1.2

     total cpu time spent up to now is        7.1 secs

     total energy              =    -753.45473977 Ry
     estimated scf accuracy    <       0.00017636 Ry

     total magnetization       =     3.21 Bohr mag/cell
     absolute magnetization    =     3.52 Bohr mag/cell

     iteration #  6     ecut=   110.00 Ry     beta= 0.70
     Davidson diagonalization with overlap

---- Real-time Memory Report at c_bands before calling an iterative solver
            87 MiB given to the printing process from OS
             0 MiB allocation reported by mallinfo(arena+hblkhd)
        181022 MiB available memory on the node where the printing process lives
------------------
     ethr =  5.19E-07,  avg # of iterations =  4.0

     total cpu time spent up to now is        8.1 secs

     total energy              =    -753.45478904 Ry
     estimated scf accuracy    <       0.00000937 Ry

     total magnetization       =     3.21 Bohr mag/cell
     absolute magnetization    =     3.53 Bohr mag/cell

     iteration #  7     ecut=   110.00 Ry     beta= 0.70
     Davidson diagonalization with overlap

---- Real-time Memory Report at c_bands before calling an iterative solver
            88 MiB given to the printing process from OS
             0 MiB allocation reported by mallinfo(arena+hblkhd)
        181014 MiB available memory on the node where the printing process lives
------------------
     ethr =  2.76E-08,  avg # of iterations =  5.4

     total cpu time spent up to now is        9.4 secs

     total energy              =    -753.45479671 Ry
     estimated scf accuracy    <       0.00000418 Ry

     total magnetization       =     3.22 Bohr mag/cell
     absolute magnetization    =     3.53 Bohr mag/cell

     iteration #  8     ecut=   110.00 Ry     beta= 0.70
     Davidson diagonalization with overlap

---- Real-time Memory Report at c_bands before calling an iterative solver
            88 MiB given to the printing process from OS
             0 MiB allocation reported by mallinfo(arena+hblkhd)
        181011 MiB available memory on the node where the printing process lives
------------------
     ethr =  1.23E-08,  avg # of iterations =  3.5
 
     Magnetic moment per site  (integrated on atomic sphere of radius R)
     atom   1 (R=0.407)  charge= 15.5510  magn=  1.6835
     atom   2 (R=0.407)  charge= 15.5510  magn=  1.6835

     total cpu time spent up to now is       10.4 secs

     End of self-consistent calculation

 ------ SPIN UP ------------


          k = 0.0000 0.0000 0.0000 (  2791 PWs)   bands (ev):

   -76.9624 -76.8976 -40.3720 -40.0728 -40.0728 -40.0186 -40.0186 -40.0093
    10.0341  13.8782  16.5085  16.5085  16.5422  16.8469  16.8469  17.1681
    17.1681  18.3564  18.3564  19.0274  25.8019

     occupation numbers 
     1.0000   1.0000   1.0000   1.0000   1.0000   1.0000   1.0000   1.0000
     1.0000   1.0000   1.0000   1.0000   1.0000   1.0000   1.0000   1.0000
     1.0000   1.0000   1.0000   1.0000   0.0000

          k = 0.0000 0.0000 0.1042 (  2809 PWs)   bands (ev):

   -76.9581 -76.9019 -40.3480 -40.0692 -40.0692 -40.0339 -40.0222 -40.0222
    10.3203  13.8174  16.4329  16.4329  16.4648  16.7648  16.7648  17.3500
    17.3500  18.0422  18.3418  18.3418  27.3571

     occupation numbers 
     1.0000   1.0000   1.0000   1.0000   1.0000   1.0000   1.0000   1.0000
     1.0000   1.0000   1.0000   1.0000   1.0000   1.0000   1.0000   1.0000
     1.0000   1.0000   1.0000   1.0000   0.0000

          k = 0.0000 0.0000 0.2084 (  2773 PWs)   bands (ev):

   -76.9462 -76.9138 -40.2823 -40.1010 -40.0593 -40.0593 -40.0321 -40.0321
    11.1397  13.3989  16.2848  16.3699  16.3699  16.5848  16.5848  16.6670
    17.7013  17.7013  18.2523  18.2523  30.6443

     occupation numbers 
     1.0000   1.0000   1.0000   1.0000   1.0000   1.0000   1.0000   1.0000
     1.0000   1.0000   1.0000   1.0000   1.0000   1.0000   1.0000   1.0000
     1.0000   1.0000   1.0000   1.0000   0.0000

          k = 0.0000 0.0000-0.3126 (  2810 PWs)   bands (ev):

   -76.9300 -76.9300 -40.1921 -40.1921 -40.0457 -40.0457 -40.0457 -40.0457
    12.3276  12.3276  16.1934  16.1934  16.4260  16.4260  16.4260  16.4260
    18.0328  18.0328  18.0328  18.0328  34.5555

     occupation numbers 
     1.0000   1.0000   1.0000   1.0000   1.0000   1.0000   1.0000   1.0000
     1.0000   1.0000   1.0000   1.0000   1.0000   1.0000   1.0000   1.0000
     1.0000   1.0000   1.0000   1.0000   0.0000

          k = 0.0000 0.0962 0.0000 (  2799 PWs)   bands (ev):

   -76.9590 -76.8962 -40.3643 -40.0889 -40.0782 -40.0353 -40.0211 -40.0127
    10.2777  14.0228  16.2745  16.6246  16.7320  16.8040  16.9489  17.0154
    17.0941  17.5431  18.3893  20.1613  25.8399

     occupation numbers 
     1.0000   1.0000   1.0000   1.0000   1.0000   1.0000   1.0000   1.0000
     1.0000   1.0000   1.0000   1.0000   1.0000   1.0000   1.0000   1.0000
     1.0000   1.0000   1.0000   0.0000   0.0000

          k = 0.0000 0.0962 0.1042 (  2789 PWs)   bands (ev):

   -76.9548 -76.9004 -40.3418 -40.0847 -40.0744 -40.0512 -40.0250 -40.0243
    10.5593  13.9770  16.2677  16.5300  16.5402  16.6083  16.8602  17.1977
    17.3061  17.4199  18.3666  19.3607  27.4635

     occupation numbers 
     1.0000   1.0000   1.0000   1.0000   1.0000   1.0000   1.0000   1.0000
     1.0000   1.0000   1.0000   1.0000   1.0000   1.0000   1.0000   1.0000
     1.0000   1.0000   1.0000   0.0000   0.0000

          k = 0.0000 0.0962 0.2084 (  2787 PWs)   bands (ev):

   -76.9433 -76.9119 -40.2800 -40.1104 -40.0728 -40.0640 -40.0400 -40.0354
    11.3656  13.5880  16.1645  16.2452  16.3056  16.4603  16.6794  16.7856
    17.6758  17.7265  18.2592  18.5630  30.7949

     occupation numbers 
     1.0000   1.0000   1.0000   1.0000   1.0000   1.0000   1.0000   1.0000
     1.0000   1.0000   1.0000   1.0000   1.0000   1.0000   1.0000   1.0000
     1.0000   1.0000   1.0000   1.0000   0.0000

          k = 0.0000 0.0962-0.3126 (  2804 PWs)   bands (ev):

   -76.9276 -76.9276 -40.1952 -40.1952 -40.0567 -40.0567 -40.0497 -40.0497
    12.5345  12.5345  16.0208  16.0208  16.4612  16.4612  16.5185  16.5185
    18.0218  18.0218  18.1294  18.1294  34.7199

     occupation numbers 
     1.0000   1.0000   1.0000   1.0000   1.0000   1.0000   1.0000   1.0000
     1.0000   1.0000   1.0000   1.0000   1.0000   1.0000   1.0000   1.0000
     1.0000   1.0000   1.0000   1.0000   0.0000

          k = 0.0000 0.1925 0.0000 (  2799 PWs)   bands (ev):

   -76.9495 -76.8924 -40.3423 -40.1331 -40.0927 -40.0808 -40.0285 -40.0230
    10.9818  14.3799  15.9797  16.2984  16.6327  16.9114  16.9527  17.0485
    17.1522  17.2350  18.4600  21.7823  25.9734

     occupation numbers 
     1.0000   1.0000   1.0000   1.0000   1.0000   1.0000   1.0000   1.0000
     1.0000   1.0000   1.0000   1.0000   1.0000   1.0000   1.0000   1.0000
     1.0000   1.0000   1.0000   0.0000   0.0000

          k = 0.0000 0.1925 0.1042 (  2784 PWs)   bands (ev):

   -76.9457 -76.8963 -40.3245 -40.1267 -40.0964 -40.0884 -40.0328 -40.0320
    11.2467  14.3799  16.0028  16.0295  16.5130  16.7347  16.9174  17.1078
    17.2932  17.4146  18.4193  20.6251  27.8090

     occupation numbers 
     1.0000   1.0000   1.0000   1.0000   1.0000   1.0000   1.0000   1.0000
     1.0000   1.0000   1.0000   1.0000   1.0000   1.0000   1.0000   1.0000
     1.0000   1.0000   1.0000   0.0000   0.0000

          k = 0.0000 0.1925 0.2084 (  2790 PWs)   bands (ev):

   -76.9353 -76.9068 -40.2759 -40.1443 -40.1065 -40.0766 -40.0539 -40.0445
    12.0016  14.0783  15.6475  16.0728  16.2233  16.6807  16.7241  16.9426
    17.6497  17.8285  18.2738  19.2315  31.2437

     occupation numbers 
     1.0000   1.0000   1.0000   1.0000   1.0000   1.0000   1.0000   1.0000
     1.0000   1.0000   1.0000   1.0000   1.0000   1.0000   1.0000   1.0000
     1.0000   1.0000   1.0000   0.0000   0.0000

          k = 0.0000 0.1925-0.3126 (  2786 PWs)   bands (ev):

   -76.9210 -76.9210 -40.2095 -40.2095 -40.0810 -40.0810 -40.0606 -40.0606
    13.0903  13.0903  15.7686  15.7686  16.4134  16.4134  16.7657  16.7657
    18.0056  18.0056  18.3884  18.3884  35.1544

     occupation numbers 
     1.0000   1.0000   1.0000   1.0000   1.0000   1.0000   1.0000   1.0000
     1.0000   1.0000   1.0000   1.0000   1.0000   1.0000   1.0000   1.0000
     1.0000   1.0000   1.0000   1.0000   0.0000

          k = 0.0000 0.2887 0.0000 (  2782 PWs)   bands (ev):

   -76.9361 -76.8879 -40.3093 -40.1940 -40.1417 -40.1118 -40.0401 -40.0390
    12.0473  14.6688  15.5552  15.7910  16.5457  16.6920  16.9545  17.4287
    17.4819  17.6465  18.5280  23.6034  26.2250

     occupation numbers 
     1.0000   1.0000   1.0000   1.0000   1.0000   1.0000   1.0000   1.0000
     1.0000   1.0000   1.0000   1.0000   1.0000   1.0000   1.0000   1.0000
     1.0000   1.0000   1.0000   0.0000   0.0000

          k = 0.0000 0.2887 0.1042 (  2787 PWs)   bands (ev):

   -76.9329 -76.8911 -40.3027 -40.1814 -40.1558 -40.1069 -40.0453 -40.0439
    12.2678  14.7237  15.4019  15.8451  16.3847  16.7298  16.9598  17.4797
    17.5963  17.6042  18.4697  21.9336  28.4202

     occupation numbers 
     1.0000   1.0000   1.0000   1.0000   1.0000   1.0000   1.0000   1.0000
     1.0000   1.0000   1.0000   1.0000   1.0000   1.0000   1.0000   1.0000
     1.0000   1.0000   1.0000   0.0000   0.0000

          k = 0.0000 0.2887 0.2084 (  2793 PWs)   bands (ev):

   -76.9241 -76.9000 -40.2809 -40.1997 -40.1405 -40.0936 -40.0647 -40.0572
    12.8812  14.5147  15.2961  15.8992  16.2279  16.7884  16.8542  17.3168
    17.7667  18.0016  18.2990  20.0259  31.7947

     occupation numbers 
     1.0000   1.0000   1.0000   1.0000   1.0000   1.0000   1.0000   1.0000
     1.0000   1.0000   1.0000   1.0000   1.0000   1.0000   1.0000   1.0000
     1.0000   1.0000   1.0000   0.0000   0.0000

          k = 0.0000 0.2887-0.3126 (  2794 PWs)   bands (ev):

   -76.9120 -76.9120 -40.2439 -40.2439 -40.0992 -40.0992 -40.0754 -40.0754
    13.7292  13.7292  15.6108  15.6108  16.4676  16.4676  17.0649  17.0649
    18.0438  18.0438  18.7470  18.7470  33.6714

     occupation numbers 
     1.0000   1.0000   1.0000   1.0000   1.0000   1.0000   1.0000   1.0000
     1.0000   1.0000   1.0000   1.0000   1.0000   1.0000   1.0000   1.0000
     1.0000   1.0000   1.0000   1.0000   0.0000

          k = 0.0000 0.3849 0.0000 (  2802 PWs)   bands (ev):

   -76.9216 -76.8844 -40.2705 -40.2555 -40.2015 -40.1304 -40.0628 -40.0500
    13.2142  14.6054  15.0118  15.8852  16.4947  16.6717  16.7827  17.9359
    18.0939  18.1672  18.5758  25.5809  26.1745

     occupation numbers 
     1.0000   1.0000   1.0000   1.0000   1.0000   1.0000   1.0000   1.0000
     1.0000   1.0000   1.0000   1.0000   1.0000   1.0000   1.0000   1.0000
     1.0000   1.0000   1.0000   0.0000   0.0000

          k = 0.0000 0.3849 0.1042 (  2796 PWs)   bands (ev):

   -76.9191 -76.8869 -40.2971 -40.2265 -40.2033 -40.1250 -40.0634 -40.0554
    13.3182  14.6507  15.0393  15.7637  16.5670  16.5915  17.1247  17.9630
    17.9956  18.1034  18.5121  23.1799  28.2288

     occupation numbers 
     1.0000   1.0000   1.0000   1.0000   1.0000   1.0000   1.0000   1.0000
     1.0000   1.0000   1.0000   1.0000   1.0000   1.0000   1.0000   1.0000
     1.0000   1.0000   1.0000   0.0000   0.0000

          k = 0.0000 0.3849 0.2084 (  2797 PWs)   bands (ev):

   -76.9123 -76.8937 -40.3062 -40.2575 -40.1525 -40.1103 -40.0742 -40.0701
    13.6095  14.4827  15.1741  15.7141  16.6395  16.8644  17.4035  17.6757
    18.0749  18.2353  18.3725  20.9166  29.2968

     occupation numbers 
     1.0000   1.0000   1.0000   1.0000   1.0000   1.0000   1.0000   1.0000
     1.0000   1.0000   1.0000   1.0000   1.0000   1.0000   1.0000   1.0000
     1.0000   1.0000   1.0000   0.0000   0.0000

          k = 0.0000 0.3849-0.3126 (  2788 PWs)   bands (ev):

   -76.9030 -76.9030 -40.2906 -40.2906 -40.1046 -40.1046 -40.0903 -40.0903
    14.0343  14.0343  15.4917  15.4917  17.0608  17.0608  17.2587  17.2587
    18.2167  18.2167  19.2299  19.2299  30.4474

     occupation numbers 
     1.0000   1.0000   1.0000   1.0000   1.0000   1.0000   1.0000   1.0000
     1.0000   1.0000   1.0000   1.0000   1.0000   1.0000   1.0000   1.0000
     1.0000   1.0000   0.0000   0.0000   0.0000

          k = 0.0000 0.4811 0.0000 (  2804 PWs)   bands (ev):

   -76.9096 -76.8831 -40.3009 -40.2445 -40.2345 -40.1438 -40.0871 -40.0582
    13.9944  14.4165  14.6853  16.2382  16.3602  16.6620  16.8760  18.3145
    18.4661  18.6019  19.2742  24.1890  27.6143

     occupation numbers 
     1.0000   1.0000   1.0000   1.0000   1.0000   1.0000   1.0000   1.0000
     1.0000   1.0000   1.0000   1.0000   1.0000   1.0000   1.0000   1.0000
     1.0000   1.0000   0.0000   0.0000   0.0000

          k = 0.0000 0.4811 0.1042 (  2788 PWs)   bands (ev):

   -76.9078 -76.8849 -40.3208 -40.2639 -40.1994 -40.1381 -40.0828 -40.0640
    13.8871  14.4209  15.0070  15.6649  16.4794  16.8598  17.4688  18.2787
    18.3643  18.5660  19.1069  23.4287  26.8604

     occupation numbers 
     1.0000   1.0000   1.0000   1.0000   1.0000   1.0000   1.0000   1.0000
     1.0000   1.0000   1.0000   1.0000   1.0000   1.0000   1.0000   1.0000
     1.0000   1.0000   0.0400   0.0000   0.0000

          k = 0.0000 0.4811 0.2084 (  2796 PWs)   bands (ev):

   -76.9030 -76.8898 -40.3368 -40.2998 -40.1466 -40.1225 -40.0835 -40.0797
    13.8595  14.3559  15.1648  15.5237  16.8181  17.0830  17.8631  18.3890
    18.4746  18.5125  18.7454  21.7058  26.9628

     occupation numbers 
     1.0000   1.0000   1.0000   1.0000   1.0000   1.0000   1.0000   1.0000
     1.0000   1.0000   1.0000   1.0000   1.0000   1.0000   1.0000   1.0000
     1.0000   1.0000   1.0000   0.0000   0.0000

          k = 0.0000 0.4811-0.3126 (  2796 PWs)   bands (ev):

   -76.8964 -76.8964 -40.3288 -40.3288 -40.1045 -40.1045 -40.1011 -40.1011
    14.0535  14.0535  15.3723  15.3723  17.3161  17.3161  17.8083  17.8083
    18.4496  18.4496  20.0236  20.0236  27.7515

     occupation numbers 
     1.0000   1.0000   1.0000   1.0000   1.0000   1.0000   1.0000   1.0000
     1.0000   1.0000   1.0000   1.0000   1.0000   1.0000   1.0000   1.0000
     1.0000   1.0000   0.0000   0.0000   0.0000

          k = 0.0000-0.5774 0.0000 (  2790 PWs)   bands (ev):

   -76.9046 -76.8833 -40.3175 -40.2601 -40.2176 -40.1486 -40.0997 -40.0613
    14.2626  14.2743  14.5767  16.3126  16.4834  16.6186  16.9561  18.4512
    18.6100  18.6171  20.4176  22.4557  28.9269

     occupation numbers 
     1.0000   1.0000   1.0000   1.0000   1.0000   1.0000   1.0000   1.0000
     1.0000   1.0000   1.0000   1.0000   1.0000   1.0000   1.0000   1.0000
     1.0000   1.0000   0.0000   0.0000   0.0000

          k = 0.0000-0.5774 0.1042 (  2798 PWs)   bands (ev):

   -76.9031 -76.8848 -40.3338 -40.2788 -40.1895 -40.1428 -40.0927 -40.0671
    13.9945  14.3192  15.0458  15.6386  16.4383  16.9534  17.6671  18.3594
    18.5235  18.6087  20.1983  22.2761  28.0256

     occupation numbers 
     1.0000   1.0000   1.0000   1.0000   1.0000   1.0000   1.0000   1.0000
     1.0000   1.0000   1.0000   1.0000   1.0000   1.0000   1.0000   1.0000
     1.0000   1.0000   0.0000   0.0000   0.0000

          k = 0.0000-0.5774 0.2084 (  2794 PWs)   bands (ev):

   -76.8993 -76.8886 -40.3497 -40.3151 -40.1414 -40.1269 -40.0882 -40.0832
    13.8808  14.3067  15.1884  15.4379  16.7958  17.2346  17.9064  18.5240
    18.5854  18.5925  19.8332  21.6677  26.9636

     occupation numbers 
     1.0000   1.0000   1.0000   1.0000   1.0000   1.0000   1.0000   1.0000
     1.0000   1.0000   1.0000   1.0000   1.0000   1.0000   1.0000   1.0000
     1.0000   1.0000   0.0000   0.0000   0.0000

          k = 0.0000-0.5774-0.3126 (  2808 PWs)   bands (ev):

   -76.8939 -76.8939 -40.3432 -40.3432 -40.1051 -40.1051 -40.1039 -40.1039
    14.0349  14.0349  15.3244  15.3244  17.3233  17.3233  18.0676  18.0676
    18.5538  18.5538  20.6409  20.6409  26.5146

     occupation numbers 
     1.0000   1.0000   1.0000   1.0000   1.0000   1.0000   1.0000   1.0000
     1.0000   1.0000   1.0000   1.0000   1.0000   1.0000   1.0000   1.0000
     1.0000   1.0000   0.0000   0.0000   0.0000

          k = 0.0833 0.1443 0.0000 (  2798 PWs)   bands (ev):

   -76.9526 -76.8936 -40.3494 -40.1163 -40.0944 -40.0609 -40.0282 -40.0196
    10.7524  14.2792  16.0433  16.5490  16.6952  16.8619  16.8893  16.8998
    17.1759  17.2688  18.4316  21.3285  25.9277

     occupation numbers 
     1.0000   1.0000   1.0000   1.0000   1.0000   1.0000   1.0000   1.0000
     1.0000   1.0000   1.0000   1.0000   1.0000   1.0000   1.0000   1.0000
     1.0000   1.0000   1.0000   0.0000   0.0000

          k = 0.0833 0.1443 0.1042 (  2792 PWs)   bands (ev):

   -76.9486 -76.8976 -40.3299 -40.1105 -40.0939 -40.0740 -40.0323 -40.0286
    11.0236  14.2645  16.0669  16.2032  16.5564  16.7025  16.8865  17.0243
    17.3344  17.3806  18.3995  20.2823  27.6916

     occupation numbers 
     1.0000   1.0000   1.0000   1.0000   1.0000   1.0000   1.0000   1.0000
     1.0000   1.0000   1.0000   1.0000   1.0000   1.0000   1.0000   1.0000
     1.0000   1.0000   1.0000   0.0000   0.0000

          k = 0.0833 0.1443 0.2084 (  2786 PWs)   bands (ev):

   -76.9379 -76.9084 -40.2766 -40.1324 -40.0949 -40.0752 -40.0478 -40.0435
    11.7983  13.9342  15.7769  16.1220  16.2368  16.6210  16.7342  16.8597
    17.6809  17.7679  18.2737  19.0378  31.0978

     occupation numbers 
     1.0000   1.0000   1.0000   1.0000   1.0000   1.0000   1.0000   1.0000
     1.0000   1.0000   1.0000   1.0000   1.0000   1.0000   1.0000   1.0000
     1.0000   1.0000   1.0000   1.0000   0.0000

          k = 0.0833 0.1443-0.3126 (  2770 PWs)   bands (ev):

   -76.9231 -76.9231 -40.2038 -40.2038 -40.0743 -40.0743 -40.0574 -40.0574
    12.9195  12.9195  15.8309  15.8309  16.4126  16.4126  16.7013  16.7013
    18.0117  18.0117  18.3074  18.3074  35.0343

     occupation numbers 
     1.0000   1.0000   1.0000   1.0000   1.0000   1.0000   1.0000   1.0000
     1.0000   1.0000   1.0000   1.0000   1.0000   1.0000   1.0000   1.0000
     1.0000   1.0000   1.0000   1.0000   0.0000

          k = 0.0833 0.2406 0.0000 (  2786 PWs)   bands (ev):

   -76.9411 -76.8895 -40.3219 -40.1648 -40.1332 -40.0928 -40.0404 -40.0333
    11.6455  14.6450  15.7537  15.8290  16.5797  16.6611  17.1107  17.1582
    17.2946  17.5989  18.4848  22.9470  26.1436

     occupation numbers 
     1.0000   1.0000   1.0000   1.0000   1.0000   1.0000   1.0000   1.0000
     1.0000   1.0000   1.0000   1.0000   1.0000   1.0000   1.0000   1.0000
     1.0000   1.0000   1.0000   0.0000   0.0000

          k = 0.0833 0.2406 0.1042 (  2789 PWs)   bands (ev):

   -76.9377 -76.8929 -40.3098 -40.1559 -40.1401 -40.0973 -40.0455 -40.0381
    11.8882  14.6904  15.6074  15.8044  16.4481  16.7102  16.9061  17.2530
    17.5083  17.5894  18.4450  21.4840  28.1946

     occupation numbers 
     1.0000   1.0000   1.0000   1.0000   1.0000   1.0000   1.0000   1.0000
     1.0000   1.0000   1.0000   1.0000   1.0000   1.0000   1.0000   1.0000
     1.0000   1.0000   1.0000   0.0000   0.0000

          k = 0.0833 0.2406 0.2084 (  2792 PWs)   bands (ev):

   -76.9282 -76.9024 -40.2761 -40.1776 -40.1268 -40.0934 -40.0597 -40.0539
    12.5733  14.4565  15.3815  15.9123  16.1803  16.6158  16.8335  17.1836
    17.7706  17.9061  18.3154  19.7507  31.6824

     occupation numbers 
     1.0000   1.0000   1.0000   1.0000   1.0000   1.0000   1.0000   1.0000
     1.0000   1.0000   1.0000   1.0000   1.0000   1.0000   1.0000   1.0000
     1.0000   1.0000   1.0000   0.0000   0.0000

          k = 0.0833 0.2406-0.3126 (  2782 PWs)   bands (ev):

   -76.9153 -76.9153 -40.2278 -40.2278 -40.0960 -40.0960 -40.0701 -40.0701
    13.5466  13.5466  15.6624  15.6624  16.3093  16.3093  16.9862  16.9862
    18.0539  18.0539  18.6186  18.6186  35.2108

     occupation numbers 
     1.0000   1.0000   1.0000   1.0000   1.0000   1.0000   1.0000   1.0000
     1.0000   1.0000   1.0000   1.0000   1.0000   1.0000   1.0000   1.0000
     1.0000   1.0000   1.0000   1.0000   0.0000

          k = 0.0833 0.3368 0.0000 (  2792 PWs)   bands (ev):

   -76.9271 -76.8855 -40.2857 -40.2245 -40.1827 -40.1216 -40.0535 -40.0535
    12.7976  14.7699  15.2340  15.6627  16.4682  16.5981  16.9176  17.5610
    17.8087  18.1721  18.5302  24.8072  26.4451

     occupation numbers 
     1.0000   1.0000   1.0000   1.0000   1.0000   1.0000   1.0000   1.0000
     1.0000   1.0000   1.0000   1.0000   1.0000   1.0000   1.0000   1.0000
     1.0000   1.0000   1.0000   0.0000   0.0000

          k = 0.0833 0.3368 0.1042 (  2795 PWs)   bands (ev):

   -76.9243 -76.8883 -40.2925 -40.2084 -40.1866 -40.1209 -40.0614 -40.0518
    12.9677  14.8486  15.1315  15.7188  16.3587  16.7037  16.8994  17.5764
    17.9087  18.0429  18.5255  22.7666  28.8582

     occupation numbers 
     1.0000   1.0000   1.0000   1.0000   1.0000   1.0000   1.0000   1.0000
     1.0000   1.0000   1.0000   1.0000   1.0000   1.0000   1.0000   1.0000
     1.0000   1.0000   1.0000   0.0000   0.0000

          k = 0.0833 0.3368 0.2084 (  2791 PWs)   bands (ev):

   -76.9167 -76.8959 -40.2903 -40.2330 -40.1491 -40.1116 -40.0764 -40.0616
    13.4277  14.6312  15.2223  15.8214  16.2526  16.7414  16.9246  17.5294
    18.0070  18.1749  18.4759  20.6187  30.9400

     occupation numbers 
     1.0000   1.0000   1.0000   1.0000   1.0000   1.0000   1.0000   1.0000
     1.0000   1.0000   1.0000   1.0000   1.0000   1.0000   1.0000   1.0000
     1.0000   1.0000   1.0000   0.0000   0.0000

          k = 0.0833 0.3368-0.3126 (  2792 PWs)   bands (ev):

   -76.9063 -76.9063 -40.2681 -40.2681 -40.1110 -40.1110 -40.0819 -40.0819
    14.0417  14.0417  15.5893  15.5893  16.4716  16.4716  17.1968  17.1968
    18.2445  18.2445  19.0833  19.0833  32.1564

     occupation numbers 
     1.0000   1.0000   1.0000   1.0000   1.0000   1.0000   1.0000   1.0000
     1.0000   1.0000   1.0000   1.0000   1.0000   1.0000   1.0000   1.0000
     1.0000   1.0000   0.7589   0.7589   0.0000

          k = 0.0833 0.4330 0.0000 (  2800 PWs)   bands (ev):

   -76.9136 -76.8833 -40.2777 -40.2472 -40.2266 -40.1437 -40.0781 -40.0648
    13.8201  14.5973  14.8290  15.8819  16.3408  16.7294  16.7934  18.0640
    18.2499  18.5592  18.9771  25.5619  26.8208

     occupation numbers 
     1.0000   1.0000   1.0000   1.0000   1.0000   1.0000   1.0000   1.0000
     1.0000   1.0000   1.0000   1.0000   1.0000   1.0000   1.0000   1.0000
     1.0000   1.0000   1.0000   0.0000   0.0000

          k = 0.0833 0.4330 0.1042 (  2796 PWs)   bands (ev):

   -76.9116 -76.8853 -40.3034 -40.2477 -40.2027 -40.1394 -40.0794 -40.0655
    13.8170  14.6335  14.9778  15.6675  16.4224  16.7805  17.0755  18.0096
    18.3169  18.3580  18.9838  23.8106  27.3284

     occupation numbers 
     1.0000   1.0000   1.0000   1.0000   1.0000   1.0000   1.0000   1.0000
     1.0000   1.0000   1.0000   1.0000   1.0000   1.0000   1.0000   1.0000
     1.0000   1.0000   1.0000   0.0000   0.0000

          k = 0.0833 0.4330 0.2084 (  2794 PWs)   bands (ev):

   -76.9061 -76.8909 -40.3188 -40.2805 -40.1546 -40.1227 -40.0921 -40.0693
    13.9089  14.5122  15.1642  15.6744  16.5320  16.9714  17.4434  17.7421
    18.1990  18.5001  19.0465  21.6205  28.0387

     occupation numbers 
     1.0000   1.0000   1.0000   1.0000   1.0000   1.0000   1.0000   1.0000
     1.0000   1.0000   1.0000   1.0000   1.0000   1.0000   1.0000   1.0000
     1.0000   1.0000   1.0000   0.0000   0.0000

          k = 0.0833 0.4330-0.3126 (  2802 PWs)   bands (ev):

   -76.8985 -76.8985 -40.3094 -40.3094 -40.1217 -40.1217 -40.0878 -40.0878
    14.1666  14.1666  15.4796  15.4796  16.9860  16.9860  17.3881  17.3881
    18.4502  18.4502  19.9077  19.9077  29.1061

     occupation numbers 
     1.0000   1.0000   1.0000   1.0000   1.0000   1.0000   1.0000   1.0000
     1.0000   1.0000   1.0000   1.0000   1.0000   1.0000   1.0000   1.0000
     1.0000   1.0000   0.0000   0.0000   0.0000

          k = 0.0833 0.5292 0.0000 (  2794 PWs)   bands (ev):

   -76.9046 -76.8833 -40.3086 -40.2521 -40.2178 -40.1558 -40.0995 -40.0713
    14.2872  14.4327  14.6256  16.2417  16.2860  16.6076  16.9520  18.4224
    18.4943  18.5724  20.2460  23.2154  28.7351

     occupation numbers 
     1.0000   1.0000   1.0000   1.0000   1.0000   1.0000   1.0000   1.0000
     1.0000   1.0000   1.0000   1.0000   1.0000   1.0000   1.0000   1.0000
     1.0000   1.0000   0.0000   0.0000   0.0000

          k = 0.0833 0.5292 0.1042 (  2794 PWs)   bands (ev):

   -76.9032 -76.8847 -40.3249 -40.2712 -40.1924 -40.1473 -40.0959 -40.0734
    14.0740  14.4523  15.0707  15.6157  16.3446  16.9884  17.3226  18.3119
    18.4694  18.5330  20.1732  22.9566  27.4269

     occupation numbers 
     1.0000   1.0000   1.0000   1.0000   1.0000   1.0000   1.0000   1.0000
     1.0000   1.0000   1.0000   1.0000   1.0000   1.0000   1.0000   1.0000
     1.0000   1.0000   0.0000   0.0000   0.0000

          k = 0.0833 0.5292 0.2084 (  2803 PWs)   bands (ev):

   -76.8993 -76.8886 -40.3408 -40.3072 -40.1564 -40.1209 -40.1043 -40.0751
    13.9855  14.4356  15.1947  15.5429  16.5248  17.2917  17.7416  17.9731
    18.4193  18.6240  20.2033  22.0989  26.6552

     occupation numbers 
     1.0000   1.0000   1.0000   1.0000   1.0000   1.0000   1.0000   1.0000
     1.0000   1.0000   1.0000   1.0000   1.0000   1.0000   1.0000   1.0000
     1.0000   1.0000   0.0000   0.0000   0.0000

          k = 0.0833 0.5292-0.3126 (  2794 PWs)   bands (ev):

   -76.8939 -76.8939 -40.3347 -40.3347 -40.1284 -40.1284 -40.0892 -40.0892
    14.1500  14.1500  15.3957  15.3957  17.1025  17.1025  17.8239  17.8239
    18.4922  18.4922  20.9570  20.9570  26.9226

     occupation numbers 
     1.0000   1.0000   1.0000   1.0000   1.0000   1.0000   1.0000   1.0000
     1.0000   1.0000   1.0000   1.0000   1.0000   1.0000   1.0000   1.0000
     1.0000   1.0000   0.0000   0.0000   0.0000

          k = 0.1667 0.2887 0.0000 (  2782 PWs)   bands (ev):

   -76.9290 -76.8859 -40.2910 -40.1994 -40.1895 -40.1113 -40.0620 -40.0504
    12.6507  14.9402  15.3502  15.4486  16.4014  16.5913  17.0067  17.3314
    17.7965  18.1906  18.4923  24.5454  26.5065

     occupation numbers 
     1.0000   1.0000   1.0000   1.0000   1.0000   1.0000   1.0000   1.0000
     1.0000   1.0000   1.0000   1.0000   1.0000   1.0000   1.0000   1.0000
     1.0000   1.0000   1.0000   0.0000   0.0000

          k = 0.1667 0.2887 0.1042 (  2788 PWs)   bands (ev):

   -76.9261 -76.8888 -40.2917 -40.1964 -40.1806 -40.1186 -40.0666 -40.0497
    12.8431  15.0427  15.2073  15.5042  16.3802  16.6020  16.8702  17.4004
    17.9257  18.0347  18.5362  22.6279  28.8971

     occupation numbers 
     1.0000   1.0000   1.0000   1.0000   1.0000   1.0000   1.0000   1.0000
     1.0000   1.0000   1.0000   1.0000   1.0000   1.0000   1.0000   1.0000
     1.0000   1.0000   1.0000   0.0000   0.0000

          k = 0.1667 0.2887 0.2084 (  2787 PWs)   bands (ev):

   -76.9183 -76.8967 -40.2830 -40.2225 -40.1415 -40.1205 -40.0778 -40.0587
    13.3700  14.7573  15.3217  15.6669  16.2078  16.4582  16.8562  17.4663
    18.0317  18.1425  18.5540  20.5412  32.2910

     occupation numbers 
     1.0000   1.0000   1.0000   1.0000   1.0000   1.0000   1.0000   1.0000
     1.0000   1.0000   1.0000   1.0000   1.0000   1.0000   1.0000   1.0000
     1.0000   1.0000   1.0000   0.0000   0.0000

          k = 0.1667 0.2887-0.3126 (  2778 PWs)   bands (ev):

   -76.9075 -76.9075 -40.2575 -40.2575 -40.1157 -40.1157 -40.0789 -40.0789
    14.0801  14.0801  15.6644  15.6644  16.1534  16.1534  17.1461  17.1461
    18.2974  18.2974  19.0614  19.0614  33.8608

     occupation numbers 
     1.0000   1.0000   1.0000   1.0000   1.0000   1.0000   1.0000   1.0000
     1.0000   1.0000   1.0000   1.0000   1.0000   1.0000   1.0000   1.0000
     1.0000   1.0000   0.9985   0.9985   0.0000

          k = 0.1667 0.3849 0.0000 (  2790 PWs)   bands (ev):

   -76.9159 -76.8835 -40.2540 -40.2471 -40.2228 -40.1404 -40.0826 -40.0735
    13.7546  14.9333  14.9708  15.4050  16.2443  16.7405  16.8152  17.6415
    18.2537  18.4951  18.9962  26.4223  26.7797

     occupation numbers 
     1.0000   1.0000   1.0000   1.0000   1.0000   1.0000   1.0000   1.0000
     1.0000   1.0000   1.0000   1.0000   1.0000   1.0000   1.0000   1.0000
     1.0000   1.0000   1.0000   0.0000   0.0000

          k = 0.1667 0.3849 0.1042 (  2797 PWs)   bands (ev):

   -76.9137 -76.8857 -40.2847 -40.2416 -40.1931 -40.1465 -40.0889 -40.0657
    13.8382  14.8963  15.0456  15.4956  16.3059  16.7071  16.7665  17.6677
    18.2557  18.3498  19.0987  23.9177  28.7599

     occupation numbers 
     1.0000   1.0000   1.0000   1.0000   1.0000   1.0000   1.0000   1.0000
     1.0000   1.0000   1.0000   1.0000   1.0000   1.0000   1.0000   1.0000
     1.0000   1.0000   0.1821   0.0000   0.0000

          k = 0.1667 0.3849 0.2084 (  2793 PWs)   bands (ev):

   -76.9078 -76.8916 -40.2992 -40.2646 -40.1557 -40.1388 -40.0976 -40.0644
    14.0648  14.6925  15.3077  15.7514  16.2252  16.5237  16.8949  17.6138
    18.1428  18.5145  19.2879  21.6501  29.7213

     occupation numbers 
     1.0000   1.0000   1.0000   1.0000   1.0000   1.0000   1.0000   1.0000
     1.0000   1.0000   1.0000   1.0000   1.0000   1.0000   1.0000   1.0000
     1.0000   1.0000   0.0000   0.0000   0.0000

          k = 0.1667 0.3849-0.3126 (  2792 PWs)   bands (ev):

   -76.8997 -76.8997 -40.2901 -40.2901 -40.1384 -40.1384 -40.0817 -40.0817
    14.3778  14.3778  15.6731  15.6731  16.2936  16.2936  17.1774  17.1774
    18.5120  18.5120  20.0050  20.0050  30.9041

     occupation numbers 
     1.0000   1.0000   1.0000   1.0000   1.0000   1.0000   1.0000   1.0000
     1.0000   1.0000   1.0000   1.0000   1.0000   1.0000   1.0000   1.0000
     1.0000   1.0000   0.0000   0.0000   0.0000

          k = 0.1667 0.4811 0.0000 (  2806 PWs)   bands (ev):

   -76.9047 -76.8833 -40.2853 -40.2381 -40.2183 -40.1684 -40.0991 -40.0966
    14.4624  14.7323  14.7349  15.7076  16.1986  16.6101  16.9471  18.0494
    18.4867  18.4956  20.1681  24.8705  28.4496

     occupation numbers 
     1.0000   1.0000   1.0000   1.0000   1.0000   1.0000   1.0000   1.0000
     1.0000   1.0000   1.0000   1.0000   1.0000   1.0000   1.0000   1.0000
     1.0000   1.0000   0.0000   0.0000   0.0000

          k = 0.1667 0.4811 0.1042 (  2806 PWs)   bands (ev):

   -76.9032 -76.8847 -40.3012 -40.2595 -40.1953 -40.1592 -40.1085 -40.0819
    14.3119  14.8039  14.9969  15.5445  16.2517  16.7318  17.0051  18.0311
    18.2812  18.5554  20.2560  24.3439  27.1858

     occupation numbers 
     1.0000   1.0000   1.0000   1.0000   1.0000   1.0000   1.0000   1.0000
     1.0000   1.0000   1.0000   1.0000   1.0000   1.0000   1.0000   1.0000
     1.0000   1.0000   0.0000   0.0000   0.0000

          k = 0.1667 0.4811 0.2084 (  2791 PWs)   bands (ev):

   -76.8993 -76.8886 -40.3185 -40.2907 -40.1780 -40.1383 -40.1084 -40.0714
    14.2769  14.7325  15.2039  15.7808  16.1359  16.8443  17.2116  17.7120
    18.2259  18.6411  20.5745  22.8270  27.2249

     occupation numbers 
     1.0000   1.0000   1.0000   1.0000   1.0000   1.0000   1.0000   1.0000
     1.0000   1.0000   1.0000   1.0000   1.0000   1.0000   1.0000   1.0000
     1.0000   1.0000   0.0000   0.0000   0.0000

          k = 0.1667 0.4811-0.3126 (  2800 PWs)   bands (ev):

   -76.8940 -76.8940 -40.3148 -40.3148 -40.1564 -40.1564 -40.0813 -40.0813
    14.4417  14.4417  15.5746  15.5746  16.5574  16.5574  17.3700  17.3700
    18.5177  18.5177  21.3969  21.3969  28.1154

     occupation numbers 
     1.0000   1.0000   1.0000   1.0000   1.0000   1.0000   1.0000   1.0000
     1.0000   1.0000   1.0000   1.0000   1.0000   1.0000   1.0000   1.0000
     1.0000   1.0000   0.0000   0.0000   0.0000

          k = 0.1667 0.5774 0.0000 (  2808 PWs)   bands (ev):

   -76.8996 -76.8841 -40.2991 -40.2422 -40.2001 -40.1804 -40.1136 -40.1015
    14.6328  14.6424  14.6554  15.9272  16.2112  16.5065  17.0355  18.3254
    18.4710  18.4954  21.4170  23.0254  29.4217

     occupation numbers 
     1.0000   1.0000   1.0000   1.0000   1.0000   1.0000   1.0000   1.0000
     1.0000   1.0000   1.0000   1.0000   1.0000   1.0000   1.0000   1.0000
     1.0000   1.0000   0.0000   0.0000   0.0000

          k = 0.1667 0.5774 0.1042 (  2807 PWs)   bands (ev):

   -76.8986 -76.8851 -40.3118 -40.2624 -40.2013 -40.1515 -40.1204 -40.0893
    14.3400  14.7145  15.1662  15.5283  16.1732  16.8490  17.0970  18.2500
    18.3213  18.5332  21.5199  22.9739  28.4961

     occupation numbers 
     1.0000   1.0000   1.0000   1.0000   1.0000   1.0000   1.0000   1.0000
     1.0000   1.0000   1.0000   1.0000   1.0000   1.0000   1.0000   1.0000
     1.0000   1.0000   0.0000   0.0000   0.0000

          k = 0.1667 0.5774 0.2084 (  2798 PWs)   bands (ev):

   -76.8957 -76.8880 -40.3274 -40.2987 -40.1869 -40.1387 -40.1094 -40.0752
    14.2746  14.7427  15.2426  15.7407  16.0488  17.0516  17.3334  17.7852
    18.3378  18.5761  21.8326  22.7694  27.2030

     occupation numbers 
     1.0000   1.0000   1.0000   1.0000   1.0000   1.0000   1.0000   1.0000
     1.0000   1.0000   1.0000   1.0000   1.0000   1.0000   1.0000   1.0000
     1.0000   1.0000   0.0000   0.0000   0.0000

          k = 0.1667 0.5774-0.3126 (  2802 PWs)   bands (ev):

   -76.8919 -76.8919 -40.3240 -40.3240 -40.1632 -40.1632 -40.0809 -40.0809
    14.4437  14.4437  15.5335  15.5335  16.6016  16.6016  17.5744  17.5744
    18.4548  18.4548  22.3329  22.3329  26.7094

     occupation numbers 
     1.0000   1.0000   1.0000   1.0000   1.0000   1.0000   1.0000   1.0000
     1.0000   1.0000   1.0000   1.0000   1.0000   1.0000   1.0000   1.0000
     1.0000   1.0000   0.0000   0.0000   0.0000

          k = 0.2500 0.4330 0.0000 (  2804 PWs)   bands (ev):

   -76.9047 -76.8832 -40.2649 -40.2409 -40.2185 -40.1675 -40.1153 -40.0989
    14.5890  14.7972  15.1247  15.1849  16.1392  16.6206  16.9527  17.8260
    18.4562  18.4951  20.1762  26.6577  27.3687

     occupation numbers 
     1.0000   1.0000   1.0000   1.0000   1.0000   1.0000   1.0000   1.0000
     1.0000   1.0000   1.0000   1.0000   1.0000   1.0000   1.0000   1.0000
     1.0000   1.0000   0.0000   0.0000   0.0000

          k = 0.2500 0.4330 0.1042 (  2807 PWs)   bands (ev):

   -76.9033 -76.8847 -40.2762 -40.2687 -40.1814 -40.1771 -40.1184 -40.0840
    14.6004  14.7466  15.2009  15.3178  16.2926  16.4699  16.9378  17.8549
    18.2305  18.5644  20.3102  25.1786  27.6628

     occupation numbers 
     1.0000   1.0000   1.0000   1.0000   1.0000   1.0000   1.0000   1.0000
     1.0000   1.0000   1.0000   1.0000   1.0000   1.0000   1.0000   1.0000
     1.0000   1.0000   0.0000   0.0000   0.0000

          k = 0.2500 0.4330 0.2084 (  2794 PWs)   bands (ev):

   -76.8993 -76.8886 -40.3013 -40.2852 -40.1862 -40.1556 -40.1067 -40.0706
    14.6136  14.6944  15.3802  15.7251  16.1290  16.4057  16.9599  17.6270
    18.1965  18.6478  20.6980  23.1230  28.4716

     occupation numbers 
     1.0000   1.0000   1.0000   1.0000   1.0000   1.0000   1.0000   1.0000
     1.0000   1.0000   1.0000   1.0000   1.0000   1.0000   1.0000   1.0000
     1.0000   1.0000   0.0000   0.0000   0.0000

          k = 0.2500 0.4330-0.3126 (  2784 PWs)   bands (ev):

   -76.8940 -76.8940 -40.3025 -40.3025 -40.1712 -40.1712 -40.0790 -40.0790
    14.6472  14.6472  15.7216  15.7216  16.1751  16.1751  17.1743  17.1743
    18.5382  18.5382  21.5636  21.5636  29.5281

     occupation numbers 
     1.0000   1.0000   1.0000   1.0000   1.0000   1.0000   1.0000   1.0000
     1.0000   1.0000   1.0000   1.0000   1.0000   1.0000   1.0000   1.0000
     1.0000   1.0000   0.0000   0.0000   0.0000

          k = 0.2500 0.5292 0.0000 (  2820 PWs)   bands (ev):

   -76.8962 -76.8851 -40.2790 -40.2307 -40.1982 -40.1865 -40.1360 -40.1250
    14.7133  14.8886  14.9910  15.4911  16.1595  16.4210  17.1253  18.1023
    18.4331  18.4485  21.8233  24.4013  26.7170

     occupation numbers 
     1.0000   1.0000   1.0000   1.0000   1.0000   1.0000   1.0000   1.0000
     1.0000   1.0000   1.0000   1.0000   1.0000   1.0000   1.0000   1.0000
     1.0000   1.0000   0.0000   0.0000   0.0000

          k = 0.2500 0.5292 0.1042 (  2809 PWs)   bands (ev):

   -76.8954 -76.8859 -40.2850 -40.2558 -40.2175 -40.1566 -40.1382 -40.1021
    14.6542  15.0255  15.1238  15.3977  16.1886  16.4113  17.1241  18.1118
    18.2025  18.4949  22.0210  24.4264  26.7774

     occupation numbers 
     1.0000   1.0000   1.0000   1.0000   1.0000   1.0000   1.0000   1.0000
     1.0000   1.0000   1.0000   1.0000   1.0000   1.0000   1.0000   1.0000
     1.0000   1.0000   0.0000   0.0000   0.0000

          k = 0.2500 0.5292 0.2084 (  2798 PWs)   bands (ev):

   -76.8934 -76.8879 -40.3023 -40.2864 -40.2166 -40.1700 -40.1011 -40.0784
    14.6770  15.0388  15.3006  15.5988  16.0525  16.4163  17.1600  17.6625
    18.2614  18.5357  22.5325  24.1481  26.7597

     occupation numbers 
     1.0000   1.0000   1.0000   1.0000   1.0000   1.0000   1.0000   1.0000
     1.0000   1.0000   1.0000   1.0000   1.0000   1.0000   1.0000   1.0000
     1.0000   1.0000   0.0000   0.0000   0.0000

          k = 0.2500 0.5292-0.3126 (  2796 PWs)   bands (ev):

   -76.8906 -76.8906 -40.3054 -40.3054 -40.1949 -40.1949 -40.0770 -40.0770
    14.8214  14.8214  15.6109  15.6109  16.1829  16.1829  17.2945  17.2945
    18.4441  18.4441  23.3106  23.3106  27.3194

     occupation numbers 
     1.0000   1.0000   1.0000   1.0000   1.0000   1.0000   1.0000   1.0000
     1.0000   1.0000   1.0000   1.0000   1.0000   1.0000   1.0000   1.0000
     1.0000   1.0000   0.0000   0.0000   0.0000

          k = 0.3333 0.5774 0.0000 (  2826 PWs)   bands (ev):

   -76.8894 -76.8894 -40.2710 -40.2168 -40.2168 -40.1598 -40.1547 -40.1547
    14.7154  15.0833  15.0833  15.3796  16.2440  16.2440  17.2260  18.2503
    18.2503  18.4082  23.5428  24.3996  24.3996

     occupation numbers 
     1.0000   1.0000   1.0000   1.0000   1.0000   1.0000   1.0000   1.0000
     1.0000   1.0000   1.0000   1.0000   1.0000   1.0000   1.0000   1.0000
     1.0000   1.0000   0.0000   0.0000   0.0000

          k = 0.3333 0.5774 0.1042 (  2817 PWs)   bands (ev):

   -76.8894 -76.8894 -40.2635 -40.2468 -40.2468 -40.1673 -40.1245 -40.1245
    14.8145  15.1142  15.1142  15.4025  16.2123  16.2123  17.1946  18.1530
    18.2886  18.2886  23.9628  24.4761  24.4761

     occupation numbers 
     1.0000   1.0000   1.0000   1.0000   1.0000   1.0000   1.0000   1.0000
     1.0000   1.0000   1.0000   1.0000   1.0000   1.0000   1.0000   1.0000
     1.0000   1.0000   0.0000   0.0000   0.0000

          k = 0.3333 0.5774 0.2084 (  2793 PWs)   bands (ev):

   -76.8894 -76.8894 -40.2819 -40.2819 -40.2433 -40.1877 -40.0890 -40.0890
    15.0673  15.1756  15.1756  15.4252  16.1551  16.1551  17.1512  17.6362
    18.3601  18.3601  24.6656  24.6656  25.0242

     occupation numbers 
     1.0000   1.0000   1.0000   1.0000   1.0000   1.0000   1.0000   1.0000
     1.0000   1.0000   1.0000   1.0000   1.0000   1.0000   1.0000   1.0000
     1.0000   1.0000   0.0000   0.0000   0.0000

          k = 0.3333 0.5774-0.3126 (  2766 PWs)   bands (ev):

   -76.8894 -76.8894 -40.2953 -40.2953 -40.2155 -40.2155 -40.0754 -40.0754
    15.2059  15.2059  15.3259  15.3259  16.1295  16.1295  17.2511  17.2511
    18.3934  18.3934  24.7876  24.7876  26.4686

     occupation numbers 
     1.0000   1.0000   1.0000   1.0000   1.0000   1.0000   1.0000   1.0000
     1.0000   1.0000   1.0000   1.0000   1.0000   1.0000   1.0000   1.0000
     1.0000   1.0000   0.0000   0.0000   0.0000

 ------ SPIN DOWN ----------


          k = 0.0000 0.0000 0.0000 (  2791 PWs)   bands (ev):

   -74.9005 -74.8309 -38.3881 -38.0613 -38.0613 -38.0031 -38.0031 -37.9937
    10.0318  14.8354  18.1588  18.1588  18.2083  18.5556  18.5556  18.9278
    18.9278  18.9709  20.2425  20.2425  26.8387

     occupation numbers 
     1.0000   1.0000   1.0000   1.0000   1.0000   1.0000   1.0000   1.0000
     1.0000   1.0000   1.0000   1.0000   1.0000   1.0000   1.0000   1.0000
     1.0000   1.0000   0.0000   0.0000   0.0000

          k = 0.0000 0.0000 0.1042 (  2809 PWs)   bands (ev):

   -74.8959 -74.8356 -38.3621 -38.0574 -38.0574 -38.0205 -38.0070 -38.0070
    10.3194  14.6201  18.0779  18.0779  18.1089  18.3415  18.4608  18.4608
    19.1289  19.1289  20.2306  20.2306  28.1936

     occupation numbers 
     1.0000   1.0000   1.0000   1.0000   1.0000   1.0000   1.0000   1.0000
     1.0000   1.0000   1.0000   1.0000   1.0000   1.0000   1.0000   1.0000
     0.0000   0.0000   0.0000   0.0000   0.0000

          k = 0.0000 0.0000 0.2084 (  2773 PWs)   bands (ev):

   -74.8831 -74.8483 -38.2907 -38.0935 -38.0468 -38.0468 -38.0176 -38.0176
    11.1499  13.7586  17.6387  17.8568  18.0101  18.0101  18.2549  18.2549
    19.5223  19.5223  20.1375  20.1375  31.2480

     occupation numbers 
     1.0000   1.0000   1.0000   1.0000   1.0000   1.0000   1.0000   1.0000
     1.0000   1.0000   1.0000   1.0000   1.0000   1.0000   1.0000   1.0000
     0.0000   0.0000   0.0000   0.0000   0.0000

          k = 0.0000 0.0000-0.3126 (  2810 PWs)   bands (ev):

   -74.8658 -74.8658 -38.1926 -38.1926 -38.0322 -38.0322 -38.0322 -38.0322
    12.4026  12.4026  17.5997  17.5997  18.0745  18.0745  18.0745  18.0745
    19.8945  19.8945  19.8945  19.8945  34.9754

     occupation numbers 
     1.0000   1.0000   1.0000   1.0000   1.0000   1.0000   1.0000   1.0000
     1.0000   1.0000   1.0000   1.0000   1.0000   1.0000   1.0000   1.0000
     0.0000   0.0000   0.0000   0.0000   0.0000

          k = 0.0000 0.0962 0.0000 (  2799 PWs)   bands (ev):

   -74.8968 -74.8293 -38.3797 -38.0789 -38.0672 -38.0213 -38.0058 -37.9974
    10.2765  15.0000  17.8806  18.2785  18.2868  18.4196  18.4979  18.6680
    18.8412  18.8728  20.2815  21.1424  26.8539

     occupation numbers 
     1.0000   1.0000   1.0000   1.0000   1.0000   1.0000   1.0000   1.0000
     1.0000   1.0000   1.0000   1.0000   1.0000   1.0000   1.0000   1.0000
     1.0000   1.0000   0.0000   0.0000   0.0000

          k = 0.0000 0.0962 0.1042 (  2789 PWs)   bands (ev):

   -74.8923 -74.8339 -38.3552 -38.0743 -38.0631 -38.0390 -38.0099 -38.0095
    10.5602  14.7987  17.8173  17.8749  18.1856  18.2020  18.5246  18.5641
    19.0768  19.1043  20.2600  20.7732  28.2744

     occupation numbers 
     1.0000   1.0000   1.0000   1.0000   1.0000   1.0000   1.0000   1.0000
     1.0000   1.0000   1.0000   1.0000   1.0000   1.0000   1.0000   1.0000
     0.9152   0.0690   0.0000   0.0000   0.0000

          k = 0.0000 0.0962 0.2084 (  2787 PWs)   bands (ev):

   -74.8800 -74.8463 -38.2881 -38.1037 -38.0615 -38.0519 -38.0262 -38.0212
    11.3792  13.9545  17.3801  17.8294  17.9104  18.1095  18.3062  18.3572
    19.4918  19.5336  20.1454  20.3420  31.3826

     occupation numbers 
     1.0000   1.0000   1.0000   1.0000   1.0000   1.0000   1.0000   1.0000
     1.0000   1.0000   1.0000   1.0000   1.0000   1.0000   1.0000   1.0000
     0.0000   0.0000   0.0000   0.0000   0.0000

          k = 0.0000 0.0962-0.3126 (  2804 PWs)   bands (ev):

   -74.8632 -74.8632 -38.1960 -38.1960 -38.0442 -38.0442 -38.0365 -38.0365
    12.6147  12.6147  17.4792  17.4792  18.0585  18.0585  18.1752  18.1752
    19.8811  19.8811  19.9636  19.9636  35.1333

     occupation numbers 
     1.0000   1.0000   1.0000   1.0000   1.0000   1.0000   1.0000   1.0000
     1.0000   1.0000   1.0000   1.0000   1.0000   1.0000   1.0000   1.0000
     0.0000   0.0000   0.0000   0.0000   0.0000

          k = 0.0000 0.1925 0.0000 (  2799 PWs)   bands (ev):

   -74.8867 -74.8254 -38.3556 -38.1271 -38.0829 -38.0708 -38.0136 -38.0084
    10.9885  15.4216  17.3927  17.5009  18.2728  18.6293  18.6502  18.7161
    18.7672  18.9840  20.3646  22.6537  26.9160

     occupation numbers 
     1.0000   1.0000   1.0000   1.0000   1.0000   1.0000   1.0000   1.0000
     1.0000   1.0000   1.0000   1.0000   1.0000   1.0000   1.0000   1.0000
     1.0000   1.0000   0.0000   0.0000   0.0000

          k = 0.0000 0.1925 0.1042 (  2784 PWs)   bands (ev):

   -74.8826 -74.8295 -38.3363 -38.1202 -38.0880 -38.0782 -38.0183 -38.0180
    11.2583  15.2670  17.1134  17.5379  18.1580  18.4174  18.4608  18.8267
    19.0584  19.1437  20.3214  21.8354  28.5460

     occupation numbers 
     1.0000   1.0000   1.0000   1.0000   1.0000   1.0000   1.0000   1.0000
     1.0000   1.0000   1.0000   1.0000   1.0000   1.0000   1.0000   1.0000
     0.9995   0.0000   0.0000   0.0000   0.0000

          k = 0.0000 0.1925 0.2084 (  2790 PWs)   bands (ev):

   -74.8714 -74.8407 -38.2835 -38.1404 -38.0982 -38.0656 -38.0415 -38.0310
    12.0360  14.4793  16.9533  17.6139  17.7957  18.2636  18.3528  18.6421
    19.4587  19.6092  20.1615  20.8395  31.7875

     occupation numbers 
     1.0000   1.0000   1.0000   1.0000   1.0000   1.0000   1.0000   1.0000
     1.0000   1.0000   1.0000   1.0000   1.0000   1.0000   1.0000   1.0000
     0.0000   0.0000   0.0000   0.0000   0.0000

          k = 0.0000 0.1925-0.3126 (  2786 PWs)   bands (ev):

   -74.8561 -74.8561 -38.2114 -38.2114 -38.0707 -38.0707 -38.0483 -38.0483
    13.2061  13.2061  17.2446  17.2446  17.9626  17.9626  18.4448  18.4448
    19.8605  19.8605  20.1578  20.1578  35.5562

     occupation numbers 
[...]
    20.3909  20.4928  21.6066  24.1491  29.2325

     occupation numbers 
     1.0000   1.0000   1.0000   1.0000   1.0000   1.0000   1.0000   1.0000
     1.0000   1.0000   1.0000   1.0000   1.0000   1.0000   1.0000   0.0000
     0.0000   0.0000   0.0000   0.0000   0.0000

          k = 0.0833 0.5292 0.1042 (  2794 PWs)   bands (ev):

   -74.8368 -74.8171 -38.3365 -38.2777 -38.1919 -38.1422 -38.0869 -38.0622
    14.9881  15.6194  16.1809  16.7101  17.9470  18.5134  18.5801  20.1867
    20.3598  20.4379  21.4655  23.8160  28.1304

     occupation numbers 
     1.0000   1.0000   1.0000   1.0000   1.0000   1.0000   1.0000   1.0000
     1.0000   1.0000   1.0000   1.0000   1.0000   1.0000   1.0000   0.0000
     0.0000   0.0000   0.0000   0.0000   0.0000

          k = 0.0833 0.5292 0.2084 (  2803 PWs)   bands (ev):

   -74.8327 -74.8212 -38.3537 -38.3170 -38.1524 -38.1138 -38.0959 -38.0642
    14.9650  15.4603  16.4894  16.8313  18.0188  18.8037  19.0270  19.6967
    20.3048  20.5440  21.2355  22.8746  27.5429

     occupation numbers 
     1.0000   1.0000   1.0000   1.0000   1.0000   1.0000   1.0000   1.0000
     1.0000   1.0000   1.0000   1.0000   1.0000   1.0000   1.0000   0.0000
     0.0000   0.0000   0.0000   0.0000   0.0000

          k = 0.0833 0.5292-0.3126 (  2794 PWs)   bands (ev):

   -74.8269 -74.8269 -38.3471 -38.3471 -38.1219 -38.1219 -38.0794 -38.0794
    15.1489  15.1489  16.7803  16.7803  18.5374  18.5374  19.3257  19.3257
    20.3874  20.3874  21.7945  21.7945  27.7951

     occupation numbers 
     1.0000   1.0000   1.0000   1.0000   1.0000   1.0000   1.0000   1.0000
     1.0000   1.0000   1.0000   1.0000   1.0000   1.0000   0.0000   0.0000
     0.0000   0.0000   0.0000   0.0000   0.0000

          k = 0.1667 0.2887 0.0000 (  2782 PWs)   bands (ev):

   -74.8646 -74.8184 -38.2994 -38.1993 -38.1891 -38.1033 -38.0499 -38.0379
    12.7181  16.1195  16.4945  16.8266  18.0070  18.1550  18.6056  19.0926
    19.5792  19.9598  20.4010  25.2965  27.2555

     occupation numbers 
     1.0000   1.0000   1.0000   1.0000   1.0000   1.0000   1.0000   1.0000
     1.0000   1.0000   1.0000   1.0000   1.0000   1.0000   1.0000   0.3925
     0.0000   0.0000   0.0000   0.0000   0.0000

          k = 0.1667 0.2887 0.1042 (  2788 PWs)   bands (ev):

   -74.8615 -74.8215 -38.3003 -38.1968 -38.1788 -38.1112 -38.0550 -38.0370
    12.9368  16.0894  16.3659  16.8951  17.9398  18.1835  18.4807  19.1503
    19.7160  19.8378  20.4077  23.6139  29.4839

     occupation numbers 
     1.0000   1.0000   1.0000   1.0000   1.0000   1.0000   1.0000   1.0000
     1.0000   1.0000   1.0000   1.0000   1.0000   1.0000   1.0000   0.0000
     0.0000   0.0000   0.0000   0.0000   0.0000

          k = 0.1667 0.2887 0.2084 (  2787 PWs)   bands (ev):

   -74.8531 -74.8299 -38.2909 -38.2253 -38.1364 -38.1133 -38.0671 -38.0466
    13.5558  15.4131  16.6194  17.0710  17.7046  18.0023  18.5329  19.1652
    19.8614  19.9577  20.3544  21.8303  32.7728

     occupation numbers 
     1.0000   1.0000   1.0000   1.0000   1.0000   1.0000   1.0000   1.0000
     1.0000   1.0000   1.0000   1.0000   1.0000   1.0000   1.0000   0.0000
     0.0000   0.0000   0.0000   0.0000   0.0000

          k = 0.1667 0.2887-0.3126 (  2778 PWs)   bands (ev):

   -74.8415 -74.8415 -38.2633 -38.2633 -38.1083 -38.1083 -38.0683 -38.0683
    14.4548  14.4548  17.0121  17.0121  17.6682  17.6682  18.8498  18.8498
    20.1627  20.1627  20.6065  20.6065  34.2791

     occupation numbers 
     1.0000   1.0000   1.0000   1.0000   1.0000   1.0000   1.0000   1.0000
     1.0000   1.0000   1.0000   1.0000   1.0000   1.0000   1.0000   1.0000
     0.0000   0.0000   0.0000   0.0000   0.0000

          k = 0.1667 0.3849 0.0000 (  2790 PWs)   bands (ev):

   -74.8505 -74.8157 -38.2591 -38.2516 -38.2249 -38.1349 -38.0723 -38.0629
    13.9735  16.1640  16.1906  16.6234  17.8088  18.3013  18.3771  19.4338
    20.1025  20.4039  20.6896  27.0949  27.3956

     occupation numbers 
     1.0000   1.0000   1.0000   1.0000   1.0000   1.0000   1.0000   1.0000
     1.0000   1.0000   1.0000   1.0000   1.0000   1.0000   1.0000   0.0000
     0.0000   0.0000   0.0000   0.0000   0.0000

          k = 0.1667 0.3849 0.1042 (  2797 PWs)   bands (ev):

   -74.8482 -74.8180 -38.2924 -38.2459 -38.1925 -38.1416 -38.0791 -38.0542
    14.1249  16.0288  16.3013  16.7332  17.8053  18.2336  18.3437  19.4552
    20.1144  20.2106  20.8144  24.7190  29.3745

     occupation numbers 
     1.0000   1.0000   1.0000   1.0000   1.0000   1.0000   1.0000   1.0000
     1.0000   1.0000   1.0000   1.0000   1.0000   1.0000   1.0000   0.0000
     0.0000   0.0000   0.0000   0.0000   0.0000

          k = 0.1667 0.3849 0.2084 (  2793 PWs)   bands (ev):

   -74.8418 -74.8244 -38.3084 -38.2710 -38.1517 -38.1334 -38.0885 -38.0527
    14.5384  15.6498  16.6032  16.9677  17.6868  17.9358  18.5242  19.3627
    19.9784  20.4063  20.9008  22.6598  30.3192

     occupation numbers 
     1.0000   1.0000   1.0000   1.0000   1.0000   1.0000   1.0000   1.0000
     1.0000   1.0000   1.0000   1.0000   1.0000   1.0000   1.0000   0.0000
     0.0000   0.0000   0.0000   0.0000   0.0000

          k = 0.1667 0.3849-0.3126 (  2792 PWs)   bands (ev):

   -74.8331 -74.8331 -38.2986 -38.2986 -38.1329 -38.1329 -38.0714 -38.0714
    15.1005  15.1005  16.9661  16.9661  17.6542  17.6542  18.8918  18.8918
    20.4163  20.4163  21.2781  21.2781  31.4593

     occupation numbers 
     1.0000   1.0000   1.0000   1.0000   1.0000   1.0000   1.0000   1.0000
     1.0000   1.0000   1.0000   1.0000   1.0000   1.0000   1.0000   1.0000
     0.0000   0.0000   0.0000   0.0000   0.0000

          k = 0.1667 0.4811 0.0000 (  2806 PWs)   bands (ev):

   -74.8384 -74.8155 -38.2933 -38.2415 -38.2201 -38.1653 -38.0906 -38.0874
    15.0755  15.9664  15.9693  16.6708  17.7496  18.1233  18.5445  19.8820
    20.3802  20.4041  21.6090  25.6216  29.0236

     occupation numbers 
     1.0000   1.0000   1.0000   1.0000   1.0000   1.0000   1.0000   1.0000
     1.0000   1.0000   1.0000   1.0000   1.0000   1.0000   1.0000   0.0000
     0.0000   0.0000   0.0000   0.0000   0.0000

          k = 0.1667 0.4811 0.1042 (  2806 PWs)   bands (ev):

   -74.8369 -74.8170 -38.3106 -38.2650 -38.1949 -38.1555 -38.1004 -38.0718
    15.0898  15.9284  16.1424  16.7130  17.7728  18.1099  18.5845  19.8614
    20.1526  20.4609  21.6661  25.0345  27.9294

     occupation numbers 
     1.0000   1.0000   1.0000   1.0000   1.0000   1.0000   1.0000   1.0000
     1.0000   1.0000   1.0000   1.0000   1.0000   1.0000   1.0000   0.0000
     0.0000   0.0000   0.0000   0.0000   0.0000

          k = 0.1667 0.4811 0.2084 (  2791 PWs)   bands (ev):

   -74.8327 -74.8212 -38.3294 -38.2991 -38.1759 -38.1328 -38.1003 -38.0602
    15.1932  15.7275  16.4951  17.0195  17.6116  18.0821  18.7724  19.5003
    20.0825  20.5648  21.8246  23.5846  28.0216

     occupation numbers 
     1.0000   1.0000   1.0000   1.0000   1.0000   1.0000   1.0000   1.0000
     1.0000   1.0000   1.0000   1.0000   1.0000   1.0000   1.0000   0.0000
     0.0000   0.0000   0.0000   0.0000   0.0000

          k = 0.1667 0.4811-0.3126 (  2800 PWs)   bands (ev):

   -74.8269 -74.8269 -38.3254 -38.3254 -38.1524 -38.1524 -38.0709 -38.0709
    15.4257  15.4257  16.9333  16.9333  17.7980  17.7980  19.0482  19.0482
    20.4107  20.4107  22.3736  22.3736  28.8431

     occupation numbers 
     1.0000   1.0000   1.0000   1.0000   1.0000   1.0000   1.0000   1.0000
     1.0000   1.0000   1.0000   1.0000   1.0000   1.0000   1.0000   1.0000
     0.0000   0.0000   0.0000   0.0000   0.0000

          k = 0.1667 0.5774 0.0000 (  2808 PWs)   bands (ev):

   -74.8331 -74.8163 -38.3084 -38.2460 -38.2002 -38.1783 -38.1063 -38.0927
    15.5385  15.8312  15.9012  16.7335  17.7784  17.9799  18.6536  20.1943
    20.3708  20.4037  22.5180  24.0390  29.8342

     occupation numbers 
     1.0000   1.0000   1.0000   1.0000   1.0000   1.0000   1.0000   1.0000
     1.0000   1.0000   1.0000   1.0000   1.0000   1.0000   1.0000   0.0000
     0.0000   0.0000   0.0000   0.0000   0.0000

          k = 0.1667 0.5774 0.1042 (  2807 PWs)   bands (ev):

   -74.8319 -74.8175 -38.3222 -38.2680 -38.2013 -38.1472 -38.1134 -38.0797
    15.3789  15.8834  16.2929  16.5592  17.7236  18.1515  18.7028  20.1162
    20.1905  20.4419  22.5527  23.9408  29.0849

     occupation numbers 
     1.0000   1.0000   1.0000   1.0000   1.0000   1.0000   1.0000   1.0000
     1.0000   1.0000   1.0000   1.0000   1.0000   1.0000   1.0000   0.0000
     0.0000   0.0000   0.0000   0.0000   0.0000

          k = 0.1667 0.5774 0.2084 (  2798 PWs)   bands (ev):

   -74.8289 -74.8205 -38.3391 -38.3077 -38.1856 -38.1331 -38.1014 -38.0643
    15.3380  15.7834  16.5594  16.9364  17.5176  18.2596  18.9233  19.5786
    20.2123  20.4876  22.6891  23.6134  27.9796

     occupation numbers 
     1.0000   1.0000   1.0000   1.0000   1.0000   1.0000   1.0000   1.0000
     1.0000   1.0000   1.0000   1.0000   1.0000   1.0000   1.0000   0.0000
     0.0000   0.0000   0.0000   0.0000   0.0000

          k = 0.1667 0.5774-0.3126 (  2802 PWs)   bands (ev):

   -74.8247 -74.8247 -38.3353 -38.3353 -38.1598 -38.1598 -38.0704 -38.0704
    15.5014  15.5014  16.9233  16.9233  17.8491  17.8491  19.2188  19.2188
    20.3442  20.3442  23.0956  23.0956  27.5905

     occupation numbers 
     1.0000   1.0000   1.0000   1.0000   1.0000   1.0000   1.0000   1.0000
     1.0000   1.0000   1.0000   1.0000   1.0000   1.0000   0.0000   0.0000
     0.0000   0.0000   0.0000   0.0000   0.0000

          k = 0.2500 0.4330 0.0000 (  2804 PWs)   bands (ev):

   -74.8385 -74.8154 -38.2711 -38.2445 -38.2203 -38.1645 -38.1078 -38.0904
    15.0848  16.0389  16.3196  16.3358  17.6624  18.1446  18.5438  19.6482
    20.3591  20.3885  21.6440  27.2176  27.9787

     occupation numbers 
     1.0000   1.0000   1.0000   1.0000   1.0000   1.0000   1.0000   1.0000
     1.0000   1.0000   1.0000   1.0000   1.0000   1.0000   1.0000   0.0000
     0.0000   0.0000   0.0000   0.0000   0.0000

          k = 0.2500 0.4330 0.1042 (  2807 PWs)   bands (ev):

   -74.8369 -74.8170 -38.2831 -38.2752 -38.1797 -38.1752 -38.1111 -38.0741
    15.1664  15.9579  16.3917  16.5336  17.7171  17.9662  18.5333  19.6722
    20.0967  20.4715  21.7586  25.8144  28.2787

     occupation numbers 
     1.0000   1.0000   1.0000   1.0000   1.0000   1.0000   1.0000   1.0000
     1.0000   1.0000   1.0000   1.0000   1.0000   1.0000   1.0000   0.0000
     0.0000   0.0000   0.0000   0.0000   0.0000

          k = 0.2500 0.4330 0.2084 (  2794 PWs)   bands (ev):

   -74.8327 -74.8212 -38.3105 -38.2932 -38.1848 -38.1516 -38.0986 -38.0594
    15.3732  15.8227  16.6272  16.9193  17.5717  17.7063  18.5919  19.4034
    20.0433  20.5728  22.0075  23.9151  29.0871

     occupation numbers 
     1.0000   1.0000   1.0000   1.0000   1.0000   1.0000   1.0000   1.0000
     1.0000   1.0000   1.0000   1.0000   1.0000   1.0000   1.0000   0.0000
     0.0000   0.0000   0.0000   0.0000   0.0000

          k = 0.2500 0.4330-0.3126 (  2784 PWs)   bands (ev):

   -74.8269 -74.8269 -38.3119 -38.3119 -38.1686 -38.1686 -38.0684 -38.0684
    15.6200  15.6200  16.9909  16.9909  17.4643  17.4643  18.8837  18.8837
    20.4351  20.4351  22.5949  22.5949  30.1293

     occupation numbers 
     1.0000   1.0000   1.0000   1.0000   1.0000   1.0000   1.0000   1.0000
     1.0000   1.0000   1.0000   1.0000   1.0000   1.0000   1.0000   1.0000
     0.0000   0.0000   0.0000   0.0000   0.0000

          k = 0.2500 0.5292 0.0000 (  2820 PWs)   bands (ev):

   -74.8293 -74.8175 -38.2862 -38.2334 -38.1980 -38.1855 -38.1302 -38.1187
    15.7973  15.9899  16.1532  16.4270  17.6674  17.9057  18.7487  19.9542
    20.3324  20.3443  22.9301  25.2008  27.2893

     occupation numbers 
     1.0000   1.0000   1.0000   1.0000   1.0000   1.0000   1.0000   1.0000
     1.0000   1.0000   1.0000   1.0000   1.0000   1.0000   1.0000   0.0000
     0.0000   0.0000   0.0000   0.0000   0.0000

          k = 0.2500 0.5292 0.1042 (  2809 PWs)   bands (ev):

   -74.8285 -74.8183 -38.2928 -38.2609 -38.2190 -38.1527 -38.1327 -38.0936
    15.7534  16.1231  16.2445  16.4927  17.6503  17.8071  18.7465  19.9607
    20.0658  20.3980  23.1037  25.1844  27.3770

     occupation numbers 
     1.0000   1.0000   1.0000   1.0000   1.0000   1.0000   1.0000   1.0000
     1.0000   1.0000   1.0000   1.0000   1.0000   1.0000   1.0000   0.0000
     0.0000   0.0000   0.0000   0.0000   0.0000

          k = 0.2500 0.5292 0.2084 (  2798 PWs)   bands (ev):

   -74.8264 -74.8204 -38.3117 -38.2943 -38.2180 -38.1672 -38.0925 -38.0678
    15.7940  16.0940  16.5355  16.8514  17.4110  17.6614  18.7961  19.4511
    20.1275  20.4411  23.5027  24.8374  27.4983

     occupation numbers 
     1.0000   1.0000   1.0000   1.0000   1.0000   1.0000   1.0000   1.0000
     1.0000   1.0000   1.0000   1.0000   1.0000   1.0000   1.0000   0.0000
     0.0000   0.0000   0.0000   0.0000   0.0000

          k = 0.2500 0.5292-0.3126 (  2796 PWs)   bands (ev):

   -74.8234 -74.8234 -38.3150 -38.3150 -38.1943 -38.1943 -38.0662 -38.0662
    15.9333  15.9333  16.9460  16.9460  17.3676  17.3676  18.9990  18.9990
    20.3299  20.3299  24.1067  24.1067  28.0627

     occupation numbers 
     1.0000   1.0000   1.0000   1.0000   1.0000   1.0000   1.0000   1.0000
     1.0000   1.0000   1.0000   1.0000   1.0000   1.0000   1.0000   1.0000
     0.0000   0.0000   0.0000   0.0000   0.0000

          k = 0.3333 0.5774 0.0000 (  2826 PWs)   bands (ev):

   -74.8221 -74.8221 -38.2773 -38.2184 -38.2184 -38.1560 -38.1509 -38.1509
    16.0142  16.1451  16.1451  16.3556  17.7239  17.7239  18.8576  20.1243
    20.1243  20.3039  24.3665  25.1914  25.1914

     occupation numbers 
     1.0000   1.0000   1.0000   1.0000   1.0000   1.0000   1.0000   1.0000
     1.0000   1.0000   1.0000   1.0000   1.0000   1.0000   1.0000   0.0000
     0.0000   0.0000   0.0000   0.0000   0.0000

          k = 0.3333 0.5774 0.1042 (  2817 PWs)   bands (ev):

   -74.8221 -74.8221 -38.2692 -38.2511 -38.2511 -38.1642 -38.1179 -38.1179
    16.0942  16.2239  16.2239  16.3903  17.6389  17.6389  18.8303  20.0072
    20.1660  20.1660  24.8035  25.2441  25.2441

     occupation numbers 
     1.0000   1.0000   1.0000   1.0000   1.0000   1.0000   1.0000   1.0000
     1.0000   1.0000   1.0000   1.0000   1.0000   1.0000   1.0000   0.0000
     0.0000   0.0000   0.0000   0.0000   0.0000

          k = 0.3333 0.5774 0.2084 (  2793 PWs)   bands (ev):

   -74.8221 -74.8221 -38.2894 -38.2894 -38.2471 -38.1865 -38.0793 -38.0793
    16.2829  16.4104  16.4104  16.4536  17.4480  17.4480  18.8133  19.4270
    20.2402  20.2402  25.3741  25.3741  25.8504

     occupation numbers 
     1.0000   1.0000   1.0000   1.0000   1.0000   1.0000   1.0000   1.0000
     1.0000   1.0000   1.0000   1.0000   1.0000   1.0000   1.0000   0.0000
     0.0000   0.0000   0.0000   0.0000   0.0000

          k = 0.3333 0.5774-0.3126 (  2766 PWs)   bands (ev):

   -74.8221 -74.8221 -38.3040 -38.3040 -38.2168 -38.2168 -38.0645 -38.0645
    16.4385  16.4385  16.5306  16.5306  17.3293  17.3293  18.9759  18.9759
    20.2731  20.2731  25.4563  25.4563  27.2161

     occupation numbers 
     1.0000   1.0000   1.0000   1.0000   1.0000   1.0000   1.0000   1.0000
     1.0000   1.0000   1.0000   1.0000   1.0000   1.0000   1.0000   1.0000
     0.0000   0.0000   0.0000   0.0000   0.0000

     the Fermi energy is    19.0900 ev

!    total energy              =    -753.45479794 Ry
     total all-electron energy =     -5573.811489 Ry
     estimated scf accuracy    <       0.00000078 Ry
     smearing contrib. (-TS)   =      -0.00002226 Ry
     internal energy E=F+TS    =    -753.45477568 Ry

     The total energy is F=E-TS. E is the sum of the following terms:
     one-electron contribution =    -278.58364711 Ry
     hartree contribution      =     163.48201174 Ry
     xc contribution           =     -61.42495224 Ry
     ewald contribution        =    -401.75232148 Ry
     one-center paw contrib.   =    -175.17586659 Ry
      -> PAW hartree energy AE =     222.16926178 Ry
      -> PAW hartree energy PS =    -221.11311595 Ry
      -> PAW xc energy AE      =    -117.67742613 Ry
      -> PAW xc energy PS      =      29.03334701 Ry
      -> total E_H with PAW    =     164.53815756 Ry
      -> total E_XC with PAW   =    -150.06903137 Ry

     total magnetization       =     3.22 Bohr mag/cell
     absolute magnetization    =     3.54 Bohr mag/cell

     convergence has been achieved in   8 iterations

     Writing all to output data dir ./out2/Co.save/
 
     init_run     :      0.31s CPU      0.40s WALL (       1 calls)
     electrons    :      9.23s CPU      9.90s WALL (       1 calls)

     Called by init_run:
     wfcinit      :      0.13s CPU      0.18s WALL (       1 calls)
     potinit      :      0.09s CPU      0.12s WALL (       1 calls)
     hinit0       :      0.07s CPU      0.08s WALL (       1 calls)

     Called by electrons:
     c_bands      :      7.62s CPU      8.08s WALL (       8 calls)
     sum_band     :      0.85s CPU      0.90s WALL (       8 calls)
     v_of_rho     :      0.03s CPU      0.04s WALL (       9 calls)
     v_h          :      0.00s CPU      0.00s WALL (       9 calls)
     v_xc         :      0.03s CPU      0.04s WALL (       9 calls)
     newd         :      0.02s CPU      0.03s WALL (       9 calls)
     PAW_pot      :      0.79s CPU      0.94s WALL (       9 calls)
     mix_rho      :      0.01s CPU      0.01s WALL (       8 calls)

     Called by c_bands:
     init_us_2    :      0.06s CPU      0.07s WALL (    1216 calls)
     init_us_2:cp :      0.06s CPU      0.06s WALL (    1216 calls)
     cegterg      :      7.06s CPU      7.41s WALL (     608 calls)

     Called by sum_band:
     sum_band:wei :      0.01s CPU      0.01s WALL (       8 calls)
     sum_band:loo :      0.78s CPU      0.83s WALL (       8 calls)
     sum_band:buf :      0.01s CPU      0.01s WALL (     608 calls)
     sum_band:ini :      0.03s CPU      0.03s WALL (     608 calls)
     sum_band:cal :      0.07s CPU      0.07s WALL (     608 calls)
     sum_band:bec :      0.01s CPU      0.01s WALL (     608 calls)
     addusdens    :      0.04s CPU      0.04s WALL (       8 calls)
                                        0.00s GPU  (       8 calls)
     addusd:skk   :      0.00s CPU      0.00s WALL (       8 calls)
                                        0.00s GPU  (       8 calls)

     Called by *egterg:
     cdiaghg      :      1.53s CPU      1.59s WALL (    3144 calls)
     cegterg:over :      0.23s CPU      0.24s WALL (    2612 calls)
     cegterg:upda :      0.07s CPU      0.07s WALL (    2612 calls)
     cegterg:last :      0.12s CPU      0.12s WALL (    1835 calls)
     h_psi        :      4.79s CPU      5.04s WALL (    3220 calls)
     s_psi        :      0.08s CPU      0.09s WALL (    3220 calls)
     g_psi        :      0.02s CPU      0.02s WALL (    2612 calls)

     Called by h_psi:
     h_psi:calbec :      0.26s CPU      0.27s WALL (    3220 calls)
     vloc_psi     :      4.40s CPU      4.63s WALL (    3220 calls)
     add_vuspsi   :      0.10s CPU      0.11s WALL (    3220 calls)

     General routines
     calbec       :      0.31s CPU      0.33s WALL (    3828 calls)
     fft          :      0.02s CPU      0.02s WALL (     219 calls)
     ffts         :      0.00s CPU      0.00s WALL (      34 calls)
     fftw         :      4.59s CPU      4.83s WALL (  101670 calls)
     interpolate  :      0.00s CPU      0.00s WALL (      18 calls)
 
     Parallel routines

     PAW routines
     PAW_pot      :      0.79s CPU      0.94s WALL (       9 calls)
     PAW_symme    :      0.01s CPU      0.01s WALL (      16 calls)
 
     PWSCF        :      9.77s CPU     10.86s WALL

 
   This run was terminated on:  10:46:57  22Mar2024            

=------------------------------------------------------------------------------=
   JOB DONE.
=------------------------------------------------------------------------------=
