
     Program PWSCF v.7.2 starts on 22Mar2024 at 10:48: 2 

     This program is part of the open-source Quantum ESPRESSO suite
     for quantum simulation of materials; please cite
         "P. Giannozzi et al., J. Phys.:Condens. Matter 21 395502 (2009);
         "P. Giannozzi et al., J. Phys.:Condens. Matter 29 465901 (2017);
         "P. Giannozzi et al., J. Chem. Phys. 152 154105 (2020);
          URL http://www.quantum-espresso.org", 
     in publications or presentations arising from this work. More details at
     http://www.quantum-espresso.org/quote

     Parallel version (MPI), running on    28 processors

     MPI processes distributed on     1 nodes
     182194 MiB available memory on the printing compute node when the environment starts
 
     Waiting for input...
     Reading input from standard input

     Current dimensions of program PWSCF are:
     Max number of different atomic species (ntypx) = 10
     Max number of k-points (npk) = 120000
     Max angular momentum in pseudopotentials (lmaxx) =  4
     file Co.pbe-spn-kjpaw_psl.0.3.1.UPF: wavefunction(s)  3P 3D renormalized
 
     K-points division:     npool     =       2
     R & G space division:  proc/nbgrp/npool/nimage =      14
     Subspace diagonalization in iterative solution of the eigenvalue problem:
     a serial algorithm will be used

 
     Parallelization info
     --------------------
     sticks:   dense  smooth     PW     G-vecs:    dense   smooth      PW
     Min          48      48     14                 1648     1608     262
     Max          49      49     15                 1665     1613     269
     Sum         673     673    199                23199    22527    3693
 
     Using Slab Decomposition
 


     bravais-lattice index     =            4
     lattice parameter (alat)  =       4.6960  a.u.
     unit-cell volume          =     144.3577 (a.u.)^3
     number of atoms/cell      =            2
     number of atomic types    =            1
     number of electrons       =        34.00
     number of Kohn-Sham states=           21
     kinetic-energy cutoff     =     110.0000  Ry
     charge density cutoff     =     450.0000  Ry
     scf convergence threshold =      1.0E-06
     mixing beta               =       0.7000
     number of iterations used =            8  plain     mixing
     Exchange-correlation= SLA  PW   PBX  PBC
                           (   1   4   3   4   0   0   0)

     celldm(1)=   4.695969  celldm(2)=   0.000000  celldm(3)=   1.609658
     celldm(4)=   0.000000  celldm(5)=   0.000000  celldm(6)=   0.000000

     crystal axes: (cart. coord. in units of alat)
               a(1) = (   1.000000   0.000000   0.000000 )  
               a(2) = (  -0.500000   0.866025   0.000000 )  
               a(3) = (   0.000000   0.000000   1.609658 )  

     reciprocal axes: (cart. coord. in units 2 pi/alat)
               b(1) = (  1.000000  0.577350  0.000000 )  
               b(2) = (  0.000000  1.154701  0.000000 )  
               b(3) = (  0.000000  0.000000  0.621250 )  


     PseudoPot. # 1 for Co read from file:
     /truba/home/amuhaymin/ZnS/pseudo/QE/Co.pbe-spn-kjpaw_psl.0.3.1.UPF
     MD5 check sum: b0a1ad65bf214e88c1f3d33b20c7d919
     Pseudo is Projector augmented-wave + core cor, Zval = 17.0
     Generated using &quot;atomic&quot; code by A. Dal Corso  v.6.2.2
     Shape of augmentation charge: PSQ
     Using radial grid of 1193 points,  6 beta functions with: 
                l(1) =   0
                l(2) =   0
                l(3) =   1
                l(4) =   1
                l(5) =   2
                l(6) =   2
     Q(r) pseudized with 0 coefficients 


     atomic species   valence    mass     pseudopotential
        Co            17.00    58.93300     Co( 1.00)

     Starting magnetic structure 
     atomic species   magnetization
        Co           0.294

     24 Sym. Ops., with inversion, found (12 have fractional translation)


                                    s                        frac. trans.

      isym =  1     identity                                     

 cryst.   s( 1) = (     1          0          0      )
                  (     0          1          0      )
                  (     0          0          1      )

 cart.    s( 1) = (  1.0000000  0.0000000  0.0000000 )
                  (  0.0000000  1.0000000  0.0000000 )
                  (  0.0000000  0.0000000  1.0000000 )


      isym =  2     180 deg rotation - cart. axis [0,0,1]        

 cryst.   s( 2) = (    -1          0          0      )    f =(  0.0000000 )
                  (     0         -1          0      )       ( -0.0000000 )
                  (     0          0          1      )       ( -0.5000000 )

 cart.    s( 2) = ( -1.0000000  0.0000000  0.0000000 )    f =(  0.0000000 )
                  (  0.0000000 -1.0000000  0.0000000 )       ( -0.0000000 )
                  (  0.0000000  0.0000000  1.0000000 )       ( -0.8048290 )


      isym =  3     180 deg rotation - cart. axis [0,1,0]        

 cryst.   s( 3) = (    -1          0          0      )    f =(  0.0000000 )
                  (     1          1          0      )       (  0.0000000 )
                  (     0          0         -1      )       (  0.5000000 )

 cart.    s( 3) = ( -1.0000000  0.0000000  0.0000000 )    f =(  0.0000000 )
                  (  0.0000000  1.0000000  0.0000000 )       (  0.0000000 )
                  (  0.0000000  0.0000000 -1.0000000 )       (  0.8048290 )


      isym =  4     180 deg rotation - cart. axis [1,0,0]        

 cryst.   s( 4) = (     1          0          0      )
                  (    -1         -1          0      )
                  (     0          0         -1      )

 cart.    s( 4) = (  1.0000000  0.0000000  0.0000000 )
                  (  0.0000000 -1.0000000  0.0000000 )
                  (  0.0000000  0.0000000 -1.0000000 )


      isym =  5      60 deg rotation - cryst. axis [0,0,1]       

 cryst.   s( 5) = (     1          1          0      )    f =(  0.0000000 )
                  (    -1          0          0      )       ( -0.0000000 )
                  (     0          0          1      )       ( -0.5000000 )

 cart.    s( 5) = (  0.5000000 -0.8660254  0.0000000 )    f =(  0.0000000 )
                  (  0.8660254  0.5000000  0.0000000 )       ( -0.0000000 )
                  (  0.0000000  0.0000000  1.0000000 )       ( -0.8048290 )


      isym =  6      60 deg rotation - cryst. axis [0,0,-1]      

 cryst.   s( 6) = (     0         -1          0      )    f =(  0.0000000 )
                  (     1          1          0      )       ( -0.0000000 )
                  (     0          0          1      )       ( -0.5000000 )

 cart.    s( 6) = (  0.5000000  0.8660254  0.0000000 )    f =(  0.0000000 )
                  ( -0.8660254  0.5000000  0.0000000 )       ( -0.0000000 )
                  (  0.0000000  0.0000000  1.0000000 )       ( -0.8048290 )


      isym =  7     120 deg rotation - cryst. axis [0,0,1]       

 cryst.   s( 7) = (     0          1          0      )
                  (    -1         -1          0      )
                  (     0          0          1      )

 cart.    s( 7) = ( -0.5000000 -0.8660254  0.0000000 )
                  (  0.8660254 -0.5000000  0.0000000 )
                  (  0.0000000  0.0000000  1.0000000 )


      isym =  8     120 deg rotation - cryst. axis [0,0,-1]      

 cryst.   s( 8) = (    -1         -1          0      )
                  (     1          0          0      )
                  (     0          0          1      )

 cart.    s( 8) = ( -0.5000000  0.8660254  0.0000000 )
                  ( -0.8660254 -0.5000000  0.0000000 )
                  (  0.0000000  0.0000000  1.0000000 )


      isym =  9     180 deg rotation - cryst. axis [1,-1,0]      

 cryst.   s( 9) = (     0         -1          0      )    f =( -0.0000000 )
                  (    -1          0          0      )       ( -0.0000000 )
                  (     0          0         -1      )       (  0.5000000 )

 cart.    s( 9) = (  0.5000000 -0.8660254  0.0000000 )    f =( -0.0000000 )
                  ( -0.8660254 -0.5000000  0.0000000 )       ( -0.0000000 )
                  (  0.0000000  0.0000000 -1.0000000 )       (  0.8048290 )


      isym = 10     180 deg rotation - cryst. axis [2,1,0]       

 cryst.   s(10) = (     1          1          0      )    f =(  0.0000000 )
                  (     0         -1          0      )       ( -0.0000000 )
                  (     0          0         -1      )       (  0.5000000 )

 cart.    s(10) = (  0.5000000  0.8660254  0.0000000 )    f =(  0.0000000 )
                  (  0.8660254 -0.5000000  0.0000000 )       ( -0.0000000 )
                  (  0.0000000  0.0000000 -1.0000000 )       (  0.8048290 )


      isym = 11     180 deg rotation - cryst. axis [0,1,0]       

 cryst.   s(11) = (    -1         -1          0      )
                  (     0          1          0      )
                  (     0          0         -1      )

 cart.    s(11) = ( -0.5000000 -0.8660254  0.0000000 )
                  ( -0.8660254  0.5000000  0.0000000 )
                  (  0.0000000  0.0000000 -1.0000000 )


      isym = 12     180 deg rotation - cryst. axis [1,1,0]       

 cryst.   s(12) = (     0          1          0      )
                  (     1          0          0      )
                  (     0          0         -1      )

 cart.    s(12) = ( -0.5000000  0.8660254  0.0000000 )
                  (  0.8660254  0.5000000  0.0000000 )
                  (  0.0000000  0.0000000 -1.0000000 )


      isym = 13     inversion                                    

 cryst.   s(13) = (    -1          0          0      )
                  (     0         -1          0      )
                  (     0          0         -1      )

 cart.    s(13) = ( -1.0000000  0.0000000  0.0000000 )
                  (  0.0000000 -1.0000000  0.0000000 )
                  (  0.0000000  0.0000000 -1.0000000 )


      isym = 14     inv. 180 deg rotation - cart. axis [0,0,1]   

 cryst.   s(14) = (     1          0          0      )    f =(  0.0000000 )
                  (     0          1          0      )       (  0.0000000 )
                  (     0          0         -1      )       (  0.5000000 )

 cart.    s(14) = (  1.0000000  0.0000000  0.0000000 )    f =(  0.0000000 )
                  (  0.0000000  1.0000000  0.0000000 )       (  0.0000000 )
                  (  0.0000000  0.0000000 -1.0000000 )       (  0.8048290 )


      isym = 15     inv. 180 deg rotation - cart. axis [0,1,0]   

 cryst.   s(15) = (     1          0          0      )    f =(  0.0000000 )
                  (    -1         -1          0      )       ( -0.0000000 )
                  (     0          0          1      )       ( -0.5000000 )

 cart.    s(15) = (  1.0000000  0.0000000  0.0000000 )    f =(  0.0000000 )
                  (  0.0000000 -1.0000000  0.0000000 )       ( -0.0000000 )
                  (  0.0000000  0.0000000  1.0000000 )       ( -0.8048290 )


      isym = 16     inv. 180 deg rotation - cart. axis [1,0,0]   

 cryst.   s(16) = (    -1          0          0      )
                  (     1          1          0      )
                  (     0          0          1      )

 cart.    s(16) = ( -1.0000000  0.0000000  0.0000000 )
                  (  0.0000000  1.0000000  0.0000000 )
                  (  0.0000000  0.0000000  1.0000000 )


      isym = 17     inv.  60 deg rotation - cryst. axis [0,0,1]  

 cryst.   s(17) = (    -1         -1          0      )    f =(  0.0000000 )
                  (     1          0          0      )       ( -0.0000000 )
                  (     0          0         -1      )       (  0.5000000 )

 cart.    s(17) = ( -0.5000000  0.8660254  0.0000000 )    f =(  0.0000000 )
                  ( -0.8660254 -0.5000000  0.0000000 )       ( -0.0000000 )
                  (  0.0000000  0.0000000 -1.0000000 )       (  0.8048290 )


      isym = 18     inv.  60 deg rotation - cryst. axis [0,0,-1] 

 cryst.   s(18) = (     0          1          0      )    f =( -0.0000000 )
                  (    -1         -1          0      )       ( -0.0000000 )
                  (     0          0         -1      )       (  0.5000000 )

 cart.    s(18) = ( -0.5000000 -0.8660254  0.0000000 )    f =(  0.0000000 )
                  (  0.8660254 -0.5000000  0.0000000 )       ( -0.0000000 )
                  (  0.0000000  0.0000000 -1.0000000 )       (  0.8048290 )


      isym = 19     inv. 120 deg rotation - cryst. axis [0,0,1]  

 cryst.   s(19) = (     0         -1          0      )
                  (     1          1          0      )
                  (     0          0         -1      )

 cart.    s(19) = (  0.5000000  0.8660254  0.0000000 )
                  ( -0.8660254  0.5000000  0.0000000 )
                  (  0.0000000  0.0000000 -1.0000000 )


      isym = 20     inv. 120 deg rotation - cryst. axis [0,0,-1] 

 cryst.   s(20) = (     1          1          0      )
                  (    -1          0          0      )
                  (     0          0         -1      )

 cart.    s(20) = (  0.5000000 -0.8660254  0.0000000 )
                  (  0.8660254  0.5000000  0.0000000 )
                  (  0.0000000  0.0000000 -1.0000000 )


      isym = 21     inv. 180 deg rotation - cryst. axis [1,-1,0] 

 cryst.   s(21) = (     0          1          0      )    f =(  0.0000000 )
                  (     1          0          0      )       ( -0.0000000 )
                  (     0          0          1      )       ( -0.5000000 )

 cart.    s(21) = ( -0.5000000  0.8660254  0.0000000 )    f =(  0.0000000 )
                  (  0.8660254  0.5000000  0.0000000 )       ( -0.0000000 )
                  (  0.0000000  0.0000000  1.0000000 )       ( -0.8048290 )


      isym = 22     inv. 180 deg rotation - cryst. axis [2,1,0]  

 cryst.   s(22) = (    -1         -1          0      )    f =(  0.0000000 )
                  (     0          1          0      )       ( -0.0000000 )
                  (     0          0          1      )       ( -0.5000000 )

 cart.    s(22) = ( -0.5000000 -0.8660254  0.0000000 )    f =(  0.0000000 )
                  ( -0.8660254  0.5000000  0.0000000 )       ( -0.0000000 )
                  (  0.0000000  0.0000000  1.0000000 )       ( -0.8048290 )


      isym = 23     inv. 180 deg rotation - cryst. axis [0,1,0]  

 cryst.   s(23) = (     1          1          0      )
                  (     0         -1          0      )
                  (     0          0          1      )

 cart.    s(23) = (  0.5000000  0.8660254  0.0000000 )
                  (  0.8660254 -0.5000000  0.0000000 )
                  (  0.0000000  0.0000000  1.0000000 )


      isym = 24     inv. 180 deg rotation - cryst. axis [1,1,0]  

 cryst.   s(24) = (     0         -1          0      )
                  (    -1          0          0      )
                  (     0          0          1      )

 cart.    s(24) = (  0.5000000 -0.8660254  0.0000000 )
                  ( -0.8660254 -0.5000000  0.0000000 )
                  (  0.0000000  0.0000000  1.0000000 )


     point group D_6h(6/mmm)
     there are 12 classes
     the character table:

       E     2C6   2C3   C2    3C2'  3C2'' i     2S3   2S6   s_h   3s_d  3s_v 
A_1g   1.00  1.00  1.00  1.00  1.00  1.00  1.00  1.00  1.00  1.00  1.00  1.00
A_2g   1.00  1.00  1.00  1.00 -1.00 -1.00  1.00  1.00  1.00  1.00 -1.00 -1.00
B_1g   1.00 -1.00  1.00 -1.00  1.00 -1.00  1.00 -1.00  1.00 -1.00  1.00 -1.00
B_2g   1.00 -1.00  1.00 -1.00 -1.00  1.00  1.00 -1.00  1.00 -1.00 -1.00  1.00
E_1g   2.00  1.00 -1.00 -2.00  0.00  0.00  2.00  1.00 -1.00 -2.00  0.00  0.00
E_2g   2.00 -1.00 -1.00  2.00  0.00  0.00  2.00 -1.00 -1.00  2.00  0.00  0.00
A_1u   1.00  1.00  1.00  1.00  1.00  1.00 -1.00 -1.00 -1.00 -1.00 -1.00 -1.00
A_2u   1.00  1.00  1.00  1.00 -1.00 -1.00 -1.00 -1.00 -1.00 -1.00  1.00  1.00
B_1u   1.00 -1.00  1.00 -1.00  1.00 -1.00 -1.00  1.00 -1.00  1.00 -1.00  1.00
B_2u   1.00 -1.00  1.00 -1.00 -1.00  1.00 -1.00  1.00 -1.00  1.00  1.00 -1.00
E_1u   2.00  1.00 -1.00 -2.00  0.00  0.00 -2.00 -1.00  1.00  2.00  0.00  0.00
E_2u   2.00 -1.00 -1.00  2.00  0.00  0.00 -2.00  1.00  1.00 -2.00  0.00  0.00

     the symmetry operations in each class and the name of the first element:

     E        1
          identity                                               
     2C6      5    6
           60 deg rotation - cryst. axis [0,0,1]                 
     2C3      7    8
          120 deg rotation - cryst. axis [0,0,1]                 
     C2       2
          180 deg rotation - cart. axis [0,0,1]                  
     3C2'     4   12   11
          180 deg rotation - cart. axis [1,0,0]                  
     3C2''    3    9   10
          180 deg rotation - cart. axis [0,1,0]                  
     i       13
          inversion                                              
     2S3     17   18
          inv.  60 deg rotation - cryst. axis [0,0,1]            
     2S6     19   20
          inv. 120 deg rotation - cryst. axis [0,0,1]            
     s_h     14
          inv. 180 deg rotation - cart. axis [0,0,1]             
     3s_d    16   24   23
          inv. 180 deg rotation - cart. axis [1,0,0]             
     3s_v    15   21   22
          inv. 180 deg rotation - cart. axis [0,1,0]             

   Cartesian axes

     site n.     atom                  positions (alat units)
         1           Co  tau(   1) = (  -0.0000000   0.5773503   0.4024145  )
         2           Co  tau(   2) = (   0.5000000   0.2886751   1.2072435  )

   Crystallographic axes

     site n.     atom                  positions (cryst. coord.)
         1           Co  tau(   1) = (  0.3333333  0.6666667  0.2500000  )
         2           Co  tau(   2) = (  0.6666667  0.3333333  0.7500000  )

     number of k points=    76  Gaussian smearing, width (Ry)=  0.0010
                       cart. coord. in units 2pi/alat
        k(    1) = (   0.0000000   0.0000000   0.0000000), wk =   0.0011574
        k(    2) = (   0.0000000   0.0000000   0.1035417), wk =   0.0023148
        k(    3) = (   0.0000000   0.0000000   0.2070833), wk =   0.0023148
        k(    4) = (   0.0000000   0.0000000  -0.3106250), wk =   0.0011574
        k(    5) = (   0.0000000   0.0962250   0.0000000), wk =   0.0069444
        k(    6) = (   0.0000000   0.0962250   0.1035417), wk =   0.0138889
        k(    7) = (   0.0000000   0.0962250   0.2070833), wk =   0.0138889
        k(    8) = (   0.0000000   0.0962250  -0.3106250), wk =   0.0069444
        k(    9) = (   0.0000000   0.1924501   0.0000000), wk =   0.0069444
        k(   10) = (   0.0000000   0.1924501   0.1035417), wk =   0.0138889
        k(   11) = (   0.0000000   0.1924501   0.2070833), wk =   0.0138889
        k(   12) = (   0.0000000   0.1924501  -0.3106250), wk =   0.0069444
        k(   13) = (   0.0000000   0.2886751   0.0000000), wk =   0.0069444
        k(   14) = (   0.0000000   0.2886751   0.1035417), wk =   0.0138889
        k(   15) = (   0.0000000   0.2886751   0.2070833), wk =   0.0138889
        k(   16) = (   0.0000000   0.2886751  -0.3106250), wk =   0.0069444
        k(   17) = (   0.0000000   0.3849002   0.0000000), wk =   0.0069444
        k(   18) = (   0.0000000   0.3849002   0.1035417), wk =   0.0138889
        k(   19) = (   0.0000000   0.3849002   0.2070833), wk =   0.0138889
        k(   20) = (   0.0000000   0.3849002  -0.3106250), wk =   0.0069444
        k(   21) = (   0.0000000   0.4811252   0.0000000), wk =   0.0069444
        k(   22) = (   0.0000000   0.4811252   0.1035417), wk =   0.0138889
        k(   23) = (   0.0000000   0.4811252   0.2070833), wk =   0.0138889
        k(   24) = (   0.0000000   0.4811252  -0.3106250), wk =   0.0069444
        k(   25) = (   0.0000000  -0.5773503   0.0000000), wk =   0.0034722
        k(   26) = (   0.0000000  -0.5773503   0.1035417), wk =   0.0069444
        k(   27) = (   0.0000000  -0.5773503   0.2070833), wk =   0.0069444
        k(   28) = (   0.0000000  -0.5773503  -0.3106250), wk =   0.0034722
        k(   29) = (   0.0833333   0.1443376   0.0000000), wk =   0.0069444
        k(   30) = (   0.0833333   0.1443376   0.1035417), wk =   0.0138889
        k(   31) = (   0.0833333   0.1443376   0.2070833), wk =   0.0138889
        k(   32) = (   0.0833333   0.1443376  -0.3106250), wk =   0.0069444
        k(   33) = (   0.0833333   0.2405626   0.0000000), wk =   0.0138889
        k(   34) = (   0.0833333   0.2405626   0.1035417), wk =   0.0277778
        k(   35) = (   0.0833333   0.2405626   0.2070833), wk =   0.0277778
        k(   36) = (   0.0833333   0.2405626  -0.3106250), wk =   0.0138889
        k(   37) = (   0.0833333   0.3367877   0.0000000), wk =   0.0138889
        k(   38) = (   0.0833333   0.3367877   0.1035417), wk =   0.0277778
        k(   39) = (   0.0833333   0.3367877   0.2070833), wk =   0.0277778
        k(   40) = (   0.0833333   0.3367877  -0.3106250), wk =   0.0138889
        k(   41) = (   0.0833333   0.4330127   0.0000000), wk =   0.0138889
        k(   42) = (   0.0833333   0.4330127   0.1035417), wk =   0.0277778
        k(   43) = (   0.0833333   0.4330127   0.2070833), wk =   0.0277778
        k(   44) = (   0.0833333   0.4330127  -0.3106250), wk =   0.0138889
        k(   45) = (   0.0833333   0.5292377   0.0000000), wk =   0.0138889
        k(   46) = (   0.0833333   0.5292377   0.1035417), wk =   0.0277778
        k(   47) = (   0.0833333   0.5292377   0.2070833), wk =   0.0277778
        k(   48) = (   0.0833333   0.5292377  -0.3106250), wk =   0.0138889
        k(   49) = (   0.1666667   0.2886751   0.0000000), wk =   0.0069444
        k(   50) = (   0.1666667   0.2886751   0.1035417), wk =   0.0138889
        k(   51) = (   0.1666667   0.2886751   0.2070833), wk =   0.0138889
        k(   52) = (   0.1666667   0.2886751  -0.3106250), wk =   0.0069444
        k(   53) = (   0.1666667   0.3849002   0.0000000), wk =   0.0138889
        k(   54) = (   0.1666667   0.3849002   0.1035417), wk =   0.0277778
        k(   55) = (   0.1666667   0.3849002   0.2070833), wk =   0.0277778
        k(   56) = (   0.1666667   0.3849002  -0.3106250), wk =   0.0138889
        k(   57) = (   0.1666667   0.4811252   0.0000000), wk =   0.0138889
        k(   58) = (   0.1666667   0.4811252   0.1035417), wk =   0.0277778
        k(   59) = (   0.1666667   0.4811252   0.2070833), wk =   0.0277778
        k(   60) = (   0.1666667   0.4811252  -0.3106250), wk =   0.0138889
        k(   61) = (   0.1666667   0.5773503   0.0000000), wk =   0.0069444
        k(   62) = (   0.1666667   0.5773503   0.1035417), wk =   0.0138889
        k(   63) = (   0.1666667   0.5773503   0.2070833), wk =   0.0138889
        k(   64) = (   0.1666667   0.5773503  -0.3106250), wk =   0.0069444
        k(   65) = (   0.2500000   0.4330127   0.0000000), wk =   0.0069444
        k(   66) = (   0.2500000   0.4330127   0.1035417), wk =   0.0138889
        k(   67) = (   0.2500000   0.4330127   0.2070833), wk =   0.0138889
        k(   68) = (   0.2500000   0.4330127  -0.3106250), wk =   0.0069444
        k(   69) = (   0.2500000   0.5292377   0.0000000), wk =   0.0138889
        k(   70) = (   0.2500000   0.5292377   0.1035417), wk =   0.0277778
        k(   71) = (   0.2500000   0.5292377   0.2070833), wk =   0.0277778
        k(   72) = (   0.2500000   0.5292377  -0.3106250), wk =   0.0138889
        k(   73) = (   0.3333333   0.5773503   0.0000000), wk =   0.0023148
        k(   74) = (   0.3333333   0.5773503   0.1035417), wk =   0.0046296
        k(   75) = (   0.3333333   0.5773503   0.2070833), wk =   0.0046296
        k(   76) = (   0.3333333   0.5773503  -0.3106250), wk =   0.0023148

                       cryst. coord.
        k(    1) = (   0.0000000   0.0000000   0.0000000), wk =   0.0011574
        k(    2) = (   0.0000000   0.0000000   0.1666667), wk =   0.0023148
        k(    3) = (   0.0000000   0.0000000   0.3333333), wk =   0.0023148
        k(    4) = (   0.0000000   0.0000000  -0.5000000), wk =   0.0011574
        k(    5) = (   0.0000000   0.0833333   0.0000000), wk =   0.0069444
        k(    6) = (   0.0000000   0.0833333   0.1666667), wk =   0.0138889
        k(    7) = (   0.0000000   0.0833333   0.3333333), wk =   0.0138889
        k(    8) = (   0.0000000   0.0833333  -0.5000000), wk =   0.0069444
        k(    9) = (   0.0000000   0.1666667   0.0000000), wk =   0.0069444
        k(   10) = (   0.0000000   0.1666667   0.1666667), wk =   0.0138889
        k(   11) = (   0.0000000   0.1666667   0.3333333), wk =   0.0138889
        k(   12) = (   0.0000000   0.1666667  -0.5000000), wk =   0.0069444
        k(   13) = (   0.0000000   0.2500000   0.0000000), wk =   0.0069444
        k(   14) = (   0.0000000   0.2500000   0.1666667), wk =   0.0138889
        k(   15) = (   0.0000000   0.2500000   0.3333333), wk =   0.0138889
        k(   16) = (   0.0000000   0.2500000  -0.5000000), wk =   0.0069444
        k(   17) = (   0.0000000   0.3333333   0.0000000), wk =   0.0069444
        k(   18) = (   0.0000000   0.3333333   0.1666667), wk =   0.0138889
        k(   19) = (   0.0000000   0.3333333   0.3333333), wk =   0.0138889
        k(   20) = (   0.0000000   0.3333333  -0.5000000), wk =   0.0069444
        k(   21) = (   0.0000000   0.4166667   0.0000000), wk =   0.0069444
        k(   22) = (   0.0000000   0.4166667   0.1666667), wk =   0.0138889
        k(   23) = (   0.0000000   0.4166667   0.3333333), wk =   0.0138889
        k(   24) = (   0.0000000   0.4166667  -0.5000000), wk =   0.0069444
        k(   25) = (   0.0000000  -0.5000000   0.0000000), wk =   0.0034722
        k(   26) = (   0.0000000  -0.5000000   0.1666667), wk =   0.0069444
        k(   27) = (   0.0000000  -0.5000000   0.3333333), wk =   0.0069444
        k(   28) = (   0.0000000  -0.5000000  -0.5000000), wk =   0.0034722
        k(   29) = (   0.0833333   0.0833333   0.0000000), wk =   0.0069444
        k(   30) = (   0.0833333   0.0833333   0.1666667), wk =   0.0138889
        k(   31) = (   0.0833333   0.0833333   0.3333333), wk =   0.0138889
        k(   32) = (   0.0833333   0.0833333  -0.5000000), wk =   0.0069444
        k(   33) = (   0.0833333   0.1666667   0.0000000), wk =   0.0138889
        k(   34) = (   0.0833333   0.1666667   0.1666667), wk =   0.0277778
        k(   35) = (   0.0833333   0.1666667   0.3333333), wk =   0.0277778
        k(   36) = (   0.0833333   0.1666667  -0.5000000), wk =   0.0138889
        k(   37) = (   0.0833333   0.2500000   0.0000000), wk =   0.0138889
        k(   38) = (   0.0833333   0.2500000   0.1666667), wk =   0.0277778
        k(   39) = (   0.0833333   0.2500000   0.3333333), wk =   0.0277778
        k(   40) = (   0.0833333   0.2500000  -0.5000000), wk =   0.0138889
        k(   41) = (   0.0833333   0.3333333   0.0000000), wk =   0.0138889
        k(   42) = (   0.0833333   0.3333333   0.1666667), wk =   0.0277778
        k(   43) = (   0.0833333   0.3333333   0.3333333), wk =   0.0277778
        k(   44) = (   0.0833333   0.3333333  -0.5000000), wk =   0.0138889
        k(   45) = (   0.0833333   0.4166667   0.0000000), wk =   0.0138889
        k(   46) = (   0.0833333   0.4166667   0.1666667), wk =   0.0277778
        k(   47) = (   0.0833333   0.4166667   0.3333333), wk =   0.0277778
        k(   48) = (   0.0833333   0.4166667  -0.5000000), wk =   0.0138889
        k(   49) = (   0.1666667   0.1666667   0.0000000), wk =   0.0069444
        k(   50) = (   0.1666667   0.1666667   0.1666667), wk =   0.0138889
        k(   51) = (   0.1666667   0.1666667   0.3333333), wk =   0.0138889
        k(   52) = (   0.1666667   0.1666667  -0.5000000), wk =   0.0069444
        k(   53) = (   0.1666667   0.2500000   0.0000000), wk =   0.0138889
        k(   54) = (   0.1666667   0.2500000   0.1666667), wk =   0.0277778
        k(   55) = (   0.1666667   0.2500000   0.3333333), wk =   0.0277778
        k(   56) = (   0.1666667   0.2500000  -0.5000000), wk =   0.0138889
        k(   57) = (   0.1666667   0.3333333   0.0000000), wk =   0.0138889
        k(   58) = (   0.1666667   0.3333333   0.1666667), wk =   0.0277778
        k(   59) = (   0.1666667   0.3333333   0.3333333), wk =   0.0277778
        k(   60) = (   0.1666667   0.3333333  -0.5000000), wk =   0.0138889
        k(   61) = (   0.1666667   0.4166667   0.0000000), wk =   0.0069444
        k(   62) = (   0.1666667   0.4166667   0.1666667), wk =   0.0138889
        k(   63) = (   0.1666667   0.4166667   0.3333333), wk =   0.0138889
        k(   64) = (   0.1666667   0.4166667  -0.5000000), wk =   0.0069444
        k(   65) = (   0.2500000   0.2500000   0.0000000), wk =   0.0069444
        k(   66) = (   0.2500000   0.2500000   0.1666667), wk =   0.0138889
        k(   67) = (   0.2500000   0.2500000   0.3333333), wk =   0.0138889
        k(   68) = (   0.2500000   0.2500000  -0.5000000), wk =   0.0069444
        k(   69) = (   0.2500000   0.3333333   0.0000000), wk =   0.0138889
        k(   70) = (   0.2500000   0.3333333   0.1666667), wk =   0.0277778
        k(   71) = (   0.2500000   0.3333333   0.3333333), wk =   0.0277778
        k(   72) = (   0.2500000   0.3333333  -0.5000000), wk =   0.0138889
        k(   73) = (   0.3333333   0.3333333   0.0000000), wk =   0.0023148
        k(   74) = (   0.3333333   0.3333333   0.1666667), wk =   0.0046296
        k(   75) = (   0.3333333   0.3333333   0.3333333), wk =   0.0046296
        k(   76) = (   0.3333333   0.3333333  -0.5000000), wk =   0.0023148

     Dense  grid:    23199 G-vectors     FFT dimensions: (  32,  32,  54)

     Smooth grid:    22527 G-vectors     FFT dimensions: (  32,  32,  54)

     Dynamical RAM for                 wfc:       0.06 MB

     Dynamical RAM for     wfc (w. buffer):       4.93 MB

     Dynamical RAM for           str. fact:       0.03 MB

     Dynamical RAM for           local pot:       0.00 MB

     Dynamical RAM for          nlocal pot:       0.11 MB

     Dynamical RAM for                qrad:       1.70 MB

     Dynamical RAM for          rho,v,vnew:       0.34 MB

     Dynamical RAM for               rhoin:       0.11 MB

     Dynamical RAM for            rho*nmix:       0.81 MB

     Dynamical RAM for           G-vectors:       0.11 MB

     Dynamical RAM for          h,s,v(r/c):       0.08 MB

     Dynamical RAM for          <psi|beta>:       0.01 MB

     Dynamical RAM for                 psi:       0.13 MB

     Dynamical RAM for                hpsi:       0.13 MB

     Dynamical RAM for                spsi:       0.13 MB

     Dynamical RAM for      wfcinit/wfcrot:       0.14 MB

     Dynamical RAM for           addusdens:       2.42 MB

     Estimated static dynamical RAM per process >       7.57 MB

     Estimated max dynamical RAM per process >      10.81 MB

     Estimated total dynamical RAM >     291.28 MB

     Check: negative core charge=   -0.000043
     Generating pointlists ...
     new r_m :   0.4086 (alat units)  1.9187 (a.u.) for type    1

     The initial density is read from file :
     ./out2/Co.save/charge-density


     starting charge      34.0426, renormalised to      34.0000
     Starting wfcs from file
     Checking if some PAW data can be deallocated... 

     total cpu time spent up to now is        0.5 secs

     Self-consistent Calculation

     iteration #  1     ecut=   110.00 Ry     beta= 0.70
     Davidson diagonalization with overlap

---- Real-time Memory Report at c_bands before calling an iterative solver
            58 MiB given to the printing process from OS
             0 MiB allocation reported by mallinfo(arena+hblkhd)
        181393 MiB available memory on the node where the printing process lives
------------------
     ethr =  1.00E-05,  avg # of iterations =  5.0

     total cpu time spent up to now is        1.9 secs

     total energy              =    -753.44839040 Ry
     estimated scf accuracy    <       0.00436028 Ry

     total magnetization       =     3.28 Bohr mag/cell
     absolute magnetization    =     3.58 Bohr mag/cell

     iteration #  2     ecut=   110.00 Ry     beta= 0.70
     Davidson diagonalization with overlap

---- Real-time Memory Report at c_bands before calling an iterative solver
            79 MiB given to the printing process from OS
             0 MiB allocation reported by mallinfo(arena+hblkhd)
        181039 MiB available memory on the node where the printing process lives
------------------
     ethr =  1.28E-05,  avg # of iterations =  5.6

     total cpu time spent up to now is        3.4 secs

     total energy              =    -753.45104312 Ry
     estimated scf accuracy    <       0.02043633 Ry

     total magnetization       =     3.29 Bohr mag/cell
     absolute magnetization    =     3.61 Bohr mag/cell

     iteration #  3     ecut=   110.00 Ry     beta= 0.70
     Davidson diagonalization with overlap

---- Real-time Memory Report at c_bands before calling an iterative solver
            83 MiB given to the printing process from OS
             0 MiB allocation reported by mallinfo(arena+hblkhd)
        181022 MiB available memory on the node where the printing process lives
------------------
     ethr =  1.28E-05,  avg # of iterations =  4.1

     total cpu time spent up to now is        4.5 secs

     total energy              =    -753.45480601 Ry
     estimated scf accuracy    <       0.00059380 Ry

     total magnetization       =     3.30 Bohr mag/cell
     absolute magnetization    =     3.61 Bohr mag/cell

     iteration #  4     ecut=   110.00 Ry     beta= 0.70
     Davidson diagonalization with overlap

---- Real-time Memory Report at c_bands before calling an iterative solver
            83 MiB given to the printing process from OS
             0 MiB allocation reported by mallinfo(arena+hblkhd)
        181013 MiB available memory on the node where the printing process lives
------------------
     ethr =  1.75E-06,  avg # of iterations =  3.3

     total cpu time spent up to now is        5.5 secs

     total energy              =    -753.45502540 Ry
     estimated scf accuracy    <       0.00000553 Ry

     total magnetization       =     3.29 Bohr mag/cell
     absolute magnetization    =     3.61 Bohr mag/cell

     iteration #  5     ecut=   110.00 Ry     beta= 0.70
     Davidson diagonalization with overlap

---- Real-time Memory Report at c_bands before calling an iterative solver
            84 MiB given to the printing process from OS
             0 MiB allocation reported by mallinfo(arena+hblkhd)
        181005 MiB available memory on the node where the printing process lives
------------------
     ethr =  1.63E-08,  avg # of iterations = 10.1

     total cpu time spent up to now is        7.6 secs

     total energy              =    -753.45505149 Ry
     estimated scf accuracy    <       0.00002906 Ry

     total magnetization       =     3.30 Bohr mag/cell
     absolute magnetization    =     3.61 Bohr mag/cell

     iteration #  6     ecut=   110.00 Ry     beta= 0.70
     Davidson diagonalization with overlap

---- Real-time Memory Report at c_bands before calling an iterative solver
            84 MiB given to the printing process from OS
             0 MiB allocation reported by mallinfo(arena+hblkhd)
        180995 MiB available memory on the node where the printing process lives
------------------
     ethr =  1.63E-08,  avg # of iterations =  5.2

     total cpu time spent up to now is        9.0 secs

     total energy              =    -753.45506006 Ry
     estimated scf accuracy    <       0.00000558 Ry

     total magnetization       =     3.30 Bohr mag/cell
     absolute magnetization    =     3.62 Bohr mag/cell

     iteration #  7     ecut=   110.00 Ry     beta= 0.70
     Davidson diagonalization with overlap

---- Real-time Memory Report at c_bands before calling an iterative solver
            84 MiB given to the printing process from OS
             0 MiB allocation reported by mallinfo(arena+hblkhd)
        180991 MiB available memory on the node where the printing process lives
------------------
     ethr =  1.63E-08,  avg # of iterations =  1.0

     total cpu time spent up to now is        9.7 secs

     total energy              =    -753.45505977 Ry
     estimated scf accuracy    <       0.00000128 Ry

     total magnetization       =     3.30 Bohr mag/cell
     absolute magnetization    =     3.62 Bohr mag/cell

     iteration #  8     ecut=   110.00 Ry     beta= 0.70
     Davidson diagonalization with overlap

---- Real-time Memory Report at c_bands before calling an iterative solver
            84 MiB given to the printing process from OS
             0 MiB allocation reported by mallinfo(arena+hblkhd)
        180986 MiB available memory on the node where the printing process lives
------------------
     ethr =  3.78E-09,  avg # of iterations =  4.3
 
     Magnetic moment per site  (integrated on atomic sphere of radius R)
     atom   1 (R=0.409)  charge= 15.5675  magn=  1.7238
     atom   2 (R=0.409)  charge= 15.5675  magn=  1.7238

     total cpu time spent up to now is       10.9 secs

     End of self-consistent calculation

 ------ SPIN UP ------------


          k = 0.0000 0.0000 0.0000 (  2803 PWs)   bands (ev):

   -77.1337 -77.0724 -40.5416 -40.2404 -40.2404 -40.1929 -40.1891 -40.1891
     9.9231  13.7453  16.3539  16.3567  16.3567  16.6836  16.6836  17.0158
    17.0158  18.1663  18.1663  18.8104  25.4947

     occupation numbers 
     1.0000   1.0000   1.0000   1.0000   1.0000   1.0000   1.0000   1.0000
     1.0000   1.0000   1.0000   1.0000   1.0000   1.0000   1.0000   1.0000
     1.0000   1.0000   1.0000   1.0000   0.0000

          k = 0.0000 0.0000 0.1035 (  2827 PWs)   bands (ev):

   -77.1296 -77.0765 -40.5185 -40.2370 -40.2370 -40.2166 -40.1926 -40.1926
    10.2053  13.6809  16.2795  16.2860  16.2860  16.6053  16.6053  17.1892
    17.1892  17.8388  18.1507  18.1507  27.0341

     occupation numbers 
     1.0000   1.0000   1.0000   1.0000   1.0000   1.0000   1.0000   1.0000
     1.0000   1.0000   1.0000   1.0000   1.0000   1.0000   1.0000   1.0000
     1.0000   1.0000   1.0000   1.0000   0.0000

          k = 0.0000 0.0000 0.2071 (  2797 PWs)   bands (ev):

   -77.1184 -77.0877 -40.4554 -40.2811 -40.2276 -40.2276 -40.2019 -40.2019
    11.0139  13.2551  16.1069  16.2266  16.2266  16.4332  16.4332  16.4875
    17.5273  17.5273  18.0617  18.0617  30.2890

     occupation numbers 
     1.0000   1.0000   1.0000   1.0000   1.0000   1.0000   1.0000   1.0000
     1.0000   1.0000   1.0000   1.0000   1.0000   1.0000   1.0000   1.0000
     1.0000   1.0000   1.0000   1.0000   0.0000

          k = 0.0000 0.0000-0.3106 (  2822 PWs)   bands (ev):

   -77.1031 -77.1031 -40.3686 -40.3686 -40.2148 -40.2148 -40.2148 -40.2148
    12.1881  12.1881  16.0219  16.0219  16.2808  16.2808  16.2808  16.2808
    17.8480  17.8480  17.8480  17.8480  34.1674

     occupation numbers 
     1.0000   1.0000   1.0000   1.0000   1.0000   1.0000   1.0000   1.0000
     1.0000   1.0000   1.0000   1.0000   1.0000   1.0000   1.0000   1.0000
     1.0000   1.0000   1.0000   1.0000   0.0000

          k = 0.0000 0.0962 0.0000 (  2813 PWs)   bands (ev):

   -77.1304 -77.0709 -40.5341 -40.2565 -40.2457 -40.2058 -40.1961 -40.1918
    10.1665  13.8908  16.1178  16.4723  16.5526  16.6376  16.7855  16.8600
    16.9428  17.3549  18.1979  19.9440  25.5335

     occupation numbers 
     1.0000   1.0000   1.0000   1.0000   1.0000   1.0000   1.0000   1.0000
     1.0000   1.0000   1.0000   1.0000   1.0000   1.0000   1.0000   1.0000
     1.0000   1.0000   1.0000   0.0000   0.0000

          k = 0.0000 0.0962 0.1035 (  2806 PWs)   bands (ev):

   -77.1264 -77.0749 -40.5124 -40.2525 -40.2421 -40.2278 -40.2004 -40.1954
    10.4444  13.8413  16.1139  16.3672  16.3835  16.4479  16.7008  17.0187
    17.1451  17.2444  18.1746  19.1547  27.1417

     occupation numbers 
     1.0000   1.0000   1.0000   1.0000   1.0000   1.0000   1.0000   1.0000
     1.0000   1.0000   1.0000   1.0000   1.0000   1.0000   1.0000   1.0000
     1.0000   1.0000   1.0000   0.0000   0.0000

          k = 0.0000 0.0962 0.2071 (  2808 PWs)   bands (ev):

   -77.1155 -77.0858 -40.4528 -40.2886 -40.2414 -40.2323 -40.2115 -40.2053
    11.2400  13.4444  16.0067  16.0783  16.1539  16.3172  16.5278  16.6152
    17.5018  17.5502  18.0683  18.3691  30.4411

     occupation numbers 
     1.0000   1.0000   1.0000   1.0000   1.0000   1.0000   1.0000   1.0000
     1.0000   1.0000   1.0000   1.0000   1.0000   1.0000   1.0000   1.0000
     1.0000   1.0000   1.0000   1.0000   0.0000

          k = 0.0000 0.0962-0.3106 (  2818 PWs)   bands (ev):

   -77.1007 -77.1007 -40.3710 -40.3710 -40.2265 -40.2265 -40.2188 -40.2188
    12.3954  12.3954  15.8610  15.8610  16.3058  16.3058  16.3733  16.3733
    17.8370  17.8370  17.9429  17.9429  34.3338

     occupation numbers 
     1.0000   1.0000   1.0000   1.0000   1.0000   1.0000   1.0000   1.0000
     1.0000   1.0000   1.0000   1.0000   1.0000   1.0000   1.0000   1.0000
     1.0000   1.0000   1.0000   1.0000   0.0000

          k = 0.0000 0.1925 0.0000 (  2811 PWs)   bands (ev):

   -77.1211 -77.0670 -40.5128 -40.3006 -40.2600 -40.2511 -40.2058 -40.1992
    10.8705  14.2505  15.8327  16.1322  16.4633  16.7629  16.7990  16.8643
    16.9804  17.0715  18.2655  21.5556  25.6702

     occupation numbers 
     1.0000   1.0000   1.0000   1.0000   1.0000   1.0000   1.0000   1.0000
     1.0000   1.0000   1.0000   1.0000   1.0000   1.0000   1.0000   1.0000
     1.0000   1.0000   1.0000   0.0000   0.0000

          k = 0.0000 0.1925 0.1035 (  2802 PWs)   bands (ev):

   -77.1175 -77.0707 -40.4954 -40.2948 -40.2682 -40.2559 -40.2123 -40.2033
    11.1317  14.2463  15.8490  15.8764  16.3424  16.5904  16.7398  16.9488
    17.1306  17.2374  18.2250  20.4082  27.4914

     occupation numbers 
     1.0000   1.0000   1.0000   1.0000   1.0000   1.0000   1.0000   1.0000
     1.0000   1.0000   1.0000   1.0000   1.0000   1.0000   1.0000   1.0000
     1.0000   1.0000   1.0000   0.0000   0.0000

          k = 0.0000 0.1925 0.2071 (  2806 PWs)   bands (ev):

   -77.1076 -77.0806 -40.4479 -40.3177 -40.2762 -40.2448 -40.2297 -40.2144
    11.8766  13.9350  15.4972  15.9278  16.0556  16.5382  16.5534  16.7904
    17.4760  17.6466  18.0823  19.0305  30.8951

     occupation numbers 
     1.0000   1.0000   1.0000   1.0000   1.0000   1.0000   1.0000   1.0000
     1.0000   1.0000   1.0000   1.0000   1.0000   1.0000   1.0000   1.0000
     1.0000   1.0000   1.0000   0.0000   0.0000

          k = 0.0000 0.1925-0.3106 (  2800 PWs)   bands (ev):

   -77.0941 -77.0941 -40.3828 -40.3828 -40.2532 -40.2532 -40.2296 -40.2296
    12.9524  12.9524  15.6171  15.6171  16.2534  16.2534  16.6202  16.6202
    17.8212  17.8212  18.1980  18.1980  34.7804

     occupation numbers 
     1.0000   1.0000   1.0000   1.0000   1.0000   1.0000   1.0000   1.0000
     1.0000   1.0000   1.0000   1.0000   1.0000   1.0000   1.0000   1.0000
     1.0000   1.0000   1.0000   1.0000   0.0000

          k = 0.0000 0.2887 0.0000 (  2796 PWs)   bands (ev):

   -77.1079 -77.0623 -40.4807 -40.3614 -40.3119 -40.2788 -40.2219 -40.2099
    11.9352  14.5404  15.3953  15.6541  16.3710  16.5466  16.7806  17.2728
    17.2981  17.4828  18.3299  23.3673  25.9312

     occupation numbers 
     1.0000   1.0000   1.0000   1.0000   1.0000   1.0000   1.0000   1.0000
     1.0000   1.0000   1.0000   1.0000   1.0000   1.0000   1.0000   1.0000
     1.0000   1.0000   1.0000   0.0000   0.0000

          k = 0.0000 0.2887 0.1035 (  2806 PWs)   bands (ev):

   -77.1048 -77.0653 -40.4735 -40.3503 -40.3262 -40.2742 -40.2262 -40.2146
    12.1525  14.5903  15.2466  15.7069  16.2134  16.5852  16.7863  17.3202
    17.4202  17.4348  18.2733  21.7077  28.1138

     occupation numbers 
     1.0000   1.0000   1.0000   1.0000   1.0000   1.0000   1.0000   1.0000
     1.0000   1.0000   1.0000   1.0000   1.0000   1.0000   1.0000   1.0000
     1.0000   1.0000   1.0000   0.0000   0.0000

          k = 0.0000 0.2887 0.2071 (  2806 PWs)   bands (ev):

   -77.0965 -77.0737 -40.4508 -40.3697 -40.3127 -40.2616 -40.2433 -40.2272
    12.7570  14.3697  15.1530  15.7506  16.0686  16.6212  16.7094  17.1623
    17.5965  17.8149  18.1082  19.8190  31.4868

     occupation numbers 
     1.0000   1.0000   1.0000   1.0000   1.0000   1.0000   1.0000   1.0000
     1.0000   1.0000   1.0000   1.0000   1.0000   1.0000   1.0000   1.0000
     1.0000   1.0000   1.0000   0.0000   0.0000

          k = 0.0000 0.2887-0.3106 (  2812 PWs)   bands (ev):

   -77.0851 -77.0851 -40.4136 -40.4136 -40.2748 -40.2748 -40.2444 -40.2444
    13.5930  13.5930  15.4607  15.4607  16.3106  16.3106  16.9167  16.9167
    17.8623  17.8623  18.5529  18.5529  33.4851

     occupation numbers 
     1.0000   1.0000   1.0000   1.0000   1.0000   1.0000   1.0000   1.0000
     1.0000   1.0000   1.0000   1.0000   1.0000   1.0000   1.0000   1.0000
     1.0000   1.0000   1.0000   1.0000   0.0000

          k = 0.0000 0.3849 0.0000 (  2830 PWs)   bands (ev):

   -77.0937 -77.0585 -40.4431 -40.4228 -40.3716 -40.2972 -40.2435 -40.2211
    13.0992  14.4749  14.8592  15.7553  16.3520  16.4953  16.6041  17.7779
    17.9293  17.9877  18.3744  25.3373  25.9332

     occupation numbers 
     1.0000   1.0000   1.0000   1.0000   1.0000   1.0000   1.0000   1.0000
     1.0000   1.0000   1.0000   1.0000   1.0000   1.0000   1.0000   1.0000
     1.0000   1.0000   1.0000   0.0000   0.0000

          k = 0.0000 0.3849 0.1035 (  2812 PWs)   bands (ev):

   -77.0913 -77.0608 -40.4657 -40.3966 -40.3749 -40.2921 -40.2438 -40.2262
    13.2002  14.5140  14.8910  15.6223  16.4021  16.4471  16.9506  17.8010
    17.8332  17.9234  18.3163  22.9544  28.0379

     occupation numbers 
     1.0000   1.0000   1.0000   1.0000   1.0000   1.0000   1.0000   1.0000
     1.0000   1.0000   1.0000   1.0000   1.0000   1.0000   1.0000   1.0000
     1.0000   1.0000   1.0000   0.0000   0.0000

          k = 0.0000 0.3849 0.2071 (  2811 PWs)   bands (ev):

   -77.0849 -77.0673 -40.4737 -40.4260 -40.3276 -40.2783 -40.2537 -40.2402
    13.4841  14.3402  15.0300  15.5565  16.4888  16.7151  17.2443  17.5132
    17.9098  18.0477  18.1884  20.7117  29.1267

     occupation numbers 
     1.0000   1.0000   1.0000   1.0000   1.0000   1.0000   1.0000   1.0000
     1.0000   1.0000   1.0000   1.0000   1.0000   1.0000   1.0000   1.0000
     1.0000   1.0000   1.0000   0.0000   0.0000

          k = 0.0000 0.3849-0.3106 (  2814 PWs)   bands (ev):

   -77.0761 -77.0761 -40.4582 -40.4582 -40.2824 -40.2824 -40.2592 -40.2592
    13.8998  13.8998  15.3370  15.3370  16.9093  16.9093  17.1025  17.1025
    18.0433  18.0433  19.0379  19.0379  30.2641

     occupation numbers 
     1.0000   1.0000   1.0000   1.0000   1.0000   1.0000   1.0000   1.0000
     1.0000   1.0000   1.0000   1.0000   1.0000   1.0000   1.0000   1.0000
     1.0000   1.0000   0.0000   0.0000   0.0000

          k = 0.0000 0.4811 0.0000 (  2816 PWs)   bands (ev):

   -77.0820 -77.0569 -40.4680 -40.4145 -40.4083 -40.3105 -40.2666 -40.2294
    13.8713  14.2860  14.5380  16.1121  16.2193  16.4796  16.7001  18.1554
    18.2999  18.3985  19.1023  24.0187  27.3660

     occupation numbers 
     1.0000   1.0000   1.0000   1.0000   1.0000   1.0000   1.0000   1.0000
     1.0000   1.0000   1.0000   1.0000   1.0000   1.0000   1.0000   1.0000
     1.0000   1.0000   0.0000   0.0000   0.0000

          k = 0.0000 0.4811 0.1035 (  2813 PWs)   bands (ev):

   -77.0803 -77.0586 -40.4878 -40.4332 -40.3739 -40.3050 -40.2624 -40.2349
    13.7615  14.2862  14.8585  15.5201  16.3358  16.6919  17.3005  18.1062
    18.1965  18.3829  18.9378  23.2441  26.6523

     occupation numbers 
     1.0000   1.0000   1.0000   1.0000   1.0000   1.0000   1.0000   1.0000
     1.0000   1.0000   1.0000   1.0000   1.0000   1.0000   1.0000   1.0000
     1.0000   1.0000   0.8882   0.0000   0.0000

          k = 0.0000 0.4811 0.2071 (  2813 PWs)   bands (ev):

   -77.0758 -77.0632 -40.5032 -40.4677 -40.3232 -40.2903 -40.2630 -40.2498
    13.7306  14.2184  15.0184  15.3628  16.6669  16.9275  17.6881  18.2255
    18.2896  18.3406  18.5953  21.5213  26.7737

     occupation numbers 
     1.0000   1.0000   1.0000   1.0000   1.0000   1.0000   1.0000   1.0000
     1.0000   1.0000   1.0000   1.0000   1.0000   1.0000   1.0000   1.0000
     1.0000   1.0000   1.0000   0.0000   0.0000

          k = 0.0000 0.4811-0.3106 (  2818 PWs)   bands (ev):

   -77.0695 -77.0695 -40.4955 -40.4955 -40.2830 -40.2830 -40.2700 -40.2700
    13.9203  13.9203  15.2157  15.2157  17.1533  17.1533  17.6481  17.6481
    18.2828  18.2828  19.8502  19.8502  27.5585

     occupation numbers 
     1.0000   1.0000   1.0000   1.0000   1.0000   1.0000   1.0000   1.0000
     1.0000   1.0000   1.0000   1.0000   1.0000   1.0000   1.0000   1.0000
     1.0000   1.0000   0.0000   0.0000   0.0000

          k = 0.0000-0.5774 0.0000 (  2806 PWs)   bands (ev):

   -77.0771 -77.0570 -40.4846 -40.4301 -40.3920 -40.3153 -40.2786 -40.2325
    14.1331  14.1461  14.4312  16.1723  16.3593  16.4348  16.7788  18.2918
    18.4058  18.4501  20.2546  22.2883  28.6783

     occupation numbers 
     1.0000   1.0000   1.0000   1.0000   1.0000   1.0000   1.0000   1.0000
     1.0000   1.0000   1.0000   1.0000   1.0000   1.0000   1.0000   1.0000
     1.0000   1.0000   0.0000   0.0000   0.0000

          k = 0.0000-0.5774 0.1035 (  2818 PWs)   bands (ev):

   -77.0758 -77.0584 -40.5006 -40.4480 -40.3647 -40.3098 -40.2719 -40.2381
    13.8647  14.1869  14.8953  15.4932  16.2951  16.7828  17.5006  18.1768
    18.3483  18.4419  20.0392  22.1088  27.7953

     occupation numbers 
     1.0000   1.0000   1.0000   1.0000   1.0000   1.0000   1.0000   1.0000
     1.0000   1.0000   1.0000   1.0000   1.0000   1.0000   1.0000   1.0000
     1.0000   1.0000   0.0000   0.0000   0.0000

          k = 0.0000-0.5774 0.2071 (  2820 PWs)   bands (ev):

   -77.0721 -77.0620 -40.5159 -40.4829 -40.3185 -40.2947 -40.2676 -40.2533
    13.7506  14.1710  15.0424  15.2751  16.6442  17.0756  17.7268  18.3592
    18.4076  18.4196  19.6905  21.5022  26.7098

     occupation numbers 
     1.0000   1.0000   1.0000   1.0000   1.0000   1.0000   1.0000   1.0000
     1.0000   1.0000   1.0000   1.0000   1.0000   1.0000   1.0000   1.0000
     1.0000   1.0000   0.0000   0.0000   0.0000

          k = 0.0000-0.5774-0.3106 (  2828 PWs)   bands (ev):

   -77.0671 -77.0671 -40.5098 -40.5098 -40.2826 -40.2826 -40.2740 -40.2740
    13.9020  13.9020  15.1676  15.1676  17.1587  17.1587  17.8998  17.8998
    18.3889  18.3889  20.4840  20.4840  26.3123

     occupation numbers 
     1.0000   1.0000   1.0000   1.0000   1.0000   1.0000   1.0000   1.0000
     1.0000   1.0000   1.0000   1.0000   1.0000   1.0000   1.0000   1.0000
     1.0000   1.0000   0.0000   0.0000   0.0000

          k = 0.0833 0.1443 0.0000 (  2816 PWs)   bands (ev):

   -77.1241 -77.0682 -40.5197 -40.2838 -40.2620 -40.2310 -40.2026 -40.1989
    10.6411  14.1492  15.8938  16.3820  16.5300  16.7085  16.7145  16.7367
    17.0112  17.0999  18.2377  21.1044  25.6233

     occupation numbers 
     1.0000   1.0000   1.0000   1.0000   1.0000   1.0000   1.0000   1.0000
     1.0000   1.0000   1.0000   1.0000   1.0000   1.0000   1.0000   1.0000
     1.0000   1.0000   1.0000   0.0000   0.0000

          k = 0.0833 0.1443 0.1035 (  2804 PWs)   bands (ev):

   -77.1203 -77.0720 -40.5008 -40.2785 -40.2632 -40.2453 -40.2079 -40.2028
    10.9086  14.1303  15.9190  16.0419  16.3863  16.5544  16.7119  16.8647
    17.1626  17.2135  18.2056  20.0683  27.3724

     occupation numbers 
     1.0000   1.0000   1.0000   1.0000   1.0000   1.0000   1.0000   1.0000
     1.0000   1.0000   1.0000   1.0000   1.0000   1.0000   1.0000   1.0000
     1.0000   1.0000   1.0000   0.0000   0.0000

          k = 0.0833 0.1443 0.2071 (  2803 PWs)   bands (ev):

   -77.1101 -77.0822 -40.4490 -40.3071 -40.2641 -40.2442 -40.2218 -40.2133
    11.6732  13.7910  15.6246  15.9767  16.0678  16.4761  16.5653  16.7082
    17.5063  17.5884  18.0818  18.8389  30.7472

     occupation numbers 
     1.0000   1.0000   1.0000   1.0000   1.0000   1.0000   1.0000   1.0000
     1.0000   1.0000   1.0000   1.0000   1.0000   1.0000   1.0000   1.0000
     1.0000   1.0000   1.0000   1.0000   0.0000

          k = 0.0833 0.1443-0.3106 (  2810 PWs)   bands (ev):

   -77.0962 -77.0962 -40.3780 -40.3780 -40.2454 -40.2454 -40.2266 -40.2266
    12.7812  12.7812  15.6780  15.6780  16.2532  16.2532  16.5557  16.5557
    17.8269  17.8269  18.1183  18.1183  34.6530

     occupation numbers 
     1.0000   1.0000   1.0000   1.0000   1.0000   1.0000   1.0000   1.0000
     1.0000   1.0000   1.0000   1.0000   1.0000   1.0000   1.0000   1.0000
     1.0000   1.0000   1.0000   1.0000   0.0000

          k = 0.0833 0.2406 0.0000 (  2800 PWs)   bands (ev):

   -77.1128 -77.0639 -40.4929 -40.3323 -40.3017 -40.2616 -40.2155 -40.2112
    11.5339  14.5178  15.6117  15.6663  16.4098  16.5088  16.9449  16.9734
    17.1392  17.4332  18.2871  22.7142  25.8447

     occupation numbers 
     1.0000   1.0000   1.0000   1.0000   1.0000   1.0000   1.0000   1.0000
     1.0000   1.0000   1.0000   1.0000   1.0000   1.0000   1.0000   1.0000
     1.0000   1.0000   1.0000   0.0000   0.0000

          k = 0.0833 0.2406 0.1035 (  2799 PWs)   bands (ev):

   -77.1095 -77.0672 -40.4808 -40.3244 -40.3097 -40.2660 -40.2200 -40.2147
    11.7732  14.5586  15.4496  15.6621  16.2820  16.5475  16.7482  17.0835
    17.3431  17.4184  18.2484  21.2609  27.8820

     occupation numbers 
     1.0000   1.0000   1.0000   1.0000   1.0000   1.0000   1.0000   1.0000
     1.0000   1.0000   1.0000   1.0000   1.0000   1.0000   1.0000   1.0000
     1.0000   1.0000   1.0000   0.0000   0.0000

          k = 0.0833 0.2406 0.2071 (  2809 PWs)   bands (ev):

   -77.1006 -77.0762 -40.4471 -40.3484 -40.2978 -40.2629 -40.2341 -40.2259
    12.4490  14.3121  15.2374  15.7692  16.0145  16.4468  16.6880  17.0306
    17.5973  17.7231  18.1229  19.5456  31.3410

     occupation numbers 
     1.0000   1.0000   1.0000   1.0000   1.0000   1.0000   1.0000   1.0000
     1.0000   1.0000   1.0000   1.0000   1.0000   1.0000   1.0000   1.0000
     1.0000   1.0000   1.0000   0.0000   0.0000

          k = 0.0833 0.2406-0.3106 (  2800 PWs)   bands (ev):

   -77.0884 -77.0884 -40.3989 -40.3989 -40.2696 -40.2696 -40.2398 -40.2398
    13.4098  13.4098  15.5144  15.5144  16.1490  16.1490  16.8388  16.8388
    17.8708  17.8708  18.4258  18.4258  34.9291

     occupation numbers 
     1.0000   1.0000   1.0000   1.0000   1.0000   1.0000   1.0000   1.0000
     1.0000   1.0000   1.0000   1.0000   1.0000   1.0000   1.0000   1.0000
     1.0000   1.0000   1.0000   1.0000   0.0000

          k = 0.0833 0.3368 0.0000 (  2804 PWs)   bands (ev):

   -77.0991 -77.0597 -40.4578 -40.3920 -40.3520 -40.2892 -40.2347 -40.2245
    12.6848  14.6412  15.0792  15.5300  16.3173  16.4231  16.7485  17.3798
    17.6506  18.0057  18.3290  24.5664  26.1662

     occupation numbers 
     1.0000   1.0000   1.0000   1.0000   1.0000   1.0000   1.0000   1.0000
     1.0000   1.0000   1.0000   1.0000   1.0000   1.0000   1.0000   1.0000
     1.0000   1.0000   1.0000   0.0000   0.0000

          k = 0.0833 0.3368 0.1035 (  2809 PWs)   bands (ev):

   -77.0964 -77.0623 -40.4626 -40.3777 -40.3570 -40.2887 -40.2373 -40.2270
    12.8517  14.7143  14.9815  15.5822  16.1939  16.5510  16.7288  17.3997
    17.7457  17.8718  18.3309  22.5386  28.5774

     occupation numbers 
     1.0000   1.0000   1.0000   1.0000   1.0000   1.0000   1.0000   1.0000
     1.0000   1.0000   1.0000   1.0000   1.0000   1.0000   1.0000   1.0000
     1.0000   1.0000   1.0000   0.0000   0.0000

          k = 0.0833 0.3368 0.2071 (  2809 PWs)   bands (ev):

   -77.0892 -77.0695 -40.4588 -40.4019 -40.3228 -40.2809 -40.2497 -40.2365
    13.3033  14.4859  15.0817  15.6716  16.0966  16.5824  16.7695  17.3689
    17.8312  17.9965  18.2896  20.4118  30.7688

     occupation numbers 
     1.0000   1.0000   1.0000   1.0000   1.0000   1.0000   1.0000   1.0000
     1.0000   1.0000   1.0000   1.0000   1.0000   1.0000   1.0000   1.0000
     1.0000   1.0000   1.0000   0.0000   0.0000

          k = 0.0833 0.3368-0.3106 (  2812 PWs)   bands (ev):

   -77.0794 -77.0794 -40.4365 -40.4365 -40.2856 -40.2856 -40.2533 -40.2533
    13.9063  13.9063  15.4382  15.4382  16.3177  16.3177  17.0417  17.0417
    18.0674  18.0674  18.8908  18.8908  31.9764

     occupation numbers 
     1.0000   1.0000   1.0000   1.0000   1.0000   1.0000   1.0000   1.0000
     1.0000   1.0000   1.0000   1.0000   1.0000   1.0000   1.0000   1.0000
     1.0000   1.0000   1.0000   1.0000   0.0000

          k = 0.0833 0.4330 0.0000 (  2818 PWs)   bands (ev):

   -77.0859 -77.0572 -40.4449 -40.4205 -40.3963 -40.3107 -40.2581 -40.2359
    13.7019  14.4672  14.6808  15.7546  16.1928  16.5548  16.6174  17.8892
    18.0884  18.3553  18.8103  25.3749  26.5740

     occupation numbers 
     1.0000   1.0000   1.0000   1.0000   1.0000   1.0000   1.0000   1.0000
     1.0000   1.0000   1.0000   1.0000   1.0000   1.0000   1.0000   1.0000
     1.0000   1.0000   1.0000   0.0000   0.0000

          k = 0.0833 0.4330 0.1035 (  2816 PWs)   bands (ev):

   -77.0840 -77.0591 -40.4710 -40.4171 -40.3761 -40.3069 -40.2569 -40.2385
    13.6955  14.4971  14.8332  15.5262  16.2734  16.6194  16.9041  17.8356
    18.1525  18.1633  18.8135  23.5996  27.1480

     occupation numbers 
     1.0000   1.0000   1.0000   1.0000   1.0000   1.0000   1.0000   1.0000
     1.0000   1.0000   1.0000   1.0000   1.0000   1.0000   1.0000   1.0000
     1.0000   1.0000   1.0000   0.0000   0.0000

          k = 0.0833 0.4330 0.2071 (  2816 PWs)   bands (ev):

   -77.0788 -77.0644 -40.4857 -40.4486 -40.3290 -40.2928 -40.2654 -40.2449
    13.7814  14.3722  15.0204  15.5156  16.3829  16.8188  17.2825  17.5710
    18.0191  18.3244  18.8772  21.4246  27.8629

     occupation numbers 
     1.0000   1.0000   1.0000   1.0000   1.0000   1.0000   1.0000   1.0000
     1.0000   1.0000   1.0000   1.0000   1.0000   1.0000   1.0000   1.0000
     1.0000   1.0000   1.0000   0.0000   0.0000

          k = 0.0833 0.4330-0.3106 (  2814 PWs)   bands (ev):

   -77.0716 -77.0716 -40.4765 -40.4765 -40.2950 -40.2950 -40.2616 -40.2616
    14.0324  14.0324  15.3244  15.3244  16.8320  16.8320  17.2287  17.2287
    18.2746  18.2746  19.7277  19.7277  28.9196

     occupation numbers 
     1.0000   1.0000   1.0000   1.0000   1.0000   1.0000   1.0000   1.0000
     1.0000   1.0000   1.0000   1.0000   1.0000   1.0000   1.0000   1.0000
     1.0000   1.0000   0.0000   0.0000   0.0000

          k = 0.0833 0.5292 0.0000 (  2806 PWs)   bands (ev):

   -77.0771 -77.0570 -40.4757 -40.4220 -40.3922 -40.3226 -40.2784 -40.2425
    14.1609  14.3035  14.4811  16.1176  16.1424  16.4270  16.7752  18.2541
    18.3268  18.3670  20.0852  23.0521  28.4859

     occupation numbers 
     1.0000   1.0000   1.0000   1.0000   1.0000   1.0000   1.0000   1.0000
     1.0000   1.0000   1.0000   1.0000   1.0000   1.0000   1.0000   1.0000
     1.0000   1.0000   0.0000   0.0000   0.0000

          k = 0.0833 0.5292 0.1035 (  2819 PWs)   bands (ev):

   -77.0758 -77.0583 -40.4917 -40.4404 -40.3667 -40.3152 -40.2738 -40.2455
    13.9450  14.3195  14.9237  15.4725  16.1976  16.8206  17.1593  18.1252
    18.2900  18.3615  20.0145  22.7905  27.2026

     occupation numbers 
     1.0000   1.0000   1.0000   1.0000   1.0000   1.0000   1.0000   1.0000
     1.0000   1.0000   1.0000   1.0000   1.0000   1.0000   1.0000   1.0000
     1.0000   1.0000   0.0000   0.0000   0.0000

          k = 0.0833 0.5292 0.2071 (  2819 PWs)   bands (ev):

   -77.0721 -77.0620 -40.5072 -40.4750 -40.3292 -40.2930 -40.2782 -40.2505
    13.8551  14.2992  15.0496  15.3813  16.3755  17.1337  17.5661  17.8110
    18.2448  18.4443  20.0490  21.9304  26.4532

     occupation numbers 
     1.0000   1.0000   1.0000   1.0000   1.0000   1.0000   1.0000   1.0000
     1.0000   1.0000   1.0000   1.0000   1.0000   1.0000   1.0000   1.0000
     1.0000   1.0000   0.0000   0.0000   0.0000

          k = 0.0833 0.5292-0.3106 (  2812 PWs)   bands (ev):

   -77.0671 -77.0671 -40.5014 -40.5014 -40.3006 -40.3006 -40.2645 -40.2645
    14.0165  14.0165  15.2396  15.2396  16.9409  16.9409  17.6654  17.6654
    18.3163  18.3163  20.7952  20.7952  26.7245

     occupation numbers 
     1.0000   1.0000   1.0000   1.0000   1.0000   1.0000   1.0000   1.0000
     1.0000   1.0000   1.0000   1.0000   1.0000   1.0000   1.0000   1.0000
     1.0000   1.0000   0.0000   0.0000   0.0000

          k = 0.1667 0.2887 0.0000 (  2800 PWs)   bands (ev):

   -77.1010 -77.0602 -40.4629 -40.3673 -40.3576 -40.2799 -40.2328 -40.2317
    12.5386  14.8158  15.1948  15.3108  16.2473  16.4199  16.8417  17.1443
    17.6381  18.0260  18.2903  24.3057  26.2185

     occupation numbers 
     1.0000   1.0000   1.0000   1.0000   1.0000   1.0000   1.0000   1.0000
     1.0000   1.0000   1.0000   1.0000   1.0000   1.0000   1.0000   1.0000
     1.0000   1.0000   1.0000   0.0000   0.0000

          k = 0.1667 0.2887 0.1035 (  2804 PWs)   bands (ev):

   -77.0982 -77.0629 -40.4624 -40.3650 -40.3505 -40.2876 -40.2372 -40.2296
    12.7279  14.9151  15.0530  15.3653  16.2214  16.4303  16.7131  17.2211
    17.7620  17.8630  18.3427  22.3999  28.5958

     occupation numbers 
     1.0000   1.0000   1.0000   1.0000   1.0000   1.0000   1.0000   1.0000
     1.0000   1.0000   1.0000   1.0000   1.0000   1.0000   1.0000   1.0000
     1.0000   1.0000   1.0000   0.0000   0.0000

          k = 0.1667 0.2887 0.2071 (  2806 PWs)   bands (ev):

   -77.0908 -77.0704 -40.4522 -40.3915 -40.3148 -40.2901 -40.2478 -40.2362
    13.2461  14.6099  15.1858  15.5239  16.0465  16.2894  16.7052  17.3058
    17.8482  17.9714  18.3673  20.3344  31.9817

     occupation numbers 
     1.0000   1.0000   1.0000   1.0000   1.0000   1.0000   1.0000   1.0000
     1.0000   1.0000   1.0000   1.0000   1.0000   1.0000   1.0000   1.0000
     1.0000   1.0000   1.0000   0.0000   0.0000

          k = 0.1667 0.2887-0.3106 (  2804 PWs)   bands (ev):

   -77.0806 -77.0806 -40.4263 -40.4263 -40.2886 -40.2886 -40.2515 -40.2515
    13.9443  13.9443  15.5194  15.5194  15.9936  15.9936  16.9907  16.9907
    18.1191  18.1191  18.8697  18.8697  33.6896

     occupation numbers 
     1.0000   1.0000   1.0000   1.0000   1.0000   1.0000   1.0000   1.0000
     1.0000   1.0000   1.0000   1.0000   1.0000   1.0000   1.0000   1.0000
     1.0000   1.0000   1.0000   1.0000   0.0000

          k = 0.1667 0.3849 0.0000 (  2816 PWs)   bands (ev):

   -77.0881 -77.0575 -40.4272 -40.4146 -40.3913 -40.3086 -40.2536 -40.2536
    13.6404  14.8051  14.8233  15.2750  16.0894  16.5665  16.6480  17.4564
    18.0898  18.2894  18.8342  26.1766  26.5415

     occupation numbers 
     1.0000   1.0000   1.0000   1.0000   1.0000   1.0000   1.0000   1.0000
     1.0000   1.0000   1.0000   1.0000   1.0000   1.0000   1.0000   1.0000
     1.0000   1.0000   1.0000   0.0000   0.0000

          k = 0.1667 0.3849 0.1035 (  2813 PWs)   bands (ev):

   -77.0861 -77.0595 -40.4536 -40.4100 -40.3656 -40.3151 -40.2603 -40.2444
    13.7205  14.7524  14.9119  15.3613  16.1476  16.5408  16.6016  17.4864
    18.0621  18.1823  18.9287  23.6938  28.5863

     occupation numbers 
     1.0000   1.0000   1.0000   1.0000   1.0000   1.0000   1.0000   1.0000
     1.0000   1.0000   1.0000   1.0000   1.0000   1.0000   1.0000   1.0000
     1.0000   1.0000   0.9846   0.0000   0.0000

          k = 0.1667 0.3849 0.2071 (  2811 PWs)   bands (ev):

   -77.0804 -77.0651 -40.4668 -40.4327 -40.3277 -40.3107 -40.2686 -40.2423
    13.9387  14.5502  15.1674  15.6070  16.0669  16.3660  16.7353  17.4420
    17.9582  18.3406  19.1150  21.4494  29.5565

     occupation numbers 
     1.0000   1.0000   1.0000   1.0000   1.0000   1.0000   1.0000   1.0000
     1.0000   1.0000   1.0000   1.0000   1.0000   1.0000   1.0000   1.0000
     1.0000   1.0000   0.0000   0.0000   0.0000

          k = 0.1667 0.3849-0.3106 (  2806 PWs)   bands (ev):

   -77.0728 -77.0728 -40.4576 -40.4576 -40.3096 -40.3096 -40.2572 -40.2572
    14.2424  14.2424  15.5223  15.5223  16.1421  16.1421  17.0145  17.0145
    18.3325  18.3325  19.8232  19.8232  30.7255

     occupation numbers 
     1.0000   1.0000   1.0000   1.0000   1.0000   1.0000   1.0000   1.0000
     1.0000   1.0000   1.0000   1.0000   1.0000   1.0000   1.0000   1.0000
     1.0000   1.0000   0.0000   0.0000   0.0000

          k = 0.1667 0.4811 0.0000 (  2818 PWs)   bands (ev):

   -77.0772 -77.0569 -40.4524 -40.4074 -40.3926 -40.3359 -40.2781 -40.2676
    14.3412  14.5931  14.6036  15.5824  16.0455  16.4384  16.7713  17.8687
    18.2874  18.3162  20.0114  24.7119  28.2000

     occupation numbers 
     1.0000   1.0000   1.0000   1.0000   1.0000   1.0000   1.0000   1.0000
     1.0000   1.0000   1.0000   1.0000   1.0000   1.0000   1.0000   1.0000
     1.0000   1.0000   0.0000   0.0000   0.0000

          k = 0.1667 0.4811 0.1035 (  2820 PWs)   bands (ev):

   -77.0758 -77.0583 -40.4685 -40.4284 -40.3676 -40.3294 -40.2815 -40.2585
    14.1846  14.6704  14.8597  15.4079  16.0981  16.5687  16.8360  17.8515
    18.0824  18.3816  20.0966  24.1686  26.9815

     occupation numbers 
     1.0000   1.0000   1.0000   1.0000   1.0000   1.0000   1.0000   1.0000
     1.0000   1.0000   1.0000   1.0000   1.0000   1.0000   1.0000   1.0000
     1.0000   1.0000   0.0000   0.0000   0.0000

          k = 0.1667 0.4811 0.2071 (  2808 PWs)   bands (ev):

   -77.0721 -77.0620 -40.4853 -40.4585 -40.3478 -40.3110 -40.2820 -40.2491
    14.1457  14.5947  15.0627  15.6257  15.9867  16.6891  17.0499  17.5350
    18.0441  18.4628  20.4116  22.6462  27.0418

     occupation numbers 
     1.0000   1.0000   1.0000   1.0000   1.0000   1.0000   1.0000   1.0000
     1.0000   1.0000   1.0000   1.0000   1.0000   1.0000   1.0000   1.0000
     1.0000   1.0000   0.0000   0.0000   0.0000

          k = 0.1667 0.4811-0.3106 (  2812 PWs)   bands (ev):

   -77.0671 -77.0671 -40.4817 -40.4817 -40.3268 -40.3268 -40.2582 -40.2582
    14.3066  14.3066  15.4213  15.4213  16.4051  16.4051  17.2067  17.2067
    18.3378  18.3378  21.2268  21.2268  27.9273

     occupation numbers 
     1.0000   1.0000   1.0000   1.0000   1.0000   1.0000   1.0000   1.0000
     1.0000   1.0000   1.0000   1.0000   1.0000   1.0000   1.0000   1.0000
     1.0000   1.0000   0.0000   0.0000   0.0000

          k = 0.1667 0.5774 0.0000 (  2816 PWs)   bands (ev):

   -77.0724 -77.0576 -40.4661 -40.4120 -40.3750 -40.3474 -40.2919 -40.2726
    14.5043  14.5157  14.5173  15.8033  16.0620  16.3298  16.8590  18.1482
    18.2864  18.2958  21.2684  22.8668  29.2870

     occupation numbers 
     1.0000   1.0000   1.0000   1.0000   1.0000   1.0000   1.0000   1.0000
     1.0000   1.0000   1.0000   1.0000   1.0000   1.0000   1.0000   1.0000
     1.0000   1.0000   0.0000   0.0000   0.0000

          k = 0.1667 0.5774 0.1035 (  2818 PWs)   bands (ev):

   -77.0714 -77.0586 -40.4788 -40.4315 -40.3718 -40.3237 -40.2946 -40.2646
    14.2092  14.5829  15.0276  15.3905  16.0193  16.6883  16.9279  18.0523
    18.1444  18.3529  21.3686  22.8150  28.2848

     occupation numbers 
     1.0000   1.0000   1.0000   1.0000   1.0000   1.0000   1.0000   1.0000
     1.0000   1.0000   1.0000   1.0000   1.0000   1.0000   1.0000   1.0000
     1.0000   1.0000   0.0000   0.0000   0.0000

          k = 0.1667 0.5774 0.2071 (  2818 PWs)   bands (ev):

   -77.0687 -77.0613 -40.4940 -40.4664 -40.3563 -40.3102 -40.2850 -40.2526
    14.1424  14.6059  15.1003  15.5838  15.9010  16.8935  17.1727  17.6071
    18.1605  18.3943  21.6766  22.6096  26.9988

     occupation numbers 
     1.0000   1.0000   1.0000   1.0000   1.0000   1.0000   1.0000   1.0000
     1.0000   1.0000   1.0000   1.0000   1.0000   1.0000   1.0000   1.0000
     1.0000   1.0000   0.0000   0.0000   0.0000

          k = 0.1667 0.5774-0.3106 (  2818 PWs)   bands (ev):

   -77.0650 -77.0650 -40.4907 -40.4907 -40.3333 -40.3333 -40.2581 -40.2581
    14.3087  14.3087  15.3802  15.3802  16.4466  16.4466  17.4125  17.4125
    18.2752  18.2752  22.1735  22.1735  26.5114

     occupation numbers 
     1.0000   1.0000   1.0000   1.0000   1.0000   1.0000   1.0000   1.0000
     1.0000   1.0000   1.0000   1.0000   1.0000   1.0000   1.0000   1.0000
     1.0000   1.0000   0.0000   0.0000   0.0000

          k = 0.2500 0.4330 0.0000 (  2828 PWs)   bands (ev):

   -77.0772 -77.0569 -40.4320 -40.4093 -40.3928 -40.3360 -40.2863 -40.2779
    14.4717  14.6572  15.0003  15.0542  15.9811  16.4531  16.7782  17.6396
    18.2466  18.3228  20.0206  26.4865  27.2286

     occupation numbers 
     1.0000   1.0000   1.0000   1.0000   1.0000   1.0000   1.0000   1.0000
     1.0000   1.0000   1.0000   1.0000   1.0000   1.0000   1.0000   1.0000
     1.0000   1.0000   0.0000   0.0000   0.0000

          k = 0.2500 0.4330 0.1035 (  2819 PWs)   bands (ev):

   -77.0759 -77.0583 -40.4447 -40.4361 -40.3515 -40.3499 -40.2893 -40.2625
    14.4788  14.6083  15.0675  15.1873  16.1353  16.3050  16.7673  17.6719
    18.0301  18.3899  20.1502  24.9775  27.5174

     occupation numbers 
     1.0000   1.0000   1.0000   1.0000   1.0000   1.0000   1.0000   1.0000
     1.0000   1.0000   1.0000   1.0000   1.0000   1.0000   1.0000   1.0000
     1.0000   1.0000   0.0000   0.0000   0.0000

          k = 0.2500 0.4330 0.2071 (  2810 PWs)   bands (ev):

   -77.0721 -77.0620 -40.4686 -40.4527 -40.3547 -40.3279 -40.2810 -40.2490
    14.4834  14.5555  15.2407  15.5849  15.9711  16.2496  16.7950  17.4481
    18.0134  18.4699  20.5326  22.9340  28.3136

     occupation numbers 
     1.0000   1.0000   1.0000   1.0000   1.0000   1.0000   1.0000   1.0000
     1.0000   1.0000   1.0000   1.0000   1.0000   1.0000   1.0000   1.0000
     1.0000   1.0000   0.0000   0.0000   0.0000

          k = 0.2500 0.4330-0.3106 (  2808 PWs)   bands (ev):

   -77.0671 -77.0671 -40.4695 -40.4695 -40.3409 -40.3409 -40.2564 -40.2564
    14.5105  14.5105  15.5725  15.5725  16.0256  16.0256  17.0068  17.0068
    18.3580  18.3580  21.3898  21.3898  29.3555

     occupation numbers 
     1.0000   1.0000   1.0000   1.0000   1.0000   1.0000   1.0000   1.0000
     1.0000   1.0000   1.0000   1.0000   1.0000   1.0000   1.0000   1.0000
     1.0000   1.0000   0.0000   0.0000   0.0000

          k = 0.2500 0.5292 0.0000 (  2838 PWs)   bands (ev):

   -77.0690 -77.0585 -40.4456 -40.3996 -40.3664 -40.3620 -40.3072 -40.3028
    14.5784  14.7661  14.8651  15.3655  16.0005  16.2516  16.9491  17.9182
    18.2213  18.2692  21.6755  24.2530  26.5766

     occupation numbers 
     1.0000   1.0000   1.0000   1.0000   1.0000   1.0000   1.0000   1.0000
     1.0000   1.0000   1.0000   1.0000   1.0000   1.0000   1.0000   1.0000
     1.0000   1.0000   0.0000   0.0000   0.0000

          k = 0.2500 0.5292 0.1035 (  2828 PWs)   bands (ev):

   -77.0683 -77.0592 -40.4522 -40.4244 -40.3859 -40.3304 -40.3111 -40.2795
    14.5218  14.8966  14.9934  15.2660  16.0297  16.2489  16.9517  17.9260
    18.0040  18.3147  21.8685  24.2741  26.6255

     occupation numbers 
     1.0000   1.0000   1.0000   1.0000   1.0000   1.0000   1.0000   1.0000
     1.0000   1.0000   1.0000   1.0000   1.0000   1.0000   1.0000   1.0000
     1.0000   1.0000   0.0000   0.0000   0.0000

          k = 0.2500 0.5292 0.2071 (  2818 PWs)   bands (ev):

   -77.0664 -77.0611 -40.4694 -40.4540 -40.3846 -40.3406 -40.2779 -40.2566
    14.5420  14.9013  15.1628  15.4593  15.8951  16.2624  16.9929  17.4796
    18.0815  18.3559  22.3729  23.9853  26.5828

     occupation numbers 
     1.0000   1.0000   1.0000   1.0000   1.0000   1.0000   1.0000   1.0000
     1.0000   1.0000   1.0000   1.0000   1.0000   1.0000   1.0000   1.0000
     1.0000   1.0000   0.0000   0.0000   0.0000

          k = 0.2500 0.5292-0.3106 (  2812 PWs)   bands (ev):

   -77.0638 -77.0638 -40.4723 -40.4723 -40.3640 -40.3640 -40.2551 -40.2551
    14.6834  14.6834  15.4638  15.4638  16.0326  16.0326  17.1250  17.1250
    18.2656  18.2656  23.1458  23.1458  27.1356

     occupation numbers 
     1.0000   1.0000   1.0000   1.0000   1.0000   1.0000   1.0000   1.0000
     1.0000   1.0000   1.0000   1.0000   1.0000   1.0000   1.0000   1.0000
     1.0000   1.0000   0.0000   0.0000   0.0000

          k = 0.3333 0.5774 0.0000 (  2838 PWs)   bands (ev):

   -77.0626 -77.0626 -40.4368 -40.3854 -40.3854 -40.3314 -40.3313 -40.3313
    14.5837  14.9612  14.9612  15.2504  16.0788  16.0788  17.0493  18.0663
    18.0663  18.1949  23.4052  24.2528  24.2528

     occupation numbers 
     1.0000   1.0000   1.0000   1.0000   1.0000   1.0000   1.0000   1.0000
     1.0000   1.0000   1.0000   1.0000   1.0000   1.0000   1.0000   1.0000
     1.0000   1.0000   0.0000   0.0000   0.0000

          k = 0.3333 0.5774 0.1035 (  2820 PWs)   bands (ev):

   -77.0626 -77.0626 -40.4298 -40.4154 -40.4154 -40.3385 -40.3012 -40.3012
    14.6812  14.9871  14.9871  15.2713  16.0510  16.0510  17.0196  17.9497
    18.1060  18.1060  23.8157  24.3274  24.3274

     occupation numbers 
     1.0000   1.0000   1.0000   1.0000   1.0000   1.0000   1.0000   1.0000
     1.0000   1.0000   1.0000   1.0000   1.0000   1.0000   1.0000   1.0000
     1.0000   1.0000   0.0000   0.0000   0.0000

          k = 0.3333 0.5774 0.2071 (  2823 PWs)   bands (ev):

   -77.0626 -77.0626 -40.4494 -40.4494 -40.4106 -40.3579 -40.2669 -40.2669
    14.9300  15.0376  15.0376  15.2894  16.0020  16.0020  16.9792  17.4507
    18.1809  18.1809  24.5124  24.5124  24.8599

     occupation numbers 
     1.0000   1.0000   1.0000   1.0000   1.0000   1.0000   1.0000   1.0000
     1.0000   1.0000   1.0000   1.0000   1.0000   1.0000   1.0000   1.0000
     1.0000   1.0000   0.0000   0.0000   0.0000

          k = 0.3333 0.5774-0.3106 (  2772 PWs)   bands (ev):

   -77.0626 -77.0626 -40.4622 -40.4622 -40.3842 -40.3842 -40.2539 -40.2539
    15.0619  15.0619  15.1866  15.1866  15.9808  15.9808  17.0775  17.0775
    18.2163  18.2163  24.6315  24.6315  26.2882

     occupation numbers 
     1.0000   1.0000   1.0000   1.0000   1.0000   1.0000   1.0000   1.0000
     1.0000   1.0000   1.0000   1.0000   1.0000   1.0000   1.0000   1.0000
     1.0000   1.0000   0.0000   0.0000   0.0000

 ------ SPIN DOWN ----------


          k = 0.0000 0.0000 0.0000 (  2803 PWs)   bands (ev):

   -75.0230 -74.9569 -38.5080 -38.1821 -38.1821 -38.1279 -38.1270 -38.1270
     9.9275  14.7182  18.0428  18.0459  18.0459  18.4307  18.4307  18.7571
    18.8320  18.8320  20.1094  20.1094  26.5565

     occupation numbers 
     1.0000   1.0000   1.0000   1.0000   1.0000   1.0000   1.0000   1.0000
     1.0000   1.0000   1.0000   1.0000   1.0000   1.0000   1.0000   1.0000
     1.0000   1.0000   0.0000   0.0000   0.0000

          k = 0.0000 0.0000 0.1035 (  2827 PWs)   bands (ev):

   -75.0186 -74.9614 -38.4829 -38.1785 -38.1785 -38.1538 -38.1307 -38.1307
    10.2112  14.4945  17.9461  17.9715  17.9715  18.1496  18.3406  18.3406
    19.0230  19.0230  20.0955  20.0955  27.8921

     occupation numbers 
     1.0000   1.0000   1.0000   1.0000   1.0000   1.0000   1.0000   1.0000
     1.0000   1.0000   1.0000   1.0000   1.0000   1.0000   1.0000   1.0000
     0.0000   0.0000   0.0000   0.0000   0.0000

          k = 0.0000 0.0000 0.2071 (  2797 PWs)   bands (ev):

   -75.0065 -74.9735 -38.4141 -38.2241 -38.1684 -38.1684 -38.1408 -38.1408
    11.0310  13.6200  17.4800  17.7008  17.9087  17.9087  18.1441  18.1441
    19.4017  19.4017  20.0013  20.0013  30.9103

     occupation numbers 
     1.0000   1.0000   1.0000   1.0000   1.0000   1.0000   1.0000   1.0000
     1.0000   1.0000   1.0000   1.0000   1.0000   1.0000   1.0000   1.0000
     0.0000   0.0000   0.0000   0.0000   0.0000

          k = 0.0000 0.0000-0.3106 (  2822 PWs)   bands (ev):

   -74.9900 -74.9900 -38.3195 -38.3195 -38.1546 -38.1546 -38.1546 -38.1546
    12.2699  12.2699  17.4493  17.4493  17.9711  17.9711  17.9711  17.9711
    19.7630  19.7630  19.7630  19.7630  34.6044

     occupation numbers 
     1.0000   1.0000   1.0000   1.0000   1.0000   1.0000   1.0000   1.0000
     1.0000   1.0000   1.0000   1.0000   1.0000   1.0000   1.0000   1.0000
     0.0000   0.0000   0.0000   0.0000   0.0000

          k = 0.0000 0.0962 0.0000 (  2813 PWs)   bands (ev):

   -75.0194 -74.9554 -38.4998 -38.1997 -38.1879 -38.1452 -38.1314 -38.1298
    10.1721  14.8843  17.7581  18.1060  18.1735  18.2693  18.3675  18.5432
    18.7463  18.7672  20.1471  20.9757  26.5720

     occupation numbers 
     1.0000   1.0000   1.0000   1.0000   1.0000   1.0000   1.0000   1.0000
     1.0000   1.0000   1.0000   1.0000   1.0000   1.0000   1.0000   1.0000
     1.0000   1.0000   0.0000   0.0000   0.0000

          k = 0.0000 0.0962 0.1035 (  2806 PWs)   bands (ev):

   -75.0151 -74.9597 -38.4762 -38.1954 -38.1840 -38.1672 -38.1381 -38.1337
    10.4520  14.6741  17.6606  17.7547  18.0584  18.0805  18.3873  18.4446
    18.9695  18.9908  20.1239  20.6205  27.9736

     occupation numbers 
     1.0000   1.0000   1.0000   1.0000   1.0000   1.0000   1.0000   1.0000
     1.0000   1.0000   1.0000   1.0000   1.0000   1.0000   1.0000   1.0000
     0.0187   0.0000   0.0000   0.0000   0.0000

          k = 0.0000 0.0962 0.2071 (  2808 PWs)   bands (ev):

   -75.0034 -74.9714 -38.4114 -38.2327 -38.1834 -38.1734 -38.1508 -38.1443
    11.2605  13.8164  17.2395  17.6830  17.8029  18.0090  18.1816  18.2468
    19.3704  19.4091  20.0086  20.2006  31.0462

     occupation numbers 
     1.0000   1.0000   1.0000   1.0000   1.0000   1.0000   1.0000   1.0000
     1.0000   1.0000   1.0000   1.0000   1.0000   1.0000   1.0000   1.0000
     0.0000   0.0000   0.0000   0.0000   0.0000

          k = 0.0000 0.0962-0.3106 (  2818 PWs)   bands (ev):

   -74.9874 -74.9874 -38.3223 -38.3223 -38.1672 -38.1672 -38.1589 -38.1589
    12.4825  12.4825  17.3417  17.3417  17.9443  17.9443  18.0723  18.0723
    19.7492  19.7492  19.8293  19.8293  34.7643

     occupation numbers 
     1.0000   1.0000   1.0000   1.0000   1.0000   1.0000   1.0000   1.0000
     1.0000   1.0000   1.0000   1.0000   1.0000   1.0000   1.0000   1.0000
     0.0000   0.0000   0.0000   0.0000   0.0000

          k = 0.0000 0.1925 0.0000 (  2811 PWs)   bands (ev):

   -75.0094 -74.9512 -38.4764 -38.2479 -38.2034 -38.1946 -38.1418 -38.1378
    10.8838  15.3104  17.2440  17.3888  18.1392  18.5360  18.5366  18.6040
    18.6097  18.8597  20.2270  22.4638  26.6357

     occupation numbers 
     1.0000   1.0000   1.0000   1.0000   1.0000   1.0000   1.0000   1.0000
     1.0000   1.0000   1.0000   1.0000   1.0000   1.0000   1.0000   1.0000
     1.0000   1.0000   0.0000   0.0000   0.0000

          k = 0.0000 0.1925 0.1035 (  2802 PWs)   bands (ev):

   -75.0055 -74.9551 -38.4576 -38.2416 -38.2125 -38.1990 -38.1496 -38.1422
    11.1502  15.1455  16.9754  17.4278  18.0217  18.3199  18.3239  18.7099
    18.9424  19.0105  20.1828  21.6610  28.2480

     occupation numbers 
     1.0000   1.0000   1.0000   1.0000   1.0000   1.0000   1.0000   1.0000
     1.0000   1.0000   1.0000   1.0000   1.0000   1.0000   1.0000   1.0000
     0.7697   0.0000   0.0000   0.0000   0.0000

          k = 0.0000 0.1925 0.2071 (  2806 PWs)   bands (ev):

   -74.9949 -74.9658 -38.4061 -38.2654 -38.2211 -38.1870 -38.1697 -38.1542
    11.9183  14.3431  16.8315  17.5100  17.6537  18.1305  18.2560  18.5324
    19.3346  19.4746  20.0233  20.6859  31.4556

     occupation numbers 
     1.0000   1.0000   1.0000   1.0000   1.0000   1.0000   1.0000   1.0000
     1.0000   1.0000   1.0000   1.0000   1.0000   1.0000   1.0000   1.0000
     0.0000   0.0000   0.0000   0.0000   0.0000

          k = 0.0000 0.1925-0.3106 (  2800 PWs)   bands (ev):

   -74.9804 -74.9804 -38.3356 -38.3356 -38.1958 -38.1958 -38.1706 -38.1706
    13.0759  13.0759  17.1235  17.1235  17.8373  17.8373  18.3436  18.3436
    19.7273  19.7273  20.0159  20.0159  35.1981

     occupation numbers 
     1.0000   1.0000   1.0000   1.0000   1.0000   1.0000   1.0000   1.0000
     1.0000   1.0000   1.0000   1.0000   1.0000   1.0000   1.0000   1.0000
     0.0000   0.0000   0.0000   0.0000   0.0000

[...]
    20.2643  20.3433  21.4670  24.0000  28.9985

     occupation numbers 
     1.0000   1.0000   1.0000   1.0000   1.0000   1.0000   1.0000   1.0000
     1.0000   1.0000   1.0000   1.0000   1.0000   1.0000   1.0000   0.0000
     0.0000   0.0000   0.0000   0.0000   0.0000

          k = 0.0833 0.5292 0.1035 (  2819 PWs)   bands (ev):

   -74.9606 -74.9419 -38.4564 -38.4003 -38.3173 -38.2632 -38.2160 -38.1875
    14.8885  15.5166  16.0717  16.6050  17.8474  18.3831  18.4409  20.0526
    20.2214  20.3071  21.3274  23.6629  27.9277

     occupation numbers 
     1.0000   1.0000   1.0000   1.0000   1.0000   1.0000   1.0000   1.0000
     1.0000   1.0000   1.0000   1.0000   1.0000   1.0000   1.0000   0.0000
     0.0000   0.0000   0.0000   0.0000   0.0000

          k = 0.0833 0.5292 0.2071 (  2819 PWs)   bands (ev):

   -74.9567 -74.9458 -38.4728 -38.4378 -38.2772 -38.2385 -38.2220 -38.1919
    14.8655  15.3558  16.3774  16.7096  17.9074  18.6851  18.8986  19.5727
    20.1684  20.4038  21.1034  22.7209  27.3642

     occupation numbers 
     1.0000   1.0000   1.0000   1.0000   1.0000   1.0000   1.0000   1.0000
     1.0000   1.0000   1.0000   1.0000   1.0000   1.0000   1.0000   0.0000
     0.0000   0.0000   0.0000   0.0000   0.0000

          k = 0.0833 0.5292-0.3106 (  2812 PWs)   bands (ev):

   -74.9512 -74.9512 -38.4665 -38.4665 -38.2466 -38.2466 -38.2070 -38.2070
    15.0472  15.0472  16.6582  16.6582  18.4201  18.4201  19.2064  19.2064
    20.2510  20.2510  21.6508  21.6508  27.6188

     occupation numbers 
     1.0000   1.0000   1.0000   1.0000   1.0000   1.0000   1.0000   1.0000
     1.0000   1.0000   1.0000   1.0000   1.0000   1.0000   0.0000   0.0000
     0.0000   0.0000   0.0000   0.0000   0.0000

          k = 0.1667 0.2887 0.0000 (  2800 PWs)   bands (ev):

   -74.9877 -74.9438 -38.4217 -38.3206 -38.3107 -38.2252 -38.1743 -38.1698
    12.6138  16.0193  16.3701  16.7230  17.9048  18.0170  18.4956  18.9336
    19.4604  19.8325  20.2550  25.0841  26.9860

     occupation numbers 
     1.0000   1.0000   1.0000   1.0000   1.0000   1.0000   1.0000   1.0000
     1.0000   1.0000   1.0000   1.0000   1.0000   1.0000   1.0000   0.9511
     0.0000   0.0000   0.0000   0.0000   0.0000

          k = 0.1667 0.2887 0.1035 (  2804 PWs)   bands (ev):

   -74.9848 -74.9468 -38.4217 -38.3186 -38.3018 -38.2332 -38.1790 -38.1681
    12.8299  15.9693  16.2572  16.7909  17.8265  18.0443  18.3776  19.0065
    19.5937  19.7083  20.2633  23.4165  29.1994

     occupation numbers 
     1.0000   1.0000   1.0000   1.0000   1.0000   1.0000   1.0000   1.0000
     1.0000   1.0000   1.0000   1.0000   1.0000   1.0000   1.0000   0.0000
     0.0000   0.0000   0.0000   0.0000   0.0000

          k = 0.1667 0.2887 0.2071 (  2806 PWs)   bands (ev):

   -74.9768 -74.9548 -38.4115 -38.3469 -38.2623 -38.2358 -38.1904 -38.1760
    13.4422  15.2856  16.5130  16.9649  17.5774  17.8682  18.4320  19.0525
    19.7185  19.8294  20.2130  21.6600  32.4748

     occupation numbers 
     1.0000   1.0000   1.0000   1.0000   1.0000   1.0000   1.0000   1.0000
     1.0000   1.0000   1.0000   1.0000   1.0000   1.0000   1.0000   0.0000
     0.0000   0.0000   0.0000   0.0000   0.0000

          k = 0.1667 0.2887-0.3106 (  2804 PWs)   bands (ev):

   -74.9658 -74.9658 -38.3840 -38.3840 -38.2337 -38.2337 -38.1937 -38.1937
    14.3331  14.3331  16.9018  16.9018  17.5399  17.5399  18.7453  18.7453
    20.0284  20.0284  20.4542  20.4542  34.1200

     occupation numbers 
     1.0000   1.0000   1.0000   1.0000   1.0000   1.0000   1.0000   1.0000
     1.0000   1.0000   1.0000   1.0000   1.0000   1.0000   1.0000   1.0000
     0.0000   0.0000   0.0000   0.0000   0.0000

          k = 0.1667 0.3849 0.0000 (  2816 PWs)   bands (ev):

   -74.9739 -74.9409 -38.3826 -38.3726 -38.3470 -38.2565 -38.1968 -38.1935
    13.8705  16.0524  16.0925  16.5241  17.7038  18.1581  18.2626  19.2779
    19.9777  20.2537  20.5628  26.8721  27.1715

     occupation numbers 
     1.0000   1.0000   1.0000   1.0000   1.0000   1.0000   1.0000   1.0000
     1.0000   1.0000   1.0000   1.0000   1.0000   1.0000   1.0000   0.0000
     0.0000   0.0000   0.0000   0.0000   0.0000

          k = 0.1667 0.3849 0.1035 (  2813 PWs)   bands (ev):

   -74.9717 -74.9431 -38.4131 -38.3675 -38.3173 -38.2631 -38.2037 -38.1843
    14.0203  15.9159  16.2003  16.6314  17.6904  18.1074  18.2224  19.3081
    19.9735  20.0835  20.6799  24.5188  29.2145

     occupation numbers 
     1.0000   1.0000   1.0000   1.0000   1.0000   1.0000   1.0000   1.0000
     1.0000   1.0000   1.0000   1.0000   1.0000   1.0000   1.0000   0.0000
     0.0000   0.0000   0.0000   0.0000   0.0000

          k = 0.1667 0.3849 0.2071 (  2811 PWs)   bands (ev):

   -74.9656 -74.9492 -38.4280 -38.3918 -38.2761 -38.2579 -38.2127 -38.1824
    14.4301  15.5356  16.4952  16.8589  17.5617  17.8132  18.4107  19.2420
    19.8319  20.2745  20.7647  22.4873  30.1687

     occupation numbers 
     1.0000   1.0000   1.0000   1.0000   1.0000   1.0000   1.0000   1.0000
     1.0000   1.0000   1.0000   1.0000   1.0000   1.0000   1.0000   0.0000
     0.0000   0.0000   0.0000   0.0000   0.0000

          k = 0.1667 0.3849-0.3106 (  2806 PWs)   bands (ev):

   -74.9574 -74.9574 -38.4184 -38.4184 -38.2568 -38.2568 -38.1992 -38.1992
    14.9883  14.9883  16.8513  16.8513  17.5322  17.5322  18.7789  18.7789
    20.2774  20.2774  21.1297  21.1297  31.2948

     occupation numbers 
     1.0000   1.0000   1.0000   1.0000   1.0000   1.0000   1.0000   1.0000
     1.0000   1.0000   1.0000   1.0000   1.0000   1.0000   1.0000   1.0000
     0.0000   0.0000   0.0000   0.0000   0.0000

          k = 0.1667 0.4811 0.0000 (  2818 PWs)   bands (ev):

   -74.9621 -74.9404 -38.4139 -38.3645 -38.3448 -38.2862 -38.2201 -38.2120
    14.9750  15.8643  15.8708  16.5723  17.6446  18.0023  18.3978  19.7332
    20.2476  20.2512  21.4805  25.4758  28.7923

     occupation numbers 
     1.0000   1.0000   1.0000   1.0000   1.0000   1.0000   1.0000   1.0000
     1.0000   1.0000   1.0000   1.0000   1.0000   1.0000   1.0000   0.0000
     0.0000   0.0000   0.0000   0.0000   0.0000

          k = 0.1667 0.4811 0.1035 (  2820 PWs)   bands (ev):

   -74.9607 -74.9418 -38.4307 -38.3870 -38.3189 -38.2784 -38.2260 -38.2003
    14.9893  15.8237  16.0411  16.6117  17.6634  17.9862  18.4488  19.7178
    20.0056  20.3256  21.5348  24.8732  27.7470

     occupation numbers 
     1.0000   1.0000   1.0000   1.0000   1.0000   1.0000   1.0000   1.0000
     1.0000   1.0000   1.0000   1.0000   1.0000   1.0000   1.0000   0.0000
     0.0000   0.0000   0.0000   0.0000   0.0000

          k = 0.1667 0.4811 0.2071 (  2808 PWs)   bands (ev):

   -74.9567 -74.9458 -38.4487 -38.4197 -38.2983 -38.2580 -38.2265 -38.1897
    15.0918  15.6216  16.3862  16.9054  17.4971  17.9601  18.6504  19.3735
    19.9375  20.4261  21.6895  23.4242  27.8574

     occupation numbers 
     1.0000   1.0000   1.0000   1.0000   1.0000   1.0000   1.0000   1.0000
     1.0000   1.0000   1.0000   1.0000   1.0000   1.0000   1.0000   0.0000
     0.0000   0.0000   0.0000   0.0000   0.0000

          k = 0.1667 0.4811-0.3106 (  2812 PWs)   bands (ev):

   -74.9512 -74.9512 -38.4449 -38.4449 -38.2757 -38.2757 -38.1998 -38.1998
    15.3219  15.3219  16.8140  16.8140  17.6825  17.6825  18.9283  18.9283
    20.2698  20.2698  22.2284  22.2284  28.6729

     occupation numbers 
     1.0000   1.0000   1.0000   1.0000   1.0000   1.0000   1.0000   1.0000
     1.0000   1.0000   1.0000   1.0000   1.0000   1.0000   0.9862   0.9862
     0.0000   0.0000   0.0000   0.0000   0.0000

          k = 0.1667 0.5774 0.0000 (  2816 PWs)   bands (ev):

   -74.9569 -74.9411 -38.4289 -38.3695 -38.3256 -38.2987 -38.2351 -38.2174
    15.4395  15.7326  15.8028  16.6349  17.6808  17.8490  18.5053  20.0523
    20.2316  20.2498  22.3886  23.8998  29.7129

     occupation numbers 
     1.0000   1.0000   1.0000   1.0000   1.0000   1.0000   1.0000   1.0000
     1.0000   1.0000   1.0000   1.0000   1.0000   1.0000   1.0000   0.0000
     0.0000   0.0000   0.0000   0.0000   0.0000

          k = 0.1667 0.5774 0.1035 (  2818 PWs)   bands (ev):

   -74.9559 -74.9421 -38.4422 -38.3905 -38.3237 -38.2717 -38.2397 -38.2072
    15.2811  15.7820  16.1897  16.4574  17.6167  18.0249  18.5656  19.9730
    20.0492  20.2981  22.4204  23.8005  28.8917

     occupation numbers 
     1.0000   1.0000   1.0000   1.0000   1.0000   1.0000   1.0000   1.0000
     1.0000   1.0000   1.0000   1.0000   1.0000   1.0000   1.0000   0.0000
     0.0000   0.0000   0.0000   0.0000   0.0000

          k = 0.1667 0.5774 0.2071 (  2818 PWs)   bands (ev):

   -74.9529 -74.9450 -38.4584 -38.4283 -38.3076 -38.2576 -38.2291 -38.1936
    15.2390  15.6801  16.4508  16.8209  17.4051  18.1371  18.8002  19.4493
    20.0722  20.3434  22.5520  23.4710  27.7959

     occupation numbers 
     1.0000   1.0000   1.0000   1.0000   1.0000   1.0000   1.0000   1.0000
     1.0000   1.0000   1.0000   1.0000   1.0000   1.0000   1.0000   0.0000
     0.0000   0.0000   0.0000   0.0000   0.0000

          k = 0.1667 0.5774-0.3106 (  2818 PWs)   bands (ev):

   -74.9490 -74.9490 -38.4547 -38.4547 -38.2829 -38.2829 -38.1996 -38.1996
    15.4001  15.4001  16.8037  16.8037  17.7348  17.7348  19.0970  19.0970
    20.2033  20.2033  22.9539  22.9539  27.4151

     occupation numbers 
     1.0000   1.0000   1.0000   1.0000   1.0000   1.0000   1.0000   1.0000
     1.0000   1.0000   1.0000   1.0000   1.0000   1.0000   0.0000   0.0000
     0.0000   0.0000   0.0000   0.0000   0.0000

          k = 0.2500 0.4330 0.0000 (  2828 PWs)   bands (ev):

   -74.9622 -74.9403 -38.3917 -38.3665 -38.3450 -38.2864 -38.2323 -38.2198
    14.9844  15.9385  16.2202  16.2403  17.5533  18.0269  18.4007  19.4915
    20.2043  20.2530  21.5185  27.0591  27.8524

     occupation numbers 
     1.0000   1.0000   1.0000   1.0000   1.0000   1.0000   1.0000   1.0000
     1.0000   1.0000   1.0000   1.0000   1.0000   1.0000   1.0000   0.0000
     0.0000   0.0000   0.0000   0.0000   0.0000

          k = 0.2500 0.4330 0.1035 (  2819 PWs)   bands (ev):

   -74.9607 -74.9418 -38.4039 -38.3960 -38.3013 -38.3011 -38.2355 -38.2038
    15.0648  15.8566  16.2908  16.4336  17.6035  17.8482  18.3964  19.5231
    19.9484  20.3351  21.6283  25.6329  28.1472

     occupation numbers 
     1.0000   1.0000   1.0000   1.0000   1.0000   1.0000   1.0000   1.0000
     1.0000   1.0000   1.0000   1.0000   1.0000   1.0000   1.0000   0.0000
     0.0000   0.0000   0.0000   0.0000   0.0000

          k = 0.2500 0.4330 0.2071 (  2810 PWs)   bands (ev):

   -74.9567 -74.9458 -38.4301 -38.4135 -38.3063 -38.2766 -38.2253 -38.1894
    15.2693  15.7183  16.5208  16.8093  17.4557  17.5858  18.4660  19.2752
    19.8967  20.4346  21.8713  23.7494  28.9431

     occupation numbers 
     1.0000   1.0000   1.0000   1.0000   1.0000   1.0000   1.0000   1.0000
     1.0000   1.0000   1.0000   1.0000   1.0000   1.0000   1.0000   0.0000
     0.0000   0.0000   0.0000   0.0000   0.0000

          k = 0.2500 0.4330-0.3106 (  2808 PWs)   bands (ev):

   -74.9512 -74.9512 -38.4315 -38.4315 -38.2914 -38.2914 -38.1977 -38.1977
    15.5146  15.5146  16.8759  16.8759  17.3480  17.3480  18.7618  18.7618
    20.2939  20.2939  22.4480  22.4480  29.9712

     occupation numbers 
     1.0000   1.0000   1.0000   1.0000   1.0000   1.0000   1.0000   1.0000
     1.0000   1.0000   1.0000   1.0000   1.0000   1.0000   1.0000   1.0000
     0.0000   0.0000   0.0000   0.0000   0.0000

          k = 0.2500 0.5292 0.0000 (  2838 PWs)   bands (ev):

   -74.9533 -74.9421 -38.4063 -38.3560 -38.3197 -38.3114 -38.2550 -38.2470
    15.7001  15.8974  16.0558  16.3294  17.5566  17.7839  18.6043  19.8012
    20.1750  20.1989  22.8048  25.0689  27.1632

     occupation numbers 
     1.0000   1.0000   1.0000   1.0000   1.0000   1.0000   1.0000   1.0000
     1.0000   1.0000   1.0000   1.0000   1.0000   1.0000   1.0000   0.0000
     0.0000   0.0000   0.0000   0.0000   0.0000

          k = 0.2500 0.5292 0.1035 (  2828 PWs)   bands (ev):

   -74.9526 -74.9428 -38.4131 -38.3824 -38.3402 -38.2787 -38.2583 -38.2224
    15.6564  16.0258  16.1445  16.3947  17.5367  17.6852  18.6074  19.8136
    19.9151  20.2531  22.9732  25.0478  27.2405

     occupation numbers 
     1.0000   1.0000   1.0000   1.0000   1.0000   1.0000   1.0000   1.0000
     1.0000   1.0000   1.0000   1.0000   1.0000   1.0000   1.0000   0.0000
     0.0000   0.0000   0.0000   0.0000   0.0000

          k = 0.2500 0.5292 0.2071 (  2818 PWs)   bands (ev):

   -74.9505 -74.9449 -38.4312 -38.4145 -38.3390 -38.2911 -38.2211 -38.1976
    15.6943  15.9916  16.4300  16.7484  17.2917  17.5422  18.6662  19.3178
    19.9839  20.2990  23.3643  24.6912  27.3412

     occupation numbers 
     1.0000   1.0000   1.0000   1.0000   1.0000   1.0000   1.0000   1.0000
     1.0000   1.0000   1.0000   1.0000   1.0000   1.0000   1.0000   0.0000
     0.0000   0.0000   0.0000   0.0000   0.0000

          k = 0.2500 0.5292-0.3106 (  2812 PWs)   bands (ev):

   -74.9477 -74.9477 -38.4344 -38.4344 -38.3167 -38.3167 -38.1961 -38.1961
    15.8310  15.8310  16.8345  16.8345  17.2517  17.2517  18.8720  18.8720
    20.1899  20.1899  23.9614  23.9614  27.8975

     occupation numbers 
     1.0000   1.0000   1.0000   1.0000   1.0000   1.0000   1.0000   1.0000
     1.0000   1.0000   1.0000   1.0000   1.0000   1.0000   1.0000   1.0000
     0.0000   0.0000   0.0000   0.0000   0.0000

          k = 0.3333 0.5774 0.0000 (  2838 PWs)   bands (ev):

   -74.9464 -74.9464 -38.3966 -38.3406 -38.3406 -38.2813 -38.2780 -38.2780
    15.9266  16.0499  16.0499  16.2564  17.6057  17.6057  18.7142  19.9718
    19.9718  20.1448  24.2464  25.0619  25.0619

     occupation numbers 
     1.0000   1.0000   1.0000   1.0000   1.0000   1.0000   1.0000   1.0000
     1.0000   1.0000   1.0000   1.0000   1.0000   1.0000   1.0000   0.0000
     0.0000   0.0000   0.0000   0.0000   0.0000

          k = 0.3333 0.5774 0.1035 (  2820 PWs)   bands (ev):

   -74.9464 -74.9464 -38.3889 -38.3724 -38.3724 -38.2891 -38.2460 -38.2460
    16.0042  16.1262  16.1262  16.2898  17.5205  17.5205  18.6896  19.8573
    20.0167  20.0167  24.6738  25.1122  25.1122

     occupation numbers 
     1.0000   1.0000   1.0000   1.0000   1.0000   1.0000   1.0000   1.0000
     1.0000   1.0000   1.0000   1.0000   1.0000   1.0000   1.0000   0.0000
     0.0000   0.0000   0.0000   0.0000   0.0000

          k = 0.3333 0.5774 0.2071 (  2823 PWs)   bands (ev):

   -74.9464 -74.9464 -38.4092 -38.4092 -38.3679 -38.3103 -38.2089 -38.2089
    16.1868  16.3071  16.3071  16.3509  17.3300  17.3300  18.6790  19.2909
    20.0978  20.0978  25.2363  25.2363  25.7043

     occupation numbers 
     1.0000   1.0000   1.0000   1.0000   1.0000   1.0000   1.0000   1.0000
     1.0000   1.0000   1.0000   1.0000   1.0000   1.0000   1.0000   0.0000
     0.0000   0.0000   0.0000   0.0000   0.0000

          k = 0.3333 0.5774-0.3106 (  2772 PWs)   bands (ev):

   -74.9464 -74.9464 -38.4231 -38.4231 -38.3391 -38.3391 -38.1947 -38.1947
    16.3365  16.3365  16.4238  16.4238  17.2120  17.2120  18.8454  18.8454
    20.1343  20.1343  25.3149  25.3149  27.0549

     occupation numbers 
     1.0000   1.0000   1.0000   1.0000   1.0000   1.0000   1.0000   1.0000
     1.0000   1.0000   1.0000   1.0000   1.0000   1.0000   1.0000   1.0000
     0.0000   0.0000   0.0000   0.0000   0.0000

     the Fermi energy is    18.9495 ev

!    total energy              =    -753.45506002 Ry
     total all-electron energy =     -5573.811751 Ry
     estimated scf accuracy    <       0.00000062 Ry
     smearing contrib. (-TS)   =      -0.00002132 Ry
     internal energy E=F+TS    =    -753.45503870 Ry

     The total energy is F=E-TS. E is the sum of the following terms:
     one-electron contribution =    -279.90798868 Ry
     hartree contribution      =     163.97909898 Ry
     xc contribution           =     -61.42324895 Ry
     ewald contribution        =    -400.92670524 Ry
     one-center paw contrib.   =    -175.17619482 Ry
      -> PAW hartree energy AE =     222.11518247 Ry
      -> PAW hartree energy PS =    -221.05942338 Ry
      -> PAW xc energy AE      =    -117.67791897 Ry
      -> PAW xc energy PS      =      29.03406248 Ry
      -> total E_H with PAW    =     165.03485806 Ry
      -> total E_XC with PAW   =    -150.06710544 Ry

     total magnetization       =     3.30 Bohr mag/cell
     absolute magnetization    =     3.62 Bohr mag/cell

     convergence has been achieved in   8 iterations

     Writing all to output data dir ./out2/Co.save/
 
     init_run     :      0.29s CPU      0.38s WALL (       1 calls)
     electrons    :      9.67s CPU     10.39s WALL (       1 calls)

     Called by init_run:
     wfcinit      :      0.13s CPU      0.19s WALL (       1 calls)
     potinit      :      0.10s CPU      0.12s WALL (       1 calls)
     hinit0       :      0.05s CPU      0.05s WALL (       1 calls)

     Called by electrons:
     c_bands      :      8.07s CPU      8.58s WALL (       8 calls)
     sum_band     :      0.84s CPU      0.90s WALL (       8 calls)
     v_of_rho     :      0.04s CPU      0.04s WALL (       9 calls)
     v_h          :      0.00s CPU      0.00s WALL (       9 calls)
     v_xc         :      0.03s CPU      0.03s WALL (       9 calls)
     newd         :      0.02s CPU      0.03s WALL (       9 calls)
     PAW_pot      :      0.78s CPU      0.94s WALL (       9 calls)
     mix_rho      :      0.01s CPU      0.01s WALL (       8 calls)

     Called by c_bands:
     init_us_2    :      0.06s CPU      0.07s WALL (    1216 calls)
     init_us_2:cp :      0.06s CPU      0.06s WALL (    1216 calls)
     cegterg      :      7.65s CPU      8.05s WALL (     608 calls)

     Called by sum_band:
     sum_band:wei :      0.01s CPU      0.01s WALL (       8 calls)
     sum_band:loo :      0.79s CPU      0.83s WALL (       8 calls)
     sum_band:buf :      0.01s CPU      0.01s WALL (     608 calls)
     sum_band:ini :      0.03s CPU      0.03s WALL (     608 calls)
     sum_band:cal :      0.07s CPU      0.07s WALL (     608 calls)
     sum_band:bec :      0.01s CPU      0.01s WALL (     608 calls)
     addusdens    :      0.04s CPU      0.04s WALL (       8 calls)
                                        0.00s GPU  (       8 calls)
     addusd:skk   :      0.00s CPU      0.00s WALL (       8 calls)
                                        0.00s GPU  (       8 calls)

     Called by *egterg:
     cdiaghg      :      1.71s CPU      1.80s WALL (    3501 calls)
     cegterg:over :      0.26s CPU      0.27s WALL (    2969 calls)
     cegterg:upda :      0.07s CPU      0.07s WALL (    2969 calls)
     cegterg:last :      0.13s CPU      0.13s WALL (    2017 calls)
     h_psi        :      5.11s CPU      5.39s WALL (    3577 calls)
     s_psi        :      0.09s CPU      0.10s WALL (    3577 calls)
     g_psi        :      0.02s CPU      0.02s WALL (    2969 calls)

     Called by h_psi:
     h_psi:calbec :      0.28s CPU      0.30s WALL (    3577 calls)
     vloc_psi     :      4.68s CPU      4.94s WALL (    3577 calls)
     add_vuspsi   :      0.11s CPU      0.12s WALL (    3577 calls)

     General routines
     calbec       :      0.34s CPU      0.36s WALL (    4185 calls)
     fft          :      0.02s CPU      0.02s WALL (     219 calls)
     ffts         :      0.00s CPU      0.00s WALL (      34 calls)
     fftw         :      4.83s CPU      5.10s WALL (  106766 calls)
     interpolate  :      0.00s CPU      0.00s WALL (      18 calls)
 
     Parallel routines

     PAW routines
     PAW_pot      :      0.78s CPU      0.94s WALL (       9 calls)
     PAW_symme    :      0.01s CPU      0.01s WALL (      16 calls)
 
     PWSCF        :     10.20s CPU     11.32s WALL

 
   This run was terminated on:  10:48:13  22Mar2024            

=------------------------------------------------------------------------------=
   JOB DONE.
=------------------------------------------------------------------------------=
