
     Program PWSCF v.7.2 starts on 22Mar2024 at 10:58: 2 

     This program is part of the open-source Quantum ESPRESSO suite
     for quantum simulation of materials; please cite
         "P. Giannozzi et al., J. Phys.:Condens. Matter 21 395502 (2009);
         "P. Giannozzi et al., J. Phys.:Condens. Matter 29 465901 (2017);
         "P. Giannozzi et al., J. Chem. Phys. 152 154105 (2020);
          URL http://www.quantum-espresso.org", 
     in publications or presentations arising from this work. More details at
     http://www.quantum-espresso.org/quote

     Parallel version (MPI), running on    28 processors

     MPI processes distributed on     1 nodes
     182158 MiB available memory on the printing compute node when the environment starts
 
     Waiting for input...
     Reading input from standard input

     Current dimensions of program PWSCF are:
     Max number of different atomic species (ntypx) = 10
     Max number of k-points (npk) = 120000
     Max angular momentum in pseudopotentials (lmaxx) =  4
     file Co.pbe-spn-kjpaw_psl.0.3.1.UPF: wavefunction(s)  3P 3D renormalized
 
     K-points division:     npool     =       2
     R & G space division:  proc/nbgrp/npool/nimage =      14
     Subspace diagonalization in iterative solution of the eigenvalue problem:
     a serial algorithm will be used

 
     Parallelization info
     --------------------
     sticks:   dense  smooth     PW     G-vecs:    dense   smooth      PW
     Min          48      48     14                 1682     1638     264
     Max          51      49     15                 1691     1645     271
     Sum         685     673    199                23595    22959    3729
 
     Using Slab Decomposition
 


     bravais-lattice index     =            4
     lattice parameter (alat)  =       4.7243  a.u.
     unit-cell volume          =     146.6536 (a.u.)^3
     number of atoms/cell      =            2
     number of atomic types    =            1
     number of electrons       =        34.00
     number of Kohn-Sham states=           21
     kinetic-energy cutoff     =     110.0000  Ry
     charge density cutoff     =     450.0000  Ry
     scf convergence threshold =      1.0E-06
     mixing beta               =       0.7000
     number of iterations used =            8  plain     mixing
     Exchange-correlation= SLA  PW   PBX  PBC
                           (   1   4   3   4   0   0   0)

     celldm(1)=   4.724315  celldm(2)=   0.000000  celldm(3)=   1.606000
     celldm(4)=   0.000000  celldm(5)=   0.000000  celldm(6)=   0.000000

     crystal axes: (cart. coord. in units of alat)
               a(1) = (   1.000000   0.000000   0.000000 )  
               a(2) = (  -0.500000   0.866025   0.000000 )  
               a(3) = (   0.000000   0.000000   1.606000 )  

     reciprocal axes: (cart. coord. in units 2 pi/alat)
               b(1) = (  1.000000  0.577350  0.000000 )  
               b(2) = (  0.000000  1.154701  0.000000 )  
               b(3) = (  0.000000  0.000000  0.622665 )  


     PseudoPot. # 1 for Co read from file:
     /truba/home/amuhaymin/ZnS/pseudo/QE/Co.pbe-spn-kjpaw_psl.0.3.1.UPF
     MD5 check sum: b0a1ad65bf214e88c1f3d33b20c7d919
     Pseudo is Projector augmented-wave + core cor, Zval = 17.0
     Generated using &quot;atomic&quot; code by A. Dal Corso  v.6.2.2
     Shape of augmentation charge: PSQ
     Using radial grid of 1193 points,  6 beta functions with: 
                l(1) =   0
                l(2) =   0
                l(3) =   1
                l(4) =   1
                l(5) =   2
                l(6) =   2
     Q(r) pseudized with 0 coefficients 


     atomic species   valence    mass     pseudopotential
        Co            17.00    58.93300     Co( 1.00)

     Starting magnetic structure 
     atomic species   magnetization
        Co           0.294

     24 Sym. Ops., with inversion, found (12 have fractional translation)


                                    s                        frac. trans.

      isym =  1     identity                                     

 cryst.   s( 1) = (     1          0          0      )
                  (     0          1          0      )
                  (     0          0          1      )

 cart.    s( 1) = (  1.0000000  0.0000000  0.0000000 )
                  (  0.0000000  1.0000000  0.0000000 )
                  (  0.0000000  0.0000000  1.0000000 )


      isym =  2     180 deg rotation - cart. axis [0,0,1]        

 cryst.   s( 2) = (    -1          0          0      )    f =(  0.0000000 )
                  (     0         -1          0      )       ( -0.0000000 )
                  (     0          0          1      )       ( -0.5000000 )

 cart.    s( 2) = ( -1.0000000  0.0000000  0.0000000 )    f =(  0.0000000 )
                  (  0.0000000 -1.0000000  0.0000000 )       ( -0.0000000 )
                  (  0.0000000  0.0000000  1.0000000 )       ( -0.8030000 )


      isym =  3     180 deg rotation - cart. axis [0,1,0]        

 cryst.   s( 3) = (    -1          0          0      )    f =(  0.0000000 )
                  (     1          1          0      )       (  0.0000000 )
                  (     0          0         -1      )       (  0.5000000 )

 cart.    s( 3) = ( -1.0000000  0.0000000  0.0000000 )    f =(  0.0000000 )
                  (  0.0000000  1.0000000  0.0000000 )       (  0.0000000 )
                  (  0.0000000  0.0000000 -1.0000000 )       (  0.8030000 )


      isym =  4     180 deg rotation - cart. axis [1,0,0]        

 cryst.   s( 4) = (     1          0          0      )
                  (    -1         -1          0      )
                  (     0          0         -1      )

 cart.    s( 4) = (  1.0000000  0.0000000  0.0000000 )
                  (  0.0000000 -1.0000000  0.0000000 )
                  (  0.0000000  0.0000000 -1.0000000 )


      isym =  5      60 deg rotation - cryst. axis [0,0,1]       

 cryst.   s( 5) = (     1          1          0      )    f =(  0.0000000 )
                  (    -1          0          0      )       ( -0.0000000 )
                  (     0          0          1      )       ( -0.5000000 )

 cart.    s( 5) = (  0.5000000 -0.8660254  0.0000000 )    f =(  0.0000000 )
                  (  0.8660254  0.5000000  0.0000000 )       ( -0.0000000 )
                  (  0.0000000  0.0000000  1.0000000 )       ( -0.8030000 )


      isym =  6      60 deg rotation - cryst. axis [0,0,-1]      

 cryst.   s( 6) = (     0         -1          0      )    f =(  0.0000000 )
                  (     1          1          0      )       ( -0.0000000 )
                  (     0          0          1      )       ( -0.5000000 )

 cart.    s( 6) = (  0.5000000  0.8660254  0.0000000 )    f =(  0.0000000 )
                  ( -0.8660254  0.5000000  0.0000000 )       ( -0.0000000 )
                  (  0.0000000  0.0000000  1.0000000 )       ( -0.8030000 )


      isym =  7     120 deg rotation - cryst. axis [0,0,1]       

 cryst.   s( 7) = (     0          1          0      )
                  (    -1         -1          0      )
                  (     0          0          1      )

 cart.    s( 7) = ( -0.5000000 -0.8660254  0.0000000 )
                  (  0.8660254 -0.5000000  0.0000000 )
                  (  0.0000000  0.0000000  1.0000000 )


      isym =  8     120 deg rotation - cryst. axis [0,0,-1]      

 cryst.   s( 8) = (    -1         -1          0      )
                  (     1          0          0      )
                  (     0          0          1      )

 cart.    s( 8) = ( -0.5000000  0.8660254  0.0000000 )
                  ( -0.8660254 -0.5000000  0.0000000 )
                  (  0.0000000  0.0000000  1.0000000 )


      isym =  9     180 deg rotation - cryst. axis [1,-1,0]      

 cryst.   s( 9) = (     0         -1          0      )    f =( -0.0000000 )
                  (    -1          0          0      )       ( -0.0000000 )
                  (     0          0         -1      )       (  0.5000000 )

 cart.    s( 9) = (  0.5000000 -0.8660254  0.0000000 )    f =( -0.0000000 )
                  ( -0.8660254 -0.5000000  0.0000000 )       ( -0.0000000 )
                  (  0.0000000  0.0000000 -1.0000000 )       (  0.8030000 )


      isym = 10     180 deg rotation - cryst. axis [2,1,0]       

 cryst.   s(10) = (     1          1          0      )    f =(  0.0000000 )
                  (     0         -1          0      )       ( -0.0000000 )
                  (     0          0         -1      )       (  0.5000000 )

 cart.    s(10) = (  0.5000000  0.8660254  0.0000000 )    f =(  0.0000000 )
                  (  0.8660254 -0.5000000  0.0000000 )       ( -0.0000000 )
                  (  0.0000000  0.0000000 -1.0000000 )       (  0.8030000 )


      isym = 11     180 deg rotation - cryst. axis [0,1,0]       

 cryst.   s(11) = (    -1         -1          0      )
                  (     0          1          0      )
                  (     0          0         -1      )

 cart.    s(11) = ( -0.5000000 -0.8660254  0.0000000 )
                  ( -0.8660254  0.5000000  0.0000000 )
                  (  0.0000000  0.0000000 -1.0000000 )


      isym = 12     180 deg rotation - cryst. axis [1,1,0]       

 cryst.   s(12) = (     0          1          0      )
                  (     1          0          0      )
                  (     0          0         -1      )

 cart.    s(12) = ( -0.5000000  0.8660254  0.0000000 )
                  (  0.8660254  0.5000000  0.0000000 )
                  (  0.0000000  0.0000000 -1.0000000 )


      isym = 13     inversion                                    

 cryst.   s(13) = (    -1          0          0      )
                  (     0         -1          0      )
                  (     0          0         -1      )

 cart.    s(13) = ( -1.0000000  0.0000000  0.0000000 )
                  (  0.0000000 -1.0000000  0.0000000 )
                  (  0.0000000  0.0000000 -1.0000000 )


      isym = 14     inv. 180 deg rotation - cart. axis [0,0,1]   

 cryst.   s(14) = (     1          0          0      )    f =(  0.0000000 )
                  (     0          1          0      )       (  0.0000000 )
                  (     0          0         -1      )       (  0.5000000 )

 cart.    s(14) = (  1.0000000  0.0000000  0.0000000 )    f =(  0.0000000 )
                  (  0.0000000  1.0000000  0.0000000 )       (  0.0000000 )
                  (  0.0000000  0.0000000 -1.0000000 )       (  0.8030000 )


      isym = 15     inv. 180 deg rotation - cart. axis [0,1,0]   

 cryst.   s(15) = (     1          0          0      )    f =(  0.0000000 )
                  (    -1         -1          0      )       ( -0.0000000 )
                  (     0          0          1      )       ( -0.5000000 )

 cart.    s(15) = (  1.0000000  0.0000000  0.0000000 )    f =(  0.0000000 )
                  (  0.0000000 -1.0000000  0.0000000 )       ( -0.0000000 )
                  (  0.0000000  0.0000000  1.0000000 )       ( -0.8030000 )


      isym = 16     inv. 180 deg rotation - cart. axis [1,0,0]   

 cryst.   s(16) = (    -1          0          0      )
                  (     1          1          0      )
                  (     0          0          1      )

 cart.    s(16) = ( -1.0000000  0.0000000  0.0000000 )
                  (  0.0000000  1.0000000  0.0000000 )
                  (  0.0000000  0.0000000  1.0000000 )


      isym = 17     inv.  60 deg rotation - cryst. axis [0,0,1]  

 cryst.   s(17) = (    -1         -1          0      )    f =(  0.0000000 )
                  (     1          0          0      )       ( -0.0000000 )
                  (     0          0         -1      )       (  0.5000000 )

 cart.    s(17) = ( -0.5000000  0.8660254  0.0000000 )    f =(  0.0000000 )
                  ( -0.8660254 -0.5000000  0.0000000 )       ( -0.0000000 )
                  (  0.0000000  0.0000000 -1.0000000 )       (  0.8030000 )


      isym = 18     inv.  60 deg rotation - cryst. axis [0,0,-1] 

 cryst.   s(18) = (     0          1          0      )    f =( -0.0000000 )
                  (    -1         -1          0      )       ( -0.0000000 )
                  (     0          0         -1      )       (  0.5000000 )

 cart.    s(18) = ( -0.5000000 -0.8660254  0.0000000 )    f =(  0.0000000 )
                  (  0.8660254 -0.5000000  0.0000000 )       ( -0.0000000 )
                  (  0.0000000  0.0000000 -1.0000000 )       (  0.8030000 )


      isym = 19     inv. 120 deg rotation - cryst. axis [0,0,1]  

 cryst.   s(19) = (     0         -1          0      )
                  (     1          1          0      )
                  (     0          0         -1      )

 cart.    s(19) = (  0.5000000  0.8660254  0.0000000 )
                  ( -0.8660254  0.5000000  0.0000000 )
                  (  0.0000000  0.0000000 -1.0000000 )


      isym = 20     inv. 120 deg rotation - cryst. axis [0,0,-1] 

 cryst.   s(20) = (     1          1          0      )
                  (    -1          0          0      )
                  (     0          0         -1      )

 cart.    s(20) = (  0.5000000 -0.8660254  0.0000000 )
                  (  0.8660254  0.5000000  0.0000000 )
                  (  0.0000000  0.0000000 -1.0000000 )


      isym = 21     inv. 180 deg rotation - cryst. axis [1,-1,0] 

 cryst.   s(21) = (     0          1          0      )    f =(  0.0000000 )
                  (     1          0          0      )       ( -0.0000000 )
                  (     0          0          1      )       ( -0.5000000 )

 cart.    s(21) = ( -0.5000000  0.8660254  0.0000000 )    f =(  0.0000000 )
                  (  0.8660254  0.5000000  0.0000000 )       ( -0.0000000 )
                  (  0.0000000  0.0000000  1.0000000 )       ( -0.8030000 )


      isym = 22     inv. 180 deg rotation - cryst. axis [2,1,0]  

 cryst.   s(22) = (    -1         -1          0      )    f =(  0.0000000 )
                  (     0          1          0      )       ( -0.0000000 )
                  (     0          0          1      )       ( -0.5000000 )

 cart.    s(22) = ( -0.5000000 -0.8660254  0.0000000 )    f =(  0.0000000 )
                  ( -0.8660254  0.5000000  0.0000000 )       ( -0.0000000 )
                  (  0.0000000  0.0000000  1.0000000 )       ( -0.8030000 )


      isym = 23     inv. 180 deg rotation - cryst. axis [0,1,0]  

 cryst.   s(23) = (     1          1          0      )
                  (     0         -1          0      )
                  (     0          0          1      )

 cart.    s(23) = (  0.5000000  0.8660254  0.0000000 )
                  (  0.8660254 -0.5000000  0.0000000 )
                  (  0.0000000  0.0000000  1.0000000 )


      isym = 24     inv. 180 deg rotation - cryst. axis [1,1,0]  

 cryst.   s(24) = (     0         -1          0      )
                  (    -1          0          0      )
                  (     0          0          1      )

 cart.    s(24) = (  0.5000000 -0.8660254  0.0000000 )
                  ( -0.8660254 -0.5000000  0.0000000 )
                  (  0.0000000  0.0000000  1.0000000 )


     point group D_6h(6/mmm)
     there are 12 classes
     the character table:

       E     2C6   2C3   C2    3C2'  3C2'' i     2S3   2S6   s_h   3s_d  3s_v 
A_1g   1.00  1.00  1.00  1.00  1.00  1.00  1.00  1.00  1.00  1.00  1.00  1.00
A_2g   1.00  1.00  1.00  1.00 -1.00 -1.00  1.00  1.00  1.00  1.00 -1.00 -1.00
B_1g   1.00 -1.00  1.00 -1.00  1.00 -1.00  1.00 -1.00  1.00 -1.00  1.00 -1.00
B_2g   1.00 -1.00  1.00 -1.00 -1.00  1.00  1.00 -1.00  1.00 -1.00 -1.00  1.00
E_1g   2.00  1.00 -1.00 -2.00  0.00  0.00  2.00  1.00 -1.00 -2.00  0.00  0.00
E_2g   2.00 -1.00 -1.00  2.00  0.00  0.00  2.00 -1.00 -1.00  2.00  0.00  0.00
A_1u   1.00  1.00  1.00  1.00  1.00  1.00 -1.00 -1.00 -1.00 -1.00 -1.00 -1.00
A_2u   1.00  1.00  1.00  1.00 -1.00 -1.00 -1.00 -1.00 -1.00 -1.00  1.00  1.00
B_1u   1.00 -1.00  1.00 -1.00  1.00 -1.00 -1.00  1.00 -1.00  1.00 -1.00  1.00
B_2u   1.00 -1.00  1.00 -1.00 -1.00  1.00 -1.00  1.00 -1.00  1.00  1.00 -1.00
E_1u   2.00  1.00 -1.00 -2.00  0.00  0.00 -2.00 -1.00  1.00  2.00  0.00  0.00
E_2u   2.00 -1.00 -1.00  2.00  0.00  0.00 -2.00  1.00  1.00 -2.00  0.00  0.00

     the symmetry operations in each class and the name of the first element:

     E        1
          identity                                               
     2C6      5    6
           60 deg rotation - cryst. axis [0,0,1]                 
     2C3      7    8
          120 deg rotation - cryst. axis [0,0,1]                 
     C2       2
          180 deg rotation - cart. axis [0,0,1]                  
     3C2'     4   12   11
          180 deg rotation - cart. axis [1,0,0]                  
     3C2''    3    9   10
          180 deg rotation - cart. axis [0,1,0]                  
     i       13
          inversion                                              
     2S3     17   18
          inv.  60 deg rotation - cryst. axis [0,0,1]            
     2S6     19   20
          inv. 120 deg rotation - cryst. axis [0,0,1]            
     s_h     14
          inv. 180 deg rotation - cart. axis [0,0,1]             
     3s_d    16   24   23
          inv. 180 deg rotation - cart. axis [1,0,0]             
     3s_v    15   21   22
          inv. 180 deg rotation - cart. axis [0,1,0]             

   Cartesian axes

     site n.     atom                  positions (alat units)
         1           Co  tau(   1) = (  -0.0000000   0.5773503   0.4015000  )
         2           Co  tau(   2) = (   0.5000000   0.2886751   1.2045000  )

   Crystallographic axes

     site n.     atom                  positions (cryst. coord.)
         1           Co  tau(   1) = (  0.3333333  0.6666667  0.2500000  )
         2           Co  tau(   2) = (  0.6666667  0.3333333  0.7500000  )

     number of k points=    76  Gaussian smearing, width (Ry)=  0.0010
                       cart. coord. in units 2pi/alat
        k(    1) = (   0.0000000   0.0000000   0.0000000), wk =   0.0011574
        k(    2) = (   0.0000000   0.0000000   0.1037775), wk =   0.0023148
        k(    3) = (   0.0000000   0.0000000   0.2075550), wk =   0.0023148
        k(    4) = (   0.0000000   0.0000000  -0.3113325), wk =   0.0011574
        k(    5) = (   0.0000000   0.0962250   0.0000000), wk =   0.0069444
        k(    6) = (   0.0000000   0.0962250   0.1037775), wk =   0.0138889
        k(    7) = (   0.0000000   0.0962250   0.2075550), wk =   0.0138889
        k(    8) = (   0.0000000   0.0962250  -0.3113325), wk =   0.0069444
        k(    9) = (   0.0000000   0.1924501   0.0000000), wk =   0.0069444
        k(   10) = (   0.0000000   0.1924501   0.1037775), wk =   0.0138889
        k(   11) = (   0.0000000   0.1924501   0.2075550), wk =   0.0138889
        k(   12) = (   0.0000000   0.1924501  -0.3113325), wk =   0.0069444
        k(   13) = (   0.0000000   0.2886751   0.0000000), wk =   0.0069444
        k(   14) = (   0.0000000   0.2886751   0.1037775), wk =   0.0138889
        k(   15) = (   0.0000000   0.2886751   0.2075550), wk =   0.0138889
        k(   16) = (   0.0000000   0.2886751  -0.3113325), wk =   0.0069444
        k(   17) = (   0.0000000   0.3849002   0.0000000), wk =   0.0069444
        k(   18) = (   0.0000000   0.3849002   0.1037775), wk =   0.0138889
        k(   19) = (   0.0000000   0.3849002   0.2075550), wk =   0.0138889
        k(   20) = (   0.0000000   0.3849002  -0.3113325), wk =   0.0069444
        k(   21) = (   0.0000000   0.4811252   0.0000000), wk =   0.0069444
        k(   22) = (   0.0000000   0.4811252   0.1037775), wk =   0.0138889
        k(   23) = (   0.0000000   0.4811252   0.2075550), wk =   0.0138889
        k(   24) = (   0.0000000   0.4811252  -0.3113325), wk =   0.0069444
        k(   25) = (   0.0000000  -0.5773503   0.0000000), wk =   0.0034722
        k(   26) = (   0.0000000  -0.5773503   0.1037775), wk =   0.0069444
        k(   27) = (   0.0000000  -0.5773503   0.2075550), wk =   0.0069444
        k(   28) = (   0.0000000  -0.5773503  -0.3113325), wk =   0.0034722
        k(   29) = (   0.0833333   0.1443376   0.0000000), wk =   0.0069444
        k(   30) = (   0.0833333   0.1443376   0.1037775), wk =   0.0138889
        k(   31) = (   0.0833333   0.1443376   0.2075550), wk =   0.0138889
        k(   32) = (   0.0833333   0.1443376  -0.3113325), wk =   0.0069444
        k(   33) = (   0.0833333   0.2405626   0.0000000), wk =   0.0138889
        k(   34) = (   0.0833333   0.2405626   0.1037775), wk =   0.0277778
        k(   35) = (   0.0833333   0.2405626   0.2075550), wk =   0.0277778
        k(   36) = (   0.0833333   0.2405626  -0.3113325), wk =   0.0138889
        k(   37) = (   0.0833333   0.3367877   0.0000000), wk =   0.0138889
        k(   38) = (   0.0833333   0.3367877   0.1037775), wk =   0.0277778
        k(   39) = (   0.0833333   0.3367877   0.2075550), wk =   0.0277778
        k(   40) = (   0.0833333   0.3367877  -0.3113325), wk =   0.0138889
        k(   41) = (   0.0833333   0.4330127   0.0000000), wk =   0.0138889
        k(   42) = (   0.0833333   0.4330127   0.1037775), wk =   0.0277778
        k(   43) = (   0.0833333   0.4330127   0.2075550), wk =   0.0277778
        k(   44) = (   0.0833333   0.4330127  -0.3113325), wk =   0.0138889
        k(   45) = (   0.0833333   0.5292377   0.0000000), wk =   0.0138889
        k(   46) = (   0.0833333   0.5292377   0.1037775), wk =   0.0277778
        k(   47) = (   0.0833333   0.5292377   0.2075550), wk =   0.0277778
        k(   48) = (   0.0833333   0.5292377  -0.3113325), wk =   0.0138889
        k(   49) = (   0.1666667   0.2886751   0.0000000), wk =   0.0069444
        k(   50) = (   0.1666667   0.2886751   0.1037775), wk =   0.0138889
        k(   51) = (   0.1666667   0.2886751   0.2075550), wk =   0.0138889
        k(   52) = (   0.1666667   0.2886751  -0.3113325), wk =   0.0069444
        k(   53) = (   0.1666667   0.3849002   0.0000000), wk =   0.0138889
        k(   54) = (   0.1666667   0.3849002   0.1037775), wk =   0.0277778
        k(   55) = (   0.1666667   0.3849002   0.2075550), wk =   0.0277778
        k(   56) = (   0.1666667   0.3849002  -0.3113325), wk =   0.0138889
        k(   57) = (   0.1666667   0.4811252   0.0000000), wk =   0.0138889
        k(   58) = (   0.1666667   0.4811252   0.1037775), wk =   0.0277778
        k(   59) = (   0.1666667   0.4811252   0.2075550), wk =   0.0277778
        k(   60) = (   0.1666667   0.4811252  -0.3113325), wk =   0.0138889
        k(   61) = (   0.1666667   0.5773503   0.0000000), wk =   0.0069444
        k(   62) = (   0.1666667   0.5773503   0.1037775), wk =   0.0138889
        k(   63) = (   0.1666667   0.5773503   0.2075550), wk =   0.0138889
        k(   64) = (   0.1666667   0.5773503  -0.3113325), wk =   0.0069444
        k(   65) = (   0.2500000   0.4330127   0.0000000), wk =   0.0069444
        k(   66) = (   0.2500000   0.4330127   0.1037775), wk =   0.0138889
        k(   67) = (   0.2500000   0.4330127   0.2075550), wk =   0.0138889
        k(   68) = (   0.2500000   0.4330127  -0.3113325), wk =   0.0069444
        k(   69) = (   0.2500000   0.5292377   0.0000000), wk =   0.0138889
        k(   70) = (   0.2500000   0.5292377   0.1037775), wk =   0.0277778
        k(   71) = (   0.2500000   0.5292377   0.2075550), wk =   0.0277778
        k(   72) = (   0.2500000   0.5292377  -0.3113325), wk =   0.0138889
        k(   73) = (   0.3333333   0.5773503   0.0000000), wk =   0.0023148
        k(   74) = (   0.3333333   0.5773503   0.1037775), wk =   0.0046296
        k(   75) = (   0.3333333   0.5773503   0.2075550), wk =   0.0046296
        k(   76) = (   0.3333333   0.5773503  -0.3113325), wk =   0.0023148

                       cryst. coord.
        k(    1) = (   0.0000000   0.0000000   0.0000000), wk =   0.0011574
        k(    2) = (   0.0000000   0.0000000   0.1666667), wk =   0.0023148
        k(    3) = (   0.0000000   0.0000000   0.3333333), wk =   0.0023148
        k(    4) = (   0.0000000   0.0000000  -0.5000000), wk =   0.0011574
        k(    5) = (   0.0000000   0.0833333   0.0000000), wk =   0.0069444
        k(    6) = (   0.0000000   0.0833333   0.1666667), wk =   0.0138889
        k(    7) = (   0.0000000   0.0833333   0.3333333), wk =   0.0138889
        k(    8) = (   0.0000000   0.0833333  -0.5000000), wk =   0.0069444
        k(    9) = (   0.0000000   0.1666667   0.0000000), wk =   0.0069444
        k(   10) = (   0.0000000   0.1666667   0.1666667), wk =   0.0138889
        k(   11) = (   0.0000000   0.1666667   0.3333333), wk =   0.0138889
        k(   12) = (   0.0000000   0.1666667  -0.5000000), wk =   0.0069444
        k(   13) = (   0.0000000   0.2500000   0.0000000), wk =   0.0069444
        k(   14) = (   0.0000000   0.2500000   0.1666667), wk =   0.0138889
        k(   15) = (   0.0000000   0.2500000   0.3333333), wk =   0.0138889
        k(   16) = (   0.0000000   0.2500000  -0.5000000), wk =   0.0069444
        k(   17) = (   0.0000000   0.3333333   0.0000000), wk =   0.0069444
        k(   18) = (   0.0000000   0.3333333   0.1666667), wk =   0.0138889
        k(   19) = (   0.0000000   0.3333333   0.3333333), wk =   0.0138889
        k(   20) = (   0.0000000   0.3333333  -0.5000000), wk =   0.0069444
        k(   21) = (   0.0000000   0.4166667   0.0000000), wk =   0.0069444
        k(   22) = (   0.0000000   0.4166667   0.1666667), wk =   0.0138889
        k(   23) = (   0.0000000   0.4166667   0.3333333), wk =   0.0138889
        k(   24) = (   0.0000000   0.4166667  -0.5000000), wk =   0.0069444
        k(   25) = (   0.0000000  -0.5000000   0.0000000), wk =   0.0034722
        k(   26) = (   0.0000000  -0.5000000   0.1666667), wk =   0.0069444
        k(   27) = (   0.0000000  -0.5000000   0.3333333), wk =   0.0069444
        k(   28) = (   0.0000000  -0.5000000  -0.5000000), wk =   0.0034722
        k(   29) = (   0.0833333   0.0833333   0.0000000), wk =   0.0069444
        k(   30) = (   0.0833333   0.0833333   0.1666667), wk =   0.0138889
        k(   31) = (   0.0833333   0.0833333   0.3333333), wk =   0.0138889
        k(   32) = (   0.0833333   0.0833333  -0.5000000), wk =   0.0069444
        k(   33) = (   0.0833333   0.1666667   0.0000000), wk =   0.0138889
        k(   34) = (   0.0833333   0.1666667   0.1666667), wk =   0.0277778
        k(   35) = (   0.0833333   0.1666667   0.3333333), wk =   0.0277778
        k(   36) = (   0.0833333   0.1666667  -0.5000000), wk =   0.0138889
        k(   37) = (   0.0833333   0.2500000   0.0000000), wk =   0.0138889
        k(   38) = (   0.0833333   0.2500000   0.1666667), wk =   0.0277778
        k(   39) = (   0.0833333   0.2500000   0.3333333), wk =   0.0277778
        k(   40) = (   0.0833333   0.2500000  -0.5000000), wk =   0.0138889
        k(   41) = (   0.0833333   0.3333333   0.0000000), wk =   0.0138889
        k(   42) = (   0.0833333   0.3333333   0.1666667), wk =   0.0277778
        k(   43) = (   0.0833333   0.3333333   0.3333333), wk =   0.0277778
        k(   44) = (   0.0833333   0.3333333  -0.5000000), wk =   0.0138889
        k(   45) = (   0.0833333   0.4166667   0.0000000), wk =   0.0138889
        k(   46) = (   0.0833333   0.4166667   0.1666667), wk =   0.0277778
        k(   47) = (   0.0833333   0.4166667   0.3333333), wk =   0.0277778
        k(   48) = (   0.0833333   0.4166667  -0.5000000), wk =   0.0138889
        k(   49) = (   0.1666667   0.1666667   0.0000000), wk =   0.0069444
        k(   50) = (   0.1666667   0.1666667   0.1666667), wk =   0.0138889
        k(   51) = (   0.1666667   0.1666667   0.3333333), wk =   0.0138889
        k(   52) = (   0.1666667   0.1666667  -0.5000000), wk =   0.0069444
        k(   53) = (   0.1666667   0.2500000   0.0000000), wk =   0.0138889
        k(   54) = (   0.1666667   0.2500000   0.1666667), wk =   0.0277778
        k(   55) = (   0.1666667   0.2500000   0.3333333), wk =   0.0277778
        k(   56) = (   0.1666667   0.2500000  -0.5000000), wk =   0.0138889
        k(   57) = (   0.1666667   0.3333333   0.0000000), wk =   0.0138889
        k(   58) = (   0.1666667   0.3333333   0.1666667), wk =   0.0277778
        k(   59) = (   0.1666667   0.3333333   0.3333333), wk =   0.0277778
        k(   60) = (   0.1666667   0.3333333  -0.5000000), wk =   0.0138889
        k(   61) = (   0.1666667   0.4166667   0.0000000), wk =   0.0069444
        k(   62) = (   0.1666667   0.4166667   0.1666667), wk =   0.0138889
        k(   63) = (   0.1666667   0.4166667   0.3333333), wk =   0.0138889
        k(   64) = (   0.1666667   0.4166667  -0.5000000), wk =   0.0069444
        k(   65) = (   0.2500000   0.2500000   0.0000000), wk =   0.0069444
        k(   66) = (   0.2500000   0.2500000   0.1666667), wk =   0.0138889
        k(   67) = (   0.2500000   0.2500000   0.3333333), wk =   0.0138889
        k(   68) = (   0.2500000   0.2500000  -0.5000000), wk =   0.0069444
        k(   69) = (   0.2500000   0.3333333   0.0000000), wk =   0.0138889
        k(   70) = (   0.2500000   0.3333333   0.1666667), wk =   0.0277778
        k(   71) = (   0.2500000   0.3333333   0.3333333), wk =   0.0277778
        k(   72) = (   0.2500000   0.3333333  -0.5000000), wk =   0.0138889
        k(   73) = (   0.3333333   0.3333333   0.0000000), wk =   0.0023148
        k(   74) = (   0.3333333   0.3333333   0.1666667), wk =   0.0046296
        k(   75) = (   0.3333333   0.3333333   0.3333333), wk =   0.0046296
        k(   76) = (   0.3333333   0.3333333  -0.5000000), wk =   0.0023148

     Dense  grid:    23595 G-vectors     FFT dimensions: (  32,  32,  54)

     Smooth grid:    22959 G-vectors     FFT dimensions: (  32,  32,  54)

     Dynamical RAM for                 wfc:       0.07 MB

     Dynamical RAM for     wfc (w. buffer):       5.03 MB

     Dynamical RAM for           str. fact:       0.03 MB

     Dynamical RAM for           local pot:       0.00 MB

     Dynamical RAM for          nlocal pot:       0.11 MB

     Dynamical RAM for                qrad:       1.70 MB

     Dynamical RAM for          rho,v,vnew:       0.34 MB

     Dynamical RAM for               rhoin:       0.11 MB

     Dynamical RAM for            rho*nmix:       0.82 MB

     Dynamical RAM for           G-vectors:       0.11 MB

     Dynamical RAM for          h,s,v(r/c):       0.08 MB

     Dynamical RAM for          <psi|beta>:       0.01 MB

     Dynamical RAM for                 psi:       0.13 MB

     Dynamical RAM for                hpsi:       0.13 MB

     Dynamical RAM for                spsi:       0.13 MB

     Dynamical RAM for      wfcinit/wfcrot:       0.14 MB

     Dynamical RAM for           addusdens:       2.46 MB

     Estimated static dynamical RAM per process >       7.68 MB

     Estimated max dynamical RAM per process >      10.96 MB

     Estimated total dynamical RAM >     295.28 MB

     Check: negative core charge=   -0.000043
     Generating pointlists ...
     new r_m :   0.4080 (alat units)  1.9274 (a.u.) for type    1

     The initial density is read from file :
     ./out2/Co.save/charge-density


     starting charge      34.0424, renormalised to      34.0000

     negative rho (up, down):  2.932E-01 2.565E-01
     Starting wfcs from file
     Checking if some PAW data can be deallocated... 

     total cpu time spent up to now is        0.6 secs

     Self-consistent Calculation

     iteration #  1     ecut=   110.00 Ry     beta= 0.70
     Davidson diagonalization with overlap

---- Real-time Memory Report at c_bands before calling an iterative solver
            58 MiB given to the printing process from OS
             0 MiB allocation reported by mallinfo(arena+hblkhd)
        181356 MiB available memory on the node where the printing process lives
------------------
     ethr =  1.00E-05,  avg # of iterations = 12.7

     negative rho (up, down):  8.658E-03 5.937E-03

     total cpu time spent up to now is        3.9 secs

     total energy              =    -753.28220164 Ry
     estimated scf accuracy    <       0.13360352 Ry

     total magnetization       =     3.36 Bohr mag/cell
     absolute magnetization    =     3.67 Bohr mag/cell

     iteration #  2     ecut=   110.00 Ry     beta= 0.70
     Davidson diagonalization with overlap

---- Real-time Memory Report at c_bands before calling an iterative solver
            81 MiB given to the printing process from OS
             0 MiB allocation reported by mallinfo(arena+hblkhd)
        181046 MiB available memory on the node where the printing process lives
------------------
     ethr =  3.93E-04,  avg # of iterations =  3.1

     negative rho (up, down):  1.117E-03 5.622E-04

     total cpu time spent up to now is        4.8 secs

     total energy              =    -753.34010930 Ry
     estimated scf accuracy    <       0.07766909 Ry

     total magnetization       =     3.24 Bohr mag/cell
     absolute magnetization    =     3.51 Bohr mag/cell

     iteration #  3     ecut=   110.00 Ry     beta= 0.70
     Davidson diagonalization with overlap

---- Real-time Memory Report at c_bands before calling an iterative solver
            87 MiB given to the printing process from OS
             0 MiB allocation reported by mallinfo(arena+hblkhd)
        181020 MiB available memory on the node where the printing process lives
------------------
     ethr =  2.28E-04,  avg # of iterations =  3.3

     total cpu time spent up to now is        5.8 secs

     total energy              =    -753.45344734 Ry
     estimated scf accuracy    <       0.02307282 Ry

     total magnetization       =     3.31 Bohr mag/cell
     absolute magnetization    =     3.60 Bohr mag/cell

     iteration #  4     ecut=   110.00 Ry     beta= 0.70
     Davidson diagonalization with overlap

---- Real-time Memory Report at c_bands before calling an iterative solver
            87 MiB given to the printing process from OS
             0 MiB allocation reported by mallinfo(arena+hblkhd)
        181011 MiB available memory on the node where the printing process lives
------------------
     ethr =  6.79E-05,  avg # of iterations =  2.7

     total cpu time spent up to now is        6.7 secs

     total energy              =    -753.45222293 Ry
     estimated scf accuracy    <       0.00942190 Ry

     total magnetization       =     3.31 Bohr mag/cell
     absolute magnetization    =     3.62 Bohr mag/cell

     iteration #  5     ecut=   110.00 Ry     beta= 0.70
     Davidson diagonalization with overlap

---- Real-time Memory Report at c_bands before calling an iterative solver
            88 MiB given to the printing process from OS
             0 MiB allocation reported by mallinfo(arena+hblkhd)
        181002 MiB available memory on the node where the printing process lives
------------------
     ethr =  2.77E-05,  avg # of iterations =  3.8

     total cpu time spent up to now is        7.7 secs

     total energy              =    -753.45477274 Ry
     estimated scf accuracy    <       0.00004696 Ry

     total magnetization       =     3.31 Bohr mag/cell
     absolute magnetization    =     3.62 Bohr mag/cell

     iteration #  6     ecut=   110.00 Ry     beta= 0.70
     Davidson diagonalization with overlap

---- Real-time Memory Report at c_bands before calling an iterative solver
            88 MiB given to the printing process from OS
             0 MiB allocation reported by mallinfo(arena+hblkhd)
        180996 MiB available memory on the node where the printing process lives
------------------
     ethr =  1.38E-07,  avg # of iterations =  9.0

     total cpu time spent up to now is        9.8 secs

     total energy              =    -753.45513081 Ry
     estimated scf accuracy    <       0.00019574 Ry

     total magnetization       =     3.31 Bohr mag/cell
     absolute magnetization    =     3.62 Bohr mag/cell

     iteration #  7     ecut=   110.00 Ry     beta= 0.70
     Davidson diagonalization with overlap

---- Real-time Memory Report at c_bands before calling an iterative solver
            89 MiB given to the printing process from OS
             0 MiB allocation reported by mallinfo(arena+hblkhd)
        180991 MiB available memory on the node where the printing process lives
------------------
     ethr =  1.38E-07,  avg # of iterations =  4.0

     total cpu time spent up to now is       10.8 secs

     total energy              =    -753.45515652 Ry
     estimated scf accuracy    <       0.00002006 Ry

     total magnetization       =     3.31 Bohr mag/cell
     absolute magnetization    =     3.63 Bohr mag/cell

     iteration #  8     ecut=   110.00 Ry     beta= 0.70
     Davidson diagonalization with overlap

---- Real-time Memory Report at c_bands before calling an iterative solver
            89 MiB given to the printing process from OS
             0 MiB allocation reported by mallinfo(arena+hblkhd)
        180984 MiB available memory on the node where the printing process lives
------------------
     ethr =  5.90E-08,  avg # of iterations =  4.2

     total cpu time spent up to now is       12.0 secs

     total energy              =    -753.45517282 Ry
     estimated scf accuracy    <       0.00000890 Ry

     total magnetization       =     3.31 Bohr mag/cell
     absolute magnetization    =     3.63 Bohr mag/cell

     iteration #  9     ecut=   110.00 Ry     beta= 0.70
     Davidson diagonalization with overlap

---- Real-time Memory Report at c_bands before calling an iterative solver
            89 MiB given to the printing process from OS
             0 MiB allocation reported by mallinfo(arena+hblkhd)
        180982 MiB available memory on the node where the printing process lives
------------------
     ethr =  2.62E-08,  avg # of iterations =  4.0

     total cpu time spent up to now is       13.2 secs

     total energy              =    -753.45516773 Ry
     estimated scf accuracy    <       0.00004261 Ry

     total magnetization       =     3.31 Bohr mag/cell
     absolute magnetization    =     3.63 Bohr mag/cell

     iteration # 10     ecut=   110.00 Ry     beta= 0.70
     Davidson diagonalization with overlap

---- Real-time Memory Report at c_bands before calling an iterative solver
            90 MiB given to the printing process from OS
             0 MiB allocation reported by mallinfo(arena+hblkhd)
        180994 MiB available memory on the node where the printing process lives
------------------
     ethr =  2.62E-08,  avg # of iterations =  2.2

     total cpu time spent up to now is       14.0 secs

     total energy              =    -753.45516538 Ry
     estimated scf accuracy    <       0.00001520 Ry

     total magnetization       =     3.31 Bohr mag/cell
     absolute magnetization    =     3.63 Bohr mag/cell

     iteration # 11     ecut=   110.00 Ry     beta= 0.70
     Davidson diagonalization with overlap

---- Real-time Memory Report at c_bands before calling an iterative solver
            90 MiB given to the printing process from OS
             0 MiB allocation reported by mallinfo(arena+hblkhd)
        180996 MiB available memory on the node where the printing process lives
------------------
     ethr =  2.62E-08,  avg # of iterations =  3.1

     total cpu time spent up to now is       14.9 secs

     total energy              =    -753.45516614 Ry
     estimated scf accuracy    <       0.00000210 Ry

     total magnetization       =     3.31 Bohr mag/cell
     absolute magnetization    =     3.63 Bohr mag/cell

     iteration # 12     ecut=   110.00 Ry     beta= 0.70
     Davidson diagonalization with overlap

---- Real-time Memory Report at c_bands before calling an iterative solver
            90 MiB given to the printing process from OS
             0 MiB allocation reported by mallinfo(arena+hblkhd)
        180994 MiB available memory on the node where the printing process lives
------------------
     ethr =  6.18E-09,  avg # of iterations =  4.2
 
     Magnetic moment per site  (integrated on atomic sphere of radius R)
     atom   1 (R=0.408)  charge= 15.5748  magn=  1.7282
     atom   2 (R=0.408)  charge= 15.5748  magn=  1.7282

     total cpu time spent up to now is       16.0 secs

     End of self-consistent calculation

 ------ SPIN UP ------------


          k = 0.0000 0.0000 0.0000 (  2863 PWs)   bands (ev):

   -77.4775 -77.4197 -40.8770 -40.5932 -40.5932 -40.5455 -40.5440 -40.5440
     9.6617  13.4678  16.0246  16.0246  16.0329  16.3454  16.3454  16.6622
    16.6622  17.7941  17.7941  18.4914  25.0317

     occupation numbers 
     1.0000   1.0000   1.0000   1.0000   1.0000   1.0000   1.0000   1.0000
     1.0000   1.0000   1.0000   1.0000   1.0000   1.0000   1.0000   1.0000
     1.0000   1.0000   1.0000   1.0000   0.0000

          k = 0.0000 0.0000 0.1038 (  2833 PWs)   bands (ev):

   -77.4736 -77.4236 -40.8551 -40.5899 -40.5899 -40.5680 -40.5473 -40.5473
     9.9415  13.4031  15.9538  15.9538  15.9598  16.2680  16.2680  16.8340
    16.8340  17.5152  17.7791  17.7791  26.5745

     occupation numbers 
     1.0000   1.0000   1.0000   1.0000   1.0000   1.0000   1.0000   1.0000
     1.0000   1.0000   1.0000   1.0000   1.0000   1.0000   1.0000   1.0000
     1.0000   1.0000   1.0000   1.0000   0.0000

          k = 0.0000 0.0000 0.2076 (  2863 PWs)   bands (ev):

   -77.4631 -77.4342 -40.7951 -40.6293 -40.5809 -40.5809 -40.5563 -40.5563
    10.7437  12.9762  15.7901  15.8944  15.8944  16.0981  16.0981  16.1673
    17.1672  17.1672  17.6922  17.6922  29.8231

     occupation numbers 
     1.0000   1.0000   1.0000   1.0000   1.0000   1.0000   1.0000   1.0000
     1.0000   1.0000   1.0000   1.0000   1.0000   1.0000   1.0000   1.0000
     1.0000   1.0000   1.0000   1.0000   0.0000

          k = 0.0000 0.0000-0.3113 (  2858 PWs)   bands (ev):

   -77.4486 -77.4486 -40.7125 -40.7125 -40.5686 -40.5686 -40.5686 -40.5686
    11.9110  11.9110  15.7064  15.7064  15.9477  15.9477  15.9477  15.9477
    17.4824  17.4824  17.4824  17.4824  33.6913

     occupation numbers 
     1.0000   1.0000   1.0000   1.0000   1.0000   1.0000   1.0000   1.0000
     1.0000   1.0000   1.0000   1.0000   1.0000   1.0000   1.0000   1.0000
     1.0000   1.0000   1.0000   1.0000   0.0000

          k = 0.0000 0.0962 0.0000 (  2841 PWs)   bands (ev):

   -77.4744 -77.4184 -40.8699 -40.6083 -40.5982 -40.5596 -40.5486 -40.5464
     9.9018  13.6102  15.7941  16.1372  16.2234  16.3018  16.4446  16.5138
    16.5911  17.0161  17.8251  19.5846  25.0716

     occupation numbers 
     1.0000   1.0000   1.0000   1.0000   1.0000   1.0000   1.0000   1.0000
     1.0000   1.0000   1.0000   1.0000   1.0000   1.0000   1.0000   1.0000
     1.0000   1.0000   1.0000   0.0000   0.0000

          k = 0.0000 0.0962 0.1038 (  2846 PWs)   bands (ev):

   -77.4706 -77.4221 -40.8493 -40.6045 -40.5948 -40.5794 -40.5539 -40.5499
    10.1774  13.5602  15.7892  16.0408  16.0484  16.1172  16.3609  16.6817
    16.7915  16.8977  17.8026  18.7840  26.6828

     occupation numbers 
     1.0000   1.0000   1.0000   1.0000   1.0000   1.0000   1.0000   1.0000
     1.0000   1.0000   1.0000   1.0000   1.0000   1.0000   1.0000   1.0000
     1.0000   1.0000   1.0000   0.0000   0.0000

          k = 0.0000 0.0962 0.2076 (  2846 PWs)   bands (ev):

   -77.4604 -77.4324 -40.7927 -40.6367 -40.5938 -40.5853 -40.5649 -40.5594
    10.9669  13.1625  15.6882  15.7593  15.8264  15.9825  16.1901  16.2838
    17.1426  17.1905  17.6987  17.9956  29.9746

     occupation numbers 
     1.0000   1.0000   1.0000   1.0000   1.0000   1.0000   1.0000   1.0000
     1.0000   1.0000   1.0000   1.0000   1.0000   1.0000   1.0000   1.0000
     1.0000   1.0000   1.0000   1.0000   0.0000

          k = 0.0000 0.0962-0.3113 (  2848 PWs)   bands (ev):

   -77.4464 -77.4464 -40.7149 -40.7149 -40.5794 -40.5794 -40.5723 -40.5723
    12.1157  12.1157  15.5459  15.5459  15.9758  15.9758  16.0377  16.0377
    17.4718  17.4718  17.5759  17.5759  33.8560

     occupation numbers 
     1.0000   1.0000   1.0000   1.0000   1.0000   1.0000   1.0000   1.0000
     1.0000   1.0000   1.0000   1.0000   1.0000   1.0000   1.0000   1.0000
     1.0000   1.0000   1.0000   1.0000   0.0000

          k = 0.0000 0.1925 0.0000 (  2843 PWs)   bands (ev):

   -77.4657 -77.4148 -40.8498 -40.6496 -40.6116 -40.6021 -40.5579 -40.5534
    10.5968  13.9622  15.5146  15.8151  16.1339  16.4156  16.4554  16.5281
    16.6386  16.7227  17.8916  21.1704  25.2117

     occupation numbers 
     1.0000   1.0000   1.0000   1.0000   1.0000   1.0000   1.0000   1.0000
     1.0000   1.0000   1.0000   1.0000   1.0000   1.0000   1.0000   1.0000
     1.0000   1.0000   1.0000   0.0000   0.0000

          k = 0.0000 0.1925 0.1038 (  2844 PWs)   bands (ev):

   -77.4623 -77.4183 -40.8333 -40.6440 -40.6181 -40.6077 -40.5644 -40.5573
    10.8562  13.9574  15.5341  15.5593  16.0162  16.2479  16.4072  16.6020
    16.7791  16.8879  17.8521  20.0188  27.0340

     occupation numbers 
     1.0000   1.0000   1.0000   1.0000   1.0000   1.0000   1.0000   1.0000
     1.0000   1.0000   1.0000   1.0000   1.0000   1.0000   1.0000   1.0000
     1.0000   1.0000   1.0000   0.0000   0.0000

          k = 0.0000 0.1925 0.2076 (  2841 PWs)   bands (ev):

   -77.4530 -77.4276 -40.7883 -40.6648 -40.6262 -40.5971 -40.5813 -40.5680
    11.5964  13.6461  15.1896  15.6057  15.7369  16.1968  16.2229  16.4457
    17.1181  17.2868  17.7126  18.6474  30.4265

     occupation numbers 
     1.0000   1.0000   1.0000   1.0000   1.0000   1.0000   1.0000   1.0000
     1.0000   1.0000   1.0000   1.0000   1.0000   1.0000   1.0000   1.0000
     1.0000   1.0000   1.0000   0.0000   0.0000

          k = 0.0000 0.1925-0.3113 (  2856 PWs)   bands (ev):

   -77.4403 -77.4403 -40.7265 -40.7265 -40.6040 -40.6040 -40.5825 -40.5825
    12.6667  12.6667  15.3060  15.3060  15.9269  15.9269  16.2778  16.2778
    17.4567  17.4567  17.8268  17.8268  34.2962

     occupation numbers 
     1.0000   1.0000   1.0000   1.0000   1.0000   1.0000   1.0000   1.0000
     1.0000   1.0000   1.0000   1.0000   1.0000   1.0000   1.0000   1.0000
     1.0000   1.0000   1.0000   1.0000   0.0000

          k = 0.0000 0.2887 0.0000 (  2852 PWs)   bands (ev):

   -77.4535 -77.4105 -40.8194 -40.7065 -40.6591 -40.6294 -40.5734 -40.5634
    11.6499  14.2475  15.0950  15.3385  16.0460  16.2046  16.4442  16.9166
    16.9499  17.1225  17.9552  22.9586  25.4785

     occupation numbers 
     1.0000   1.0000   1.0000   1.0000   1.0000   1.0000   1.0000   1.0000
     1.0000   1.0000   1.0000   1.0000   1.0000   1.0000   1.0000   1.0000
     1.0000   1.0000   1.0000   0.0000   0.0000

          k = 0.0000 0.2887 0.1038 (  2850 PWs)   bands (ev):

   -77.4506 -77.4134 -40.8127 -40.6958 -40.6727 -40.6250 -40.5774 -40.5678
    11.8667  14.2968  14.9480  15.3898  15.8913  16.2421  16.4504  16.9637
    17.0681  17.0750  17.8997  21.3014  27.6576

     occupation numbers 
     1.0000   1.0000   1.0000   1.0000   1.0000   1.0000   1.0000   1.0000
     1.0000   1.0000   1.0000   1.0000   1.0000   1.0000   1.0000   1.0000
     1.0000   1.0000   1.0000   0.0000   0.0000

          k = 0.0000 0.2887 0.2076 (  2857 PWs)   bands (ev):

   -77.4428 -77.4213 -40.7912 -40.7141 -40.6600 -40.6130 -40.5938 -40.5800
    12.4702  14.0788  14.8518  15.4349  15.7473  16.2880  16.3634  16.8080
    17.2348  17.4528  17.7378  19.4263  31.0093

     occupation numbers 
     1.0000   1.0000   1.0000   1.0000   1.0000   1.0000   1.0000   1.0000
     1.0000   1.0000   1.0000   1.0000   1.0000   1.0000   1.0000   1.0000
     1.0000   1.0000   1.0000   0.0000   0.0000

          k = 0.0000 0.2887-0.3113 (  2862 PWs)   bands (ev):

   -77.4320 -77.4320 -40.7559 -40.7559 -40.6238 -40.6238 -40.5965 -40.5965
    13.3049  13.3049  15.1531  15.1531  15.9824  15.9824  16.5666  16.5666
    17.4963  17.4963  18.1765  18.1765  32.9422

     occupation numbers 
     1.0000   1.0000   1.0000   1.0000   1.0000   1.0000   1.0000   1.0000
     1.0000   1.0000   1.0000   1.0000   1.0000   1.0000   1.0000   1.0000
     1.0000   1.0000   1.0000   1.0000   0.0000

          k = 0.0000 0.3849 0.0000 (  2850 PWs)   bands (ev):

   -77.4403 -77.4071 -40.7839 -40.7640 -40.7151 -40.6467 -40.5941 -40.5738
    12.8065  14.1865  14.5703  15.4357  16.0147  16.1672  16.2742  17.4077
    17.5566  17.6206  17.9995  24.9063  25.4871

     occupation numbers 
     1.0000   1.0000   1.0000   1.0000   1.0000   1.0000   1.0000   1.0000
     1.0000   1.0000   1.0000   1.0000   1.0000   1.0000   1.0000   1.0000
     1.0000   1.0000   1.0000   0.0000   0.0000

          k = 0.0000 0.3849 0.1038 (  2858 PWs)   bands (ev):

   -77.4381 -77.4093 -40.8052 -40.7390 -40.7186 -40.6419 -40.5942 -40.5787
    12.9103  14.2266  14.5980  15.3087  16.0736  16.1077  16.6122  17.4317
    17.4621  17.5573  17.9414  22.5371  27.5474

     occupation numbers 
     1.0000   1.0000   1.0000   1.0000   1.0000   1.0000   1.0000   1.0000
     1.0000   1.0000   1.0000   1.0000   1.0000   1.0000   1.0000   1.0000
     1.0000   1.0000   1.0000   0.0000   0.0000

          k = 0.0000 0.3849 0.2076 (  2856 PWs)   bands (ev):

   -77.4320 -77.4154 -40.8127 -40.7672 -40.6737 -40.6286 -40.6035 -40.5921
    13.1993  14.0555  14.7314  15.2490  16.1548  16.3702  16.8971  17.1512
    17.5379  17.6803  17.8139  20.3127  28.6057

     occupation numbers 
     1.0000   1.0000   1.0000   1.0000   1.0000   1.0000   1.0000   1.0000
     1.0000   1.0000   1.0000   1.0000   1.0000   1.0000   1.0000   1.0000
     1.0000   1.0000   1.0000   0.0000   0.0000

          k = 0.0000 0.3849-0.3113 (  2864 PWs)   bands (ev):

   -77.4237 -77.4237 -40.7979 -40.7979 -40.6307 -40.6307 -40.6104 -40.6104
    13.6170  13.6170  15.0342  15.0342  16.5664  16.5664  16.7494  16.7494
    17.6700  17.6700  18.6569  18.6569  29.7388

     occupation numbers 
     1.0000   1.0000   1.0000   1.0000   1.0000   1.0000   1.0000   1.0000
     1.0000   1.0000   1.0000   1.0000   1.0000   1.0000   1.0000   1.0000
     1.0000   1.0000   0.0000   0.0000   0.0000

          k = 0.0000 0.4811 0.0000 (  2862 PWs)   bands (ev):

   -77.4294 -77.4058 -40.8063 -40.7554 -40.7509 -40.6592 -40.6161 -40.5816
    13.5817  14.0021  14.2558  15.7841  15.8850  16.1545  16.3662  17.7742
    17.9170  18.0235  18.7116  23.5673  26.9147

     occupation numbers 
     1.0000   1.0000   1.0000   1.0000   1.0000   1.0000   1.0000   1.0000
     1.0000   1.0000   1.0000   1.0000   1.0000   1.0000   1.0000   1.0000
     1.0000   1.0000   0.0000   0.0000   0.0000

          k = 0.0000 0.4811 0.1038 (  2866 PWs)   bands (ev):

   -77.4278 -77.4074 -40.8255 -40.7734 -40.7179 -40.6540 -40.6119 -40.5869
    13.4786  14.0054  14.5649  15.2095  15.9993  16.3565  16.9548  17.7305
    17.8170  18.0023  18.5520  22.8177  26.1613

     occupation numbers 
     1.0000   1.0000   1.0000   1.0000   1.0000   1.0000   1.0000   1.0000
     1.0000   1.0000   1.0000   1.0000   1.0000   1.0000   1.0000   1.0000
     1.0000   1.0000   1.0000   0.0000   0.0000

          k = 0.0000 0.4811 0.2076 (  2855 PWs)   bands (ev):

   -77.4235 -77.4117 -40.8403 -40.8063 -40.6695 -40.6399 -40.6123 -40.6011
    13.4532  13.9375  14.7205  15.0616  16.3240  16.5842  17.3247  17.8439
    17.9131  17.9581  18.2323  21.1198  26.2670

     occupation numbers 
     1.0000   1.0000   1.0000   1.0000   1.0000   1.0000   1.0000   1.0000
     1.0000   1.0000   1.0000   1.0000   1.0000   1.0000   1.0000   1.0000
     1.0000   1.0000   1.0000   0.0000   0.0000

          k = 0.0000 0.4811-0.3113 (  2866 PWs)   bands (ev):

   -77.4176 -77.4176 -40.8330 -40.8330 -40.6312 -40.6312 -40.6205 -40.6205
    13.6423  13.6423  14.9170  14.9170  16.8008  16.8008  17.2892  17.2892
    17.9005  17.9005  19.4674  19.4674  27.0503

     occupation numbers 
     1.0000   1.0000   1.0000   1.0000   1.0000   1.0000   1.0000   1.0000
     1.0000   1.0000   1.0000   1.0000   1.0000   1.0000   1.0000   1.0000
     1.0000   1.0000   0.0000   0.0000   0.0000

          k = 0.0000-0.5774 0.0000 (  2870 PWs)   bands (ev):

   -77.4249 -77.4059 -40.8219 -40.7700 -40.7354 -40.6637 -40.6276 -40.5845
    13.8548  13.8554  14.1513  15.8392  16.0262  16.1113  16.4431  17.9065
    18.0309  18.0630  19.8509  21.8445  28.2145

     occupation numbers 
     1.0000   1.0000   1.0000   1.0000   1.0000   1.0000   1.0000   1.0000
     1.0000   1.0000   1.0000   1.0000   1.0000   1.0000   1.0000   1.0000
     1.0000   1.0000   0.0000   0.0000   0.0000

          k = 0.0000-0.5774 0.1038 (  2850 PWs)   bands (ev):

   -77.4236 -77.4072 -40.8374 -40.7872 -40.7092 -40.6584 -40.6210 -40.5899
    13.5857  13.9084  14.6019  15.1829  15.9596  16.4456  17.1499  17.8021
    17.9661  18.0550  19.6457  21.6738  27.3145

     occupation numbers 
     1.0000   1.0000   1.0000   1.0000   1.0000   1.0000   1.0000   1.0000
     1.0000   1.0000   1.0000   1.0000   1.0000   1.0000   1.0000   1.0000
     1.0000   1.0000   0.0000   0.0000   0.0000

          k = 0.0000-0.5774 0.2076 (  2866 PWs)   bands (ev):

   -77.4201 -77.4107 -40.8522 -40.8206 -40.6650 -40.6440 -40.6167 -40.6044
    13.4760  13.8916  14.7439  14.9767  16.3020  16.7295  17.3636  17.9739
    18.0282  18.0329  19.3245  21.0915  26.2078

     occupation numbers 
     1.0000   1.0000   1.0000   1.0000   1.0000   1.0000   1.0000   1.0000
     1.0000   1.0000   1.0000   1.0000   1.0000   1.0000   1.0000   1.0000
     1.0000   1.0000   0.0000   0.0000   0.0000

          k = 0.0000-0.5774-0.3113 (  2876 PWs)   bands (ev):

   -77.4154 -77.4154 -40.8463 -40.8463 -40.6309 -40.6309 -40.6242 -40.6242
    13.6258  13.6258  14.8704  14.8704  16.8067  16.8067  17.5349  17.5349
    18.0028  18.0028  20.1023  20.1023  25.8090

     occupation numbers 
     1.0000   1.0000   1.0000   1.0000   1.0000   1.0000   1.0000   1.0000
     1.0000   1.0000   1.0000   1.0000   1.0000   1.0000   1.0000   1.0000
     1.0000   1.0000   0.0000   0.0000   0.0000

          k = 0.0833 0.1443 0.0000 (  2842 PWs)   bands (ev):

   -77.4685 -77.4159 -40.8563 -40.6339 -40.6134 -40.5834 -40.5548 -40.5531
    10.3702  13.8629  15.5746  16.0585  16.1973  16.3673  16.3828  16.3919
    16.6644  16.7537  17.8645  20.7256  25.1636

     occupation numbers 
     1.0000   1.0000   1.0000   1.0000   1.0000   1.0000   1.0000   1.0000
     1.0000   1.0000   1.0000   1.0000   1.0000   1.0000   1.0000   1.0000
     1.0000   1.0000   1.0000   0.0000   0.0000

          k = 0.0833 0.1443 0.1038 (  2846 PWs)   bands (ev):

   -77.4650 -77.4195 -40.8384 -40.6288 -40.6140 -40.5970 -40.5604 -40.5568
    10.6358  13.8435  15.5984  15.7248  16.0584  16.2148  16.3795  16.5203
    16.8129  16.8617  17.8332  19.6839  26.9146

     occupation numbers 
     1.0000   1.0000   1.0000   1.0000   1.0000   1.0000   1.0000   1.0000
     1.0000   1.0000   1.0000   1.0000   1.0000   1.0000   1.0000   1.0000
     1.0000   1.0000   1.0000   0.0000   0.0000

          k = 0.0833 0.1443 0.2076 (  2841 PWs)   bands (ev):

   -77.4554 -77.4291 -40.7892 -40.6546 -40.6149 -40.5963 -40.5742 -40.5669
    11.3950  13.5039  15.3143  15.6532  15.7491  16.1377  16.2336  16.3655
    17.1477  17.2292  17.7123  18.4585  30.2793

     occupation numbers 
     1.0000   1.0000   1.0000   1.0000   1.0000   1.0000   1.0000   1.0000
     1.0000   1.0000   1.0000   1.0000   1.0000   1.0000   1.0000   1.0000
     1.0000   1.0000   1.0000   1.0000   0.0000

          k = 0.0833 0.1443-0.3113 (  2854 PWs)   bands (ev):

   -77.4423 -77.4423 -40.7218 -40.7218 -40.5969 -40.5969 -40.5796 -40.5796
    12.4970  12.4970  15.3657  15.3657  15.9264  15.9264  16.2151  16.2151
    17.4623  17.4623  17.7483  17.7483  34.1718

     occupation numbers 
     1.0000   1.0000   1.0000   1.0000   1.0000   1.0000   1.0000   1.0000
     1.0000   1.0000   1.0000   1.0000   1.0000   1.0000   1.0000   1.0000
     1.0000   1.0000   1.0000   1.0000   0.0000

          k = 0.0833 0.2406 0.0000 (  2848 PWs)   bands (ev):

   -77.4581 -77.4120 -40.8310 -40.6793 -40.6502 -40.6126 -40.5673 -40.5646
    11.2524  14.2238  15.2986  15.3601  16.0823  16.1708  16.6003  16.6344
    16.7867  17.0751  17.9136  22.3133  25.3890

     occupation numbers 
     1.0000   1.0000   1.0000   1.0000   1.0000   1.0000   1.0000   1.0000
     1.0000   1.0000   1.0000   1.0000   1.0000   1.0000   1.0000   1.0000
     1.0000   1.0000   1.0000   0.0000   0.0000

          k = 0.0833 0.2406 0.1038 (  2850 PWs)   bands (ev):

   -77.4550 -77.4151 -40.8196 -40.6716 -40.6575 -40.6170 -40.5719 -40.5677
    11.4905  14.2637  15.1467  15.3475  15.9560  16.2135  16.4063  16.7364
    16.9876  17.0619  17.8757  20.8597  27.4250

     occupation numbers 
     1.0000   1.0000   1.0000   1.0000   1.0000   1.0000   1.0000   1.0000
     1.0000   1.0000   1.0000   1.0000   1.0000   1.0000   1.0000   1.0000
     1.0000   1.0000   1.0000   0.0000   0.0000

          k = 0.0833 0.2406 0.2076 (  2853 PWs)   bands (ev):

   -77.4466 -77.4236 -40.7876 -40.6940 -40.6462 -40.6139 -40.5856 -40.5786
    12.1633  14.0188  14.9346  15.4513  15.6965  16.1186  16.3431  16.6795
    17.2366  17.3618  17.7528  19.1556  30.8697

     occupation numbers 
     1.0000   1.0000   1.0000   1.0000   1.0000   1.0000   1.0000   1.0000
     1.0000   1.0000   1.0000   1.0000   1.0000   1.0000   1.0000   1.0000
     1.0000   1.0000   1.0000   0.0000   0.0000

          k = 0.0833 0.2406-0.3113 (  2862 PWs)   bands (ev):

   -77.4351 -77.4351 -40.7419 -40.7419 -40.6192 -40.6192 -40.5920 -40.5920
    13.1206  13.1206  15.2047  15.2047  15.8259  15.8259  16.4908  16.4908
    17.5050  17.5050  18.0510  18.0510  34.4130

     occupation numbers 
     1.0000   1.0000   1.0000   1.0000   1.0000   1.0000   1.0000   1.0000
     1.0000   1.0000   1.0000   1.0000   1.0000   1.0000   1.0000   1.0000
     1.0000   1.0000   1.0000   1.0000   0.0000

          k = 0.0833 0.3368 0.0000 (  2855 PWs)   bands (ev):

   -77.4453 -77.4082 -40.7978 -40.7351 -40.6970 -40.6390 -40.5856 -40.5771
    12.3925  14.3474  14.7854  15.2167  15.9845  16.0968  16.4105  17.0284
    17.2844  17.6324  17.9554  24.1432  25.7169

     occupation numbers 
     1.0000   1.0000   1.0000   1.0000   1.0000   1.0000   1.0000   1.0000
     1.0000   1.0000   1.0000   1.0000   1.0000   1.0000   1.0000   1.0000
     1.0000   1.0000   1.0000   0.0000   0.0000

          k = 0.0833 0.3368 0.1038 (  2854 PWs)   bands (ev):

   -77.4428 -77.4107 -40.8024 -40.7214 -40.7018 -40.6385 -40.5883 -40.5792
    12.5604  14.4200  14.6876  15.2682  15.8704  16.2123  16.3931  17.0461
    17.3784  17.5030  17.9558  22.1233  28.1173

     occupation numbers 
     1.0000   1.0000   1.0000   1.0000   1.0000   1.0000   1.0000   1.0000
     1.0000   1.0000   1.0000   1.0000   1.0000   1.0000   1.0000   1.0000
     1.0000   1.0000   1.0000   0.0000   0.0000

          k = 0.0833 0.3368 0.2076 (  2854 PWs)   bands (ev):

   -77.4360 -77.4175 -40.7988 -40.7445 -40.6693 -40.6308 -40.6004 -40.5881
    13.0144  14.1970  14.7809  15.3585  15.7738  16.2471  16.4262  17.0110
    17.4646  17.6268  17.9146  20.0133  30.2419

     occupation numbers 
     1.0000   1.0000   1.0000   1.0000   1.0000   1.0000   1.0000   1.0000
     1.0000   1.0000   1.0000   1.0000   1.0000   1.0000   1.0000   1.0000
     1.0000   1.0000   1.0000   0.0000   0.0000

          k = 0.0833 0.3368-0.3113 (  2858 PWs)   bands (ev):

   -77.4268 -77.4268 -40.7775 -40.7775 -40.6341 -40.6341 -40.6044 -40.6044
    13.6190  13.6190  15.1313  15.1313  15.9888  15.9888  16.6904  16.6904
    17.6945  17.6945  18.5098  18.5098  31.4405

     occupation numbers 
     1.0000   1.0000   1.0000   1.0000   1.0000   1.0000   1.0000   1.0000
     1.0000   1.0000   1.0000   1.0000   1.0000   1.0000   1.0000   1.0000
     1.0000   1.0000   1.0000   1.0000   0.0000

          k = 0.0833 0.4330 0.0000 (  2858 PWs)   bands (ev):

   -77.4331 -77.4060 -40.7847 -40.7625 -40.7384 -40.6593 -40.6080 -40.5877
    13.4071  14.1792  14.3952  15.4343  15.8623  16.2244  16.2860  17.5214
    17.7105  17.9818  18.4199  24.9197  26.1295

     occupation numbers 
     1.0000   1.0000   1.0000   1.0000   1.0000   1.0000   1.0000   1.0000
     1.0000   1.0000   1.0000   1.0000   1.0000   1.0000   1.0000   1.0000
     1.0000   1.0000   1.0000   0.0000   0.0000

          k = 0.0833 0.4330 0.1038 (  2859 PWs)   bands (ev):

   -77.4313 -77.4078 -40.8099 -40.7583 -40.7199 -40.6556 -40.6068 -40.5901
    13.4063  14.2112  14.5393  15.2149  15.9418  16.2831  16.5663  17.4689
    17.7737  17.7932  18.4239  23.1760  26.6478

     occupation numbers 
     1.0000   1.0000   1.0000   1.0000   1.0000   1.0000   1.0000   1.0000
     1.0000   1.0000   1.0000   1.0000   1.0000   1.0000   1.0000   1.0000
     1.0000   1.0000   1.0000   0.0000   0.0000

          k = 0.0833 0.4330 0.2076 (  2856 PWs)   bands (ev):

   -77.4263 -77.4128 -40.8239 -40.7884 -40.6752 -40.6419 -40.6153 -40.5959
    13.4986  14.0876  14.7217  15.2096  16.0500  16.4747  16.9340  17.2101
    17.6487  17.9438  18.4909  21.0200  27.3500

     occupation numbers 
     1.0000   1.0000   1.0000   1.0000   1.0000   1.0000   1.0000   1.0000
     1.0000   1.0000   1.0000   1.0000   1.0000   1.0000   1.0000   1.0000
     1.0000   1.0000   1.0000   0.0000   0.0000

          k = 0.0833 0.4330-0.3113 (  2846 PWs)   bands (ev):

   -77.4196 -77.4196 -40.8151 -40.8151 -40.6433 -40.6433 -40.6119 -40.6119
    13.7505  13.7505  15.0222  15.0222  16.4903  16.4903  16.8754  16.8754
    17.8953  17.8953  19.3381  19.3381  28.4040

     occupation numbers 
     1.0000   1.0000   1.0000   1.0000   1.0000   1.0000   1.0000   1.0000
     1.0000   1.0000   1.0000   1.0000   1.0000   1.0000   1.0000   1.0000
     1.0000   1.0000   0.0000   0.0000   0.0000

          k = 0.0833 0.5292 0.0000 (  2858 PWs)   bands (ev):

   -77.4249 -77.4059 -40.8136 -40.7624 -40.7356 -40.6705 -40.6274 -40.5939
    13.8718  14.0174  14.1997  15.7890  15.8115  16.1025  16.4397  17.8732
    17.9437  17.9937  19.6785  22.6021  28.0229

     occupation numbers 
     1.0000   1.0000   1.0000   1.0000   1.0000   1.0000   1.0000   1.0000
     1.0000   1.0000   1.0000   1.0000   1.0000   1.0000   1.0000   1.0000
     1.0000   1.0000   0.0000   0.0000   0.0000

          k = 0.0833 0.5292 0.1038 (  2866 PWs)   bands (ev):

   -77.4236 -77.4072 -40.8291 -40.7801 -40.7112 -40.6634 -40.6229 -40.5967
    13.6635  14.0378  14.6279  15.1622  15.8668  16.4813  16.8149  17.7535
    17.9116  17.9783  19.6131  22.3530  26.7184

     occupation numbers 
     1.0000   1.0000   1.0000   1.0000   1.0000   1.0000   1.0000   1.0000
     1.0000   1.0000   1.0000   1.0000   1.0000   1.0000   1.0000   1.0000
     1.0000   1.0000   0.0000   0.0000   0.0000

          k = 0.0833 0.5292 0.2076 (  2856 PWs)   bands (ev):

   -77.4201 -77.4106 -40.8440 -40.8132 -40.6757 -40.6418 -40.6273 -40.6011
    13.5779  14.0168  14.7505  15.0797  16.0418  16.7839  17.2105  17.4443
    17.8664  18.0612  19.6587  21.5182  25.9526

     occupation numbers 
     1.0000   1.0000   1.0000   1.0000   1.0000   1.0000   1.0000   1.0000
     1.0000   1.0000   1.0000   1.0000   1.0000   1.0000   1.0000   1.0000
     1.0000   1.0000   0.0000   0.0000   0.0000

          k = 0.0833 0.5292-0.3113 (  2858 PWs)   bands (ev):

   -77.4154 -77.4154 -40.8385 -40.8385 -40.6487 -40.6487 -40.6143 -40.6143
    13.7377  13.7377  14.9402  14.9402  16.5965  16.5965  17.3029  17.3029
    17.9359  17.9359  20.4007  20.4007  26.2210

     occupation numbers 
     1.0000   1.0000   1.0000   1.0000   1.0000   1.0000   1.0000   1.0000
     1.0000   1.0000   1.0000   1.0000   1.0000   1.0000   1.0000   1.0000
     1.0000   1.0000   0.0000   0.0000   0.0000

          k = 0.1667 0.2887 0.0000 (  2852 PWs)   bands (ev):

   -77.4471 -77.4087 -40.8026 -40.7120 -40.7026 -40.6298 -40.5849 -40.5828
    12.2463  14.5152  14.8982  15.0053  15.9178  16.0929  16.4994  16.8012
    17.2725  17.6517  17.9183  23.8850  25.7662

     occupation numbers 
     1.0000   1.0000   1.0000   1.0000   1.0000   1.0000   1.0000   1.0000
     1.0000   1.0000   1.0000   1.0000   1.0000   1.0000   1.0000   1.0000
     1.0000   1.0000   1.0000   0.0000   0.0000

          k = 0.1667 0.2887 0.1038 (  2858 PWs)   bands (ev):

   -77.4445 -77.4112 -40.8022 -40.7095 -40.6959 -40.6372 -40.5891 -40.5809
    12.4358  14.6131  14.7582  15.0584  15.8946  16.1032  16.3713  16.8734
    17.3944  17.4946  17.9674  21.9851  28.1368

     occupation numbers 
     1.0000   1.0000   1.0000   1.0000   1.0000   1.0000   1.0000   1.0000
     1.0000   1.0000   1.0000   1.0000   1.0000   1.0000   1.0000   1.0000
     1.0000   1.0000   1.0000   0.0000   0.0000

          k = 0.1667 0.2887 0.2076 (  2852 PWs)   bands (ev):

   -77.4375 -77.4183 -40.7926 -40.7347 -40.6618 -40.6395 -40.5993 -40.5873
    12.9548  14.3184  14.8797  15.2132  15.7261  15.9655  16.3615  16.9499
    17.4834  17.5999  17.9906  19.9356  31.4998

     occupation numbers 
     1.0000   1.0000   1.0000   1.0000   1.0000   1.0000   1.0000   1.0000
     1.0000   1.0000   1.0000   1.0000   1.0000   1.0000   1.0000   1.0000
     1.0000   1.0000   1.0000   0.0000   0.0000

          k = 0.1667 0.2887-0.3113 (  2854 PWs)   bands (ev):

   -77.4279 -77.4279 -40.7679 -40.7679 -40.6372 -40.6372 -40.6025 -40.6025
    13.6538  13.6538  15.2079  15.2079  15.6750  15.6750  16.6410  16.6410
    17.7450  17.7450  18.4884  18.4884  33.1529

     occupation numbers 
     1.0000   1.0000   1.0000   1.0000   1.0000   1.0000   1.0000   1.0000
     1.0000   1.0000   1.0000   1.0000   1.0000   1.0000   1.0000   1.0000
     1.0000   1.0000   1.0000   1.0000   0.0000

          k = 0.1667 0.3849 0.0000 (  2859 PWs)   bands (ev):

   -77.4351 -77.4062 -40.7688 -40.7562 -40.7342 -40.6569 -40.6043 -40.6037
    13.3397  14.5080  14.5338  14.9676  15.7648  16.2365  16.3121  17.1039
    17.7128  17.9186  18.4404  25.7349  26.0891

     occupation numbers 
     1.0000   1.0000   1.0000   1.0000   1.0000   1.0000   1.0000   1.0000
     1.0000   1.0000   1.0000   1.0000   1.0000   1.0000   1.0000   1.0000
     1.0000   1.0000   1.0000   0.0000   0.0000

          k = 0.1667 0.3849 0.1038 (  2857 PWs)   bands (ev):

   -77.4332 -77.4082 -40.7938 -40.7518 -40.7098 -40.6631 -40.6106 -40.5950
    13.4228  14.4625  14.6140  15.0525  15.8232  16.2084  16.2667  17.1318
    17.6945  17.8036  18.5350  23.2670  28.0837

     occupation numbers 
     1.0000   1.0000   1.0000   1.0000   1.0000   1.0000   1.0000   1.0000
     1.0000   1.0000   1.0000   1.0000   1.0000   1.0000   1.0000   1.0000
     1.0000   1.0000   1.0000   0.0000   0.0000

          k = 0.1667 0.3849 0.2076 (  2853 PWs)   bands (ev):

   -77.4279 -77.4135 -40.8063 -40.7735 -40.6742 -40.6584 -40.6186 -40.5930
    13.6472  14.2625  14.8645  15.2941  15.7458  16.0364  16.3947  17.0856
    17.5908  17.9589  18.7212  21.0400  29.0354

     occupation numbers 
     1.0000   1.0000   1.0000   1.0000   1.0000   1.0000   1.0000   1.0000
     1.0000   1.0000   1.0000   1.0000   1.0000   1.0000   1.0000   1.0000
     1.0000   1.0000   0.0000   0.0000   0.0000

          k = 0.1667 0.3849-0.3113 (  2844 PWs)   bands (ev):

   -77.4207 -77.4207 -40.7974 -40.7974 -40.6573 -40.6573 -40.6073 -40.6073
    13.9547  13.9547  15.2130  15.2130  15.8175  15.8175  16.6667  16.6667
    17.9524  17.9524  19.4275  19.4275  30.2013

     occupation numbers 
     1.0000   1.0000   1.0000   1.0000   1.0000   1.0000   1.0000   1.0000
     1.0000   1.0000   1.0000   1.0000   1.0000   1.0000   1.0000   1.0000
     1.0000   1.0000   0.0000   0.0000   0.0000

          k = 0.1667 0.4811 0.0000 (  2871 PWs)   bands (ev):

   -77.4249 -77.4059 -40.7917 -40.7490 -40.7360 -40.6827 -40.6271 -40.6175
    14.0414  14.3079  14.3122  15.2656  15.7213  16.1102  16.4362  17.5033
    17.9176  17.9344  19.5986  24.2476  27.7377

     occupation numbers 
     1.0000   1.0000   1.0000   1.0000   1.0000   1.0000   1.0000   1.0000
     1.0000   1.0000   1.0000   1.0000   1.0000   1.0000   1.0000   1.0000
     1.0000   1.0000   0.0000   0.0000   0.0000

          k = 0.1667 0.4811 0.1038 (  2870 PWs)   bands (ev):

   -77.4237 -77.4071 -40.8073 -40.7691 -40.7121 -40.6763 -40.6305 -40.6086
    13.8956  14.3800  14.5611  15.0980  15.7732  16.2365  16.4970  17.4860
    17.7159  17.9987  19.6845  23.7264  26.4912

     occupation numbers 
     1.0000   1.0000   1.0000   1.0000   1.0000   1.0000   1.0000   1.0000
     1.0000   1.0000   1.0000   1.0000   1.0000   1.0000   1.0000   1.0000
     1.0000   1.0000   0.0000   0.0000   0.0000

          k = 0.1667 0.4811 0.2076 (  2863 PWs)   bands (ev):

   -77.4202 -77.4106 -40.8235 -40.7979 -40.6936 -40.6583 -40.6310 -40.5994
    13.8614  14.3050  14.7622  15.3158  15.6645  16.3526  16.7035  17.1772
    17.6735  18.0786  20.0014  22.2262  26.5378

     occupation numbers 
     1.0000   1.0000   1.0000   1.0000   1.0000   1.0000   1.0000   1.0000
     1.0000   1.0000   1.0000   1.0000   1.0000   1.0000   1.0000   1.0000
     1.0000   1.0000   0.0000   0.0000   0.0000

          k = 0.1667 0.4811-0.3113 (  2852 PWs)   bands (ev):

   -77.4154 -77.4154 -40.8201 -40.8201 -40.6736 -40.6736 -40.6081 -40.6081
    14.0214  14.0214  15.1160  15.1160  16.0749  16.0749  16.8549  16.8549
    17.9579  17.9579  20.8156  20.8156  27.4213

     occupation numbers 
     1.0000   1.0000   1.0000   1.0000   1.0000   1.0000   1.0000   1.0000
     1.0000   1.0000   1.0000   1.0000   1.0000   1.0000   1.0000   1.0000
     1.0000   1.0000   0.0000   0.0000   0.0000

          k = 0.1667 0.5774 0.0000 (  2868 PWs)   bands (ev):

   -77.4204 -77.4065 -40.8046 -40.7531 -40.7193 -40.6937 -40.6403 -40.6222
    14.2164  14.2180  14.2320  15.4813  15.7357  16.0067  16.5216  17.7737
    17.9159  17.9169  20.8478  22.4085  28.7770

     occupation numbers 
     1.0000   1.0000   1.0000   1.0000   1.0000   1.0000   1.0000   1.0000
     1.0000   1.0000   1.0000   1.0000   1.0000   1.0000   1.0000   1.0000
     1.0000   1.0000   0.0000   0.0000   0.0000

          k = 0.1667 0.5774 0.1038 (  2873 PWs)   bands (ev):

   -77.4195 -77.4075 -40.8169 -40.7719 -40.7164 -40.6707 -40.6427 -40.6144
    13.9247  14.2942  14.7262  15.0805  15.6964  16.3538  16.5862  17.6863
    17.7698  17.9728  20.9510  22.3626  27.7995

     occupation numbers 
     1.0000   1.0000   1.0000   1.0000   1.0000   1.0000   1.0000   1.0000
     1.0000   1.0000   1.0000   1.0000   1.0000   1.0000   1.0000   1.0000
     1.0000   1.0000   0.0000   0.0000   0.0000

          k = 0.1667 0.5774 0.2076 (  2870 PWs)   bands (ev):

   -77.4169 -77.4100 -40.8316 -40.8053 -40.7017 -40.6577 -40.6336 -40.6028
    13.8605  14.3169  14.7989  15.2754  15.5805  16.5541  16.8220  17.2478
    17.7853  18.0132  21.2647  22.1745  26.5038

     occupation numbers 
     1.0000   1.0000   1.0000   1.0000   1.0000   1.0000   1.0000   1.0000
     1.0000   1.0000   1.0000   1.0000   1.0000   1.0000   1.0000   1.0000
     1.0000   1.0000   0.0000   0.0000   0.0000

          k = 0.1667 0.5774-0.3113 (  2858 PWs)   bands (ev):

   -77.4135 -77.4135 -40.8285 -40.8285 -40.6798 -40.6798 -40.6079 -40.6079
    14.0244  14.0244  15.0762  15.0762  16.1160  16.1160  17.0558  17.0558
    17.8970  17.8970  21.7574  21.7574  26.0119

     occupation numbers 
     1.0000   1.0000   1.0000   1.0000   1.0000   1.0000   1.0000   1.0000
     1.0000   1.0000   1.0000   1.0000   1.0000   1.0000   1.0000   1.0000
     1.0000   1.0000   0.0000   0.0000   0.0000

          k = 0.2500 0.4330 0.0000 (  2878 PWs)   bands (ev):

   -77.4250 -77.4058 -40.7727 -40.7511 -40.7362 -40.6824 -40.6350 -40.6269
    14.1651  14.3699  14.6958  14.7544  15.6607  16.1228  16.4431  17.2823
    17.8786  17.9414  19.6051  26.0148  26.7356

     occupation numbers 
     1.0000   1.0000   1.0000   1.0000   1.0000   1.0000   1.0000   1.0000
     1.0000   1.0000   1.0000   1.0000   1.0000   1.0000   1.0000   1.0000
     1.0000   1.0000   0.0000   0.0000   0.0000

          k = 0.2500 0.4330 0.1038 (  2867 PWs)   bands (ev):

   -77.4237 -77.4071 -40.7851 -40.7765 -40.6965 -40.6958 -40.6379 -40.6122
    14.1753  14.3209  14.7680  14.8805  15.8115  15.9782  16.4308  17.3124
    17.6656  18.0070  19.7343  24.5359  27.0230

     occupation numbers 
     1.0000   1.0000   1.0000   1.0000   1.0000   1.0000   1.0000   1.0000
     1.0000   1.0000   1.0000   1.0000   1.0000   1.0000   1.0000   1.0000
     1.0000   1.0000   0.0000   0.0000   0.0000

          k = 0.2500 0.4330 0.2076 (  2854 PWs)   bands (ev):

   -77.4202 -77.4106 -40.8079 -40.7924 -40.7002 -40.6742 -40.6299 -40.5992
    14.1878  14.2683  14.9370  15.2715  15.6518  15.9240  16.4552  17.0936
    17.6440  18.0854  20.1165  22.5081  27.8161

     occupation numbers 
     1.0000   1.0000   1.0000   1.0000   1.0000   1.0000   1.0000   1.0000
     1.0000   1.0000   1.0000   1.0000   1.0000   1.0000   1.0000   1.0000
     1.0000   1.0000   0.0000   0.0000   0.0000

          k = 0.2500 0.4330-0.3113 (  2860 PWs)   bands (ev):

   -77.4154 -77.4154 -40.8087 -40.8087 -40.6869 -40.6869 -40.6062 -40.6062
    14.2210  14.2210  15.2619  15.2619  15.7042  15.7042  16.6611  16.6611
    17.9775  17.9775  20.9722  20.9722  28.8543

     occupation numbers 
     1.0000   1.0000   1.0000   1.0000   1.0000   1.0000   1.0000   1.0000
     1.0000   1.0000   1.0000   1.0000   1.0000   1.0000   1.0000   1.0000
     1.0000   1.0000   0.0000   0.0000   0.0000

          k = 0.2500 0.5292 0.0000 (  2880 PWs)   bands (ev):

   -77.4173 -77.4074 -40.7856 -40.7418 -40.7110 -40.7069 -40.6545 -40.6507
    14.2917  14.4618  14.5653  15.0546  15.6798  15.9279  16.6099  17.5522
    17.8548  17.8915  21.2417  23.7845  26.0893

     occupation numbers 
     1.0000   1.0000   1.0000   1.0000   1.0000   1.0000   1.0000   1.0000
     1.0000   1.0000   1.0000   1.0000   1.0000   1.0000   1.0000   1.0000
     1.0000   1.0000   0.0000   0.0000   0.0000

          k = 0.2500 0.5292 0.1038 (  2875 PWs)   bands (ev):

   -77.4166 -77.4081 -40.7919 -40.7656 -40.7297 -40.6765 -40.6583 -40.6283
    14.2328  14.5947  14.6921  14.9586  15.7089  15.9244  16.6111  17.5603
    17.6397  17.9357  21.4338  23.8118  26.1453

     occupation numbers 
     1.0000   1.0000   1.0000   1.0000   1.0000   1.0000   1.0000   1.0000
     1.0000   1.0000   1.0000   1.0000   1.0000   1.0000   1.0000   1.0000
     1.0000   1.0000   0.0000   0.0000   0.0000

          k = 0.2500 0.5292 0.2076 (  2857 PWs)   bands (ev):

   -77.4148 -77.4099 -40.8085 -40.7938 -40.7283 -40.6862 -40.6267 -40.6064
    14.2526  14.6034  14.8604  15.1485  15.5786  15.9367  16.6492  17.1256
    17.7090  17.9754  21.9375  23.5418  26.1003

     occupation numbers 
     1.0000   1.0000   1.0000   1.0000   1.0000   1.0000   1.0000   1.0000
     1.0000   1.0000   1.0000   1.0000   1.0000   1.0000   1.0000   1.0000
     1.0000   1.0000   0.0000   0.0000   0.0000

          k = 0.2500 0.5292-0.3113 (  2856 PWs)   bands (ev):

   -77.4123 -77.4123 -40.8114 -40.8114 -40.7086 -40.7086 -40.6049 -40.6049
    14.3914  14.3914  15.1560  15.1560  15.7116  15.7116  16.7774  16.7774
    17.8872  17.8872  22.7102  22.7102  26.6467

     occupation numbers 
     1.0000   1.0000   1.0000   1.0000   1.0000   1.0000   1.0000   1.0000
     1.0000   1.0000   1.0000   1.0000   1.0000   1.0000   1.0000   1.0000
     1.0000   1.0000   0.0000   0.0000   0.0000

          k = 0.3333 0.5774 0.0000 (  2880 PWs)   bands (ev):

   -77.4112 -77.4112 -40.7777 -40.7286 -40.7286 -40.6778 -40.6778 -40.6771
    14.2959  14.6543  14.6543  14.9463  15.7584  15.7584  16.7079  17.6959
    17.6959  17.8298  22.9647  23.7781  23.7781

     occupation numbers 
     1.0000   1.0000   1.0000   1.0000   1.0000   1.0000   1.0000   1.0000
     1.0000   1.0000   1.0000   1.0000   1.0000   1.0000   1.0000   1.0000
     1.0000   1.0000   0.0000   0.0000   0.0000

          k = 0.3333 0.5774 0.1038 (  2871 PWs)   bands (ev):

   -77.4112 -77.4112 -40.7710 -40.7574 -40.7574 -40.6838 -40.6489 -40.6489
    14.3915  14.6813  14.6813  14.9673  15.7306  15.7306  16.6783  17.5887
    17.7339  17.7339  23.3713  23.8561  23.8561

     occupation numbers 
     1.0000   1.0000   1.0000   1.0000   1.0000   1.0000   1.0000   1.0000
     1.0000   1.0000   1.0000   1.0000   1.0000   1.0000   1.0000   1.0000
     1.0000   1.0000   0.0000   0.0000   0.0000

          k = 0.3333 0.5774 0.2076 (  2868 PWs)   bands (ev):

   -77.4112 -77.4112 -40.7898 -40.7898 -40.7526 -40.7023 -40.6162 -40.6162
    14.6355  14.7343  14.7343  14.9865  15.6815  15.6815  16.6376  17.0985
    17.8052  17.8052  24.0503  24.0503  24.4064

     occupation numbers 
     1.0000   1.0000   1.0000   1.0000   1.0000   1.0000   1.0000   1.0000
     1.0000   1.0000   1.0000   1.0000   1.0000   1.0000   1.0000   1.0000
     1.0000   1.0000   0.0000   0.0000   0.0000

          k = 0.3333 0.5774-0.3113 (  2874 PWs)   bands (ev):

   -77.4112 -77.4112 -40.8021 -40.8021 -40.7275 -40.7275 -40.6038 -40.6038
    14.7600  14.7600  14.8870  14.8870  15.6601  15.6601  16.7326  16.7326
    17.8388  17.8388  24.1762  24.1762  25.8247

     occupation numbers 
     1.0000   1.0000   1.0000   1.0000   1.0000   1.0000   1.0000   1.0000
     1.0000   1.0000   1.0000   1.0000   1.0000   1.0000   1.0000   1.0000
     1.0000   1.0000   0.0000   0.0000   0.0000

 ------ SPIN DOWN ----------


          k = 0.0000 0.0000 0.0000 (  2863 PWs)   bands (ev):

   -75.3622 -75.3000 -38.8388 -38.5306 -38.5306 -38.4775 -38.4775 -38.4771
     9.6593  14.4456  17.7182  17.7182  17.7308  18.0970  18.0970  18.4291
    18.4767  18.4767  19.7355  19.7355  26.0894

     occupation numbers 
     1.0000   1.0000   1.0000   1.0000   1.0000   1.0000   1.0000   1.0000
     1.0000   1.0000   1.0000   1.0000   1.0000   1.0000   1.0000   1.0000
     1.0000   1.0000   0.0000   0.0000   0.0000

          k = 0.0000 0.0000 0.1038 (  2833 PWs)   bands (ev):

   -75.3580 -75.3041 -38.8149 -38.5270 -38.5270 -38.5017 -38.4811 -38.4811
     9.9406  14.2176  17.6355  17.6431  17.6431  17.8251  18.0076  18.0076
    18.6666  18.6666  19.7225  19.7225  27.4244

     occupation numbers 
     1.0000   1.0000   1.0000   1.0000   1.0000   1.0000   1.0000   1.0000
     1.0000   1.0000   1.0000   1.0000   1.0000   1.0000   1.0000   1.0000
     0.0000   0.0000   0.0000   0.0000   0.0000

          k = 0.0000 0.0000 0.2076 (  2863 PWs)   bands (ev):

   -75.3467 -75.3156 -38.7495 -38.5686 -38.5173 -38.5173 -38.4908 -38.4908
    10.7538  13.3345  17.1685  17.3934  17.5799  17.5799  17.8127  17.8127
    19.0409  19.0409  19.6307  19.6307  30.4350

     occupation numbers 
     1.0000   1.0000   1.0000   1.0000   1.0000   1.0000   1.0000   1.0000
     1.0000   1.0000   1.0000   1.0000   1.0000   1.0000   1.0000   1.0000
     0.0000   0.0000   0.0000   0.0000   0.0000

          k = 0.0000 0.0000-0.3113 (  2858 PWs)   bands (ev):

   -75.3311 -75.3311 -38.6594 -38.6594 -38.5041 -38.5041 -38.5041 -38.5041
    11.9854  11.9854  17.1437  17.1437  17.6414  17.6414  17.6414  17.6414
    19.3967  19.3967  19.3967  19.3967  34.1200

     occupation numbers 
     1.0000   1.0000   1.0000   1.0000   1.0000   1.0000   1.0000   1.0000
     1.0000   1.0000   1.0000   1.0000   1.0000   1.0000   1.0000   1.0000
     0.0000   0.0000   0.0000   0.0000   0.0000

          k = 0.0000 0.0962 0.0000 (  2841 PWs)   bands (ev):

   -75.3588 -75.2985 -38.8310 -38.5470 -38.5360 -38.4946 -38.4804 -38.4801
     9.9006  14.6086  17.4403  17.7826  17.8428  17.9475  18.0369  18.2067
    18.3930  18.4158  19.7726  20.5941  26.1058

     occupation numbers 
     1.0000   1.0000   1.0000   1.0000   1.0000   1.0000   1.0000   1.0000
     1.0000   1.0000   1.0000   1.0000   1.0000   1.0000   1.0000   1.0000
     1.0000   1.0000   0.0000   0.0000   0.0000

          k = 0.0000 0.0962 0.1038 (  2846 PWs)   bands (ev):

   -75.3548 -75.3026 -38.8085 -38.5429 -38.5323 -38.5149 -38.4874 -38.4839
    10.1782  14.3943  17.3422  17.4360  17.7389  17.7489  18.0562  18.1087
    18.6152  18.6376  19.7504  20.2394  27.5064

     occupation numbers 
[...]
    19.8844  19.9685  21.0618  23.5491  28.5244

     occupation numbers 
     1.0000   1.0000   1.0000   1.0000   1.0000   1.0000   1.0000   1.0000
     1.0000   1.0000   1.0000   1.0000   1.0000   1.0000   1.0000   0.0000
     0.0000   0.0000   0.0000   0.0000   0.0000

          k = 0.0833 0.5292 0.1038 (  2866 PWs)   bands (ev):

   -75.3041 -75.2865 -38.7883 -38.7347 -38.6576 -38.6068 -38.5612 -38.5343
    14.6016  15.2386  15.7789  16.2946  17.5182  18.0458  18.1070  19.6804
    19.8466  19.9272  20.9255  23.2230  27.4339

     occupation numbers 
     1.0000   1.0000   1.0000   1.0000   1.0000   1.0000   1.0000   1.0000
     1.0000   1.0000   1.0000   1.0000   1.0000   1.0000   1.0000   0.0000
     0.0000   0.0000   0.0000   0.0000   0.0000

          k = 0.0833 0.5292 0.2076 (  2856 PWs)   bands (ev):

   -75.3004 -75.2902 -38.8043 -38.7708 -38.6195 -38.5829 -38.5669 -38.5384
    14.5870  15.0744  16.0828  16.4091  17.5782  18.3388  18.5469  19.2089
    19.7942  20.0241  20.7063  22.3014  26.8574

     occupation numbers 
     1.0000   1.0000   1.0000   1.0000   1.0000   1.0000   1.0000   1.0000
     1.0000   1.0000   1.0000   1.0000   1.0000   1.0000   1.0000   0.0000
     0.0000   0.0000   0.0000   0.0000   0.0000

          k = 0.0833 0.5292-0.3113 (  2858 PWs)   bands (ev):

   -75.2953 -75.2953 -38.7983 -38.7983 -38.5904 -38.5904 -38.5526 -38.5526
    14.7690  14.7690  16.3631  16.3631  18.0774  18.0774  18.8482  18.8482
    19.8744  19.8744  21.2474  21.2474  27.1088

     occupation numbers 
     1.0000   1.0000   1.0000   1.0000   1.0000   1.0000   1.0000   1.0000
     1.0000   1.0000   1.0000   1.0000   1.0000   1.0000   0.0000   0.0000
     0.0000   0.0000   0.0000   0.0000   0.0000

          k = 0.1667 0.2887 0.0000 (  2852 PWs)   bands (ev):

   -75.3294 -75.2881 -38.7571 -38.6603 -38.6507 -38.5706 -38.5219 -38.5173
    12.3140  15.7242  16.0775  16.4230  17.5755  17.6960  18.1520  18.5980
    19.0989  19.4629  19.8815  24.6500  26.5272

     occupation numbers 
     1.0000   1.0000   1.0000   1.0000   1.0000   1.0000   1.0000   1.0000
     1.0000   1.0000   1.0000   1.0000   1.0000   1.0000   1.0000   0.4944
     0.0000   0.0000   0.0000   0.0000   0.0000

          k = 0.1667 0.2887 0.1038 (  2858 PWs)   bands (ev):

   -75.3266 -75.2908 -38.7571 -38.6582 -38.6424 -38.5783 -38.5264 -38.5156
    12.5299  15.6717  15.9654  16.4895  17.5022  17.7238  18.0349  18.6640
    19.2297  19.3429  19.8887  22.9935  28.7309

     occupation numbers 
     1.0000   1.0000   1.0000   1.0000   1.0000   1.0000   1.0000   1.0000
     1.0000   1.0000   1.0000   1.0000   1.0000   1.0000   1.0000   0.0000
     0.0000   0.0000   0.0000   0.0000   0.0000

          k = 0.1667 0.2887 0.2076 (  2852 PWs)   bands (ev):

   -75.3191 -75.2984 -38.7472 -38.6853 -38.6047 -38.5807 -38.5374 -38.5231
    13.1420  14.9882  16.2151  16.6593  17.2632  17.5499  18.0890  18.6981
    19.3570  19.4610  19.8383  21.2584  31.9841

     occupation numbers 
     1.0000   1.0000   1.0000   1.0000   1.0000   1.0000   1.0000   1.0000
     1.0000   1.0000   1.0000   1.0000   1.0000   1.0000   1.0000   0.0000
     0.0000   0.0000   0.0000   0.0000   0.0000

          k = 0.1667 0.2887-0.3113 (  2854 PWs)   bands (ev):

   -75.3088 -75.3088 -38.7209 -38.7209 -38.5780 -38.5780 -38.5404 -38.5404
    14.0338  14.0338  16.5969  16.5969  17.2278  17.2278  18.3962  18.3962
    19.6568  19.6568  20.0748  20.0748  33.5746

     occupation numbers 
     1.0000   1.0000   1.0000   1.0000   1.0000   1.0000   1.0000   1.0000
     1.0000   1.0000   1.0000   1.0000   1.0000   1.0000   1.0000   1.0000
     0.0000   0.0000   0.0000   0.0000   0.0000

          k = 0.1667 0.3849 0.0000 (  2859 PWs)   bands (ev):

   -75.3165 -75.2854 -38.7200 -38.7090 -38.6848 -38.6000 -38.5430 -38.5400
    13.5615  15.7663  15.8003  16.2223  17.3799  17.8349  17.9261  18.9326
    19.6046  19.8817  20.1736  26.4177  26.7115

     occupation numbers 
     1.0000   1.0000   1.0000   1.0000   1.0000   1.0000   1.0000   1.0000
     1.0000   1.0000   1.0000   1.0000   1.0000   1.0000   1.0000   0.0000
     0.0000   0.0000   0.0000   0.0000   0.0000

          k = 0.1667 0.3849 0.1038 (  2857 PWs)   bands (ev):

   -75.3144 -75.2875 -38.7485 -38.7042 -38.6569 -38.6065 -38.5496 -38.5311
    13.7133  15.6297  15.9068  16.3274  17.3691  17.7795  17.8894  18.9591
    19.6055  19.7084  20.2903  24.0833  28.7037

     occupation numbers 
     1.0000   1.0000   1.0000   1.0000   1.0000   1.0000   1.0000   1.0000
     1.0000   1.0000   1.0000   1.0000   1.0000   1.0000   1.0000   0.0000
     0.0000   0.0000   0.0000   0.0000   0.0000

          k = 0.1667 0.3849 0.2076 (  2853 PWs)   bands (ev):

   -75.3088 -75.2932 -38.7626 -38.7276 -38.6182 -38.6011 -38.5582 -38.5291
    14.1287  15.2471  16.1975  16.5504  17.2463  17.4898  18.0720  18.8861
    19.4687  19.8957  20.3733  22.0729  29.6391

     occupation numbers 
     1.0000   1.0000   1.0000   1.0000   1.0000   1.0000   1.0000   1.0000
     1.0000   1.0000   1.0000   1.0000   1.0000   1.0000   1.0000   0.0000
     0.0000   0.0000   0.0000   0.0000   0.0000

          k = 0.1667 0.3849-0.3113 (  2844 PWs)   bands (ev):

   -75.3010 -75.3010 -38.7532 -38.7532 -38.6000 -38.6000 -38.5451 -38.5451
    14.6942  14.6942  16.5462  16.5462  17.2153  17.2153  18.4320  18.4320
    19.9006  19.9006  20.7335  20.7335  30.7619

     occupation numbers 
     1.0000   1.0000   1.0000   1.0000   1.0000   1.0000   1.0000   1.0000
     1.0000   1.0000   1.0000   1.0000   1.0000   1.0000   1.0000   1.0000
     0.0000   0.0000   0.0000   0.0000   0.0000

          k = 0.1667 0.4811 0.0000 (  2871 PWs)   bands (ev):

   -75.3056 -75.2850 -38.7479 -38.7009 -38.6841 -38.6282 -38.5654 -38.5572
    14.6673  15.5823  15.5854  16.2596  17.3217  17.6741  18.0702  19.3742
    19.8699  19.8802  21.0698  25.0065  28.3180

     occupation numbers 
     1.0000   1.0000   1.0000   1.0000   1.0000   1.0000   1.0000   1.0000
     1.0000   1.0000   1.0000   1.0000   1.0000   1.0000   1.0000   0.0000
     0.0000   0.0000   0.0000   0.0000   0.0000

          k = 0.1667 0.4811 0.1038 (  2870 PWs)   bands (ev):

   -75.3042 -75.2864 -38.7643 -38.7226 -38.6590 -38.6207 -38.5706 -38.5462
    14.6892  15.5375  15.7507  16.3039  17.3411  17.6575  18.1158  19.3574
    19.6390  19.9467  21.1239  24.4237  27.2481

     occupation numbers 
     1.0000   1.0000   1.0000   1.0000   1.0000   1.0000   1.0000   1.0000
     1.0000   1.0000   1.0000   1.0000   1.0000   1.0000   1.0000   0.0000
     0.0000   0.0000   0.0000   0.0000   0.0000

          k = 0.1667 0.4811 0.2076 (  2863 PWs)   bands (ev):

   -75.3004 -75.2902 -38.7817 -38.7539 -38.6396 -38.6009 -38.5711 -38.5361
    14.8020  15.3342  16.0908  16.5963  17.1807  17.6283  18.3078  19.0165
    19.5715  20.0454  21.2777  22.9957  27.3465

     occupation numbers 
     1.0000   1.0000   1.0000   1.0000   1.0000   1.0000   1.0000   1.0000
     1.0000   1.0000   1.0000   1.0000   1.0000   1.0000   1.0000   0.0000
     0.0000   0.0000   0.0000   0.0000   0.0000

          k = 0.1667 0.4811-0.3113 (  2852 PWs)   bands (ev):

   -75.2953 -75.2953 -38.7781 -38.7781 -38.6179 -38.6179 -38.5456 -38.5456
    15.0360  15.0360  16.5127  16.5127  17.3556  17.3556  18.5794  18.5794
    19.8937  19.8937  21.8117  21.8117  28.1587

     occupation numbers 
     1.0000   1.0000   1.0000   1.0000   1.0000   1.0000   1.0000   1.0000
     1.0000   1.0000   1.0000   1.0000   1.0000   1.0000   0.9729   0.9729
     0.0000   0.0000   0.0000   0.0000   0.0000

          k = 0.1667 0.5774 0.0000 (  2868 PWs)   bands (ev):

   -75.3007 -75.2858 -38.7620 -38.7054 -38.6659 -38.6401 -38.5798 -38.5623
    15.1384  15.4499  15.5221  16.3128  17.3546  17.5275  18.1757  19.6831
    19.8564  19.8792  21.9644  23.4409  29.1946

     occupation numbers 
     1.0000   1.0000   1.0000   1.0000   1.0000   1.0000   1.0000   1.0000
     1.0000   1.0000   1.0000   1.0000   1.0000   1.0000   1.0000   0.0000
     0.0000   0.0000   0.0000   0.0000   0.0000

          k = 0.1667 0.5774 0.1038 (  2873 PWs)   bands (ev):

   -75.2997 -75.2867 -38.7750 -38.7257 -38.6639 -38.6143 -38.5836 -38.5528
    14.9939  15.4972  15.8922  16.1467  17.2955  17.6951  18.2305  19.6062
    19.6797  19.9225  21.9977  23.3466  28.3969

     occupation numbers 
     1.0000   1.0000   1.0000   1.0000   1.0000   1.0000   1.0000   1.0000
     1.0000   1.0000   1.0000   1.0000   1.0000   1.0000   1.0000   0.0000
     0.0000   0.0000   0.0000   0.0000   0.0000

          k = 0.1667 0.5774 0.2076 (  2870 PWs)   bands (ev):

   -75.2969 -75.2895 -38.7907 -38.7620 -38.6484 -38.6005 -38.5735 -38.5397
    14.9578  15.3921  16.1536  16.5119  17.0903  17.8013  18.4542  19.0912
    19.7015  19.9664  22.1316  23.0308  27.2934

     occupation numbers 
     1.0000   1.0000   1.0000   1.0000   1.0000   1.0000   1.0000   1.0000
     1.0000   1.0000   1.0000   1.0000   1.0000   1.0000   1.0000   0.0000
     0.0000   0.0000   0.0000   0.0000   0.0000

          k = 0.1667 0.5774-0.3113 (  2858 PWs)   bands (ev):

   -75.2932 -75.2932 -38.7873 -38.7873 -38.6247 -38.6247 -38.5454 -38.5454
    15.1173  15.1173  16.5041  16.5041  17.4057  17.4057  18.7442  18.7442
    19.8289  19.8289  22.5282  22.5282  26.9094

     occupation numbers 
     1.0000   1.0000   1.0000   1.0000   1.0000   1.0000   1.0000   1.0000
     1.0000   1.0000   1.0000   1.0000   1.0000   1.0000   0.0000   0.0000
     0.0000   0.0000   0.0000   0.0000   0.0000

          k = 0.2500 0.4330 0.0000 (  2878 PWs)   bands (ev):

   -75.3056 -75.2850 -38.7271 -38.7031 -38.6843 -38.6280 -38.5763 -38.5652
    14.6707  15.6544  15.9259  15.9402  17.2339  17.6971  18.0724  19.1410
    19.8353  19.8761  21.1054  26.5802  27.3512

     occupation numbers 
     1.0000   1.0000   1.0000   1.0000   1.0000   1.0000   1.0000   1.0000
     1.0000   1.0000   1.0000   1.0000   1.0000   1.0000   1.0000   0.0000
     0.0000   0.0000   0.0000   0.0000   0.0000

          k = 0.2500 0.4330 0.1038 (  2867 PWs)   bands (ev):

   -75.3042 -75.2864 -38.7394 -38.7312 -38.6423 -38.6419 -38.5794 -38.5496
    14.7545  15.5725  15.9957  16.1309  17.2826  17.5227  18.0660  19.1692
    19.5838  19.9562  21.2141  25.1818  27.6443

     occupation numbers 
     1.0000   1.0000   1.0000   1.0000   1.0000   1.0000   1.0000   1.0000
     1.0000   1.0000   1.0000   1.0000   1.0000   1.0000   1.0000   0.0000
     0.0000   0.0000   0.0000   0.0000   0.0000

          k = 0.2500 0.4330 0.2076 (  2854 PWs)   bands (ev):

   -75.3004 -75.2901 -38.7644 -38.7481 -38.6471 -38.6183 -38.5699 -38.5357
    14.9679  15.4330  16.2216  16.4996  17.1394  17.2653  18.1306  18.9214
    19.5319  20.0535  21.4543  23.3159  28.4366

     occupation numbers 
     1.0000   1.0000   1.0000   1.0000   1.0000   1.0000   1.0000   1.0000
     1.0000   1.0000   1.0000   1.0000   1.0000   1.0000   1.0000   0.0000
     0.0000   0.0000   0.0000   0.0000   0.0000

          k = 0.2500 0.4330-0.3113 (  2860 PWs)   bands (ev):

   -75.2953 -75.2953 -38.7655 -38.7655 -38.6326 -38.6326 -38.5436 -38.5436
    15.2231  15.2231  16.5683  16.5683  17.0324  17.0324  18.4185  18.4185
    19.9171  19.9171  22.0260  22.0260  29.4606

     occupation numbers 
     1.0000   1.0000   1.0000   1.0000   1.0000   1.0000   1.0000   1.0000
     1.0000   1.0000   1.0000   1.0000   1.0000   1.0000   1.0000   1.0000
     0.0000   0.0000   0.0000   0.0000   0.0000

          k = 0.2500 0.5292 0.0000 (  2880 PWs)   bands (ev):

   -75.2973 -75.2867 -38.7410 -38.6930 -38.6593 -38.6524 -38.5976 -38.5911
    15.3924  15.6137  15.7626  16.0207  17.2371  17.4612  18.2720  19.4417
    19.8078  19.8265  22.3686  24.5950  26.6685

     occupation numbers 
     1.0000   1.0000   1.0000   1.0000   1.0000   1.0000   1.0000   1.0000
     1.0000   1.0000   1.0000   1.0000   1.0000   1.0000   1.0000   0.0000
     0.0000   0.0000   0.0000   0.0000   0.0000

          k = 0.2500 0.5292 0.1038 (  2875 PWs)   bands (ev):

   -75.2966 -75.2874 -38.7476 -38.7186 -38.6792 -38.6204 -38.6011 -38.5673
    15.3603  15.7289  15.8505  16.0892  17.2179  17.3636  18.2732  19.4519
    19.5523  19.8790  22.5353  24.5796  26.7517

     occupation numbers 
     1.0000   1.0000   1.0000   1.0000   1.0000   1.0000   1.0000   1.0000
     1.0000   1.0000   1.0000   1.0000   1.0000   1.0000   1.0000   0.0000
     0.0000   0.0000   0.0000   0.0000   0.0000

          k = 0.2500 0.5292 0.2076 (  2857 PWs)   bands (ev):

   -75.2947 -75.2894 -38.7653 -38.7493 -38.6779 -38.6319 -38.5658 -38.5435
    15.4043  15.6963  16.1309  16.4398  16.9788  17.2203  18.3276  18.9649
    19.6160  19.9225  22.9237  24.2389  26.8510

     occupation numbers 
     1.0000   1.0000   1.0000   1.0000   1.0000   1.0000   1.0000   1.0000
     1.0000   1.0000   1.0000   1.0000   1.0000   1.0000   1.0000   0.0000
     0.0000   0.0000   0.0000   0.0000   0.0000

          k = 0.2500 0.5292-0.3113 (  2856 PWs)   bands (ev):

   -75.2920 -75.2920 -38.7684 -38.7684 -38.6564 -38.6564 -38.5419 -38.5419
    15.5406  15.5406  16.5302  16.5302  16.9336  16.9336  18.5279  18.5279
    19.8154  19.8154  23.5178  23.5178  27.4004

     occupation numbers 
     1.0000   1.0000   1.0000   1.0000   1.0000   1.0000   1.0000   1.0000
     1.0000   1.0000   1.0000   1.0000   1.0000   1.0000   1.0000   1.0000
     0.0000   0.0000   0.0000   0.0000   0.0000

          k = 0.3333 0.5774 0.0000 (  2880 PWs)   bands (ev):

   -75.2908 -75.2908 -38.7322 -38.6787 -38.6787 -38.6221 -38.6206 -38.6206
    15.6416  15.7448  15.7448  15.9550  17.2865  17.2865  18.3794  19.6076
    19.6076  19.7790  23.7980  24.5827  24.5827

     occupation numbers 
     1.0000   1.0000   1.0000   1.0000   1.0000   1.0000   1.0000   1.0000
     1.0000   1.0000   1.0000   1.0000   1.0000   1.0000   1.0000   0.0000
     0.0000   0.0000   0.0000   0.0000   0.0000

          k = 0.3333 0.5774 0.1038 (  2871 PWs)   bands (ev):

   -75.2908 -75.2908 -38.7248 -38.7094 -38.7094 -38.6295 -38.5897 -38.5897
    15.7173  15.8220  15.8220  15.9887  17.2025  17.2025  18.3546  19.4961
    19.6501  19.6501  24.2212  24.6357  24.6357

     occupation numbers 
     1.0000   1.0000   1.0000   1.0000   1.0000   1.0000   1.0000   1.0000
     1.0000   1.0000   1.0000   1.0000   1.0000   1.0000   1.0000   0.0000
     0.0000   0.0000   0.0000   0.0000   0.0000

          k = 0.3333 0.5774 0.2076 (  2868 PWs)   bands (ev):

   -75.2908 -75.2908 -38.7447 -38.7447 -38.7048 -38.6497 -38.5541 -38.5541
    15.8950  16.0053  16.0053  16.0509  17.0133  17.0133  18.3424  18.9399
    19.7265  19.7265  24.7672  24.7672  25.2417

     occupation numbers 
     1.0000   1.0000   1.0000   1.0000   1.0000   1.0000   1.0000   1.0000
     1.0000   1.0000   1.0000   1.0000   1.0000   1.0000   1.0000   0.0000
     0.0000   0.0000   0.0000   0.0000   0.0000

          k = 0.3333 0.5774-0.3113 (  2874 PWs)   bands (ev):

   -75.2908 -75.2908 -38.7580 -38.7580 -38.6773 -38.6773 -38.5406 -38.5406
    16.0396  16.0396  16.1242  16.1242  16.8951  16.8951  18.5038  18.5038
    19.7607  19.7607  24.8509  24.8509  26.5810

     occupation numbers 
     1.0000   1.0000   1.0000   1.0000   1.0000   1.0000   1.0000   1.0000
     1.0000   1.0000   1.0000   1.0000   1.0000   1.0000   1.0000   1.0000
     0.0000   0.0000   0.0000   0.0000   0.0000

     the Fermi energy is    18.5979 ev

!    total energy              =    -753.45516713 Ry
     total all-electron energy =     -5573.811858 Ry
     estimated scf accuracy    <       0.00000015 Ry
     smearing contrib. (-TS)   =      -0.00002051 Ry
     internal energy E=F+TS    =    -753.45514662 Ry

     The total energy is F=E-TS. E is the sum of the following terms:
     one-electron contribution =    -283.29535148 Ry
     hartree contribution      =     165.23422007 Ry
     xc contribution           =     -61.39972604 Ry
     ewald contribution        =    -398.81922524 Ry
     one-center paw contrib.   =    -175.17506393 Ry
      -> PAW hartree energy AE =     222.01330891 Ry
      -> PAW hartree energy PS =    -220.95776963 Ry
      -> PAW xc energy AE      =    -117.67174223 Ry
      -> PAW xc energy PS      =      29.02867098 Ry
      -> total E_H with PAW    =     166.28975936 Ry
      -> total E_XC with PAW   =    -150.04279729 Ry

     total magnetization       =     3.31 Bohr mag/cell
     absolute magnetization    =     3.63 Bohr mag/cell

     convergence has been achieved in  12 iterations

     Writing all to output data dir ./out2/Co.save/
 
     init_run     :      0.32s CPU      0.41s WALL (       1 calls)
     electrons    :     14.42s CPU     15.48s WALL (       1 calls)

     Called by init_run:
     wfcinit      :      0.14s CPU      0.19s WALL (       1 calls)
     potinit      :      0.10s CPU      0.12s WALL (       1 calls)
     hinit0       :      0.06s CPU      0.07s WALL (       1 calls)

     Called by electrons:
     c_bands      :     12.01s CPU     12.78s WALL (      12 calls)
     sum_band     :      1.26s CPU      1.33s WALL (      12 calls)
     v_of_rho     :      0.05s CPU      0.05s WALL (      13 calls)
     v_h          :      0.00s CPU      0.00s WALL (      13 calls)
     v_xc         :      0.05s CPU      0.05s WALL (      13 calls)
     newd         :      0.04s CPU      0.04s WALL (      13 calls)
     PAW_pot      :      1.14s CPU      1.35s WALL (      13 calls)
     mix_rho      :      0.01s CPU      0.01s WALL (      12 calls)

     Called by c_bands:
     init_us_2    :      0.09s CPU      0.10s WALL (    1824 calls)
     init_us_2:cp :      0.09s CPU      0.10s WALL (    1824 calls)
     cegterg      :     11.06s CPU     11.62s WALL (     912 calls)

     Called by sum_band:
     sum_band:wei :      0.01s CPU      0.01s WALL (      12 calls)
     sum_band:loo :      1.17s CPU      1.24s WALL (      12 calls)
     sum_band:buf :      0.01s CPU      0.01s WALL (     912 calls)
     sum_band:ini :      0.05s CPU      0.05s WALL (     912 calls)
     sum_band:cal :      0.10s CPU      0.11s WALL (     912 calls)
     sum_band:bec :      0.01s CPU      0.01s WALL (     912 calls)
     addusdens    :      0.06s CPU      0.06s WALL (      12 calls)
                                        0.00s GPU  (      12 calls)
     addusd:skk   :      0.00s CPU      0.00s WALL (      12 calls)
                                        0.00s GPU  (      12 calls)

     Called by *egterg:
     cdiaghg      :      2.42s CPU      2.53s WALL (    5003 calls)
     cegterg:over :      0.35s CPU      0.37s WALL (    4167 calls)
     cegterg:upda :      0.10s CPU      0.11s WALL (    4167 calls)
     cegterg:last :      0.20s CPU      0.21s WALL (    2977 calls)
     h_psi        :      7.47s CPU      7.85s WALL (    5079 calls)
     s_psi        :      0.13s CPU      0.14s WALL (    5079 calls)
     g_psi        :      0.03s CPU      0.04s WALL (    4167 calls)

     Called by h_psi:
     h_psi:calbec :      0.40s CPU      0.42s WALL (    5079 calls)
     vloc_psi     :      6.86s CPU      7.21s WALL (    5079 calls)
     add_vuspsi   :      0.16s CPU      0.17s WALL (    5079 calls)

     General routines
     calbec       :      0.48s CPU      0.51s WALL (    5991 calls)
     fft          :      0.03s CPU      0.03s WALL (     319 calls)
     ffts         :      0.00s CPU      0.00s WALL (      50 calls)
     fftw         :      7.09s CPU      7.47s WALL (  156772 calls)
     interpolate  :      0.00s CPU      0.00s WALL (      26 calls)
 
     Parallel routines

     PAW routines
     PAW_pot      :      1.14s CPU      1.35s WALL (      13 calls)
     PAW_symme    :      0.01s CPU      0.01s WALL (      24 calls)
 
     PWSCF        :     15.01s CPU     16.49s WALL

 
   This run was terminated on:  10:58:18  22Mar2024            

=------------------------------------------------------------------------------=
   JOB DONE.
=------------------------------------------------------------------------------=
