
     Program PWSCF v.7.2 starts on 22Mar2024 at 10:50:33 

     This program is part of the open-source Quantum ESPRESSO suite
     for quantum simulation of materials; please cite
         "P. Giannozzi et al., J. Phys.:Condens. Matter 21 395502 (2009);
         "P. Giannozzi et al., J. Phys.:Condens. Matter 29 465901 (2017);
         "P. Giannozzi et al., J. Chem. Phys. 152 154105 (2020);
          URL http://www.quantum-espresso.org", 
     in publications or presentations arising from this work. More details at
     http://www.quantum-espresso.org/quote

     Parallel version (MPI), running on    28 processors

     MPI processes distributed on     1 nodes
     182179 MiB available memory on the printing compute node when the environment starts
 
     Waiting for input...
     Reading input from standard input

     Current dimensions of program PWSCF are:
     Max number of different atomic species (ntypx) = 10
     Max number of k-points (npk) = 120000
     Max angular momentum in pseudopotentials (lmaxx) =  4
     file Co.pbe-spn-kjpaw_psl.0.3.1.UPF: wavefunction(s)  3P 3D renormalized
 
     K-points division:     npool     =       2
     R & G space division:  proc/nbgrp/npool/nimage =      14
     Subspace diagonalization in iterative solution of the eigenvalue problem:
     a serial algorithm will be used

 
     Parallelization info
     --------------------
     sticks:   dense  smooth     PW     G-vecs:    dense   smooth      PW
     Min          48      48     14                 1658     1604     262
     Max          52      49     15                 1671     1609     269
     Sum         685     673    199                23271    22491    3705
 
     Using Slab Decomposition
 


     bravais-lattice index     =            4
     lattice parameter (alat)  =       4.7054  a.u.
     unit-cell volume          =     144.7580 (a.u.)^3
     number of atoms/cell      =            2
     number of atomic types    =            1
     number of electrons       =        34.00
     number of Kohn-Sham states=           21
     kinetic-energy cutoff     =     110.0000  Ry
     charge density cutoff     =     450.0000  Ry
     scf convergence threshold =      1.0E-06
     mixing beta               =       0.7000
     number of iterations used =            8  plain     mixing
     Exchange-correlation= SLA  PW   PBX  PBC
                           (   1   4   3   4   0   0   0)

     celldm(1)=   4.705418  celldm(2)=   0.000000  celldm(3)=   1.604418
     celldm(4)=   0.000000  celldm(5)=   0.000000  celldm(6)=   0.000000

     crystal axes: (cart. coord. in units of alat)
               a(1) = (   1.000000   0.000000   0.000000 )  
               a(2) = (  -0.500000   0.866025   0.000000 )  
               a(3) = (   0.000000   0.000000   1.604418 )  

     reciprocal axes: (cart. coord. in units 2 pi/alat)
               b(1) = (  1.000000  0.577350  0.000000 )  
               b(2) = (  0.000000  1.154701  0.000000 )  
               b(3) = (  0.000000  0.000000  0.623279 )  


     PseudoPot. # 1 for Co read from file:
     /truba/home/amuhaymin/ZnS/pseudo/QE/Co.pbe-spn-kjpaw_psl.0.3.1.UPF
     MD5 check sum: b0a1ad65bf214e88c1f3d33b20c7d919
     Pseudo is Projector augmented-wave + core cor, Zval = 17.0
     Generated using &quot;atomic&quot; code by A. Dal Corso  v.6.2.2
     Shape of augmentation charge: PSQ
     Using radial grid of 1193 points,  6 beta functions with: 
                l(1) =   0
                l(2) =   0
                l(3) =   1
                l(4) =   1
                l(5) =   2
                l(6) =   2
     Q(r) pseudized with 0 coefficients 


     atomic species   valence    mass     pseudopotential
        Co            17.00    58.93300     Co( 1.00)

     Starting magnetic structure 
     atomic species   magnetization
        Co           0.294

     24 Sym. Ops., with inversion, found (12 have fractional translation)


                                    s                        frac. trans.

      isym =  1     identity                                     

 cryst.   s( 1) = (     1          0          0      )
                  (     0          1          0      )
                  (     0          0          1      )

 cart.    s( 1) = (  1.0000000  0.0000000  0.0000000 )
                  (  0.0000000  1.0000000  0.0000000 )
                  (  0.0000000  0.0000000  1.0000000 )


      isym =  2     180 deg rotation - cart. axis [0,0,1]        

 cryst.   s( 2) = (    -1          0          0      )    f =(  0.0000000 )
                  (     0         -1          0      )       ( -0.0000000 )
                  (     0          0          1      )       ( -0.5000000 )

 cart.    s( 2) = ( -1.0000000  0.0000000  0.0000000 )    f =(  0.0000000 )
                  (  0.0000000 -1.0000000  0.0000000 )       ( -0.0000000 )
                  (  0.0000000  0.0000000  1.0000000 )       ( -0.8022088 )


      isym =  3     180 deg rotation - cart. axis [0,1,0]        

 cryst.   s( 3) = (    -1          0          0      )    f =(  0.0000000 )
                  (     1          1          0      )       (  0.0000000 )
                  (     0          0         -1      )       (  0.5000000 )

 cart.    s( 3) = ( -1.0000000  0.0000000  0.0000000 )    f =(  0.0000000 )
                  (  0.0000000  1.0000000  0.0000000 )       (  0.0000000 )
                  (  0.0000000  0.0000000 -1.0000000 )       (  0.8022088 )


      isym =  4     180 deg rotation - cart. axis [1,0,0]        

 cryst.   s( 4) = (     1          0          0      )
                  (    -1         -1          0      )
                  (     0          0         -1      )

 cart.    s( 4) = (  1.0000000  0.0000000  0.0000000 )
                  (  0.0000000 -1.0000000  0.0000000 )
                  (  0.0000000  0.0000000 -1.0000000 )


      isym =  5      60 deg rotation - cryst. axis [0,0,1]       

 cryst.   s( 5) = (     1          1          0      )    f =(  0.0000000 )
                  (    -1          0          0      )       ( -0.0000000 )
                  (     0          0          1      )       ( -0.5000000 )

 cart.    s( 5) = (  0.5000000 -0.8660254  0.0000000 )    f =(  0.0000000 )
                  (  0.8660254  0.5000000  0.0000000 )       ( -0.0000000 )
                  (  0.0000000  0.0000000  1.0000000 )       ( -0.8022088 )


      isym =  6      60 deg rotation - cryst. axis [0,0,-1]      

 cryst.   s( 6) = (     0         -1          0      )    f =(  0.0000000 )
                  (     1          1          0      )       ( -0.0000000 )
                  (     0          0          1      )       ( -0.5000000 )

 cart.    s( 6) = (  0.5000000  0.8660254  0.0000000 )    f =(  0.0000000 )
                  ( -0.8660254  0.5000000  0.0000000 )       ( -0.0000000 )
                  (  0.0000000  0.0000000  1.0000000 )       ( -0.8022088 )


      isym =  7     120 deg rotation - cryst. axis [0,0,1]       

 cryst.   s( 7) = (     0          1          0      )
                  (    -1         -1          0      )
                  (     0          0          1      )

 cart.    s( 7) = ( -0.5000000 -0.8660254  0.0000000 )
                  (  0.8660254 -0.5000000  0.0000000 )
                  (  0.0000000  0.0000000  1.0000000 )


      isym =  8     120 deg rotation - cryst. axis [0,0,-1]      

 cryst.   s( 8) = (    -1         -1          0      )
                  (     1          0          0      )
                  (     0          0          1      )

 cart.    s( 8) = ( -0.5000000  0.8660254  0.0000000 )
                  ( -0.8660254 -0.5000000  0.0000000 )
                  (  0.0000000  0.0000000  1.0000000 )


      isym =  9     180 deg rotation - cryst. axis [1,-1,0]      

 cryst.   s( 9) = (     0         -1          0      )    f =( -0.0000000 )
                  (    -1          0          0      )       ( -0.0000000 )
                  (     0          0         -1      )       (  0.5000000 )

 cart.    s( 9) = (  0.5000000 -0.8660254  0.0000000 )    f =( -0.0000000 )
                  ( -0.8660254 -0.5000000  0.0000000 )       ( -0.0000000 )
                  (  0.0000000  0.0000000 -1.0000000 )       (  0.8022088 )


      isym = 10     180 deg rotation - cryst. axis [2,1,0]       

 cryst.   s(10) = (     1          1          0      )    f =(  0.0000000 )
                  (     0         -1          0      )       ( -0.0000000 )
                  (     0          0         -1      )       (  0.5000000 )

 cart.    s(10) = (  0.5000000  0.8660254  0.0000000 )    f =(  0.0000000 )
                  (  0.8660254 -0.5000000  0.0000000 )       ( -0.0000000 )
                  (  0.0000000  0.0000000 -1.0000000 )       (  0.8022088 )


      isym = 11     180 deg rotation - cryst. axis [0,1,0]       

 cryst.   s(11) = (    -1         -1          0      )
                  (     0          1          0      )
                  (     0          0         -1      )

 cart.    s(11) = ( -0.5000000 -0.8660254  0.0000000 )
                  ( -0.8660254  0.5000000  0.0000000 )
                  (  0.0000000  0.0000000 -1.0000000 )


      isym = 12     180 deg rotation - cryst. axis [1,1,0]       

 cryst.   s(12) = (     0          1          0      )
                  (     1          0          0      )
                  (     0          0         -1      )

 cart.    s(12) = ( -0.5000000  0.8660254  0.0000000 )
                  (  0.8660254  0.5000000  0.0000000 )
                  (  0.0000000  0.0000000 -1.0000000 )


      isym = 13     inversion                                    

 cryst.   s(13) = (    -1          0          0      )
                  (     0         -1          0      )
                  (     0          0         -1      )

 cart.    s(13) = ( -1.0000000  0.0000000  0.0000000 )
                  (  0.0000000 -1.0000000  0.0000000 )
                  (  0.0000000  0.0000000 -1.0000000 )


      isym = 14     inv. 180 deg rotation - cart. axis [0,0,1]   

 cryst.   s(14) = (     1          0          0      )    f =(  0.0000000 )
                  (     0          1          0      )       (  0.0000000 )
                  (     0          0         -1      )       (  0.5000000 )

 cart.    s(14) = (  1.0000000  0.0000000  0.0000000 )    f =(  0.0000000 )
                  (  0.0000000  1.0000000  0.0000000 )       (  0.0000000 )
                  (  0.0000000  0.0000000 -1.0000000 )       (  0.8022088 )


      isym = 15     inv. 180 deg rotation - cart. axis [0,1,0]   

 cryst.   s(15) = (     1          0          0      )    f =(  0.0000000 )
                  (    -1         -1          0      )       ( -0.0000000 )
                  (     0          0          1      )       ( -0.5000000 )

 cart.    s(15) = (  1.0000000  0.0000000  0.0000000 )    f =(  0.0000000 )
                  (  0.0000000 -1.0000000  0.0000000 )       ( -0.0000000 )
                  (  0.0000000  0.0000000  1.0000000 )       ( -0.8022088 )


      isym = 16     inv. 180 deg rotation - cart. axis [1,0,0]   

 cryst.   s(16) = (    -1          0          0      )
                  (     1          1          0      )
                  (     0          0          1      )

 cart.    s(16) = ( -1.0000000  0.0000000  0.0000000 )
                  (  0.0000000  1.0000000  0.0000000 )
                  (  0.0000000  0.0000000  1.0000000 )


      isym = 17     inv.  60 deg rotation - cryst. axis [0,0,1]  

 cryst.   s(17) = (    -1         -1          0      )    f =(  0.0000000 )
                  (     1          0          0      )       ( -0.0000000 )
                  (     0          0         -1      )       (  0.5000000 )

 cart.    s(17) = ( -0.5000000  0.8660254  0.0000000 )    f =(  0.0000000 )
                  ( -0.8660254 -0.5000000  0.0000000 )       ( -0.0000000 )
                  (  0.0000000  0.0000000 -1.0000000 )       (  0.8022088 )


      isym = 18     inv.  60 deg rotation - cryst. axis [0,0,-1] 

 cryst.   s(18) = (     0          1          0      )    f =( -0.0000000 )
                  (    -1         -1          0      )       ( -0.0000000 )
                  (     0          0         -1      )       (  0.5000000 )

 cart.    s(18) = ( -0.5000000 -0.8660254  0.0000000 )    f =(  0.0000000 )
                  (  0.8660254 -0.5000000  0.0000000 )       ( -0.0000000 )
                  (  0.0000000  0.0000000 -1.0000000 )       (  0.8022088 )


      isym = 19     inv. 120 deg rotation - cryst. axis [0,0,1]  

 cryst.   s(19) = (     0         -1          0      )
                  (     1          1          0      )
                  (     0          0         -1      )

 cart.    s(19) = (  0.5000000  0.8660254  0.0000000 )
                  ( -0.8660254  0.5000000  0.0000000 )
                  (  0.0000000  0.0000000 -1.0000000 )


      isym = 20     inv. 120 deg rotation - cryst. axis [0,0,-1] 

 cryst.   s(20) = (     1          1          0      )
                  (    -1          0          0      )
                  (     0          0         -1      )

 cart.    s(20) = (  0.5000000 -0.8660254  0.0000000 )
                  (  0.8660254  0.5000000  0.0000000 )
                  (  0.0000000  0.0000000 -1.0000000 )


      isym = 21     inv. 180 deg rotation - cryst. axis [1,-1,0] 

 cryst.   s(21) = (     0          1          0      )    f =(  0.0000000 )
                  (     1          0          0      )       ( -0.0000000 )
                  (     0          0          1      )       ( -0.5000000 )

 cart.    s(21) = ( -0.5000000  0.8660254  0.0000000 )    f =(  0.0000000 )
                  (  0.8660254  0.5000000  0.0000000 )       ( -0.0000000 )
                  (  0.0000000  0.0000000  1.0000000 )       ( -0.8022088 )


      isym = 22     inv. 180 deg rotation - cryst. axis [2,1,0]  

 cryst.   s(22) = (    -1         -1          0      )    f =(  0.0000000 )
                  (     0          1          0      )       ( -0.0000000 )
                  (     0          0          1      )       ( -0.5000000 )

 cart.    s(22) = ( -0.5000000 -0.8660254  0.0000000 )    f =(  0.0000000 )
                  ( -0.8660254  0.5000000  0.0000000 )       ( -0.0000000 )
                  (  0.0000000  0.0000000  1.0000000 )       ( -0.8022088 )


      isym = 23     inv. 180 deg rotation - cryst. axis [0,1,0]  

 cryst.   s(23) = (     1          1          0      )
                  (     0         -1          0      )
                  (     0          0          1      )

 cart.    s(23) = (  0.5000000  0.8660254  0.0000000 )
                  (  0.8660254 -0.5000000  0.0000000 )
                  (  0.0000000  0.0000000  1.0000000 )


      isym = 24     inv. 180 deg rotation - cryst. axis [1,1,0]  

 cryst.   s(24) = (     0         -1          0      )
                  (    -1          0          0      )
                  (     0          0          1      )

 cart.    s(24) = (  0.5000000 -0.8660254  0.0000000 )
                  ( -0.8660254 -0.5000000  0.0000000 )
                  (  0.0000000  0.0000000  1.0000000 )


     point group D_6h(6/mmm)
     there are 12 classes
     the character table:

       E     2C6   2C3   C2    3C2'  3C2'' i     2S3   2S6   s_h   3s_d  3s_v 
A_1g   1.00  1.00  1.00  1.00  1.00  1.00  1.00  1.00  1.00  1.00  1.00  1.00
A_2g   1.00  1.00  1.00  1.00 -1.00 -1.00  1.00  1.00  1.00  1.00 -1.00 -1.00
B_1g   1.00 -1.00  1.00 -1.00  1.00 -1.00  1.00 -1.00  1.00 -1.00  1.00 -1.00
B_2g   1.00 -1.00  1.00 -1.00 -1.00  1.00  1.00 -1.00  1.00 -1.00 -1.00  1.00
E_1g   2.00  1.00 -1.00 -2.00  0.00  0.00  2.00  1.00 -1.00 -2.00  0.00  0.00
E_2g   2.00 -1.00 -1.00  2.00  0.00  0.00  2.00 -1.00 -1.00  2.00  0.00  0.00
A_1u   1.00  1.00  1.00  1.00  1.00  1.00 -1.00 -1.00 -1.00 -1.00 -1.00 -1.00
A_2u   1.00  1.00  1.00  1.00 -1.00 -1.00 -1.00 -1.00 -1.00 -1.00  1.00  1.00
B_1u   1.00 -1.00  1.00 -1.00  1.00 -1.00 -1.00  1.00 -1.00  1.00 -1.00  1.00
B_2u   1.00 -1.00  1.00 -1.00 -1.00  1.00 -1.00  1.00 -1.00  1.00  1.00 -1.00
E_1u   2.00  1.00 -1.00 -2.00  0.00  0.00 -2.00 -1.00  1.00  2.00  0.00  0.00
E_2u   2.00 -1.00 -1.00  2.00  0.00  0.00 -2.00  1.00  1.00 -2.00  0.00  0.00

     the symmetry operations in each class and the name of the first element:

     E        1
          identity                                               
     2C6      5    6
           60 deg rotation - cryst. axis [0,0,1]                 
     2C3      7    8
          120 deg rotation - cryst. axis [0,0,1]                 
     C2       2
          180 deg rotation - cart. axis [0,0,1]                  
     3C2'     4   12   11
          180 deg rotation - cart. axis [1,0,0]                  
     3C2''    3    9   10
          180 deg rotation - cart. axis [0,1,0]                  
     i       13
          inversion                                              
     2S3     17   18
          inv.  60 deg rotation - cryst. axis [0,0,1]            
     2S6     19   20
          inv. 120 deg rotation - cryst. axis [0,0,1]            
     s_h     14
          inv. 180 deg rotation - cart. axis [0,0,1]             
     3s_d    16   24   23
          inv. 180 deg rotation - cart. axis [1,0,0]             
     3s_v    15   21   22
          inv. 180 deg rotation - cart. axis [0,1,0]             

   Cartesian axes

     site n.     atom                  positions (alat units)
         1           Co  tau(   1) = (  -0.0000000   0.5773503   0.4011044  )
         2           Co  tau(   2) = (   0.5000000   0.2886751   1.2033133  )

   Crystallographic axes

     site n.     atom                  positions (cryst. coord.)
         1           Co  tau(   1) = (  0.3333333  0.6666667  0.2500000  )
         2           Co  tau(   2) = (  0.6666667  0.3333333  0.7500000  )

     number of k points=    76  Gaussian smearing, width (Ry)=  0.0010
                       cart. coord. in units 2pi/alat
        k(    1) = (   0.0000000   0.0000000   0.0000000), wk =   0.0011574
        k(    2) = (   0.0000000   0.0000000   0.1038798), wk =   0.0023148
        k(    3) = (   0.0000000   0.0000000   0.2077597), wk =   0.0023148
        k(    4) = (   0.0000000   0.0000000  -0.3116395), wk =   0.0011574
        k(    5) = (   0.0000000   0.0962250   0.0000000), wk =   0.0069444
        k(    6) = (   0.0000000   0.0962250   0.1038798), wk =   0.0138889
        k(    7) = (   0.0000000   0.0962250   0.2077597), wk =   0.0138889
        k(    8) = (   0.0000000   0.0962250  -0.3116395), wk =   0.0069444
        k(    9) = (   0.0000000   0.1924501   0.0000000), wk =   0.0069444
        k(   10) = (   0.0000000   0.1924501   0.1038798), wk =   0.0138889
        k(   11) = (   0.0000000   0.1924501   0.2077597), wk =   0.0138889
        k(   12) = (   0.0000000   0.1924501  -0.3116395), wk =   0.0069444
        k(   13) = (   0.0000000   0.2886751   0.0000000), wk =   0.0069444
        k(   14) = (   0.0000000   0.2886751   0.1038798), wk =   0.0138889
        k(   15) = (   0.0000000   0.2886751   0.2077597), wk =   0.0138889
        k(   16) = (   0.0000000   0.2886751  -0.3116395), wk =   0.0069444
        k(   17) = (   0.0000000   0.3849002   0.0000000), wk =   0.0069444
        k(   18) = (   0.0000000   0.3849002   0.1038798), wk =   0.0138889
        k(   19) = (   0.0000000   0.3849002   0.2077597), wk =   0.0138889
        k(   20) = (   0.0000000   0.3849002  -0.3116395), wk =   0.0069444
        k(   21) = (   0.0000000   0.4811252   0.0000000), wk =   0.0069444
        k(   22) = (   0.0000000   0.4811252   0.1038798), wk =   0.0138889
        k(   23) = (   0.0000000   0.4811252   0.2077597), wk =   0.0138889
        k(   24) = (   0.0000000   0.4811252  -0.3116395), wk =   0.0069444
        k(   25) = (   0.0000000  -0.5773503   0.0000000), wk =   0.0034722
        k(   26) = (   0.0000000  -0.5773503   0.1038798), wk =   0.0069444
        k(   27) = (   0.0000000  -0.5773503   0.2077597), wk =   0.0069444
        k(   28) = (   0.0000000  -0.5773503  -0.3116395), wk =   0.0034722
        k(   29) = (   0.0833333   0.1443376   0.0000000), wk =   0.0069444
        k(   30) = (   0.0833333   0.1443376   0.1038798), wk =   0.0138889
        k(   31) = (   0.0833333   0.1443376   0.2077597), wk =   0.0138889
        k(   32) = (   0.0833333   0.1443376  -0.3116395), wk =   0.0069444
        k(   33) = (   0.0833333   0.2405626   0.0000000), wk =   0.0138889
        k(   34) = (   0.0833333   0.2405626   0.1038798), wk =   0.0277778
        k(   35) = (   0.0833333   0.2405626   0.2077597), wk =   0.0277778
        k(   36) = (   0.0833333   0.2405626  -0.3116395), wk =   0.0138889
        k(   37) = (   0.0833333   0.3367877   0.0000000), wk =   0.0138889
        k(   38) = (   0.0833333   0.3367877   0.1038798), wk =   0.0277778
        k(   39) = (   0.0833333   0.3367877   0.2077597), wk =   0.0277778
        k(   40) = (   0.0833333   0.3367877  -0.3116395), wk =   0.0138889
        k(   41) = (   0.0833333   0.4330127   0.0000000), wk =   0.0138889
        k(   42) = (   0.0833333   0.4330127   0.1038798), wk =   0.0277778
        k(   43) = (   0.0833333   0.4330127   0.2077597), wk =   0.0277778
        k(   44) = (   0.0833333   0.4330127  -0.3116395), wk =   0.0138889
        k(   45) = (   0.0833333   0.5292377   0.0000000), wk =   0.0138889
        k(   46) = (   0.0833333   0.5292377   0.1038798), wk =   0.0277778
        k(   47) = (   0.0833333   0.5292377   0.2077597), wk =   0.0277778
        k(   48) = (   0.0833333   0.5292377  -0.3116395), wk =   0.0138889
        k(   49) = (   0.1666667   0.2886751   0.0000000), wk =   0.0069444
        k(   50) = (   0.1666667   0.2886751   0.1038798), wk =   0.0138889
        k(   51) = (   0.1666667   0.2886751   0.2077597), wk =   0.0138889
        k(   52) = (   0.1666667   0.2886751  -0.3116395), wk =   0.0069444
        k(   53) = (   0.1666667   0.3849002   0.0000000), wk =   0.0138889
        k(   54) = (   0.1666667   0.3849002   0.1038798), wk =   0.0277778
        k(   55) = (   0.1666667   0.3849002   0.2077597), wk =   0.0277778
        k(   56) = (   0.1666667   0.3849002  -0.3116395), wk =   0.0138889
        k(   57) = (   0.1666667   0.4811252   0.0000000), wk =   0.0138889
        k(   58) = (   0.1666667   0.4811252   0.1038798), wk =   0.0277778
        k(   59) = (   0.1666667   0.4811252   0.2077597), wk =   0.0277778
        k(   60) = (   0.1666667   0.4811252  -0.3116395), wk =   0.0138889
        k(   61) = (   0.1666667   0.5773503   0.0000000), wk =   0.0069444
        k(   62) = (   0.1666667   0.5773503   0.1038798), wk =   0.0138889
        k(   63) = (   0.1666667   0.5773503   0.2077597), wk =   0.0138889
        k(   64) = (   0.1666667   0.5773503  -0.3116395), wk =   0.0069444
        k(   65) = (   0.2500000   0.4330127   0.0000000), wk =   0.0069444
        k(   66) = (   0.2500000   0.4330127   0.1038798), wk =   0.0138889
        k(   67) = (   0.2500000   0.4330127   0.2077597), wk =   0.0138889
        k(   68) = (   0.2500000   0.4330127  -0.3116395), wk =   0.0069444
        k(   69) = (   0.2500000   0.5292377   0.0000000), wk =   0.0138889
        k(   70) = (   0.2500000   0.5292377   0.1038798), wk =   0.0277778
        k(   71) = (   0.2500000   0.5292377   0.2077597), wk =   0.0277778
        k(   72) = (   0.2500000   0.5292377  -0.3116395), wk =   0.0138889
        k(   73) = (   0.3333333   0.5773503   0.0000000), wk =   0.0023148
        k(   74) = (   0.3333333   0.5773503   0.1038798), wk =   0.0046296
        k(   75) = (   0.3333333   0.5773503   0.2077597), wk =   0.0046296
        k(   76) = (   0.3333333   0.5773503  -0.3116395), wk =   0.0023148

                       cryst. coord.
        k(    1) = (   0.0000000   0.0000000   0.0000000), wk =   0.0011574
        k(    2) = (   0.0000000   0.0000000   0.1666667), wk =   0.0023148
        k(    3) = (   0.0000000   0.0000000   0.3333333), wk =   0.0023148
        k(    4) = (   0.0000000   0.0000000  -0.5000000), wk =   0.0011574
        k(    5) = (   0.0000000   0.0833333   0.0000000), wk =   0.0069444
        k(    6) = (   0.0000000   0.0833333   0.1666667), wk =   0.0138889
        k(    7) = (   0.0000000   0.0833333   0.3333333), wk =   0.0138889
        k(    8) = (   0.0000000   0.0833333  -0.5000000), wk =   0.0069444
        k(    9) = (   0.0000000   0.1666667   0.0000000), wk =   0.0069444
        k(   10) = (   0.0000000   0.1666667   0.1666667), wk =   0.0138889
        k(   11) = (   0.0000000   0.1666667   0.3333333), wk =   0.0138889
        k(   12) = (   0.0000000   0.1666667  -0.5000000), wk =   0.0069444
        k(   13) = (   0.0000000   0.2500000   0.0000000), wk =   0.0069444
        k(   14) = (   0.0000000   0.2500000   0.1666667), wk =   0.0138889
        k(   15) = (   0.0000000   0.2500000   0.3333333), wk =   0.0138889
        k(   16) = (   0.0000000   0.2500000  -0.5000000), wk =   0.0069444
        k(   17) = (   0.0000000   0.3333333   0.0000000), wk =   0.0069444
        k(   18) = (   0.0000000   0.3333333   0.1666667), wk =   0.0138889
        k(   19) = (   0.0000000   0.3333333   0.3333333), wk =   0.0138889
        k(   20) = (   0.0000000   0.3333333  -0.5000000), wk =   0.0069444
        k(   21) = (   0.0000000   0.4166667   0.0000000), wk =   0.0069444
        k(   22) = (   0.0000000   0.4166667   0.1666667), wk =   0.0138889
        k(   23) = (   0.0000000   0.4166667   0.3333333), wk =   0.0138889
        k(   24) = (   0.0000000   0.4166667  -0.5000000), wk =   0.0069444
        k(   25) = (   0.0000000  -0.5000000   0.0000000), wk =   0.0034722
        k(   26) = (   0.0000000  -0.5000000   0.1666667), wk =   0.0069444
        k(   27) = (   0.0000000  -0.5000000   0.3333333), wk =   0.0069444
        k(   28) = (   0.0000000  -0.5000000  -0.5000000), wk =   0.0034722
        k(   29) = (   0.0833333   0.0833333   0.0000000), wk =   0.0069444
        k(   30) = (   0.0833333   0.0833333   0.1666667), wk =   0.0138889
        k(   31) = (   0.0833333   0.0833333   0.3333333), wk =   0.0138889
        k(   32) = (   0.0833333   0.0833333  -0.5000000), wk =   0.0069444
        k(   33) = (   0.0833333   0.1666667   0.0000000), wk =   0.0138889
        k(   34) = (   0.0833333   0.1666667   0.1666667), wk =   0.0277778
        k(   35) = (   0.0833333   0.1666667   0.3333333), wk =   0.0277778
        k(   36) = (   0.0833333   0.1666667  -0.5000000), wk =   0.0138889
        k(   37) = (   0.0833333   0.2500000   0.0000000), wk =   0.0138889
        k(   38) = (   0.0833333   0.2500000   0.1666667), wk =   0.0277778
        k(   39) = (   0.0833333   0.2500000   0.3333333), wk =   0.0277778
        k(   40) = (   0.0833333   0.2500000  -0.5000000), wk =   0.0138889
        k(   41) = (   0.0833333   0.3333333   0.0000000), wk =   0.0138889
        k(   42) = (   0.0833333   0.3333333   0.1666667), wk =   0.0277778
        k(   43) = (   0.0833333   0.3333333   0.3333333), wk =   0.0277778
        k(   44) = (   0.0833333   0.3333333  -0.5000000), wk =   0.0138889
        k(   45) = (   0.0833333   0.4166667   0.0000000), wk =   0.0138889
        k(   46) = (   0.0833333   0.4166667   0.1666667), wk =   0.0277778
        k(   47) = (   0.0833333   0.4166667   0.3333333), wk =   0.0277778
        k(   48) = (   0.0833333   0.4166667  -0.5000000), wk =   0.0138889
        k(   49) = (   0.1666667   0.1666667   0.0000000), wk =   0.0069444
        k(   50) = (   0.1666667   0.1666667   0.1666667), wk =   0.0138889
        k(   51) = (   0.1666667   0.1666667   0.3333333), wk =   0.0138889
        k(   52) = (   0.1666667   0.1666667  -0.5000000), wk =   0.0069444
        k(   53) = (   0.1666667   0.2500000   0.0000000), wk =   0.0138889
        k(   54) = (   0.1666667   0.2500000   0.1666667), wk =   0.0277778
        k(   55) = (   0.1666667   0.2500000   0.3333333), wk =   0.0277778
        k(   56) = (   0.1666667   0.2500000  -0.5000000), wk =   0.0138889
        k(   57) = (   0.1666667   0.3333333   0.0000000), wk =   0.0138889
        k(   58) = (   0.1666667   0.3333333   0.1666667), wk =   0.0277778
        k(   59) = (   0.1666667   0.3333333   0.3333333), wk =   0.0277778
        k(   60) = (   0.1666667   0.3333333  -0.5000000), wk =   0.0138889
        k(   61) = (   0.1666667   0.4166667   0.0000000), wk =   0.0069444
        k(   62) = (   0.1666667   0.4166667   0.1666667), wk =   0.0138889
        k(   63) = (   0.1666667   0.4166667   0.3333333), wk =   0.0138889
        k(   64) = (   0.1666667   0.4166667  -0.5000000), wk =   0.0069444
        k(   65) = (   0.2500000   0.2500000   0.0000000), wk =   0.0069444
        k(   66) = (   0.2500000   0.2500000   0.1666667), wk =   0.0138889
        k(   67) = (   0.2500000   0.2500000   0.3333333), wk =   0.0138889
        k(   68) = (   0.2500000   0.2500000  -0.5000000), wk =   0.0069444
        k(   69) = (   0.2500000   0.3333333   0.0000000), wk =   0.0138889
        k(   70) = (   0.2500000   0.3333333   0.1666667), wk =   0.0277778
        k(   71) = (   0.2500000   0.3333333   0.3333333), wk =   0.0277778
        k(   72) = (   0.2500000   0.3333333  -0.5000000), wk =   0.0138889
        k(   73) = (   0.3333333   0.3333333   0.0000000), wk =   0.0023148
        k(   74) = (   0.3333333   0.3333333   0.1666667), wk =   0.0046296
        k(   75) = (   0.3333333   0.3333333   0.3333333), wk =   0.0046296
        k(   76) = (   0.3333333   0.3333333  -0.5000000), wk =   0.0023148

     Dense  grid:    23271 G-vectors     FFT dimensions: (  32,  32,  54)

     Smooth grid:    22491 G-vectors     FFT dimensions: (  32,  32,  54)

     Dynamical RAM for                 wfc:       0.06 MB

     Dynamical RAM for     wfc (w. buffer):       4.96 MB

     Dynamical RAM for           str. fact:       0.03 MB

     Dynamical RAM for           local pot:       0.00 MB

     Dynamical RAM for          nlocal pot:       0.11 MB

     Dynamical RAM for                qrad:       1.70 MB

     Dynamical RAM for          rho,v,vnew:       0.34 MB

     Dynamical RAM for               rhoin:       0.11 MB

     Dynamical RAM for            rho*nmix:       0.81 MB

     Dynamical RAM for           G-vectors:       0.11 MB

     Dynamical RAM for          h,s,v(r/c):       0.08 MB

     Dynamical RAM for          <psi|beta>:       0.01 MB

     Dynamical RAM for                 psi:       0.13 MB

     Dynamical RAM for                hpsi:       0.13 MB

     Dynamical RAM for                spsi:       0.13 MB

     Dynamical RAM for      wfcinit/wfcrot:       0.14 MB

     Dynamical RAM for           addusdens:       2.42 MB

     Estimated static dynamical RAM per process >       7.60 MB

     Estimated max dynamical RAM per process >      10.82 MB

     Estimated total dynamical RAM >     291.66 MB

     Check: negative core charge=   -0.000043
     Generating pointlists ...
     new r_m :   0.4077 (alat units)  1.9184 (a.u.) for type    1

     The initial density is read from file :
     ./out2/Co.save/charge-density


     starting charge      34.0426, renormalised to      34.0000

     negative rho (up, down):  2.091E+00 1.604E+00
     Starting wfcs from file
     Checking if some PAW data can be deallocated... 

     total cpu time spent up to now is        0.5 secs

     Self-consistent Calculation

     iteration #  1     ecut=   110.00 Ry     beta= 0.70
     Davidson diagonalization with overlap

---- Real-time Memory Report at c_bands before calling an iterative solver
            59 MiB given to the printing process from OS
             0 MiB allocation reported by mallinfo(arena+hblkhd)
        181382 MiB available memory on the node where the printing process lives
------------------
     c_bands:  1 eigenvalues not converged
     c_bands:  3 eigenvalues not converged
     c_bands:  1 eigenvalues not converged
     c_bands:  3 eigenvalues not converged
     c_bands:  1 eigenvalues not converged
     c_bands:  2 eigenvalues not converged
     c_bands:  5 eigenvalues not converged
     c_bands:  2 eigenvalues not converged
     c_bands:  5 eigenvalues not converged
     c_bands:  4 eigenvalues not converged
     c_bands:  1 eigenvalues not converged
     c_bands:  4 eigenvalues not converged
     c_bands:  1 eigenvalues not converged
     c_bands:  4 eigenvalues not converged
     c_bands:  3 eigenvalues not converged
     c_bands:  3 eigenvalues not converged
     c_bands:  3 eigenvalues not converged
     c_bands:  3 eigenvalues not converged
     c_bands:  5 eigenvalues not converged
     c_bands:  3 eigenvalues not converged
     c_bands:  3 eigenvalues not converged
     c_bands:  1 eigenvalues not converged
     c_bands:  2 eigenvalues not converged
     c_bands:  5 eigenvalues not converged
     c_bands:  2 eigenvalues not converged
     c_bands:  3 eigenvalues not converged
     c_bands:  5 eigenvalues not converged
     c_bands:  5 eigenvalues not converged
     c_bands:  5 eigenvalues not converged
     c_bands:  4 eigenvalues not converged
     c_bands:  1 eigenvalues not converged
     c_bands:  3 eigenvalues not converged
     c_bands:  4 eigenvalues not converged
     c_bands:  4 eigenvalues not converged
     c_bands:  4 eigenvalues not converged
     c_bands:  5 eigenvalues not converged
     c_bands:  3 eigenvalues not converged
     c_bands:  4 eigenvalues not converged
     c_bands:  5 eigenvalues not converged
     c_bands:  2 eigenvalues not converged
     c_bands:  3 eigenvalues not converged
     c_bands:  4 eigenvalues not converged
     c_bands:  5 eigenvalues not converged
     c_bands:  4 eigenvalues not converged
     c_bands:  5 eigenvalues not converged
     ethr =  1.00E-05,  avg # of iterations = 21.7

     negative rho (up, down):  1.105E-01 5.744E-02

     total cpu time spent up to now is        6.0 secs

     total energy              =    -753.01963176 Ry
     estimated scf accuracy    <       2.31093564 Ry

     total magnetization       =     3.04 Bohr mag/cell
     absolute magnetization    =     3.34 Bohr mag/cell

     iteration #  2     ecut=   110.00 Ry     beta= 0.70
     Davidson diagonalization with overlap

---- Real-time Memory Report at c_bands before calling an iterative solver
            83 MiB given to the printing process from OS
             0 MiB allocation reported by mallinfo(arena+hblkhd)
        181050 MiB available memory on the node where the printing process lives
------------------
     ethr =  6.80E-03,  avg # of iterations =  1.5

     negative rho (up, down):  1.612E-04 2.130E-05

     total cpu time spent up to now is        6.8 secs

     total energy              =    -753.09915890 Ry
     estimated scf accuracy    <       0.49511116 Ry

     total magnetization       =     3.07 Bohr mag/cell
     absolute magnetization    =     3.37 Bohr mag/cell

     iteration #  3     ecut=   110.00 Ry     beta= 0.70
     Davidson diagonalization with overlap

---- Real-time Memory Report at c_bands before calling an iterative solver
            84 MiB given to the printing process from OS
             0 MiB allocation reported by mallinfo(arena+hblkhd)
        181033 MiB available memory on the node where the printing process lives
------------------
     ethr =  1.46E-03,  avg # of iterations =  3.4

     total cpu time spent up to now is        7.9 secs

     total energy              =    -753.35409523 Ry
     estimated scf accuracy    <       0.77690391 Ry

     total magnetization       =     3.13 Bohr mag/cell
     absolute magnetization    =     3.42 Bohr mag/cell

     iteration #  4     ecut=   110.00 Ry     beta= 0.70
     Davidson diagonalization with overlap

---- Real-time Memory Report at c_bands before calling an iterative solver
            85 MiB given to the printing process from OS
             0 MiB allocation reported by mallinfo(arena+hblkhd)
        181024 MiB available memory on the node where the printing process lives
------------------
     ethr =  1.46E-03,  avg # of iterations =  2.1

     total cpu time spent up to now is        8.7 secs

     total energy              =    -753.40911322 Ry
     estimated scf accuracy    <       0.06180240 Ry

     total magnetization       =     3.21 Bohr mag/cell
     absolute magnetization    =     3.55 Bohr mag/cell

     iteration #  5     ecut=   110.00 Ry     beta= 0.70
     Davidson diagonalization with overlap

---- Real-time Memory Report at c_bands before calling an iterative solver
            85 MiB given to the printing process from OS
             0 MiB allocation reported by mallinfo(arena+hblkhd)
        181015 MiB available memory on the node where the printing process lives
------------------
     ethr =  1.82E-04,  avg # of iterations =  4.9

     total cpu time spent up to now is       10.0 secs

     total energy              =    -753.44421194 Ry
     estimated scf accuracy    <       0.06438492 Ry

     total magnetization       =     3.20 Bohr mag/cell
     absolute magnetization    =     3.51 Bohr mag/cell

     iteration #  6     ecut=   110.00 Ry     beta= 0.70
     Davidson diagonalization with overlap

---- Real-time Memory Report at c_bands before calling an iterative solver
            86 MiB given to the printing process from OS
             0 MiB allocation reported by mallinfo(arena+hblkhd)
        181011 MiB available memory on the node where the printing process lives
------------------
     ethr =  1.82E-04,  avg # of iterations =  1.6

     total cpu time spent up to now is       10.8 secs

     total energy              =    -753.45127131 Ry
     estimated scf accuracy    <       0.00366762 Ry

     total magnetization       =     3.24 Bohr mag/cell
     absolute magnetization    =     3.55 Bohr mag/cell

     iteration #  7     ecut=   110.00 Ry     beta= 0.70
     Davidson diagonalization with overlap

---- Real-time Memory Report at c_bands before calling an iterative solver
            86 MiB given to the printing process from OS
             0 MiB allocation reported by mallinfo(arena+hblkhd)
        181006 MiB available memory on the node where the printing process lives
------------------
     ethr =  1.08E-05,  avg # of iterations =  6.2

     total cpu time spent up to now is       12.2 secs

     total energy              =    -753.45470427 Ry
     estimated scf accuracy    <       0.00030752 Ry

     total magnetization       =     3.25 Bohr mag/cell
     absolute magnetization    =     3.57 Bohr mag/cell

     iteration #  8     ecut=   110.00 Ry     beta= 0.70
     Davidson diagonalization with overlap

---- Real-time Memory Report at c_bands before calling an iterative solver
            86 MiB given to the printing process from OS
             0 MiB allocation reported by mallinfo(arena+hblkhd)
        181004 MiB available memory on the node where the printing process lives
------------------
     ethr =  9.04E-07,  avg # of iterations =  8.9

     total cpu time spent up to now is       13.9 secs

     total energy              =    -753.45534969 Ry
     estimated scf accuracy    <       0.00044629 Ry

     total magnetization       =     3.26 Bohr mag/cell
     absolute magnetization    =     3.58 Bohr mag/cell

     iteration #  9     ecut=   110.00 Ry     beta= 0.70
     Davidson diagonalization with overlap

---- Real-time Memory Report at c_bands before calling an iterative solver
            87 MiB given to the printing process from OS
             0 MiB allocation reported by mallinfo(arena+hblkhd)
        181000 MiB available memory on the node where the printing process lives
------------------
     ethr =  9.04E-07,  avg # of iterations =  2.9

     total cpu time spent up to now is       14.9 secs

     total energy              =    -753.45518463 Ry
     estimated scf accuracy    <       0.00151258 Ry

     total magnetization       =     3.28 Bohr mag/cell
     absolute magnetization    =     3.60 Bohr mag/cell

     iteration # 10     ecut=   110.00 Ry     beta= 0.70
     Davidson diagonalization with overlap

---- Real-time Memory Report at c_bands before calling an iterative solver
            87 MiB given to the printing process from OS
             0 MiB allocation reported by mallinfo(arena+hblkhd)
        180997 MiB available memory on the node where the printing process lives
------------------
     ethr =  9.04E-07,  avg # of iterations =  1.2

     total cpu time spent up to now is       15.7 secs

     total energy              =    -753.45510221 Ry
     estimated scf accuracy    <       0.00073498 Ry

     total magnetization       =     3.29 Bohr mag/cell
     absolute magnetization    =     3.61 Bohr mag/cell

     iteration # 11     ecut=   110.00 Ry     beta= 0.70
     Davidson diagonalization with overlap

---- Real-time Memory Report at c_bands before calling an iterative solver
            87 MiB given to the printing process from OS
             0 MiB allocation reported by mallinfo(arena+hblkhd)
        180997 MiB available memory on the node where the printing process lives
------------------
     ethr =  9.04E-07,  avg # of iterations =  1.7

     total cpu time spent up to now is       16.4 secs

     total energy              =    -753.45507675 Ry
     estimated scf accuracy    <       0.00031303 Ry

     total magnetization       =     3.30 Bohr mag/cell
     absolute magnetization    =     3.61 Bohr mag/cell

     iteration # 12     ecut=   110.00 Ry     beta= 0.70
     Davidson diagonalization with overlap

---- Real-time Memory Report at c_bands before calling an iterative solver
            87 MiB given to the printing process from OS
             0 MiB allocation reported by mallinfo(arena+hblkhd)
        180997 MiB available memory on the node where the printing process lives
------------------
     ethr =  9.04E-07,  avg # of iterations =  1.8

     total cpu time spent up to now is       17.2 secs

     total energy              =    -753.45505678 Ry
     estimated scf accuracy    <       0.00010379 Ry

     total magnetization       =     3.30 Bohr mag/cell
     absolute magnetization    =     3.62 Bohr mag/cell

     iteration # 13     ecut=   110.00 Ry     beta= 0.70
     Davidson diagonalization with overlap

---- Real-time Memory Report at c_bands before calling an iterative solver
            88 MiB given to the printing process from OS
             0 MiB allocation reported by mallinfo(arena+hblkhd)
        180995 MiB available memory on the node where the printing process lives
------------------
     ethr =  3.05E-07,  avg # of iterations =  3.7
 
     Magnetic moment per site  (integrated on atomic sphere of radius R)
     atom   1 (R=0.408)  charge= 15.5626  magn=  1.7258
     atom   2 (R=0.408)  charge= 15.5626  magn=  1.7258

     total cpu time spent up to now is       18.2 secs

     End of self-consistent calculation

 ------ SPIN UP ------------


          k = 0.0000 0.0000 0.0000 (  2803 PWs)   bands (ev):

   -77.1853 -77.1238 -40.5926 -40.2962 -40.2962 -40.2444 -40.2444 -40.2443
     9.8760  13.7008  16.3019  16.3019  16.3159  16.6312  16.6312  16.9523
    16.9523  18.1115  18.1115  18.7858  25.4573

     occupation numbers 
     1.0000   1.0000   1.0000   1.0000   1.0000   1.0000   1.0000   1.0000
     1.0000   1.0000   1.0000   1.0000   1.0000   1.0000   1.0000   1.0000
     1.0000   1.0000   1.0000   1.0000   0.0000

          k = 0.0000 0.0000 0.1039 (  2827 PWs)   bands (ev):

   -77.1812 -77.1279 -40.5696 -40.2927 -40.2927 -40.2680 -40.2479 -40.2479
    10.1590  13.6378  16.2290  16.2290  16.2408  16.5517  16.5517  17.1287
    17.1287  17.8070  18.0966  18.0966  27.0043

     occupation numbers 
     1.0000   1.0000   1.0000   1.0000   1.0000   1.0000   1.0000   1.0000
     1.0000   1.0000   1.0000   1.0000   1.0000   1.0000   1.0000   1.0000
     1.0000   1.0000   1.0000   1.0000   0.0000

          k = 0.0000 0.0000 0.2078 (  2809 PWs)   bands (ev):

   -77.1699 -77.1392 -40.5065 -40.3323 -40.2832 -40.2832 -40.2574 -40.2574
    10.9697  13.2149  16.0663  16.1681  16.1681  16.3771  16.3771  16.4468
    17.4705  17.4705  18.0082  18.0082  30.2701

     occupation numbers 
     1.0000   1.0000   1.0000   1.0000   1.0000   1.0000   1.0000   1.0000
     1.0000   1.0000   1.0000   1.0000   1.0000   1.0000   1.0000   1.0000
     1.0000   1.0000   1.0000   1.0000   0.0000

          k = 0.0000 0.0000-0.3116 (  2822 PWs)   bands (ev):

   -77.1546 -77.1546 -40.4197 -40.4197 -40.2703 -40.2703 -40.2703 -40.2703
    12.1470  12.1470  15.9793  15.9793  16.2228  16.2228  16.2228  16.2228
    17.7936  17.7936  17.7936  17.7936  34.1584

     occupation numbers 
     1.0000   1.0000   1.0000   1.0000   1.0000   1.0000   1.0000   1.0000
     1.0000   1.0000   1.0000   1.0000   1.0000   1.0000   1.0000   1.0000
     1.0000   1.0000   1.0000   1.0000   0.0000

          k = 0.0000 0.0962 0.0000 (  2815 PWs)   bands (ev):

   -77.1820 -77.1224 -40.5852 -40.3119 -40.3014 -40.2608 -40.2476 -40.2470
    10.1184  13.8448  16.0674  16.4167  16.5089  16.5870  16.7323  16.8004
    16.8796  17.3111  18.1434  19.9053  25.4962

     occupation numbers 
     1.0000   1.0000   1.0000   1.0000   1.0000   1.0000   1.0000   1.0000
     1.0000   1.0000   1.0000   1.0000   1.0000   1.0000   1.0000   1.0000
     1.0000   1.0000   1.0000   0.0000   0.0000

          k = 0.0000 0.0962 0.1039 (  2808 PWs)   bands (ev):

   -77.1780 -77.1264 -40.5635 -40.3079 -40.2978 -40.2805 -40.2541 -40.2506
    10.3970  13.7967  16.0621  16.3214  16.3253  16.3967  16.6462  16.9722
    17.0853  17.1927  18.1207  19.1074  27.1117

     occupation numbers 
     1.0000   1.0000   1.0000   1.0000   1.0000   1.0000   1.0000   1.0000
     1.0000   1.0000   1.0000   1.0000   1.0000   1.0000   1.0000   1.0000
     1.0000   1.0000   1.0000   0.0000   0.0000

          k = 0.0000 0.0962 0.2078 (  2812 PWs)   bands (ev):

   -77.1671 -77.1373 -40.5040 -40.3403 -40.2967 -40.2878 -40.2661 -40.2606
    11.1948  13.4031  15.9581  16.0332  16.0997  16.2577  16.4708  16.5676
    17.4454  17.4944  18.0149  18.3156  30.4214

     occupation numbers 
     1.0000   1.0000   1.0000   1.0000   1.0000   1.0000   1.0000   1.0000
     1.0000   1.0000   1.0000   1.0000   1.0000   1.0000   1.0000   1.0000
     1.0000   1.0000   1.0000   1.0000   0.0000

          k = 0.0000 0.0962-0.3116 (  2820 PWs)   bands (ev):

   -77.1522 -77.1522 -40.4224 -40.4224 -40.2815 -40.2815 -40.2742 -40.2742
    12.3532  12.3532  15.8140  15.8140  16.2527  16.2527  16.3144  16.3144
    17.7827  17.7828  17.8887  17.8887  34.3235

     occupation numbers 
     1.0000   1.0000   1.0000   1.0000   1.0000   1.0000   1.0000   1.0000
     1.0000   1.0000   1.0000   1.0000   1.0000   1.0000   1.0000   1.0000
     1.0000   1.0000   1.0000   1.0000   0.0000

          k = 0.0000 0.1925 0.0000 (  2807 PWs)   bands (ev):

   -77.1729 -77.1187 -40.5639 -40.3551 -40.3154 -40.3052 -40.2573 -40.2542
    10.8194  14.2009  15.7804  16.0870  16.4162  16.7000  16.7410  16.8200
    16.9287  17.0156  18.2118  21.5120  25.6329

     occupation numbers 
     1.0000   1.0000   1.0000   1.0000   1.0000   1.0000   1.0000   1.0000
     1.0000   1.0000   1.0000   1.0000   1.0000   1.0000   1.0000   1.0000
     1.0000   1.0000   1.0000   0.0000   0.0000

          k = 0.0000 0.1925 0.1039 (  2810 PWs)   bands (ev):

   -77.1692 -77.1224 -40.5467 -40.3492 -40.3217 -40.3113 -40.2644 -40.2583
    11.0815  14.1982  15.8007  15.8262  16.2960  16.5284  16.6944  16.8916
    17.0729  17.1854  18.1717  20.3591  27.4603

     occupation numbers 
     1.0000   1.0000   1.0000   1.0000   1.0000   1.0000   1.0000   1.0000
     1.0000   1.0000   1.0000   1.0000   1.0000   1.0000   1.0000   1.0000
     1.0000   1.0000   1.0000   0.0000   0.0000

          k = 0.0000 0.1925 0.2078 (  2812 PWs)   bands (ev):

   -77.1594 -77.1322 -40.4995 -40.3703 -40.3303 -40.3002 -40.2827 -40.2695
    11.8287  13.8911  15.4491  15.8733  16.0105  16.4760  16.5063  16.7312
    17.4201  17.5930  18.0291  18.9768  30.8727

     occupation numbers 
     1.0000   1.0000   1.0000   1.0000   1.0000   1.0000   1.0000   1.0000
     1.0000   1.0000   1.0000   1.0000   1.0000   1.0000   1.0000   1.0000
     1.0000   1.0000   1.0000   0.0000   0.0000

          k = 0.0000 0.1925-0.3116 (  2812 PWs)   bands (ev):

   -77.1458 -77.1458 -40.4348 -40.4348 -40.3069 -40.3069 -40.2849 -40.2849
    12.9077  12.9077  15.5682  15.5682  16.2033  16.2033  16.5590  16.5590
    17.7672  17.7672  18.1439  18.1439  34.7633

     occupation numbers 
     1.0000   1.0000   1.0000   1.0000   1.0000   1.0000   1.0000   1.0000
     1.0000   1.0000   1.0000   1.0000   1.0000   1.0000   1.0000   1.0000
     1.0000   1.0000   1.0000   1.0000   0.0000

          k = 0.0000 0.2887 0.0000 (  2814 PWs)   bands (ev):

   -77.1599 -77.1142 -40.5321 -40.4146 -40.3647 -40.3340 -40.2736 -40.2646
    11.8805  14.4889  15.3532  15.5987  16.3273  16.4843  16.7316  17.2115
    17.2496  17.4232  18.2774  23.3196  25.8923

     occupation numbers 
     1.0000   1.0000   1.0000   1.0000   1.0000   1.0000   1.0000   1.0000
     1.0000   1.0000   1.0000   1.0000   1.0000   1.0000   1.0000   1.0000
     1.0000   1.0000   1.0000   0.0000   0.0000

          k = 0.0000 0.2887 0.1039 (  2810 PWs)   bands (ev):

   -77.1568 -77.1173 -40.5251 -40.4032 -40.3789 -40.3294 -40.2779 -40.2693
    12.0989  14.5407  15.2034  15.6514  16.1689  16.5224  16.7379  17.2601
    17.3702  17.3743  18.2207  21.6567  28.0788

     occupation numbers 
     1.0000   1.0000   1.0000   1.0000   1.0000   1.0000   1.0000   1.0000
     1.0000   1.0000   1.0000   1.0000   1.0000   1.0000   1.0000   1.0000
     1.0000   1.0000   1.0000   0.0000   0.0000

          k = 0.0000 0.2887 0.2078 (  2822 PWs)   bands (ev):

   -77.1485 -77.1256 -40.5028 -40.4223 -40.3653 -40.3167 -40.2953 -40.2820
    12.7065  14.3257  15.1042  15.6995  16.0196  16.5716  16.6460  17.1006
    17.5385  17.7625  18.0547  19.7647  31.4463

     occupation numbers 
     1.0000   1.0000   1.0000   1.0000   1.0000   1.0000   1.0000   1.0000
     1.0000   1.0000   1.0000   1.0000   1.0000   1.0000   1.0000   1.0000
     1.0000   1.0000   1.0000   0.0000   0.0000

          k = 0.0000 0.2887-0.3116 (  2814 PWs)   bands (ev):

   -77.1371 -77.1371 -40.4660 -40.4660 -40.3270 -40.3270 -40.2994 -40.2994
    13.5467  13.5467  15.4126  15.4126  16.2587  16.2587  16.8536  16.8536
    17.8070  17.8070  18.4987  18.4987  33.3738

     occupation numbers 
     1.0000   1.0000   1.0000   1.0000   1.0000   1.0000   1.0000   1.0000
     1.0000   1.0000   1.0000   1.0000   1.0000   1.0000   1.0000   1.0000
     1.0000   1.0000   1.0000   1.0000   0.0000

          k = 0.0000 0.3849 0.0000 (  2830 PWs)   bands (ev):

   -77.1459 -77.1106 -40.4948 -40.4747 -40.4232 -40.3522 -40.2953 -40.2755
    13.0431  14.4260  14.8180  15.6958  16.2903  16.4508  16.5591  17.7127
    17.8659  17.9312  18.3231  25.2852  25.8761

     occupation numbers 
     1.0000   1.0000   1.0000   1.0000   1.0000   1.0000   1.0000   1.0000
     1.0000   1.0000   1.0000   1.0000   1.0000   1.0000   1.0000   1.0000
     1.0000   1.0000   1.0000   0.0000   0.0000

          k = 0.0000 0.3849 0.1039 (  2821 PWs)   bands (ev):

   -77.1436 -77.1130 -40.5176 -40.4483 -40.4266 -40.3470 -40.2955 -40.2806
    13.1462  14.4679  14.8469  15.5691  16.3528  16.3853  16.9016  17.7376
    17.7692  17.8673  18.2631  22.8998  27.9459

     occupation numbers 
     1.0000   1.0000   1.0000   1.0000   1.0000   1.0000   1.0000   1.0000
     1.0000   1.0000   1.0000   1.0000   1.0000   1.0000   1.0000   1.0000
     1.0000   1.0000   1.0000   0.0000   0.0000

          k = 0.0000 0.3849 0.2078 (  2817 PWs)   bands (ev):

   -77.1371 -77.1194 -40.5256 -40.4779 -40.3792 -40.3330 -40.3053 -40.2947
    13.4345  14.2973  14.9826  15.5116  16.4321  16.6536  17.1870  17.4517
    17.8467  17.9940  18.1313  20.6548  29.0158

     occupation numbers 
     1.0000   1.0000   1.0000   1.0000   1.0000   1.0000   1.0000   1.0000
     1.0000   1.0000   1.0000   1.0000   1.0000   1.0000   1.0000   1.0000
     1.0000   1.0000   1.0000   0.0000   0.0000

          k = 0.0000 0.3849-0.3116 (  2820 PWs)   bands (ev):

   -77.1283 -77.1283 -40.5101 -40.5101 -40.3339 -40.3339 -40.3139 -40.3139
    13.8543  13.8543  15.2925  15.2925  16.8502  16.8502  17.0411  17.0411
    17.9828  17.9828  18.9817  18.9817  30.1570

     occupation numbers 
     1.0000   1.0000   1.0000   1.0000   1.0000   1.0000   1.0000   1.0000
     1.0000   1.0000   1.0000   1.0000   1.0000   1.0000   1.0000   1.0000
     1.0000   1.0000   0.0000   0.0000   0.0000

          k = 0.0000 0.4811 0.0000 (  2822 PWs)   bands (ev):

   -77.1344 -77.1093 -40.5190 -40.4653 -40.4601 -40.3652 -40.3185 -40.2836
    13.8194  14.2387  14.4970  16.0483  16.1579  16.4378  16.6532  18.0869
    18.2336  18.3480  19.0351  23.9312  27.3090

     occupation numbers 
     1.0000   1.0000   1.0000   1.0000   1.0000   1.0000   1.0000   1.0000
     1.0000   1.0000   1.0000   1.0000   1.0000   1.0000   1.0000   1.0000
     1.0000   1.0000   0.0000   0.0000   0.0000

          k = 0.0000 0.4811 0.1039 (  2819 PWs)   bands (ev):

   -77.1327 -77.1110 -40.5391 -40.4842 -40.4255 -40.3597 -40.3141 -40.2891
    13.7125  14.2417  14.8144  15.4689  16.2747  16.6413  17.2468  18.0445
    18.1317  18.3232  18.8711  23.1706  26.5662

     occupation numbers 
     1.0000   1.0000   1.0000   1.0000   1.0000   1.0000   1.0000   1.0000
     1.0000   1.0000   1.0000   1.0000   1.0000   1.0000   1.0000   1.0000
     1.0000   1.0000   0.9717   0.0000   0.0000

          k = 0.0000 0.4811 0.2078 (  2821 PWs)   bands (ev):

   -77.1281 -77.1155 -40.5546 -40.5189 -40.3746 -40.3449 -40.3145 -40.3040
    13.6846  14.1749  14.9720  15.3213  16.6066  16.8694  17.6306  18.1586
    18.2318  18.2765  18.5295  21.4560  26.6749

     occupation numbers 
     1.0000   1.0000   1.0000   1.0000   1.0000   1.0000   1.0000   1.0000
     1.0000   1.0000   1.0000   1.0000   1.0000   1.0000   1.0000   1.0000
     1.0000   1.0000   1.0000   0.0000   0.0000

          k = 0.0000 0.4811-0.3116 (  2814 PWs)   bands (ev):

   -77.1218 -77.1218 -40.5469 -40.5469 -40.3343 -40.3343 -40.3245 -40.3245
    13.8758  13.8758  15.1733  15.1733  17.0945  17.0945  17.5868  17.5868
    18.2169  18.2169  19.7866  19.7866  27.4608

     occupation numbers 
     1.0000   1.0000   1.0000   1.0000   1.0000   1.0000   1.0000   1.0000
     1.0000   1.0000   1.0000   1.0000   1.0000   1.0000   1.0000   1.0000
     1.0000   1.0000   0.0000   0.0000   0.0000

          k = 0.0000-0.5774 0.0000 (  2806 PWs)   bands (ev):

   -77.1296 -77.1094 -40.5353 -40.4805 -40.4438 -40.3699 -40.3306 -40.2866
    14.0877  14.0955  14.3902  16.1111  16.2929  16.3941  16.7318  18.2221
    18.3557  18.3828  20.1797  22.2020  28.6172

     occupation numbers 
     1.0000   1.0000   1.0000   1.0000   1.0000   1.0000   1.0000   1.0000
     1.0000   1.0000   1.0000   1.0000   1.0000   1.0000   1.0000   1.0000
     1.0000   1.0000   0.0000   0.0000   0.0000

          k = 0.0000-0.5774 0.1039 (  2826 PWs)   bands (ev):

   -77.1282 -77.1108 -40.5515 -40.4986 -40.4163 -40.3644 -40.3237 -40.2922
    13.8184  14.1423  14.8522  15.4422  16.2342  16.7327  17.4445  18.1191
    18.2850  18.3745  19.9663  22.0255  27.7219

     occupation numbers 
     1.0000   1.0000   1.0000   1.0000   1.0000   1.0000   1.0000   1.0000
     1.0000   1.0000   1.0000   1.0000   1.0000   1.0000   1.0000   1.0000
     1.0000   1.0000   0.0000   0.0000   0.0000

          k = 0.0000-0.5774 0.2078 (  2842 PWs)   bands (ev):

   -77.1245 -77.1145 -40.5670 -40.5338 -40.3699 -40.3492 -40.3191 -40.3075
    13.7059  14.1274  14.9955  15.2354  16.5844  17.0179  17.6710  18.2915
    18.3488  18.3519  19.6208  21.4264  26.6203

     occupation numbers 
     1.0000   1.0000   1.0000   1.0000   1.0000   1.0000   1.0000   1.0000
     1.0000   1.0000   1.0000   1.0000   1.0000   1.0000   1.0000   1.0000
     1.0000   1.0000   0.0000   0.0000   0.0000

          k = 0.0000-0.5774-0.3116 (  2816 PWs)   bands (ev):

   -77.1195 -77.1195 -40.5608 -40.5608 -40.3339 -40.3339 -40.3283 -40.3283
    13.8580  13.8580  15.1258  15.1258  17.1007  17.1007  17.8393  17.8393
    18.3211  18.3211  20.4146  20.4146  26.2198

     occupation numbers 
     1.0000   1.0000   1.0000   1.0000   1.0000   1.0000   1.0000   1.0000
     1.0000   1.0000   1.0000   1.0000   1.0000   1.0000   1.0000   1.0000
     1.0000   1.0000   0.0000   0.0000   0.0000

          k = 0.0833 0.1443 0.0000 (  2818 PWs)   bands (ev):

   -77.1758 -77.1199 -40.5708 -40.3387 -40.3172 -40.2856 -40.2541 -40.2539
    10.5909  14.1005  15.8422  16.3350  16.4803  16.6512  16.6721  16.6763
    16.9564  17.0456  18.1840  21.0619  25.5861

     occupation numbers 
     1.0000   1.0000   1.0000   1.0000   1.0000   1.0000   1.0000   1.0000
     1.0000   1.0000   1.0000   1.0000   1.0000   1.0000   1.0000   1.0000
     1.0000   1.0000   1.0000   0.0000   0.0000

          k = 0.0833 0.1443 0.1039 (  2813 PWs)   bands (ev):

   -77.1721 -77.1236 -40.5520 -40.3333 -40.3177 -40.2996 -40.2604 -40.2579
    10.8593  14.0832  15.8663  15.9952  16.3388  16.4952  16.6656  16.8085
    17.1086  17.1569  18.1523  20.0197  27.3417

     occupation numbers 
     1.0000   1.0000   1.0000   1.0000   1.0000   1.0000   1.0000   1.0000
     1.0000   1.0000   1.0000   1.0000   1.0000   1.0000   1.0000   1.0000
     1.0000   1.0000   1.0000   0.0000   0.0000

          k = 0.0833 0.1443 0.2078 (  2810 PWs)   bands (ev):

   -77.1618 -77.1339 -40.5004 -40.3595 -40.3186 -40.2993 -40.2756 -40.2685
    11.6260  13.7477  15.5765  15.9219  16.0231  16.4160  16.5170  16.6494
    17.4505  17.5341  18.0289  18.7853  30.7258

     occupation numbers 
     1.0000   1.0000   1.0000   1.0000   1.0000   1.0000   1.0000   1.0000
     1.0000   1.0000   1.0000   1.0000   1.0000   1.0000   1.0000   1.0000
     1.0000   1.0000   1.0000   1.0000   0.0000

          k = 0.0833 0.1443-0.3116 (  2808 PWs)   bands (ev):

   -77.1479 -77.1479 -40.4298 -40.4298 -40.2996 -40.2996 -40.2818 -40.2818
    12.7372  12.7372  15.6293  15.6293  16.2028  16.2028  16.4951  16.4951
    17.7729  17.7729  18.0641  18.0641  34.6397

     occupation numbers 
     1.0000   1.0000   1.0000   1.0000   1.0000   1.0000   1.0000   1.0000
     1.0000   1.0000   1.0000   1.0000   1.0000   1.0000   1.0000   1.0000
     1.0000   1.0000   1.0000   1.0000   0.0000

          k = 0.0833 0.2406 0.0000 (  2812 PWs)   bands (ev):

   -77.1647 -77.1158 -40.5442 -40.3861 -40.3556 -40.3163 -40.2671 -40.2659
    11.4803  14.4653  15.5592  15.6234  16.3636  16.4506  16.8899  16.9284
    17.0789  17.3749  18.2349  22.6677  25.8067

     occupation numbers 
     1.0000   1.0000   1.0000   1.0000   1.0000   1.0000   1.0000   1.0000
     1.0000   1.0000   1.0000   1.0000   1.0000   1.0000   1.0000   1.0000
     1.0000   1.0000   1.0000   0.0000   0.0000

          k = 0.0833 0.2406 0.1039 (  2808 PWs)   bands (ev):

   -77.1615 -77.1190 -40.5323 -40.3780 -40.3631 -40.3208 -40.2726 -40.2687
    11.7206  14.5078  15.4061  15.6093  16.2338  16.4958  16.6914  17.0299
    17.2852  17.3622  18.1961  21.2104  27.8490

     occupation numbers 
     1.0000   1.0000   1.0000   1.0000   1.0000   1.0000   1.0000   1.0000
     1.0000   1.0000   1.0000   1.0000   1.0000   1.0000   1.0000   1.0000
     1.0000   1.0000   1.0000   0.0000   0.0000

          k = 0.0833 0.2406 0.2078 (  2818 PWs)   bands (ev):

   -77.1525 -77.1280 -40.4989 -40.4012 -40.3511 -40.3175 -40.2872 -40.2804
    12.3990  14.2671  15.1885  15.7155  15.9688  16.3997  16.6255  16.9693
    17.5407  17.6696  18.0702  19.4914  31.3149

     occupation numbers 
     1.0000   1.0000   1.0000   1.0000   1.0000   1.0000   1.0000   1.0000
     1.0000   1.0000   1.0000   1.0000   1.0000   1.0000   1.0000   1.0000
     1.0000   1.0000   1.0000   0.0000   0.0000

          k = 0.0833 0.2406-0.3116 (  2808 PWs)   bands (ev):

   -77.1403 -77.1403 -40.4512 -40.4512 -40.3225 -40.3225 -40.2946 -40.2946
    13.3635  13.3635  15.4647  15.4647  16.1001  16.1001  16.7762  16.7762
    17.8161  17.8161  18.3716  18.3716  34.8663

     occupation numbers 
     1.0000   1.0000   1.0000   1.0000   1.0000   1.0000   1.0000   1.0000
     1.0000   1.0000   1.0000   1.0000   1.0000   1.0000   1.0000   1.0000
     1.0000   1.0000   1.0000   1.0000   0.0000

          k = 0.0833 0.3368 0.0000 (  2812 PWs)   bands (ev):

   -77.1512 -77.1117 -40.5094 -40.4445 -40.4044 -40.3439 -40.2864 -40.2788
    12.6280  14.5897  15.0373  15.4737  16.2604  16.3791  16.6970  17.3294
    17.5867  17.9425  18.2781  24.5158  26.1228

     occupation numbers 
     1.0000   1.0000   1.0000   1.0000   1.0000   1.0000   1.0000   1.0000
     1.0000   1.0000   1.0000   1.0000   1.0000   1.0000   1.0000   1.0000
     1.0000   1.0000   1.0000   0.0000   0.0000

          k = 0.0833 0.3368 0.1039 (  2816 PWs)   bands (ev):

   -77.1486 -77.1144 -40.5145 -40.4300 -40.4092 -40.3434 -40.2898 -40.2807
    12.7965  14.6649  14.9378  15.5271  16.1462  16.4932  16.6792  17.3467
    17.6832  17.8116  18.2773  22.4856  28.5314

     occupation numbers 
     1.0000   1.0000   1.0000   1.0000   1.0000   1.0000   1.0000   1.0000
     1.0000   1.0000   1.0000   1.0000   1.0000   1.0000   1.0000   1.0000
     1.0000   1.0000   1.0000   0.0000   0.0000

          k = 0.0833 0.3368 0.2078 (  2820 PWs)   bands (ev):

   -77.1413 -77.1216 -40.5109 -40.4542 -40.3748 -40.3351 -40.3029 -40.2899
    13.2520  14.4426  15.0323  15.6219  16.0457  16.5287  16.7112  17.3079
    17.7736  17.9387  18.2332  20.3558  30.6567

     occupation numbers 
     1.0000   1.0000   1.0000   1.0000   1.0000   1.0000   1.0000   1.0000
     1.0000   1.0000   1.0000   1.0000   1.0000   1.0000   1.0000   1.0000
     1.0000   1.0000   1.0000   0.0000   0.0000

          k = 0.0833 0.3368-0.3116 (  2816 PWs)   bands (ev):

   -77.1315 -77.1315 -40.4887 -40.4887 -40.3379 -40.3379 -40.3073 -40.3073
    13.8597  13.8597  15.3909  15.3909  16.2643  16.2643  16.9806  16.9806
    18.0083  18.0083  18.8347  18.8347  31.8646

     occupation numbers 
     1.0000   1.0000   1.0000   1.0000   1.0000   1.0000   1.0000   1.0000
     1.0000   1.0000   1.0000   1.0000   1.0000   1.0000   1.0000   1.0000
     1.0000   1.0000   1.0000   1.0000   0.0000

          k = 0.0833 0.4330 0.0000 (  2822 PWs)   bands (ev):

   -77.1383 -77.1095 -40.4964 -40.4723 -40.4476 -40.3653 -40.3100 -40.2899
    13.6463  14.4184  14.6390  15.6939  16.1355  16.5081  16.5717  17.8311
    18.0219  18.3055  18.7414  25.2930  26.5187

     occupation numbers 
     1.0000   1.0000   1.0000   1.0000   1.0000   1.0000   1.0000   1.0000
     1.0000   1.0000   1.0000   1.0000   1.0000   1.0000   1.0000   1.0000
     1.0000   1.0000   1.0000   0.0000   0.0000

          k = 0.0833 0.4330 0.1039 (  2828 PWs)   bands (ev):

   -77.1364 -77.1114 -40.5226 -40.4684 -40.4277 -40.3614 -40.3090 -40.2923
    13.6429  14.4515  14.7874  15.4737  16.2163  16.5658  16.8543  17.7773
    18.0867  18.1112  18.7462  23.5374  27.0480

     occupation numbers 
     1.0000   1.0000   1.0000   1.0000   1.0000   1.0000   1.0000   1.0000
     1.0000   1.0000   1.0000   1.0000   1.0000   1.0000   1.0000   1.0000
     1.0000   1.0000   1.0000   0.0000   0.0000

          k = 0.0833 0.4330 0.2078 (  2819 PWs)   bands (ev):

   -77.1311 -77.1167 -40.5374 -40.5001 -40.3808 -40.3466 -40.3184 -40.2979
    13.7331  14.3283  14.9729  15.4717  16.3256  16.7593  17.2255  17.5129
    17.9617  18.2620  18.8108  21.3626  27.7568

     occupation numbers 
     1.0000   1.0000   1.0000   1.0000   1.0000   1.0000   1.0000   1.0000
     1.0000   1.0000   1.0000   1.0000   1.0000   1.0000   1.0000   1.0000
     1.0000   1.0000   1.0000   0.0000   0.0000

          k = 0.0833 0.4330-0.3116 (  2818 PWs)   bands (ev):

   -77.1239 -77.1239 -40.5282 -40.5282 -40.3476 -40.3476 -40.3148 -40.3148
    13.9870  13.9870  15.2803  15.2803  16.7739  16.7739  17.1688  17.1688
    18.2126  18.2126  19.6644  19.6644  28.8169

     occupation numbers 
     1.0000   1.0000   1.0000   1.0000   1.0000   1.0000   1.0000   1.0000
     1.0000   1.0000   1.0000   1.0000   1.0000   1.0000   1.0000   1.0000
     1.0000   1.0000   0.0000   0.0000   0.0000

          k = 0.0833 0.5292 0.0000 (  2817 PWs)   bands (ev):

   -77.1296 -77.1094 -40.5266 -40.4726 -40.4441 -40.3770 -40.3304 -40.2964
    14.1104  14.2550  14.4392  16.0528  16.0832  16.3847  16.7282  18.1891
    18.2609  18.3179  20.0085  22.9622  28.4253

     occupation numbers 
     1.0000   1.0000   1.0000   1.0000   1.0000   1.0000   1.0000   1.0000
     1.0000   1.0000   1.0000   1.0000   1.0000   1.0000   1.0000   1.0000
     1.0000   1.0000   0.0000   0.0000   0.0000

          k = 0.0833 0.5292 0.1039 (  2826 PWs)   bands (ev):

   -77.1282 -77.1107 -40.5428 -40.4912 -40.4185 -40.3694 -40.3258 -40.2992
    13.8976  14.2740  14.8785  15.4208  16.1399  16.7687  17.1042  18.0699
    18.2299  18.2967  19.9388  22.7059  27.1253

     occupation numbers 
     1.0000   1.0000   1.0000   1.0000   1.0000   1.0000   1.0000   1.0000
     1.0000   1.0000   1.0000   1.0000   1.0000   1.0000   1.0000   1.0000
     1.0000   1.0000   0.0000   0.0000   0.0000

          k = 0.0833 0.5292 0.2078 (  2826 PWs)   bands (ev):

   -77.1245 -77.1144 -40.5584 -40.5261 -40.3816 -40.3463 -40.3309 -40.3034
    13.8096  14.2548  15.0023  15.3401  16.3178  17.0744  17.5116  17.7483
    18.1829  18.3824  19.9756  21.8553  26.3615

     occupation numbers 
     1.0000   1.0000   1.0000   1.0000   1.0000   1.0000   1.0000   1.0000
     1.0000   1.0000   1.0000   1.0000   1.0000   1.0000   1.0000   1.0000
     1.0000   1.0000   0.0000   0.0000   0.0000

          k = 0.0833 0.5292-0.3116 (  2826 PWs)   bands (ev):

   -77.1195 -77.1195 -40.5526 -40.5526 -40.3535 -40.3535 -40.3172 -40.3172
    13.9718  13.9718  15.1968  15.1968  16.8845  16.8845  17.6025  17.6025
    18.2540  18.2540  20.7234  20.7234  26.6303

     occupation numbers 
     1.0000   1.0000   1.0000   1.0000   1.0000   1.0000   1.0000   1.0000
     1.0000   1.0000   1.0000   1.0000   1.0000   1.0000   1.0000   1.0000
     1.0000   1.0000   0.0000   0.0000   0.0000

          k = 0.1667 0.2887 0.0000 (  2816 PWs)   bands (ev):

   -77.1531 -77.1122 -40.5144 -40.4202 -40.4105 -40.3343 -40.2871 -40.2835
    12.4815  14.7600  15.1522  15.2593  16.1927  16.3745  16.7871  17.0988
    17.5745  17.9618  18.2403  24.2554  26.1775

     occupation numbers 
     1.0000   1.0000   1.0000   1.0000   1.0000   1.0000   1.0000   1.0000
     1.0000   1.0000   1.0000   1.0000   1.0000   1.0000   1.0000   1.0000
     1.0000   1.0000   1.0000   0.0000   0.0000

          k = 0.1667 0.2887 0.1039 (  2810 PWs)   bands (ev):

   -77.1503 -77.1150 -40.5142 -40.4177 -40.4031 -40.3419 -40.2915 -40.2816
    12.6721  14.8601  15.0107  15.3138  16.1698  16.3849  16.6557  17.1709
    17.6996  17.8032  18.2886  22.3470  28.5578

     occupation numbers 
     1.0000   1.0000   1.0000   1.0000   1.0000   1.0000   1.0000   1.0000
     1.0000   1.0000   1.0000   1.0000   1.0000   1.0000   1.0000   1.0000
     1.0000   1.0000   1.0000   0.0000   0.0000

          k = 0.1667 0.2887 0.2078 (  2821 PWs)   bands (ev):

   -77.1429 -77.1225 -40.5044 -40.4440 -40.3670 -40.3442 -40.3022 -40.2887
    13.1939  14.5664  15.1328  15.4727  15.9982  16.2437  16.6450  17.2454
    17.7937  17.9105  18.3105  20.2782  31.9401

     occupation numbers 
     1.0000   1.0000   1.0000   1.0000   1.0000   1.0000   1.0000   1.0000
     1.0000   1.0000   1.0000   1.0000   1.0000   1.0000   1.0000   1.0000
     1.0000   1.0000   1.0000   0.0000   0.0000

          k = 0.1667 0.2887-0.3116 (  2824 PWs)   bands (ev):

   -77.1327 -77.1327 -40.4787 -40.4787 -40.3414 -40.3414 -40.3052 -40.3052
    13.8969  13.8969  15.4684  15.4684  15.9458  15.9458  16.9303  16.9303
    18.0599  18.0599  18.8132  18.8132  33.5745

     occupation numbers 
     1.0000   1.0000   1.0000   1.0000   1.0000   1.0000   1.0000   1.0000
     1.0000   1.0000   1.0000   1.0000   1.0000   1.0000   1.0000   1.0000
     1.0000   1.0000   1.0000   1.0000   0.0000

          k = 0.1667 0.3849 0.0000 (  2827 PWs)   bands (ev):

   -77.1404 -77.1097 -40.4789 -40.4666 -40.4433 -40.3626 -40.3073 -40.3055
    13.5812  14.7524  14.7799  15.2197  16.0368  16.5209  16.5965  17.4070
    18.0244  18.2412  18.7624  26.1217  26.4812

     occupation numbers 
     1.0000   1.0000   1.0000   1.0000   1.0000   1.0000   1.0000   1.0000
     1.0000   1.0000   1.0000   1.0000   1.0000   1.0000   1.0000   1.0000
     1.0000   1.0000   1.0000   0.0000   0.0000

          k = 0.1667 0.3849 0.1039 (  2821 PWs)   bands (ev):

   -77.1384 -77.1118 -40.5056 -40.4619 -40.4173 -40.3690 -40.3138 -40.2966
    13.6637  14.7077  14.8611  15.3070  16.0968  16.4905  16.5504  17.4347
    18.0105  18.1176  18.8600  23.6355  28.4832

     occupation numbers 
     1.0000   1.0000   1.0000   1.0000   1.0000   1.0000   1.0000   1.0000
     1.0000   1.0000   1.0000   1.0000   1.0000   1.0000   1.0000   1.0000
     1.0000   1.0000   0.9989   0.0000   0.0000

          k = 0.1667 0.3849 0.2078 (  2816 PWs)   bands (ev):

   -77.1327 -77.1174 -40.5189 -40.4846 -40.3802 -40.3637 -40.3222 -40.2945
    13.8870  14.5057  15.1175  15.5554  16.0175  16.3135  16.6799  17.3857
    17.9033  18.2772  19.0475  21.3876  29.4435

     occupation numbers 
     1.0000   1.0000   1.0000   1.0000   1.0000   1.0000   1.0000   1.0000
     1.0000   1.0000   1.0000   1.0000   1.0000   1.0000   1.0000   1.0000
     1.0000   1.0000   0.0000   0.0000   0.0000

          k = 0.1667 0.3849-0.3116 (  2816 PWs)   bands (ev):

   -77.1251 -77.1250 -40.5096 -40.5096 -40.3626 -40.3626 -40.3098 -40.3098
    14.1954  14.1955  15.4744  15.4744  16.0890  16.0890  16.9576  16.9576
    18.2716  18.2716  19.7585  19.7585  30.6171

     occupation numbers 
     1.0000   1.0000   1.0000   1.0000   1.0000   1.0000   1.0000   1.0000
     1.0000   1.0000   1.0000   1.0000   1.0000   1.0000   1.0000   1.0000
     1.0000   1.0000   0.0000   0.0000   0.0000

          k = 0.1667 0.4811 0.0000 (  2827 PWs)   bands (ev):

   -77.1297 -77.1094 -40.5038 -40.4587 -40.4444 -40.3897 -40.3300 -40.3210
    14.2850  14.5489  14.5531  15.5221  15.9924  16.3913  16.7245  17.8135
    18.2406  18.2516  19.9312  24.6154  28.1398

     occupation numbers 
     1.0000   1.0000   1.0000   1.0000   1.0000   1.0000   1.0000   1.0000
     1.0000   1.0000   1.0000   1.0000   1.0000   1.0000   1.0000   1.0000
     1.0000   1.0000   0.0000   0.0000   0.0000

          k = 0.1667 0.4811 0.1039 (  2827 PWs)   bands (ev):

   -77.1283 -77.1107 -40.5200 -40.4798 -40.4197 -40.3827 -40.3343 -40.3111
    14.1340  14.6223  14.8095  15.3540  16.0451  16.5174  16.7851  17.7956
    18.0331  18.3178  20.0177  24.0862  26.8943

     occupation numbers 
     1.0000   1.0000   1.0000   1.0000   1.0000   1.0000   1.0000   1.0000
     1.0000   1.0000   1.0000   1.0000   1.0000   1.0000   1.0000   1.0000
     1.0000   1.0000   0.0000   0.0000   0.0000

          k = 0.1667 0.4811 0.2078 (  2819 PWs)   bands (ev):

   -77.1246 -77.1144 -40.5369 -40.5100 -40.4007 -40.3635 -40.3348 -40.3013
    14.0981  14.5481  15.0137  15.5792  15.9330  16.6336  16.9936  17.4803
    17.9870  18.4001  20.3348  22.5733  26.9416

     occupation numbers 
     1.0000   1.0000   1.0000   1.0000   1.0000   1.0000   1.0000   1.0000
     1.0000   1.0000   1.0000   1.0000   1.0000   1.0000   1.0000   1.0000
     1.0000   1.0000   0.0000   0.0000   0.0000

          k = 0.1667 0.4811-0.3116 (  2818 PWs)   bands (ev):

   -77.1195 -77.1195 -40.5334 -40.5334 -40.3797 -40.3797 -40.3104 -40.3104
    14.2603  14.2603  15.3756  15.3756  16.3503  16.3503  17.1491  17.1491
    18.2769  18.2769  21.1526  21.1526  27.8285

     occupation numbers 
     1.0000   1.0000   1.0000   1.0000   1.0000   1.0000   1.0000   1.0000
     1.0000   1.0000   1.0000   1.0000   1.0000   1.0000   1.0000   1.0000
     1.0000   1.0000   0.0000   0.0000   0.0000

          k = 0.1667 0.5774 0.0000 (  2824 PWs)   bands (ev):

   -77.1248 -77.1101 -40.5172 -40.4629 -40.4269 -40.4012 -40.3439 -40.3259
    14.4550  14.4627  14.4712  15.7408  16.0066  16.2864  16.8115  18.0888
    18.2336  18.2400  21.1825  22.7722  29.1659

     occupation numbers 
     1.0000   1.0000   1.0000   1.0000   1.0000   1.0000   1.0000   1.0000
     1.0000   1.0000   1.0000   1.0000   1.0000   1.0000   1.0000   1.0000
     1.0000   1.0000   0.0000   0.0000   0.0000

          k = 0.1667 0.5774 0.1039 (  2830 PWs)   bands (ev):

   -77.1239 -77.1111 -40.5300 -40.4826 -40.4245 -40.3765 -40.3469 -40.3173
    14.1613  14.5346  14.9772  15.3368  15.9671  16.6355  16.8760  18.0028
    18.0848  18.2923  21.2848  22.7225  28.2023

     occupation numbers 
     1.0000   1.0000   1.0000   1.0000   1.0000   1.0000   1.0000   1.0000
     1.0000   1.0000   1.0000   1.0000   1.0000   1.0000   1.0000   1.0000
     1.0000   1.0000   0.0000   0.0000   0.0000

          k = 0.1667 0.5774 0.2078 (  2824 PWs)   bands (ev):

   -77.1212 -77.1138 -40.5454 -40.5178 -40.4093 -40.3630 -40.3373 -40.3048
    14.0959  14.5595  15.0511  15.5386  15.8472  16.8383  17.1144  17.5525
    18.1005  18.3336  21.5967  22.5234  26.9097

     occupation numbers 
     1.0000   1.0000   1.0000   1.0000   1.0000   1.0000   1.0000   1.0000
     1.0000   1.0000   1.0000   1.0000   1.0000   1.0000   1.0000   1.0000
     1.0000   1.0000   0.0000   0.0000   0.0000

          k = 0.1667 0.5774-0.3116 (  2818 PWs)   bands (ev):

   -77.1175 -77.1175 -40.5422 -40.5422 -40.3863 -40.3863 -40.3102 -40.3102
    14.2626  14.2626  15.3348  15.3348  16.3926  16.3926  17.3530  17.3530
    18.2146  18.2146  22.0936  22.0936  26.4185

     occupation numbers 
     1.0000   1.0000   1.0000   1.0000   1.0000   1.0000   1.0000   1.0000
     1.0000   1.0000   1.0000   1.0000   1.0000   1.0000   1.0000   1.0000
     1.0000   1.0000   0.0000   0.0000   0.0000

          k = 0.2500 0.4330 0.0000 (  2842 PWs)   bands (ev):

   -77.1297 -77.1093 -40.4838 -40.4610 -40.4447 -40.3892 -40.3394 -40.3298
    14.4116  14.6115  14.9434  15.0022  15.9312  16.4036  16.7312  17.5890
    18.2009  18.2590  19.9392  26.3928  27.1153

     occupation numbers 
     1.0000   1.0000   1.0000   1.0000   1.0000   1.0000   1.0000   1.0000
     1.0000   1.0000   1.0000   1.0000   1.0000   1.0000   1.0000   1.0000
     1.0000   1.0000   0.0000   0.0000   0.0000

          k = 0.2500 0.4330 0.1039 (  2827 PWs)   bands (ev):

   -77.1283 -77.1107 -40.4966 -40.4878 -40.4033 -40.4031 -40.3424 -40.3145
    14.4212  14.5621  15.0165  15.1319  16.0844  16.2559  16.7181  17.6191
    17.9821  18.3264  20.0703  24.9055  27.4058

     occupation numbers 
     1.0000   1.0000   1.0000   1.0000   1.0000   1.0000   1.0000   1.0000
     1.0000   1.0000   1.0000   1.0000   1.0000   1.0000   1.0000   1.0000
     1.0000   1.0000   0.0000   0.0000   0.0000

          k = 0.2500 0.4330 0.2078 (  2822 PWs)   bands (ev):

   -77.1246 -77.1144 -40.5206 -40.5044 -40.4079 -40.3801 -40.3336 -40.3009
    14.4317  14.5097  15.1905  15.5312  15.9221  16.1980  16.7422  17.3952
    17.9571  18.4069  20.4549  22.8624  28.2060

     occupation numbers 
     1.0000   1.0000   1.0000   1.0000   1.0000   1.0000   1.0000   1.0000
     1.0000   1.0000   1.0000   1.0000   1.0000   1.0000   1.0000   1.0000
     1.0000   1.0000   0.0000   0.0000   0.0000

          k = 0.2500 0.4330-0.3116 (  2832 PWs)   bands (ev):

   -77.1195 -77.1195 -40.5215 -40.5215 -40.3938 -40.3938 -40.3084 -40.3084
    14.4632  14.4632  15.5235  15.5235  15.9728  15.9728  16.9527  16.9527
    18.2969  18.2969  21.3149  21.3149  29.2531

     occupation numbers 
     1.0000   1.0000   1.0000   1.0000   1.0000   1.0000   1.0000   1.0000
     1.0000   1.0000   1.0000   1.0000   1.0000   1.0000   1.0000   1.0000
     1.0000   1.0000   0.0000   0.0000   0.0000

          k = 0.2500 0.5292 0.0000 (  2847 PWs)   bands (ev):

   -77.1215 -77.1110 -40.4974 -40.4512 -40.4191 -40.4139 -40.3597 -40.3548
    14.5309  14.7087  14.8107  15.3076  15.9509  16.2051  16.9014  17.8639
    18.1770  18.2092  21.5850  24.1509  26.4652

     occupation numbers 
     1.0000   1.0000   1.0000   1.0000   1.0000   1.0000   1.0000   1.0000
     1.0000   1.0000   1.0000   1.0000   1.0000   1.0000   1.0000   1.0000
     1.0000   1.0000   0.0000   0.0000   0.0000

          k = 0.2500 0.5292 0.1039 (  2839 PWs)   bands (ev):

   -77.1208 -77.1117 -40.5039 -40.4762 -40.4387 -40.3823 -40.3635 -40.3315
    14.4728  14.8423  14.9401  15.2112  15.9804  16.1998  16.9019  17.8724
    17.9554  18.2545  21.7795  24.1758  26.5212

     occupation numbers 
     1.0000   1.0000   1.0000   1.0000   1.0000   1.0000   1.0000   1.0000
     1.0000   1.0000   1.0000   1.0000   1.0000   1.0000   1.0000   1.0000
     1.0000   1.0000   0.0000   0.0000   0.0000

          k = 0.2500 0.5292 0.2078 (  2827 PWs)   bands (ev):

   -77.1189 -77.1137 -40.5213 -40.5058 -40.4373 -40.3929 -40.3299 -40.3084
    14.4940  14.8516  15.1122  15.4057  15.8473  16.2101  16.9399  17.4286
    18.0229  18.2947  22.2865  23.8976  26.4876

     occupation numbers 
     1.0000   1.0000   1.0000   1.0000   1.0000   1.0000   1.0000   1.0000
     1.0000   1.0000   1.0000   1.0000   1.0000   1.0000   1.0000   1.0000
     1.0000   1.0000   0.0000   0.0000   0.0000

          k = 0.2500 0.5292-0.3116 (  2826 PWs)   bands (ev):

   -77.1163 -77.1163 -40.5243 -40.5243 -40.4165 -40.4165 -40.3069 -40.3069
    14.6357  14.6357  15.4146  15.4146  15.9805  15.9805  17.0713  17.0713
    18.2044  18.2044  23.0615  23.0615  27.0410

     occupation numbers 
     1.0000   1.0000   1.0000   1.0000   1.0000   1.0000   1.0000   1.0000
     1.0000   1.0000   1.0000   1.0000   1.0000   1.0000   1.0000   1.0000
     1.0000   1.0000   0.0000   0.0000   0.0000

          k = 0.3333 0.5774 0.0000 (  2826 PWs)   bands (ev):

   -77.1151 -77.1151 -40.4892 -40.4375 -40.4375 -40.3833 -40.3833 -40.3832
    14.5346  14.9027  14.9027  15.1964  16.0317  16.0317  17.0013  18.0105
    18.0105  18.1517  23.3086  24.1480  24.1480

     occupation numbers 
     1.0000   1.0000   1.0000   1.0000   1.0000   1.0000   1.0000   1.0000
     1.0000   1.0000   1.0000   1.0000   1.0000   1.0000   1.0000   1.0000
     1.0000   1.0000   0.0000   0.0000   0.0000

          k = 0.3333 0.5774 0.1039 (  2826 PWs)   bands (ev):

   -77.1151 -77.1151 -40.4821 -40.4676 -40.4676 -40.3903 -40.3531 -40.3531
    14.6321  14.9307  14.9307  15.2181  16.0028  16.0028  16.9709  17.9040
    18.0489  18.0489  23.7215  24.2246  24.2246

     occupation numbers 
     1.0000   1.0000   1.0000   1.0000   1.0000   1.0000   1.0000   1.0000
     1.0000   1.0000   1.0000   1.0000   1.0000   1.0000   1.0000   1.0000
     1.0000   1.0000   0.0000   0.0000   0.0000

          k = 0.3333 0.5774 0.2078 (  2829 PWs)   bands (ev):

   -77.1151 -77.1151 -40.5016 -40.5016 -40.4628 -40.4098 -40.3187 -40.3187
    14.8811  14.9859  14.9859  15.2381  15.9511  15.9511  16.9290  17.4013
    18.1210  18.1210  24.4146  24.4146  24.7695

     occupation numbers 
     1.0000   1.0000   1.0000   1.0000   1.0000   1.0000   1.0000   1.0000
     1.0000   1.0000   1.0000   1.0000   1.0000   1.0000   1.0000   1.0000
     1.0000   1.0000   0.0000   0.0000   0.0000

          k = 0.3333 0.5774-0.3116 (  2814 PWs)   bands (ev):

   -77.1151 -77.1151 -40.5146 -40.5146 -40.4363 -40.4363 -40.3056 -40.3056
    15.0128  15.0128  15.1373  15.1373  15.9285  15.9285  17.0263  17.0264
    18.1548  18.1548  24.5372  24.5372  26.2009

     occupation numbers 
     1.0000   1.0000   1.0000   1.0000   1.0000   1.0000   1.0000   1.0000
     1.0000   1.0000   1.0000   1.0000   1.0000   1.0000   1.0000   1.0000
     1.0000   1.0000   0.0000   0.0000   0.0000

 ------ SPIN DOWN ----------


          k = 0.0000 0.0000 0.0000 (  2803 PWs)   bands (ev):

[...]
    20.2015  20.2903  21.3985  23.9173  28.9368

     occupation numbers 
     1.0000   1.0000   1.0000   1.0000   1.0000   1.0000   1.0000   1.0000
     1.0000   1.0000   1.0000   1.0000   1.0000   1.0000   1.0000   0.0000
     0.0000   0.0000   0.0000   0.0000   0.0000

          k = 0.0833 0.5292 0.1039 (  2826 PWs)   bands (ev):

   -75.0111 -74.9923 -38.5051 -38.4487 -38.3673 -38.3153 -38.2662 -38.2390
    14.8386  15.4735  16.0250  16.5504  17.7878  18.3312  18.3947  19.9945
    20.1647  20.2457  21.2592  23.5850  27.8492

     occupation numbers 
     1.0000   1.0000   1.0000   1.0000   1.0000   1.0000   1.0000   1.0000
     1.0000   1.0000   1.0000   1.0000   1.0000   1.0000   1.0000   0.0000
     0.0000   0.0000   0.0000   0.0000   0.0000

          k = 0.0833 0.5292 0.2078 (  2826 PWs)   bands (ev):

   -75.0072 -74.9963 -38.5218 -38.4866 -38.3277 -38.2897 -38.2727 -38.2428
    14.8189  15.3110  16.3325  16.6667  17.8515  18.6268  18.8400  19.5127
    20.1110  20.3460  21.0335  22.6497  27.2732

     occupation numbers 
     1.0000   1.0000   1.0000   1.0000   1.0000   1.0000   1.0000   1.0000
     1.0000   1.0000   1.0000   1.0000   1.0000   1.0000   1.0000   0.0000
     0.0000   0.0000   0.0000   0.0000   0.0000

          k = 0.0833 0.5292-0.3116 (  2826 PWs)   bands (ev):

   -75.0017 -75.0017 -38.5155 -38.5155 -38.2975 -38.2975 -38.2576 -38.2576
    15.0018  15.0018  16.6180  16.6180  18.3609  18.3609  19.1449  19.1449
    20.1927  20.1927  21.5819  21.5819  27.5258

     occupation numbers 
     1.0000   1.0000   1.0000   1.0000   1.0000   1.0000   1.0000   1.0000
     1.0000   1.0000   1.0000   1.0000   1.0000   1.0000   0.0000   0.0000
     0.0000   0.0000   0.0000   0.0000   0.0000

          k = 0.1667 0.2887 0.0000 (  2816 PWs)   bands (ev):

   -75.0379 -74.9939 -38.4717 -38.3711 -38.3613 -38.2774 -38.2262 -38.2199
    12.5571  15.9693  16.3291  16.6744  17.8461  17.9765  18.4350  18.8969
    19.3999  19.7727  20.2010  25.0295  26.9473

     occupation numbers 
     1.0000   1.0000   1.0000   1.0000   1.0000   1.0000   1.0000   1.0000
     1.0000   1.0000   1.0000   1.0000   1.0000   1.0000   1.0000   0.2192
     0.0000   0.0000   0.0000   0.0000   0.0000

          k = 0.1667 0.2887 0.1039 (  2810 PWs)   bands (ev):

   -75.0350 -74.9969 -38.4718 -38.3690 -38.3522 -38.2854 -38.2310 -38.2184
    12.7743  15.9246  16.2114  16.7422  17.7738  18.0044  18.3148  18.9613
    19.5337  19.6506  20.2084  23.3615  29.1620

     occupation numbers 
     1.0000   1.0000   1.0000   1.0000   1.0000   1.0000   1.0000   1.0000
     1.0000   1.0000   1.0000   1.0000   1.0000   1.0000   1.0000   0.0000
     0.0000   0.0000   0.0000   0.0000   0.0000

          k = 0.1667 0.2887 0.2078 (  2821 PWs)   bands (ev):

   -75.0269 -75.0049 -38.4618 -38.3972 -38.3123 -38.2878 -38.2426 -38.2265
    13.3896  15.2417  16.4654  16.9156  17.5334  17.8263  18.3690  18.9908
    19.6669  19.7704  20.1569  21.6032  32.4352

     occupation numbers 
     1.0000   1.0000   1.0000   1.0000   1.0000   1.0000   1.0000   1.0000
     1.0000   1.0000   1.0000   1.0000   1.0000   1.0000   1.0000   0.0000
     0.0000   0.0000   0.0000   0.0000   0.0000

          k = 0.1667 0.2887-0.3116 (  2824 PWs)   bands (ev):

   -75.0159 -75.0159 -38.4344 -38.4344 -38.2845 -38.2845 -38.2453 -38.2453
    14.2848  14.2848  16.8539  16.8539  17.4973  17.4973  18.6820  18.6820
    19.9709  19.9709  20.3990  20.3990  34.0067

     occupation numbers 
     1.0000   1.0000   1.0000   1.0000   1.0000   1.0000   1.0000   1.0000
     1.0000   1.0000   1.0000   1.0000   1.0000   1.0000   1.0000   1.0000
     0.0000   0.0000   0.0000   0.0000   0.0000

          k = 0.1667 0.3849 0.0000 (  2827 PWs)   bands (ev):

   -75.0243 -74.9912 -38.4327 -38.4222 -38.3966 -38.3082 -38.2482 -38.2438
    13.8108  16.0090  16.0433  16.4721  17.6477  18.1187  18.2059  19.2371
    19.9160  20.2019  20.4960  26.8141  27.1141

     occupation numbers 
     1.0000   1.0000   1.0000   1.0000   1.0000   1.0000   1.0000   1.0000
     1.0000   1.0000   1.0000   1.0000   1.0000   1.0000   1.0000   0.0000
     0.0000   0.0000   0.0000   0.0000   0.0000

          k = 0.1667 0.3849 0.1039 (  2821 PWs)   bands (ev):

   -75.0220 -74.9934 -38.4631 -38.4171 -38.3669 -38.3149 -38.2551 -38.2347
    13.9622  15.8726  16.1519  16.5796  17.6390  18.0589  18.1703  19.2623
    19.9192  20.0221  20.6161  24.4599  29.1136

     occupation numbers 
     1.0000   1.0000   1.0000   1.0000   1.0000   1.0000   1.0000   1.0000
     1.0000   1.0000   1.0000   1.0000   1.0000   1.0000   1.0000   0.0000
     0.0000   0.0000   0.0000   0.0000   0.0000

          k = 0.1667 0.3849 0.2078 (  2816 PWs)   bands (ev):

   -75.0160 -74.9995 -38.4780 -38.4415 -38.3266 -38.3087 -38.2642 -38.2327
    14.3761  15.4910  16.4484  16.8084  17.5163  17.7640  18.3541  19.1830
    19.7812  20.2138  20.7005  22.4257  30.0574

     occupation numbers 
     1.0000   1.0000   1.0000   1.0000   1.0000   1.0000   1.0000   1.0000
     1.0000   1.0000   1.0000   1.0000   1.0000   1.0000   1.0000   0.0000
     0.0000   0.0000   0.0000   0.0000   0.0000

          k = 0.1667 0.3849-0.3116 (  2816 PWs)   bands (ev):

   -75.0078 -75.0078 -38.4683 -38.4683 -38.3077 -38.3077 -38.2498 -38.2498
    14.9396  14.9396  16.8048  16.8048  17.4846  17.4846  18.7197  18.7197
    20.2199  20.2199  21.0665  21.0665  31.1877

     occupation numbers 
     1.0000   1.0000   1.0000   1.0000   1.0000   1.0000   1.0000   1.0000
     1.0000   1.0000   1.0000   1.0000   1.0000   1.0000   1.0000   1.0000
     0.0000   0.0000   0.0000   0.0000   0.0000

          k = 0.1667 0.4811 0.0000 (  2827 PWs)   bands (ev):

   -75.0126 -74.9908 -38.4628 -38.4133 -38.3950 -38.3377 -38.2704 -38.2631
    14.9167  15.8189  15.8241  16.5144  17.5887  17.9506  18.3582  19.6854
    20.1876  20.2008  21.4061  25.3844  28.7302

     occupation numbers 
     1.0000   1.0000   1.0000   1.0000   1.0000   1.0000   1.0000   1.0000
     1.0000   1.0000   1.0000   1.0000   1.0000   1.0000   1.0000   0.0000
     0.0000   0.0000   0.0000   0.0000   0.0000

          k = 0.1667 0.4811 0.1039 (  2827 PWs)   bands (ev):

   -75.0112 -74.9923 -38.4799 -38.4361 -38.3691 -38.3295 -38.2768 -38.2508
    14.9341  15.7777  15.9932  16.5574  17.6095  17.9350  18.4028  19.6673
    19.9542  20.2663  21.4613  24.7940  27.6592

     occupation numbers 
     1.0000   1.0000   1.0000   1.0000   1.0000   1.0000   1.0000   1.0000
     1.0000   1.0000   1.0000   1.0000   1.0000   1.0000   1.0000   0.0000
     0.0000   0.0000   0.0000   0.0000   0.0000

          k = 0.1667 0.4811 0.2078 (  2819 PWs)   bands (ev):

   -75.0072 -74.9963 -38.4982 -38.4690 -38.3492 -38.3084 -38.2772 -38.2400
    15.0414  15.5748  16.3401  16.8564  17.4470  17.9064  18.5957  19.3169
    19.8855  20.3675  21.6163  23.3520  27.7589

     occupation numbers 
     1.0000   1.0000   1.0000   1.0000   1.0000   1.0000   1.0000   1.0000
     1.0000   1.0000   1.0000   1.0000   1.0000   1.0000   1.0000   0.0000
     0.0000   0.0000   0.0000   0.0000   0.0000

          k = 0.1667 0.4811-0.3116 (  2818 PWs)   bands (ev):

   -75.0017 -75.0017 -38.4943 -38.4943 -38.3265 -38.3265 -38.2501 -38.2501
    15.2744  15.2744  16.7705  16.7705  17.6277  17.6277  18.8712  18.8712
    20.2131  20.2131  22.1558  22.1558  28.5754

     occupation numbers 
     1.0000   1.0000   1.0000   1.0000   1.0000   1.0000   1.0000   1.0000
     1.0000   1.0000   1.0000   1.0000   1.0000   1.0000   0.9711   0.9711
     0.0000   0.0000   0.0000   0.0000   0.0000

          k = 0.1667 0.5774 0.0000 (  2824 PWs)   bands (ev):

   -75.0075 -74.9916 -38.4776 -38.4179 -38.3759 -38.3502 -38.2855 -38.2683
    15.3848  15.6866  15.7565  16.5724  17.6210  17.8032  18.4657  19.9988
    20.1750  20.1999  22.3083  23.8107  29.5925

     occupation numbers 
     1.0000   1.0000   1.0000   1.0000   1.0000   1.0000   1.0000   1.0000
     1.0000   1.0000   1.0000   1.0000   1.0000   1.0000   1.0000   0.0000
     0.0000   0.0000   0.0000   0.0000   0.0000

          k = 0.1667 0.5774 0.1039 (  2830 PWs)   bands (ev):

   -75.0064 -74.9927 -38.4911 -38.4392 -38.3745 -38.3224 -38.2901 -38.2579
    15.2312  15.7361  16.1392  16.4010  17.5624  17.9740  18.5195  19.9200
    19.9953  20.2431  22.3413  23.7132  28.8083

     occupation numbers 
     1.0000   1.0000   1.0000   1.0000   1.0000   1.0000   1.0000   1.0000
     1.0000   1.0000   1.0000   1.0000   1.0000   1.0000   1.0000   0.0000
     0.0000   0.0000   0.0000   0.0000   0.0000

          k = 0.1667 0.5774 0.2078 (  2824 PWs)   bands (ev):

   -75.0035 -74.9955 -38.5076 -38.4774 -38.3585 -38.3082 -38.2793 -38.2439
    15.1917  15.6327  16.4038  16.7719  17.3546  18.0819  18.7447  19.3934
    20.0171  20.2879  22.4744  23.3886  27.7076

     occupation numbers 
     1.0000   1.0000   1.0000   1.0000   1.0000   1.0000   1.0000   1.0000
     1.0000   1.0000   1.0000   1.0000   1.0000   1.0000   1.0000   0.0000
     0.0000   0.0000   0.0000   0.0000   0.0000

          k = 0.1667 0.5774-0.3116 (  2818 PWs)   bands (ev):

   -74.9995 -74.9995 -38.5040 -38.5040 -38.3336 -38.3336 -38.2497 -38.2497
    15.3533  15.3533  16.7611  16.7611  17.6785  17.6785  19.0394  19.0394
    20.1471  20.1471  22.8757  22.8757  27.3233

     occupation numbers 
     1.0000   1.0000   1.0000   1.0000   1.0000   1.0000   1.0000   1.0000
     1.0000   1.0000   1.0000   1.0000   1.0000   1.0000   0.0000   0.0000
     0.0000   0.0000   0.0000   0.0000   0.0000

          k = 0.2500 0.4330 0.0000 (  2842 PWs)   bands (ev):

   -75.0127 -74.9908 -38.4411 -38.4157 -38.3953 -38.3374 -38.2830 -38.2702
    14.9233  15.8917  16.1706  16.1868  17.5000  17.9734  18.3598  19.4493
    20.1553  20.1943  21.4422  26.9684  27.7413

     occupation numbers 
     1.0000   1.0000   1.0000   1.0000   1.0000   1.0000   1.0000   1.0000
     1.0000   1.0000   1.0000   1.0000   1.0000   1.0000   1.0000   0.0000
     0.0000   0.0000   0.0000   0.0000   0.0000

          k = 0.2500 0.4330 0.1039 (  2827 PWs)   bands (ev):

   -75.0112 -74.9922 -38.4537 -38.4453 -38.3523 -38.3509 -38.2863 -38.2540
    15.0056  15.8101  16.2416  16.3810  17.5513  17.7963  18.3522  19.4766
    19.8981  20.2762  21.5534  25.5606  28.0376

     occupation numbers 
     1.0000   1.0000   1.0000   1.0000   1.0000   1.0000   1.0000   1.0000
     1.0000   1.0000   1.0000   1.0000   1.0000   1.0000   1.0000   0.0000
     0.0000   0.0000   0.0000   0.0000   0.0000

          k = 0.2500 0.4330 0.2078 (  2822 PWs)   bands (ev):

   -75.0072 -74.9963 -38.4800 -38.4630 -38.3573 -38.3267 -38.2758 -38.2394
    15.2150  15.6720  16.4726  16.7584  17.4059  17.5361  18.4158  19.2201
    19.8455  20.3756  21.7970  23.6776  28.8373

     occupation numbers 
     1.0000   1.0000   1.0000   1.0000   1.0000   1.0000   1.0000   1.0000
     1.0000   1.0000   1.0000   1.0000   1.0000   1.0000   1.0000   0.0000
     0.0000   0.0000   0.0000   0.0000   0.0000

          k = 0.2500 0.4330-0.3116 (  2832 PWs)   bands (ev):

   -75.0017 -75.0017 -38.4812 -38.4812 -38.3420 -38.3420 -38.2478 -38.2478
    15.4655  15.4655  16.8283  16.8283  17.2981  17.2981  18.7075  18.7075
    20.2371  20.2371  22.3744  22.3744  29.8706

     occupation numbers 
     1.0000   1.0000   1.0000   1.0000   1.0000   1.0000   1.0000   1.0000
     1.0000   1.0000   1.0000   1.0000   1.0000   1.0000   1.0000   1.0000
     0.0000   0.0000   0.0000   0.0000   0.0000

          k = 0.2500 0.5292 0.0000 (  2847 PWs)   bands (ev):

   -75.0039 -74.9927 -38.4557 -38.4052 -38.3701 -38.3617 -38.3052 -38.2974
    15.6421  15.8479  16.0054  16.2724  17.5038  17.7342  18.5627  19.7548
    20.1276  20.1456  22.7187  24.9704  27.0538

     occupation numbers 
     1.0000   1.0000   1.0000   1.0000   1.0000   1.0000   1.0000   1.0000
     1.0000   1.0000   1.0000   1.0000   1.0000   1.0000   1.0000   0.0000
     0.0000   0.0000   0.0000   0.0000   0.0000

          k = 0.2500 0.5292 0.1039 (  2839 PWs)   bands (ev):

   -75.0031 -74.9934 -38.4625 -38.4319 -38.3908 -38.3286 -38.3086 -38.2726
    15.6032  15.9726  16.0949  16.3396  17.4852  17.6357  18.5630  19.7640
    19.8664  20.1990  22.8884  24.9528  27.1375

     occupation numbers 
     1.0000   1.0000   1.0000   1.0000   1.0000   1.0000   1.0000   1.0000
     1.0000   1.0000   1.0000   1.0000   1.0000   1.0000   1.0000   0.0000
     0.0000   0.0000   0.0000   0.0000   0.0000

          k = 0.2500 0.5292 0.2078 (  2827 PWs)   bands (ev):

   -75.0011 -74.9954 -38.4809 -38.4642 -38.3895 -38.3411 -38.2711 -38.2476
    15.6445  15.9410  16.3811  16.6947  17.2443  17.4910  18.6166  19.2652
    19.9307  20.2428  23.2809  24.6049  27.2468

     occupation numbers 
     1.0000   1.0000   1.0000   1.0000   1.0000   1.0000   1.0000   1.0000
     1.0000   1.0000   1.0000   1.0000   1.0000   1.0000   1.0000   0.0000
     0.0000   0.0000   0.0000   0.0000   0.0000

          k = 0.2500 0.5292-0.3116 (  2826 PWs)   bands (ev):

   -74.9983 -74.9983 -38.4842 -38.4842 -38.3669 -38.3669 -38.2460 -38.2460
    15.7822  15.7822  16.7865  16.7865  17.2001  17.2001  18.8197  18.8197
    20.1332  20.1332  23.8785  23.8785  27.8041

     occupation numbers 
     1.0000   1.0000   1.0000   1.0000   1.0000   1.0000   1.0000   1.0000
     1.0000   1.0000   1.0000   1.0000   1.0000   1.0000   1.0000   1.0000
     0.0000   0.0000   0.0000   0.0000   0.0000

          k = 0.3333 0.5774 0.0000 (  2826 PWs)   bands (ev):

   -74.9970 -74.9970 -38.4466 -38.3902 -38.3902 -38.3306 -38.3284 -38.3284
    15.8749  15.9934  15.9934  16.2030  17.5557  17.5557  18.6716  19.9238
    19.9238  20.0985  24.1524  24.9605  24.9605

     occupation numbers 
     1.0000   1.0000   1.0000   1.0000   1.0000   1.0000   1.0000   1.0000
     1.0000   1.0000   1.0000   1.0000   1.0000   1.0000   1.0000   0.0000
     0.0000   0.0000   0.0000   0.0000   0.0000

          k = 0.3333 0.5774 0.1039 (  2826 PWs)   bands (ev):

   -74.9970 -74.9970 -38.4389 -38.4224 -38.4224 -38.3385 -38.2961 -38.2961
    15.9527  16.0711  16.0711  16.2370  17.4709  17.4709  18.6459  19.8087
    19.9665  19.9665  24.5823  25.0124  25.0124

     occupation numbers 
     1.0000   1.0000   1.0000   1.0000   1.0000   1.0000   1.0000   1.0000
     1.0000   1.0000   1.0000   1.0000   1.0000   1.0000   1.0000   0.0000
     0.0000   0.0000   0.0000   0.0000   0.0000

          k = 0.3333 0.5774 0.2078 (  2829 PWs)   bands (ev):

   -74.9970 -74.9970 -38.4593 -38.4593 -38.4177 -38.3598 -38.2588 -38.2588
    16.1359  16.2554  16.2554  16.2994  17.2804  17.2804  18.6322  19.2401
    20.0432  20.0432  25.1409  25.1409  25.6159

     occupation numbers 
     1.0000   1.0000   1.0000   1.0000   1.0000   1.0000   1.0000   1.0000
     1.0000   1.0000   1.0000   1.0000   1.0000   1.0000   1.0000   0.0000
     0.0000   0.0000   0.0000   0.0000   0.0000

          k = 0.3333 0.5774-0.3116 (  2814 PWs)   bands (ev):

   -74.9970 -74.9970 -38.4734 -38.4734 -38.3888 -38.3888 -38.2446 -38.2446
    16.2859  16.2859  16.3745  16.3745  17.1619  17.1619  18.7955  18.7955
    20.0774  20.0774  25.2224  25.2224  26.9684

     occupation numbers 
     1.0000   1.0000   1.0000   1.0000   1.0000   1.0000   1.0000   1.0000
     1.0000   1.0000   1.0000   1.0000   1.0000   1.0000   1.0000   1.0000
     0.0000   0.0000   0.0000   0.0000   0.0000

     the Fermi energy is    18.8895 ev

!    total energy              =    -753.45508754 Ry
     total all-electron energy =     -5573.811779 Ry
     estimated scf accuracy    <       0.00000035 Ry
     smearing contrib. (-TS)   =      -0.00001971 Ry
     internal energy E=F+TS    =    -753.45506783 Ry

     The total energy is F=E-TS. E is the sum of the following terms:
     one-electron contribution =    -280.50498495 Ry
     hartree contribution      =     164.19644523 Ry
     xc contribution           =     -61.41832343 Ry
     ewald contribution        =    -400.55047870 Ry
     one-center paw contrib.   =    -175.17772597 Ry
      -> PAW hartree energy AE =     222.09350345 Ry
      -> PAW hartree energy PS =    -221.03850937 Ry
      -> PAW xc energy AE      =    -117.67669457 Ry
      -> PAW xc energy PS      =      29.03283752 Ry
      -> total E_H with PAW    =     165.25143930 Ry
      -> total E_XC with PAW   =    -150.06218049 Ry

     total magnetization       =     3.30 Bohr mag/cell
     absolute magnetization    =     3.62 Bohr mag/cell

     convergence has been achieved in  13 iterations

     Writing all to output data dir ./out2/Co.save/
 
     init_run     :      0.30s CPU      0.38s WALL (       1 calls)
     electrons    :     16.46s CPU     17.68s WALL (       1 calls)

     Called by init_run:
     wfcinit      :      0.13s CPU      0.18s WALL (       1 calls)
     potinit      :      0.10s CPU      0.12s WALL (       1 calls)
     hinit0       :      0.05s CPU      0.05s WALL (       1 calls)

     Called by electrons:
     c_bands      :     13.84s CPU     14.75s WALL (      13 calls)
     sum_band     :      1.38s CPU      1.45s WALL (      13 calls)
     v_of_rho     :      0.05s CPU      0.06s WALL (      14 calls)
     v_h          :      0.00s CPU      0.00s WALL (      14 calls)
     v_xc         :      0.05s CPU      0.05s WALL (      14 calls)
     newd         :      0.04s CPU      0.04s WALL (      14 calls)
     PAW_pot      :      1.21s CPU      1.45s WALL (      14 calls)
     mix_rho      :      0.01s CPU      0.01s WALL (      13 calls)

     Called by c_bands:
     init_us_2    :      0.10s CPU      0.11s WALL (    1976 calls)
     init_us_2:cp :      0.09s CPU      0.10s WALL (    1976 calls)
     cegterg      :     12.87s CPU     13.53s WALL (    1007 calls)

     Called by sum_band:
     sum_band:wei :      0.01s CPU      0.01s WALL (      13 calls)
     sum_band:loo :      1.28s CPU      1.35s WALL (      13 calls)
     sum_band:buf :      0.01s CPU      0.01s WALL (     988 calls)
     sum_band:ini :      0.05s CPU      0.06s WALL (     988 calls)
     sum_band:cal :      0.11s CPU      0.12s WALL (     988 calls)
     sum_band:bec :      0.01s CPU      0.01s WALL (     988 calls)
     addusdens    :      0.06s CPU      0.06s WALL (      13 calls)
                                        0.00s GPU  (      13 calls)
     addusd:skk   :      0.00s CPU      0.00s WALL (      13 calls)
                                        0.00s GPU  (      13 calls)

     Called by *egterg:
     cdiaghg      :      2.77s CPU      2.88s WALL (    5508 calls)
     cegterg:over :      0.40s CPU      0.43s WALL (    4596 calls)
     cegterg:upda :      0.12s CPU      0.12s WALL (    4596 calls)
     cegterg:last :      0.24s CPU      0.24s WALL (    3466 calls)
     h_psi        :      8.74s CPU      9.23s WALL (    5603 calls)
     s_psi        :      0.15s CPU      0.16s WALL (    5603 calls)
     g_psi        :      0.04s CPU      0.04s WALL (    4596 calls)

     Called by h_psi:
     h_psi:calbec :      0.46s CPU      0.49s WALL (    5603 calls)
     vloc_psi     :      8.04s CPU      8.48s WALL (    5603 calls)
     add_vuspsi   :      0.19s CPU      0.20s WALL (    5603 calls)

     General routines
     calbec       :      0.56s CPU      0.59s WALL (    6591 calls)
     fft          :      0.03s CPU      0.03s WALL (     344 calls)
     ffts         :      0.00s CPU      0.00s WALL (      54 calls)
     fftw         :      8.27s CPU      8.72s WALL (  182132 calls)
     interpolate  :      0.01s CPU      0.01s WALL (      28 calls)
 
     Parallel routines

     PAW routines
     PAW_pot      :      1.21s CPU      1.45s WALL (      14 calls)
     PAW_symme    :      0.01s CPU      0.01s WALL (      26 calls)
 
     PWSCF        :     16.99s CPU     18.61s WALL

 
   This run was terminated on:  10:50:52  22Mar2024            

=------------------------------------------------------------------------------=
   JOB DONE.
=------------------------------------------------------------------------------=
