
     Program PWSCF v.7.2 starts on 22Mar2024 at 10:44:39 

     This program is part of the open-source Quantum ESPRESSO suite
     for quantum simulation of materials; please cite
         "P. Giannozzi et al., J. Phys.:Condens. Matter 21 395502 (2009);
         "P. Giannozzi et al., J. Phys.:Condens. Matter 29 465901 (2017);
         "P. Giannozzi et al., J. Chem. Phys. 152 154105 (2020);
          URL http://www.quantum-espresso.org", 
     in publications or presentations arising from this work. More details at
     http://www.quantum-espresso.org/quote

     Parallel version (MPI), running on    28 processors

     MPI processes distributed on     1 nodes
     182210 MiB available memory on the printing compute node when the environment starts
 
     Waiting for input...
     Reading input from standard input

     Current dimensions of program PWSCF are:
     Max number of different atomic species (ntypx) = 10
     Max number of k-points (npk) = 120000
     Max angular momentum in pseudopotentials (lmaxx) =  4
     file Co.pbe-spn-kjpaw_psl.0.3.1.UPF: wavefunction(s)  3P 3D renormalized
 
     K-points division:     npool     =       2
     R & G space division:  proc/nbgrp/npool/nimage =      14
     Subspace diagonalization in iterative solution of the eigenvalue problem:
     a serial algorithm will be used

 
     Parallelization info
     --------------------
     sticks:   dense  smooth     PW     G-vecs:    dense   smooth      PW
     Min          47      47     14                 1633     1598     262
     Max          49      49     15                 1659     1599     269
     Sum         673     673    199                23067    22383    3693
 
     Using Slab Decomposition
 


     bravais-lattice index     =            4
     lattice parameter (alat)  =       4.6865  a.u.
     unit-cell volume          =     143.4179 (a.u.)^3
     number of atoms/cell      =            2
     number of atomic types    =            1
     number of electrons       =        34.00
     number of Kohn-Sham states=           21
     kinetic-energy cutoff     =     110.0000  Ry
     charge density cutoff     =     450.0000  Ry
     scf convergence threshold =      1.0E-06
     mixing beta               =       0.7000
     number of iterations used =            8  plain     mixing
     Exchange-correlation= SLA  PW   PBX  PBC
                           (   1   4   3   4   0   0   0)

     celldm(1)=   4.686521  celldm(2)=   0.000000  celldm(3)=   1.608871
     celldm(4)=   0.000000  celldm(5)=   0.000000  celldm(6)=   0.000000

     crystal axes: (cart. coord. in units of alat)
               a(1) = (   1.000000   0.000000   0.000000 )  
               a(2) = (  -0.500000   0.866025   0.000000 )  
               a(3) = (   0.000000   0.000000   1.608871 )  

     reciprocal axes: (cart. coord. in units 2 pi/alat)
               b(1) = (  1.000000  0.577350  0.000000 )  
               b(2) = (  0.000000  1.154701  0.000000 )  
               b(3) = (  0.000000  0.000000  0.621554 )  


     PseudoPot. # 1 for Co read from file:
     /truba/home/amuhaymin/ZnS/pseudo/QE/Co.pbe-spn-kjpaw_psl.0.3.1.UPF
     MD5 check sum: b0a1ad65bf214e88c1f3d33b20c7d919
     Pseudo is Projector augmented-wave + core cor, Zval = 17.0
     Generated using &quot;atomic&quot; code by A. Dal Corso  v.6.2.2
     Shape of augmentation charge: PSQ
     Using radial grid of 1193 points,  6 beta functions with: 
                l(1) =   0
                l(2) =   0
                l(3) =   1
                l(4) =   1
                l(5) =   2
                l(6) =   2
     Q(r) pseudized with 0 coefficients 


     atomic species   valence    mass     pseudopotential
        Co            17.00    58.93300     Co( 1.00)

     Starting magnetic structure 
     atomic species   magnetization
        Co           0.294

     24 Sym. Ops., with inversion, found (12 have fractional translation)


                                    s                        frac. trans.

      isym =  1     identity                                     

 cryst.   s( 1) = (     1          0          0      )
                  (     0          1          0      )
                  (     0          0          1      )

 cart.    s( 1) = (  1.0000000  0.0000000  0.0000000 )
                  (  0.0000000  1.0000000  0.0000000 )
                  (  0.0000000  0.0000000  1.0000000 )


      isym =  2     180 deg rotation - cart. axis [0,0,1]        

 cryst.   s( 2) = (    -1          0          0      )    f =(  0.0000000 )
                  (     0         -1          0      )       ( -0.0000000 )
                  (     0          0          1      )       (  0.5000000 )

 cart.    s( 2) = ( -1.0000000  0.0000000  0.0000000 )    f =(  0.0000000 )
                  (  0.0000000 -1.0000000  0.0000000 )       ( -0.0000000 )
                  (  0.0000000  0.0000000  1.0000000 )       (  0.8044355 )


      isym =  3     180 deg rotation - cart. axis [0,1,0]        

 cryst.   s( 3) = (    -1          0          0      )    f =(  0.0000000 )
                  (     1          1          0      )       (  0.0000000 )
                  (     0          0         -1      )       (  0.5000000 )

 cart.    s( 3) = ( -1.0000000  0.0000000  0.0000000 )    f =(  0.0000000 )
                  (  0.0000000  1.0000000  0.0000000 )       (  0.0000000 )
                  (  0.0000000  0.0000000 -1.0000000 )       (  0.8044355 )


      isym =  4     180 deg rotation - cart. axis [1,0,0]        

 cryst.   s( 4) = (     1          0          0      )
                  (    -1         -1          0      )
                  (     0          0         -1      )

 cart.    s( 4) = (  1.0000000  0.0000000  0.0000000 )
                  (  0.0000000 -1.0000000  0.0000000 )
                  (  0.0000000  0.0000000 -1.0000000 )


      isym =  5      60 deg rotation - cryst. axis [0,0,1]       

 cryst.   s( 5) = (     1          1          0      )    f =(  0.0000000 )
                  (    -1          0          0      )       ( -0.0000000 )
                  (     0          0          1      )       (  0.5000000 )

 cart.    s( 5) = (  0.5000000 -0.8660254  0.0000000 )    f =(  0.0000000 )
                  (  0.8660254  0.5000000  0.0000000 )       ( -0.0000000 )
                  (  0.0000000  0.0000000  1.0000000 )       (  0.8044355 )


      isym =  6      60 deg rotation - cryst. axis [0,0,-1]      

 cryst.   s( 6) = (     0         -1          0      )    f =(  0.0000000 )
                  (     1          1          0      )       ( -0.0000000 )
                  (     0          0          1      )       (  0.5000000 )

 cart.    s( 6) = (  0.5000000  0.8660254  0.0000000 )    f =(  0.0000000 )
                  ( -0.8660254  0.5000000  0.0000000 )       ( -0.0000000 )
                  (  0.0000000  0.0000000  1.0000000 )       (  0.8044355 )


      isym =  7     120 deg rotation - cryst. axis [0,0,1]       

 cryst.   s( 7) = (     0          1          0      )
                  (    -1         -1          0      )
                  (     0          0          1      )

 cart.    s( 7) = ( -0.5000000 -0.8660254  0.0000000 )
                  (  0.8660254 -0.5000000  0.0000000 )
                  (  0.0000000  0.0000000  1.0000000 )


      isym =  8     120 deg rotation - cryst. axis [0,0,-1]      

 cryst.   s( 8) = (    -1         -1          0      )
                  (     1          0          0      )
                  (     0          0          1      )

 cart.    s( 8) = ( -0.5000000  0.8660254  0.0000000 )
                  ( -0.8660254 -0.5000000  0.0000000 )
                  (  0.0000000  0.0000000  1.0000000 )


      isym =  9     180 deg rotation - cryst. axis [1,-1,0]      

 cryst.   s( 9) = (     0         -1          0      )    f =( -0.0000000 )
                  (    -1          0          0      )       ( -0.0000000 )
                  (     0          0         -1      )       (  0.5000000 )

 cart.    s( 9) = (  0.5000000 -0.8660254  0.0000000 )    f =( -0.0000000 )
                  ( -0.8660254 -0.5000000  0.0000000 )       ( -0.0000000 )
                  (  0.0000000  0.0000000 -1.0000000 )       (  0.8044355 )


      isym = 10     180 deg rotation - cryst. axis [2,1,0]       

 cryst.   s(10) = (     1          1          0      )    f =(  0.0000000 )
                  (     0         -1          0      )       ( -0.0000000 )
                  (     0          0         -1      )       (  0.5000000 )

 cart.    s(10) = (  0.5000000  0.8660254  0.0000000 )    f =(  0.0000000 )
                  (  0.8660254 -0.5000000  0.0000000 )       ( -0.0000000 )
                  (  0.0000000  0.0000000 -1.0000000 )       (  0.8044355 )


      isym = 11     180 deg rotation - cryst. axis [0,1,0]       

 cryst.   s(11) = (    -1         -1          0      )
                  (     0          1          0      )
                  (     0          0         -1      )

 cart.    s(11) = ( -0.5000000 -0.8660254  0.0000000 )
                  ( -0.8660254  0.5000000  0.0000000 )
                  (  0.0000000  0.0000000 -1.0000000 )


      isym = 12     180 deg rotation - cryst. axis [1,1,0]       

 cryst.   s(12) = (     0          1          0      )
                  (     1          0          0      )
                  (     0          0         -1      )

 cart.    s(12) = ( -0.5000000  0.8660254  0.0000000 )
                  (  0.8660254  0.5000000  0.0000000 )
                  (  0.0000000  0.0000000 -1.0000000 )


      isym = 13     inversion                                    

 cryst.   s(13) = (    -1          0          0      )
                  (     0         -1          0      )
                  (     0          0         -1      )

 cart.    s(13) = ( -1.0000000  0.0000000  0.0000000 )
                  (  0.0000000 -1.0000000  0.0000000 )
                  (  0.0000000  0.0000000 -1.0000000 )


      isym = 14     inv. 180 deg rotation - cart. axis [0,0,1]   

 cryst.   s(14) = (     1          0          0      )    f =(  0.0000000 )
                  (     0          1          0      )       (  0.0000000 )
                  (     0          0         -1      )       (  0.5000000 )

 cart.    s(14) = (  1.0000000  0.0000000  0.0000000 )    f =(  0.0000000 )
                  (  0.0000000  1.0000000  0.0000000 )       (  0.0000000 )
                  (  0.0000000  0.0000000 -1.0000000 )       (  0.8044355 )


      isym = 15     inv. 180 deg rotation - cart. axis [0,1,0]   

 cryst.   s(15) = (     1          0          0      )    f =(  0.0000000 )
                  (    -1         -1          0      )       ( -0.0000000 )
                  (     0          0          1      )       (  0.5000000 )

 cart.    s(15) = (  1.0000000  0.0000000  0.0000000 )    f =(  0.0000000 )
                  (  0.0000000 -1.0000000  0.0000000 )       ( -0.0000000 )
                  (  0.0000000  0.0000000  1.0000000 )       (  0.8044355 )


      isym = 16     inv. 180 deg rotation - cart. axis [1,0,0]   

 cryst.   s(16) = (    -1          0          0      )
                  (     1          1          0      )
                  (     0          0          1      )

 cart.    s(16) = ( -1.0000000  0.0000000  0.0000000 )
                  (  0.0000000  1.0000000  0.0000000 )
                  (  0.0000000  0.0000000  1.0000000 )


      isym = 17     inv.  60 deg rotation - cryst. axis [0,0,1]  

 cryst.   s(17) = (    -1         -1          0      )    f =(  0.0000000 )
                  (     1          0          0      )       ( -0.0000000 )
                  (     0          0         -1      )       (  0.5000000 )

 cart.    s(17) = ( -0.5000000  0.8660254  0.0000000 )    f =(  0.0000000 )
                  ( -0.8660254 -0.5000000  0.0000000 )       ( -0.0000000 )
                  (  0.0000000  0.0000000 -1.0000000 )       (  0.8044355 )


      isym = 18     inv.  60 deg rotation - cryst. axis [0,0,-1] 

 cryst.   s(18) = (     0          1          0      )    f =( -0.0000000 )
                  (    -1         -1          0      )       ( -0.0000000 )
                  (     0          0         -1      )       (  0.5000000 )

 cart.    s(18) = ( -0.5000000 -0.8660254  0.0000000 )    f =(  0.0000000 )
                  (  0.8660254 -0.5000000  0.0000000 )       ( -0.0000000 )
                  (  0.0000000  0.0000000 -1.0000000 )       (  0.8044355 )


      isym = 19     inv. 120 deg rotation - cryst. axis [0,0,1]  

 cryst.   s(19) = (     0         -1          0      )
                  (     1          1          0      )
                  (     0          0         -1      )

 cart.    s(19) = (  0.5000000  0.8660254  0.0000000 )
                  ( -0.8660254  0.5000000  0.0000000 )
                  (  0.0000000  0.0000000 -1.0000000 )


      isym = 20     inv. 120 deg rotation - cryst. axis [0,0,-1] 

 cryst.   s(20) = (     1          1          0      )
                  (    -1          0          0      )
                  (     0          0         -1      )

 cart.    s(20) = (  0.5000000 -0.8660254  0.0000000 )
                  (  0.8660254  0.5000000  0.0000000 )
                  (  0.0000000  0.0000000 -1.0000000 )


      isym = 21     inv. 180 deg rotation - cryst. axis [1,-1,0] 

 cryst.   s(21) = (     0          1          0      )    f =(  0.0000000 )
                  (     1          0          0      )       ( -0.0000000 )
                  (     0          0          1      )       (  0.5000000 )

 cart.    s(21) = ( -0.5000000  0.8660254  0.0000000 )    f =(  0.0000000 )
                  (  0.8660254  0.5000000  0.0000000 )       ( -0.0000000 )
                  (  0.0000000  0.0000000  1.0000000 )       (  0.8044355 )


      isym = 22     inv. 180 deg rotation - cryst. axis [2,1,0]  

 cryst.   s(22) = (    -1         -1          0      )    f =(  0.0000000 )
                  (     0          1          0      )       ( -0.0000000 )
                  (     0          0          1      )       (  0.5000000 )

 cart.    s(22) = ( -0.5000000 -0.8660254  0.0000000 )    f =(  0.0000000 )
                  ( -0.8660254  0.5000000  0.0000000 )       ( -0.0000000 )
                  (  0.0000000  0.0000000  1.0000000 )       (  0.8044355 )


      isym = 23     inv. 180 deg rotation - cryst. axis [0,1,0]  

 cryst.   s(23) = (     1          1          0      )
                  (     0         -1          0      )
                  (     0          0          1      )

 cart.    s(23) = (  0.5000000  0.8660254  0.0000000 )
                  (  0.8660254 -0.5000000  0.0000000 )
                  (  0.0000000  0.0000000  1.0000000 )


      isym = 24     inv. 180 deg rotation - cryst. axis [1,1,0]  

 cryst.   s(24) = (     0         -1          0      )
                  (    -1          0          0      )
                  (     0          0          1      )

 cart.    s(24) = (  0.5000000 -0.8660254  0.0000000 )
                  ( -0.8660254 -0.5000000  0.0000000 )
                  (  0.0000000  0.0000000  1.0000000 )


     point group D_6h(6/mmm)
     there are 12 classes
     the character table:

       E     2C6   2C3   C2    3C2'  3C2'' i     2S3   2S6   s_h   3s_d  3s_v 
A_1g   1.00  1.00  1.00  1.00  1.00  1.00  1.00  1.00  1.00  1.00  1.00  1.00
A_2g   1.00  1.00  1.00  1.00 -1.00 -1.00  1.00  1.00  1.00  1.00 -1.00 -1.00
B_1g   1.00 -1.00  1.00 -1.00  1.00 -1.00  1.00 -1.00  1.00 -1.00  1.00 -1.00
B_2g   1.00 -1.00  1.00 -1.00 -1.00  1.00  1.00 -1.00  1.00 -1.00 -1.00  1.00
E_1g   2.00  1.00 -1.00 -2.00  0.00  0.00  2.00  1.00 -1.00 -2.00  0.00  0.00
E_2g   2.00 -1.00 -1.00  2.00  0.00  0.00  2.00 -1.00 -1.00  2.00  0.00  0.00
A_1u   1.00  1.00  1.00  1.00  1.00  1.00 -1.00 -1.00 -1.00 -1.00 -1.00 -1.00
A_2u   1.00  1.00  1.00  1.00 -1.00 -1.00 -1.00 -1.00 -1.00 -1.00  1.00  1.00
B_1u   1.00 -1.00  1.00 -1.00  1.00 -1.00 -1.00  1.00 -1.00  1.00 -1.00  1.00
B_2u   1.00 -1.00  1.00 -1.00 -1.00  1.00 -1.00  1.00 -1.00  1.00  1.00 -1.00
E_1u   2.00  1.00 -1.00 -2.00  0.00  0.00 -2.00 -1.00  1.00  2.00  0.00  0.00
E_2u   2.00 -1.00 -1.00  2.00  0.00  0.00 -2.00  1.00  1.00 -2.00  0.00  0.00

     the symmetry operations in each class and the name of the first element:

     E        1
          identity                                               
     2C6      5    6
           60 deg rotation - cryst. axis [0,0,1]                 
     2C3      7    8
          120 deg rotation - cryst. axis [0,0,1]                 
     C2       2
          180 deg rotation - cart. axis [0,0,1]                  
     3C2'     4   12   11
          180 deg rotation - cart. axis [1,0,0]                  
     3C2''    3    9   10
          180 deg rotation - cart. axis [0,1,0]                  
     i       13
          inversion                                              
     2S3     17   18
          inv.  60 deg rotation - cryst. axis [0,0,1]            
     2S6     19   20
          inv. 120 deg rotation - cryst. axis [0,0,1]            
     s_h     14
          inv. 180 deg rotation - cart. axis [0,0,1]             
     3s_d    16   24   23
          inv. 180 deg rotation - cart. axis [1,0,0]             
     3s_v    15   21   22
          inv. 180 deg rotation - cart. axis [0,1,0]             

   Cartesian axes

     site n.     atom                  positions (alat units)
         1           Co  tau(   1) = (  -0.0000000   0.5773503   0.4022177  )
         2           Co  tau(   2) = (   0.5000000   0.2886751   1.2066532  )

   Crystallographic axes

     site n.     atom                  positions (cryst. coord.)
         1           Co  tau(   1) = (  0.3333333  0.6666667  0.2500000  )
         2           Co  tau(   2) = (  0.6666667  0.3333333  0.7500000  )

     number of k points=    76  Gaussian smearing, width (Ry)=  0.0010
                       cart. coord. in units 2pi/alat
        k(    1) = (   0.0000000   0.0000000   0.0000000), wk =   0.0011574
        k(    2) = (   0.0000000   0.0000000   0.1035923), wk =   0.0023148
        k(    3) = (   0.0000000   0.0000000   0.2071846), wk =   0.0023148
        k(    4) = (   0.0000000   0.0000000  -0.3107769), wk =   0.0011574
        k(    5) = (   0.0000000   0.0962250   0.0000000), wk =   0.0069444
        k(    6) = (   0.0000000   0.0962250   0.1035923), wk =   0.0138889
        k(    7) = (   0.0000000   0.0962250   0.2071846), wk =   0.0138889
        k(    8) = (   0.0000000   0.0962250  -0.3107769), wk =   0.0069444
        k(    9) = (   0.0000000   0.1924501   0.0000000), wk =   0.0069444
        k(   10) = (   0.0000000   0.1924501   0.1035923), wk =   0.0138889
        k(   11) = (   0.0000000   0.1924501   0.2071846), wk =   0.0138889
        k(   12) = (   0.0000000   0.1924501  -0.3107769), wk =   0.0069444
        k(   13) = (   0.0000000   0.2886751   0.0000000), wk =   0.0069444
        k(   14) = (   0.0000000   0.2886751   0.1035923), wk =   0.0138889
        k(   15) = (   0.0000000   0.2886751   0.2071846), wk =   0.0138889
        k(   16) = (   0.0000000   0.2886751  -0.3107769), wk =   0.0069444
        k(   17) = (   0.0000000   0.3849002   0.0000000), wk =   0.0069444
        k(   18) = (   0.0000000   0.3849002   0.1035923), wk =   0.0138889
        k(   19) = (   0.0000000   0.3849002   0.2071846), wk =   0.0138889
        k(   20) = (   0.0000000   0.3849002  -0.3107769), wk =   0.0069444
        k(   21) = (   0.0000000   0.4811252   0.0000000), wk =   0.0069444
        k(   22) = (   0.0000000   0.4811252   0.1035923), wk =   0.0138889
        k(   23) = (   0.0000000   0.4811252   0.2071846), wk =   0.0138889
        k(   24) = (   0.0000000   0.4811252  -0.3107769), wk =   0.0069444
        k(   25) = (   0.0000000  -0.5773503   0.0000000), wk =   0.0034722
        k(   26) = (   0.0000000  -0.5773503   0.1035923), wk =   0.0069444
        k(   27) = (   0.0000000  -0.5773503   0.2071846), wk =   0.0069444
        k(   28) = (   0.0000000  -0.5773503  -0.3107769), wk =   0.0034722
        k(   29) = (   0.0833333   0.1443376   0.0000000), wk =   0.0069444
        k(   30) = (   0.0833333   0.1443376   0.1035923), wk =   0.0138889
        k(   31) = (   0.0833333   0.1443376   0.2071846), wk =   0.0138889
        k(   32) = (   0.0833333   0.1443376  -0.3107769), wk =   0.0069444
        k(   33) = (   0.0833333   0.2405626   0.0000000), wk =   0.0138889
        k(   34) = (   0.0833333   0.2405626   0.1035923), wk =   0.0277778
        k(   35) = (   0.0833333   0.2405626   0.2071846), wk =   0.0277778
        k(   36) = (   0.0833333   0.2405626  -0.3107769), wk =   0.0138889
        k(   37) = (   0.0833333   0.3367877   0.0000000), wk =   0.0138889
        k(   38) = (   0.0833333   0.3367877   0.1035923), wk =   0.0277778
        k(   39) = (   0.0833333   0.3367877   0.2071846), wk =   0.0277778
        k(   40) = (   0.0833333   0.3367877  -0.3107769), wk =   0.0138889
        k(   41) = (   0.0833333   0.4330127   0.0000000), wk =   0.0138889
        k(   42) = (   0.0833333   0.4330127   0.1035923), wk =   0.0277778
        k(   43) = (   0.0833333   0.4330127   0.2071846), wk =   0.0277778
        k(   44) = (   0.0833333   0.4330127  -0.3107769), wk =   0.0138889
        k(   45) = (   0.0833333   0.5292377   0.0000000), wk =   0.0138889
        k(   46) = (   0.0833333   0.5292377   0.1035923), wk =   0.0277778
        k(   47) = (   0.0833333   0.5292377   0.2071846), wk =   0.0277778
        k(   48) = (   0.0833333   0.5292377  -0.3107769), wk =   0.0138889
        k(   49) = (   0.1666667   0.2886751   0.0000000), wk =   0.0069444
        k(   50) = (   0.1666667   0.2886751   0.1035923), wk =   0.0138889
        k(   51) = (   0.1666667   0.2886751   0.2071846), wk =   0.0138889
        k(   52) = (   0.1666667   0.2886751  -0.3107769), wk =   0.0069444
        k(   53) = (   0.1666667   0.3849002   0.0000000), wk =   0.0138889
        k(   54) = (   0.1666667   0.3849002   0.1035923), wk =   0.0277778
        k(   55) = (   0.1666667   0.3849002   0.2071846), wk =   0.0277778
        k(   56) = (   0.1666667   0.3849002  -0.3107769), wk =   0.0138889
        k(   57) = (   0.1666667   0.4811252   0.0000000), wk =   0.0138889
        k(   58) = (   0.1666667   0.4811252   0.1035923), wk =   0.0277778
        k(   59) = (   0.1666667   0.4811252   0.2071846), wk =   0.0277778
        k(   60) = (   0.1666667   0.4811252  -0.3107769), wk =   0.0138889
        k(   61) = (   0.1666667   0.5773503   0.0000000), wk =   0.0069444
        k(   62) = (   0.1666667   0.5773503   0.1035923), wk =   0.0138889
        k(   63) = (   0.1666667   0.5773503   0.2071846), wk =   0.0138889
        k(   64) = (   0.1666667   0.5773503  -0.3107769), wk =   0.0069444
        k(   65) = (   0.2500000   0.4330127   0.0000000), wk =   0.0069444
        k(   66) = (   0.2500000   0.4330127   0.1035923), wk =   0.0138889
        k(   67) = (   0.2500000   0.4330127   0.2071846), wk =   0.0138889
        k(   68) = (   0.2500000   0.4330127  -0.3107769), wk =   0.0069444
        k(   69) = (   0.2500000   0.5292377   0.0000000), wk =   0.0138889
        k(   70) = (   0.2500000   0.5292377   0.1035923), wk =   0.0277778
        k(   71) = (   0.2500000   0.5292377   0.2071846), wk =   0.0277778
        k(   72) = (   0.2500000   0.5292377  -0.3107769), wk =   0.0138889
        k(   73) = (   0.3333333   0.5773503   0.0000000), wk =   0.0023148
        k(   74) = (   0.3333333   0.5773503   0.1035923), wk =   0.0046296
        k(   75) = (   0.3333333   0.5773503   0.2071846), wk =   0.0046296
        k(   76) = (   0.3333333   0.5773503  -0.3107769), wk =   0.0023148

                       cryst. coord.
        k(    1) = (   0.0000000   0.0000000   0.0000000), wk =   0.0011574
        k(    2) = (   0.0000000   0.0000000   0.1666667), wk =   0.0023148
        k(    3) = (   0.0000000   0.0000000   0.3333333), wk =   0.0023148
        k(    4) = (   0.0000000   0.0000000  -0.5000000), wk =   0.0011574
        k(    5) = (   0.0000000   0.0833333   0.0000000), wk =   0.0069444
        k(    6) = (   0.0000000   0.0833333   0.1666667), wk =   0.0138889
        k(    7) = (   0.0000000   0.0833333   0.3333333), wk =   0.0138889
        k(    8) = (   0.0000000   0.0833333  -0.5000000), wk =   0.0069444
        k(    9) = (   0.0000000   0.1666667   0.0000000), wk =   0.0069444
        k(   10) = (   0.0000000   0.1666667   0.1666667), wk =   0.0138889
        k(   11) = (   0.0000000   0.1666667   0.3333333), wk =   0.0138889
        k(   12) = (   0.0000000   0.1666667  -0.5000000), wk =   0.0069444
        k(   13) = (   0.0000000   0.2500000   0.0000000), wk =   0.0069444
        k(   14) = (   0.0000000   0.2500000   0.1666667), wk =   0.0138889
        k(   15) = (   0.0000000   0.2500000   0.3333333), wk =   0.0138889
        k(   16) = (   0.0000000   0.2500000  -0.5000000), wk =   0.0069444
        k(   17) = (   0.0000000   0.3333333   0.0000000), wk =   0.0069444
        k(   18) = (   0.0000000   0.3333333   0.1666667), wk =   0.0138889
        k(   19) = (   0.0000000   0.3333333   0.3333333), wk =   0.0138889
        k(   20) = (   0.0000000   0.3333333  -0.5000000), wk =   0.0069444
        k(   21) = (   0.0000000   0.4166667   0.0000000), wk =   0.0069444
        k(   22) = (   0.0000000   0.4166667   0.1666667), wk =   0.0138889
        k(   23) = (   0.0000000   0.4166667   0.3333333), wk =   0.0138889
        k(   24) = (   0.0000000   0.4166667  -0.5000000), wk =   0.0069444
        k(   25) = (   0.0000000  -0.5000000   0.0000000), wk =   0.0034722
        k(   26) = (   0.0000000  -0.5000000   0.1666667), wk =   0.0069444
        k(   27) = (   0.0000000  -0.5000000   0.3333333), wk =   0.0069444
        k(   28) = (   0.0000000  -0.5000000  -0.5000000), wk =   0.0034722
        k(   29) = (   0.0833333   0.0833333   0.0000000), wk =   0.0069444
        k(   30) = (   0.0833333   0.0833333   0.1666667), wk =   0.0138889
        k(   31) = (   0.0833333   0.0833333   0.3333333), wk =   0.0138889
        k(   32) = (   0.0833333   0.0833333  -0.5000000), wk =   0.0069444
        k(   33) = (   0.0833333   0.1666667   0.0000000), wk =   0.0138889
        k(   34) = (   0.0833333   0.1666667   0.1666667), wk =   0.0277778
        k(   35) = (   0.0833333   0.1666667   0.3333333), wk =   0.0277778
        k(   36) = (   0.0833333   0.1666667  -0.5000000), wk =   0.0138889
        k(   37) = (   0.0833333   0.2500000   0.0000000), wk =   0.0138889
        k(   38) = (   0.0833333   0.2500000   0.1666667), wk =   0.0277778
        k(   39) = (   0.0833333   0.2500000   0.3333333), wk =   0.0277778
        k(   40) = (   0.0833333   0.2500000  -0.5000000), wk =   0.0138889
        k(   41) = (   0.0833333   0.3333333   0.0000000), wk =   0.0138889
        k(   42) = (   0.0833333   0.3333333   0.1666667), wk =   0.0277778
        k(   43) = (   0.0833333   0.3333333   0.3333333), wk =   0.0277778
        k(   44) = (   0.0833333   0.3333333  -0.5000000), wk =   0.0138889
        k(   45) = (   0.0833333   0.4166667   0.0000000), wk =   0.0138889
        k(   46) = (   0.0833333   0.4166667   0.1666667), wk =   0.0277778
        k(   47) = (   0.0833333   0.4166667   0.3333333), wk =   0.0277778
        k(   48) = (   0.0833333   0.4166667  -0.5000000), wk =   0.0138889
        k(   49) = (   0.1666667   0.1666667   0.0000000), wk =   0.0069444
        k(   50) = (   0.1666667   0.1666667   0.1666667), wk =   0.0138889
        k(   51) = (   0.1666667   0.1666667   0.3333333), wk =   0.0138889
        k(   52) = (   0.1666667   0.1666667  -0.5000000), wk =   0.0069444
        k(   53) = (   0.1666667   0.2500000   0.0000000), wk =   0.0138889
        k(   54) = (   0.1666667   0.2500000   0.1666667), wk =   0.0277778
        k(   55) = (   0.1666667   0.2500000   0.3333333), wk =   0.0277778
        k(   56) = (   0.1666667   0.2500000  -0.5000000), wk =   0.0138889
        k(   57) = (   0.1666667   0.3333333   0.0000000), wk =   0.0138889
        k(   58) = (   0.1666667   0.3333333   0.1666667), wk =   0.0277778
        k(   59) = (   0.1666667   0.3333333   0.3333333), wk =   0.0277778
        k(   60) = (   0.1666667   0.3333333  -0.5000000), wk =   0.0138889
        k(   61) = (   0.1666667   0.4166667   0.0000000), wk =   0.0069444
        k(   62) = (   0.1666667   0.4166667   0.1666667), wk =   0.0138889
        k(   63) = (   0.1666667   0.4166667   0.3333333), wk =   0.0138889
        k(   64) = (   0.1666667   0.4166667  -0.5000000), wk =   0.0069444
        k(   65) = (   0.2500000   0.2500000   0.0000000), wk =   0.0069444
        k(   66) = (   0.2500000   0.2500000   0.1666667), wk =   0.0138889
        k(   67) = (   0.2500000   0.2500000   0.3333333), wk =   0.0138889
        k(   68) = (   0.2500000   0.2500000  -0.5000000), wk =   0.0069444
        k(   69) = (   0.2500000   0.3333333   0.0000000), wk =   0.0138889
        k(   70) = (   0.2500000   0.3333333   0.1666667), wk =   0.0277778
        k(   71) = (   0.2500000   0.3333333   0.3333333), wk =   0.0277778
        k(   72) = (   0.2500000   0.3333333  -0.5000000), wk =   0.0138889
        k(   73) = (   0.3333333   0.3333333   0.0000000), wk =   0.0023148
        k(   74) = (   0.3333333   0.3333333   0.1666667), wk =   0.0046296
        k(   75) = (   0.3333333   0.3333333   0.3333333), wk =   0.0046296
        k(   76) = (   0.3333333   0.3333333  -0.5000000), wk =   0.0023148

     Dense  grid:    23067 G-vectors     FFT dimensions: (  32,  32,  54)

     Smooth grid:    22383 G-vectors     FFT dimensions: (  32,  32,  54)

     Dynamical RAM for                 wfc:       0.06 MB

     Dynamical RAM for     wfc (w. buffer):       4.91 MB

     Dynamical RAM for           str. fact:       0.03 MB

     Dynamical RAM for           local pot:       0.00 MB

     Dynamical RAM for          nlocal pot:       0.11 MB

     Dynamical RAM for                qrad:       1.70 MB

     Dynamical RAM for          rho,v,vnew:       0.34 MB

     Dynamical RAM for               rhoin:       0.11 MB

     Dynamical RAM for            rho*nmix:       0.80 MB

     Dynamical RAM for           G-vectors:       0.11 MB

     Dynamical RAM for          h,s,v(r/c):       0.08 MB

     Dynamical RAM for          <psi|beta>:       0.01 MB

     Dynamical RAM for                 psi:       0.13 MB

     Dynamical RAM for                hpsi:       0.13 MB

     Dynamical RAM for                spsi:       0.13 MB

     Dynamical RAM for      wfcinit/wfcrot:       0.14 MB

     Dynamical RAM for           addusdens:       2.40 MB

     Estimated static dynamical RAM per process >       7.54 MB

     Estimated max dynamical RAM per process >      10.74 MB

     Estimated total dynamical RAM >     289.49 MB

     Check: negative core charge=   -0.000043
     Generating pointlists ...
     new r_m :   0.4084 (alat units)  1.9142 (a.u.) for type    1

     The initial density is read from file :
     ./out2/Co.save/charge-density


     starting charge      34.0427, renormalised to      34.0000
     Starting wfcs from file
     Checking if some PAW data can be deallocated... 

     total cpu time spent up to now is        0.5 secs

     Self-consistent Calculation

     iteration #  1     ecut=   110.00 Ry     beta= 0.70
     Davidson diagonalization with overlap

---- Real-time Memory Report at c_bands before calling an iterative solver
            60 MiB given to the printing process from OS
             0 MiB allocation reported by mallinfo(arena+hblkhd)
        181415 MiB available memory on the node where the printing process lives
------------------
     ethr =  1.00E-05,  avg # of iterations =  5.0

     total cpu time spent up to now is        1.9 secs

     total energy              =    -753.44844914 Ry
     estimated scf accuracy    <       0.00429547 Ry

     total magnetization       =     3.23 Bohr mag/cell
     absolute magnetization    =     3.53 Bohr mag/cell

     iteration #  2     ecut=   110.00 Ry     beta= 0.70
     Davidson diagonalization with overlap

---- Real-time Memory Report at c_bands before calling an iterative solver
            84 MiB given to the printing process from OS
             0 MiB allocation reported by mallinfo(arena+hblkhd)
        181082 MiB available memory on the node where the printing process lives
------------------
     ethr =  1.26E-05,  avg # of iterations =  5.6

     total cpu time spent up to now is        3.3 secs

     total energy              =    -753.45097334 Ry
     estimated scf accuracy    <       0.01984084 Ry

     total magnetization       =     3.25 Bohr mag/cell
     absolute magnetization    =     3.56 Bohr mag/cell

     iteration #  3     ecut=   110.00 Ry     beta= 0.70
     Davidson diagonalization with overlap

---- Real-time Memory Report at c_bands before calling an iterative solver
            85 MiB given to the printing process from OS
             0 MiB allocation reported by mallinfo(arena+hblkhd)
        181061 MiB available memory on the node where the printing process lives
------------------
     ethr =  1.26E-05,  avg # of iterations =  4.1

     total cpu time spent up to now is        4.4 secs

     total energy              =    -753.45463145 Ry
     estimated scf accuracy    <       0.00052313 Ry

     total magnetization       =     3.23 Bohr mag/cell
     absolute magnetization    =     3.54 Bohr mag/cell

     iteration #  4     ecut=   110.00 Ry     beta= 0.70
     Davidson diagonalization with overlap

---- Real-time Memory Report at c_bands before calling an iterative solver
            86 MiB given to the printing process from OS
             0 MiB allocation reported by mallinfo(arena+hblkhd)
        181045 MiB available memory on the node where the printing process lives
------------------
     ethr =  1.54E-06,  avg # of iterations =  3.4

     total cpu time spent up to now is        5.5 secs

     total energy              =    -753.45483086 Ry
     estimated scf accuracy    <       0.00000725 Ry

     total magnetization       =     3.23 Bohr mag/cell
     absolute magnetization    =     3.55 Bohr mag/cell

     iteration #  5     ecut=   110.00 Ry     beta= 0.70
     Davidson diagonalization with overlap

---- Real-time Memory Report at c_bands before calling an iterative solver
            87 MiB given to the printing process from OS
             0 MiB allocation reported by mallinfo(arena+hblkhd)
        181038 MiB available memory on the node where the printing process lives
------------------
     ethr =  2.13E-08,  avg # of iterations =  8.7

     total cpu time spent up to now is        7.4 secs

     total energy              =    -753.45484757 Ry
     estimated scf accuracy    <       0.00002758 Ry

     total magnetization       =     3.23 Bohr mag/cell
     absolute magnetization    =     3.55 Bohr mag/cell

     iteration #  6     ecut=   110.00 Ry     beta= 0.70
     Davidson diagonalization with overlap

---- Real-time Memory Report at c_bands before calling an iterative solver
            88 MiB given to the printing process from OS
             0 MiB allocation reported by mallinfo(arena+hblkhd)
        181031 MiB available memory on the node where the printing process lives
------------------
     ethr =  2.13E-08,  avg # of iterations =  5.0

     total cpu time spent up to now is        8.8 secs

     total energy              =    -753.45485569 Ry
     estimated scf accuracy    <       0.00000881 Ry

     total magnetization       =     3.23 Bohr mag/cell
     absolute magnetization    =     3.55 Bohr mag/cell

     iteration #  7     ecut=   110.00 Ry     beta= 0.70
     Davidson diagonalization with overlap

---- Real-time Memory Report at c_bands before calling an iterative solver
            88 MiB given to the printing process from OS
             0 MiB allocation reported by mallinfo(arena+hblkhd)
        181028 MiB available memory on the node where the printing process lives
------------------
     ethr =  2.13E-08,  avg # of iterations =  2.0
 
     Magnetic moment per site  (integrated on atomic sphere of radius R)
     atom   1 (R=0.408)  charge= 15.5619  magn=  1.6901
     atom   2 (R=0.408)  charge= 15.5619  magn=  1.6901

     total cpu time spent up to now is        9.5 secs

     End of self-consistent calculation

 ------ SPIN UP ------------


          k = 0.0000 0.0000 0.0000 (  2803 PWs)   bands (ev):

   -76.9651 -76.9018 -40.3745 -40.0710 -40.0710 -40.0185 -40.0185 -40.0169
    10.0370  13.8754  16.5126  16.5126  16.5142  16.8441  16.8441  17.1836
    17.1836  18.3488  18.3488  18.9654  25.7217

     occupation numbers 
     1.0000   1.0000   1.0000   1.0000   1.0000   1.0000   1.0000   1.0000
     1.0000   1.0000   1.0000   1.0000   1.0000   1.0000   1.0000   1.0000
     1.0000   1.0000   1.0000   1.0000   0.0000

          k = 0.0000 0.0000 0.1036 (  2803 PWs)   bands (ev):

   -76.9609 -76.9060 -40.3509 -40.0675 -40.0675 -40.0412 -40.0220 -40.0220
    10.3209  13.8111  16.4386  16.4413  16.4413  16.7648  16.7648  17.3590
    17.3590  17.9944  18.3331  18.3331  27.2621

     occupation numbers 
     1.0000   1.0000   1.0000   1.0000   1.0000   1.0000   1.0000   1.0000
     1.0000   1.0000   1.0000   1.0000   1.0000   1.0000   1.0000   1.0000
     1.0000   1.0000   1.0000   1.0000   0.0000

          k = 0.0000 0.0000 0.2072 (  2773 PWs)   bands (ev):

   -76.9493 -76.9176 -40.2861 -40.1073 -40.0579 -40.0579 -40.0316 -40.0316
    11.1338  13.3844  16.2631  16.3813  16.3813  16.5906  16.5906  16.6410
    17.7014  17.7014  18.2430  18.2430  30.5243

     occupation numbers 
     1.0000   1.0000   1.0000   1.0000   1.0000   1.0000   1.0000   1.0000
     1.0000   1.0000   1.0000   1.0000   1.0000   1.0000   1.0000   1.0000
     1.0000   1.0000   1.0000   1.0000   0.0000

          k = 0.0000 0.0000-0.3108 (  2810 PWs)   bands (ev):

   -76.9335 -76.9335 -40.1971 -40.1971 -40.0448 -40.0448 -40.0448 -40.0448
    12.3136  12.3136  16.1753  16.1753  16.4363  16.4363  16.4363  16.4363
    18.0263  18.0263  18.0263  18.0263  34.4116

     occupation numbers 
     1.0000   1.0000   1.0000   1.0000   1.0000   1.0000   1.0000   1.0000
     1.0000   1.0000   1.0000   1.0000   1.0000   1.0000   1.0000   1.0000
     1.0000   1.0000   1.0000   1.0000   0.0000

          k = 0.0000 0.0962 0.0000 (  2799 PWs)   bands (ev):

   -76.9616 -76.9003 -40.3669 -40.0875 -40.0765 -40.0356 -40.0211 -40.0202
    10.2816  14.0219  16.2718  16.6293  16.7136  16.7978  16.9471  17.0252
    17.1097  17.5209  18.3809  20.1182  25.7599

     occupation numbers 
     1.0000   1.0000   1.0000   1.0000   1.0000   1.0000   1.0000   1.0000
     1.0000   1.0000   1.0000   1.0000   1.0000   1.0000   1.0000   1.0000
     1.0000   1.0000   1.0000   0.0000   0.0000

          k = 0.0000 0.0962 0.1036 (  2789 PWs)   bands (ev):

   -76.9575 -76.9044 -40.3446 -40.0834 -40.0728 -40.0547 -40.0280 -40.0248
    10.5610  13.9725  16.2678  16.5264  16.5400  16.6049  16.8614  17.1819
    17.3141  17.4120  18.3574  19.3341  27.3691

     occupation numbers 
     1.0000   1.0000   1.0000   1.0000   1.0000   1.0000   1.0000   1.0000
     1.0000   1.0000   1.0000   1.0000   1.0000   1.0000   1.0000   1.0000
     1.0000   1.0000   1.0000   0.0000   0.0000

          k = 0.0000 0.0962 0.2072 (  2790 PWs)   bands (ev):

   -76.9463 -76.9156 -40.2836 -40.1156 -40.0720 -40.0627 -40.0408 -40.0350
    11.3609  13.5748  16.1582  16.2338  16.3080  16.4731  16.6861  16.7735
    17.6754  17.7243  18.2496  18.5511  30.6762

     occupation numbers 
     1.0000   1.0000   1.0000   1.0000   1.0000   1.0000   1.0000   1.0000
     1.0000   1.0000   1.0000   1.0000   1.0000   1.0000   1.0000   1.0000
     1.0000   1.0000   1.0000   1.0000   0.0000

          k = 0.0000 0.0962-0.3108 (  2812 PWs)   bands (ev):

   -76.9310 -76.9310 -40.1998 -40.1998 -40.0565 -40.0565 -40.0489 -40.0489
    12.5218  12.5218  16.0127  16.0127  16.4615  16.4615  16.5298  16.5298
    18.0151  18.0151  18.1218  18.1218  34.5781

     occupation numbers 
     1.0000   1.0000   1.0000   1.0000   1.0000   1.0000   1.0000   1.0000
     1.0000   1.0000   1.0000   1.0000   1.0000   1.0000   1.0000   1.0000
     1.0000   1.0000   1.0000   1.0000   0.0000

          k = 0.0000 0.1925 0.0000 (  2793 PWs)   bands (ev):

   -76.9521 -76.8963 -40.3449 -40.1326 -40.0911 -40.0819 -40.0301 -40.0288
    10.9887  14.3842  15.9822  16.2866  16.6217  16.9275  16.9594  17.0290
    17.1464  17.2360  18.4496  21.7408  25.8943

     occupation numbers 
     1.0000   1.0000   1.0000   1.0000   1.0000   1.0000   1.0000   1.0000
     1.0000   1.0000   1.0000   1.0000   1.0000   1.0000   1.0000   1.0000
     1.0000   1.0000   1.0000   0.0000   0.0000

          k = 0.0000 0.1925 0.1036 (  2786 PWs)   bands (ev):

   -76.9484 -76.9000 -40.3273 -40.1265 -40.0982 -40.0869 -40.0380 -40.0329
    11.2514  14.3803  15.9990  16.0266  16.5012  16.7503  16.9011  17.1121
    17.2976  17.4072  18.4085  20.5950  27.7170

     occupation numbers 
     1.0000   1.0000   1.0000   1.0000   1.0000   1.0000   1.0000   1.0000
     1.0000   1.0000   1.0000   1.0000   1.0000   1.0000   1.0000   1.0000
     1.0000   1.0000   1.0000   0.0000   0.0000

          k = 0.0000 0.1925 0.2072 (  2786 PWs)   bands (ev):

   -76.9382 -76.9103 -40.2789 -40.1471 -40.1072 -40.0755 -40.0578 -40.0443
    12.0001  14.0681  15.6439  16.0793  16.2103  16.6970  16.7121  16.9516
    17.6483  17.8214  18.2635  19.2154  31.1296

     occupation numbers 
     1.0000   1.0000   1.0000   1.0000   1.0000   1.0000   1.0000   1.0000
     1.0000   1.0000   1.0000   1.0000   1.0000   1.0000   1.0000   1.0000
     1.0000   1.0000   1.0000   0.0000   0.0000

          k = 0.0000 0.1925-0.3108 (  2786 PWs)   bands (ev):

   -76.9242 -76.9242 -40.2127 -40.2127 -40.0830 -40.0830 -40.0599 -40.0599
    13.0811  13.0811  15.7662  15.7662  16.4085  16.4085  16.7796  16.7796
    17.9986  17.9986  18.3783  18.3783  35.0246

     occupation numbers 
     1.0000   1.0000   1.0000   1.0000   1.0000   1.0000   1.0000   1.0000
     1.0000   1.0000   1.0000   1.0000   1.0000   1.0000   1.0000   1.0000
     1.0000   1.0000   1.0000   1.0000   0.0000

          k = 0.0000 0.2887 0.0000 (  2778 PWs)   bands (ev):

   -76.9385 -76.8914 -40.3121 -40.1948 -40.1440 -40.1104 -40.0466 -40.0397
    12.0578  14.6760  15.5423  15.7999  16.5287  16.7086  16.9454  17.4383
    17.4670  17.6515  18.5151  23.5621  26.1505

     occupation numbers 
     1.0000   1.0000   1.0000   1.0000   1.0000   1.0000   1.0000   1.0000
     1.0000   1.0000   1.0000   1.0000   1.0000   1.0000   1.0000   1.0000
     1.0000   1.0000   1.0000   0.0000   0.0000

          k = 0.0000 0.2887 0.1036 (  2781 PWs)   bands (ev):

   -76.9354 -76.8946 -40.3051 -40.1830 -40.1581 -40.1056 -40.0516 -40.0444
    12.2761  14.7268  15.3913  15.8539  16.3702  16.7470  16.9486  17.4868
    17.5916  17.6033  18.4573  21.9009  28.3363

     occupation numbers 
     1.0000   1.0000   1.0000   1.0000   1.0000   1.0000   1.0000   1.0000
     1.0000   1.0000   1.0000   1.0000   1.0000   1.0000   1.0000   1.0000
     1.0000   1.0000   1.0000   0.0000   0.0000

          k = 0.0000 0.2887 0.2072 (  2794 PWs)   bands (ev):

   -76.9268 -76.9032 -40.2828 -40.2017 -40.1435 -40.0927 -40.0703 -40.0574
    12.8835  14.5054  15.2961  15.9002  16.2218  16.7798  16.8716  17.3280
    17.7681  17.9909  18.2891  20.0064  31.7169

     occupation numbers 
     1.0000   1.0000   1.0000   1.0000   1.0000   1.0000   1.0000   1.0000
     1.0000   1.0000   1.0000   1.0000   1.0000   1.0000   1.0000   1.0000
     1.0000   1.0000   1.0000   0.0000   0.0000

          k = 0.0000 0.2887-0.3108 (  2798 PWs)   bands (ev):

   -76.9150 -76.9150 -40.2456 -40.2456 -40.1036 -40.1036 -40.0751 -40.0751
    13.7238  13.7238  15.6077  15.6077  16.4651  16.4651  17.0803  17.0803
    18.0388  18.0388  18.7346  18.7346  33.7121

     occupation numbers 
     1.0000   1.0000   1.0000   1.0000   1.0000   1.0000   1.0000   1.0000
     1.0000   1.0000   1.0000   1.0000   1.0000   1.0000   1.0000   1.0000
     1.0000   1.0000   1.0000   1.0000   0.0000

          k = 0.0000 0.3849 0.0000 (  2802 PWs)   bands (ev):

   -76.9239 -76.8875 -40.2735 -40.2577 -40.2050 -40.1292 -40.0688 -40.0510
    13.2261  14.6096  15.0009  15.8999  16.5117  16.6545  16.7674  17.9490
    18.1028  18.1618  18.5604  25.5405  26.1393

     occupation numbers 
     1.0000   1.0000   1.0000   1.0000   1.0000   1.0000   1.0000   1.0000
     1.0000   1.0000   1.0000   1.0000   1.0000   1.0000   1.0000   1.0000
     1.0000   1.0000   1.0000   0.0000   0.0000

          k = 0.0000 0.3849 0.1036 (  2793 PWs)   bands (ev):

   -76.9215 -76.8900 -40.2990 -40.2297 -40.2069 -40.1240 -40.0695 -40.0563
    13.3275  14.6495  15.0322  15.7692  16.5591  16.6077  17.1134  17.9730
    18.0061  18.0978  18.5002  23.1496  28.2498

     occupation numbers 
     1.0000   1.0000   1.0000   1.0000   1.0000   1.0000   1.0000   1.0000
     1.0000   1.0000   1.0000   1.0000   1.0000   1.0000   1.0000   1.0000
     1.0000   1.0000   1.0000   0.0000   0.0000

          k = 0.0000 0.3849 0.2072 (  2800 PWs)   bands (ev):

   -76.9148 -76.8966 -40.3077 -40.2599 -40.1572 -40.1097 -40.0803 -40.0706
    13.6128  14.4751  15.1720  15.7051  16.6439  16.8786  17.4039  17.6845
    18.0834  18.2254  18.3682  20.8982  29.3444

     occupation numbers 
     1.0000   1.0000   1.0000   1.0000   1.0000   1.0000   1.0000   1.0000
     1.0000   1.0000   1.0000   1.0000   1.0000   1.0000   1.0000   1.0000
     1.0000   1.0000   1.0000   0.0000   0.0000

          k = 0.0000 0.3849-0.3108 (  2788 PWs)   bands (ev):

   -76.9057 -76.9057 -40.2923 -40.2923 -40.1103 -40.1103 -40.0902 -40.0902
    14.0314  14.0314  15.4830  15.4830  17.0666  17.0666  17.2700  17.2700
    18.2196  18.2196  19.2184  19.2184  30.4854

     occupation numbers 
     1.0000   1.0000   1.0000   1.0000   1.0000   1.0000   1.0000   1.0000
     1.0000   1.0000   1.0000   1.0000   1.0000   1.0000   1.0000   1.0000
     1.0000   1.0000   0.0000   0.0000   0.0000

          k = 0.0000 0.4811 0.0000 (  2802 PWs)   bands (ev):

   -76.9119 -76.8860 -40.3040 -40.2490 -40.2378 -40.1427 -40.0925 -40.0596
    14.0015  14.4189  14.6764  16.2572  16.3773  16.6419  16.8616  18.3309
    18.4774  18.5849  19.2813  24.2132  27.5762

     occupation numbers 
     1.0000   1.0000   1.0000   1.0000   1.0000   1.0000   1.0000   1.0000
     1.0000   1.0000   1.0000   1.0000   1.0000   1.0000   1.0000   1.0000
     1.0000   1.0000   0.0000   0.0000   0.0000

          k = 0.0000 0.4811 0.1036 (  2792 PWs)   bands (ev):

   -76.9101 -76.8877 -40.3233 -40.2677 -40.2036 -40.1372 -40.0885 -40.0652
    13.8914  14.4189  14.9995  15.6666  16.4953  16.8521  17.4636  18.2846
    18.3736  18.5645  19.1142  23.4327  26.8685

     occupation numbers 
     1.0000   1.0000   1.0000   1.0000   1.0000   1.0000   1.0000   1.0000
     1.0000   1.0000   1.0000   1.0000   1.0000   1.0000   1.0000   1.0000
     1.0000   1.0000   0.0812   0.0000   0.0000

          k = 0.0000 0.4811 0.2072 (  2799 PWs)   bands (ev):

   -76.9054 -76.8925 -40.3388 -40.3026 -40.1518 -40.1220 -40.0896 -40.0804
    13.8603  14.3512  15.1609  15.5096  16.8302  17.0873  17.8637  18.4021
    18.4703  18.5197  18.7548  21.7018  26.9917

     occupation numbers 
     1.0000   1.0000   1.0000   1.0000   1.0000   1.0000   1.0000   1.0000
     1.0000   1.0000   1.0000   1.0000   1.0000   1.0000   1.0000   1.0000
     1.0000   1.0000   1.0000   0.0000   0.0000

          k = 0.0000 0.4811-0.3108 (  2790 PWs)   bands (ev):

   -76.8989 -76.8989 -40.3309 -40.3309 -40.1104 -40.1104 -40.1012 -40.1012
    14.0513  14.0513  15.3607  15.3607  17.3225  17.3225  17.8143  17.8143
    18.4605  18.4605  20.0229  20.0229  27.7772

     occupation numbers 
     1.0000   1.0000   1.0000   1.0000   1.0000   1.0000   1.0000   1.0000
     1.0000   1.0000   1.0000   1.0000   1.0000   1.0000   1.0000   1.0000
     1.0000   1.0000   0.0000   0.0000   0.0000

          k = 0.0000-0.5774 0.0000 (  2790 PWs)   bands (ev):

   -76.9068 -76.8861 -40.3209 -40.2649 -40.2211 -40.1476 -40.1048 -40.0627
    14.2636  14.2792  14.5685  16.3298  16.5053  16.5966  16.9412  18.4689
    18.5924  18.6294  20.4342  22.4810  28.8918

     occupation numbers 
     1.0000   1.0000   1.0000   1.0000   1.0000   1.0000   1.0000   1.0000
     1.0000   1.0000   1.0000   1.0000   1.0000   1.0000   1.0000   1.0000
     1.0000   1.0000   0.0000   0.0000   0.0000

          k = 0.0000-0.5774 0.1036 (  2806 PWs)   bands (ev):

   -76.9054 -76.8875 -40.3366 -40.2829 -40.1938 -40.1420 -40.0983 -40.0684
    13.9956  14.3181  15.0367  15.6396  16.4540  16.9442  17.6653  18.3580
    18.5283  18.6211  20.2135  22.2980  28.0116

     occupation numbers 
     1.0000   1.0000   1.0000   1.0000   1.0000   1.0000   1.0000   1.0000
     1.0000   1.0000   1.0000   1.0000   1.0000   1.0000   1.0000   1.0000
     1.0000   1.0000   0.0000   0.0000   0.0000

          k = 0.0000-0.5774 0.2072 (  2798 PWs)   bands (ev):

   -76.9016 -76.8913 -40.3520 -40.3182 -40.1467 -40.1265 -40.0943 -40.0840
    13.8804  14.3029  15.1855  15.4211  16.8073  17.2374  17.9035  18.5375
    18.5892  18.5984  19.8474  21.6817  26.9896

     occupation numbers 
     1.0000   1.0000   1.0000   1.0000   1.0000   1.0000   1.0000   1.0000
     1.0000   1.0000   1.0000   1.0000   1.0000   1.0000   1.0000   1.0000
     1.0000   1.0000   0.0000   0.0000   0.0000

          k = 0.0000-0.5774-0.3108 (  2800 PWs)   bands (ev):

   -76.8964 -76.8964 -40.3456 -40.3456 -40.1099 -40.1099 -40.1053 -40.1053
    14.0327  14.0327  15.3122  15.3122  17.3282  17.3282  18.0708  18.0708
    18.5674  18.5674  20.6505  20.6505  26.5324

     occupation numbers 
     1.0000   1.0000   1.0000   1.0000   1.0000   1.0000   1.0000   1.0000
     1.0000   1.0000   1.0000   1.0000   1.0000   1.0000   1.0000   1.0000
     1.0000   1.0000   0.0000   0.0000   0.0000

          k = 0.0833 0.1443 0.0000 (  2793 PWs)   bands (ev):

   -76.9552 -76.8975 -40.3521 -40.1154 -40.0931 -40.0613 -40.0284 -40.0268
    10.7583  14.2821  16.0444  16.5389  16.6887  16.8680  16.8778  16.9012
    17.1752  17.2669  18.4214  21.2869  25.8482

     occupation numbers 
     1.0000   1.0000   1.0000   1.0000   1.0000   1.0000   1.0000   1.0000
     1.0000   1.0000   1.0000   1.0000   1.0000   1.0000   1.0000   1.0000
     1.0000   1.0000   1.0000   0.0000   0.0000

          k = 0.0833 0.1443 0.1036 (  2795 PWs)   bands (ev):

   -76.9513 -76.9014 -40.3327 -40.1100 -40.0937 -40.0748 -40.0341 -40.0324
    11.0273  14.2635  16.0699  16.1940  16.5461  16.7132  16.8722  17.0273
    17.3313  17.3821  18.3888  20.2532  27.5987

     occupation numbers 
     1.0000   1.0000   1.0000   1.0000   1.0000   1.0000   1.0000   1.0000
     1.0000   1.0000   1.0000   1.0000   1.0000   1.0000   1.0000   1.0000
     1.0000   1.0000   1.0000   0.0000   0.0000

          k = 0.0833 0.1443 0.2072 (  2787 PWs)   bands (ev):

   -76.9408 -76.9120 -40.2798 -40.1357 -40.0950 -40.0746 -40.0504 -40.0432
    11.7958  13.9233  15.7725  16.1289  16.2228  16.6339  16.7240  16.8685
    17.6792  17.7627  18.2632  19.0230  30.9820

     occupation numbers 
     1.0000   1.0000   1.0000   1.0000   1.0000   1.0000   1.0000   1.0000
     1.0000   1.0000   1.0000   1.0000   1.0000   1.0000   1.0000   1.0000
     1.0000   1.0000   1.0000   1.0000   0.0000

          k = 0.0833 0.1443-0.3108 (  2778 PWs)   bands (ev):

   -76.9264 -76.9264 -40.2074 -40.2074 -40.0754 -40.0754 -40.0568 -40.0568
    12.9092  12.9092  15.8278  15.8278  16.4085  16.4085  16.7142  16.7142
    18.0045  18.0045  18.2982  18.2982  34.8976

     occupation numbers 
     1.0000   1.0000   1.0000   1.0000   1.0000   1.0000   1.0000   1.0000
     1.0000   1.0000   1.0000   1.0000   1.0000   1.0000   1.0000   1.0000
     1.0000   1.0000   1.0000   1.0000   0.0000

          k = 0.0833 0.2406 0.0000 (  2782 PWs)   bands (ev):

   -76.9436 -76.8931 -40.3246 -40.1651 -40.1338 -40.0926 -40.0410 -40.0401
    11.6550  14.6533  15.7581  15.8158  16.5674  16.6705  17.1111  17.1392
    17.3032  17.6015  18.4717  22.9058  26.0664

     occupation numbers 
     1.0000   1.0000   1.0000   1.0000   1.0000   1.0000   1.0000   1.0000
     1.0000   1.0000   1.0000   1.0000   1.0000   1.0000   1.0000   1.0000
     1.0000   1.0000   1.0000   0.0000   0.0000

          k = 0.0833 0.2406 0.1036 (  2786 PWs)   bands (ev):

   -76.9402 -76.8965 -40.3124 -40.1567 -40.1414 -40.0968 -40.0471 -40.0431
    11.8955  14.6949  15.5962  15.8093  16.4402  16.7074  16.9106  17.2497
    17.5113  17.5879  18.4321  21.4523  28.1061

     occupation numbers 
     1.0000   1.0000   1.0000   1.0000   1.0000   1.0000   1.0000   1.0000
     1.0000   1.0000   1.0000   1.0000   1.0000   1.0000   1.0000   1.0000
     1.0000   1.0000   1.0000   0.0000   0.0000

          k = 0.0833 0.2406 0.2072 (  2781 PWs)   bands (ev):

   -76.9310 -76.9058 -40.2784 -40.1795 -40.1288 -40.0934 -40.0624 -40.0556
    12.5745  14.4475  15.3815  15.9180  16.1691  16.6046  16.8493  17.1946
    17.7696  17.8982  18.3040  19.7325  31.5749

     occupation numbers 
     1.0000   1.0000   1.0000   1.0000   1.0000   1.0000   1.0000   1.0000
     1.0000   1.0000   1.0000   1.0000   1.0000   1.0000   1.0000   1.0000
     1.0000   1.0000   1.0000   0.0000   0.0000

          k = 0.0833 0.2406-0.3108 (  2778 PWs)   bands (ev):

   -76.9184 -76.9184 -40.2300 -40.2300 -40.0991 -40.0991 -40.0702 -40.0702
    13.5402  13.5402  15.6619  15.6619  16.3031  16.3031  17.0010  17.0010
    18.0477  18.0477  18.6071  18.6071  35.1673

     occupation numbers 
     1.0000   1.0000   1.0000   1.0000   1.0000   1.0000   1.0000   1.0000
     1.0000   1.0000   1.0000   1.0000   1.0000   1.0000   1.0000   1.0000
     1.0000   1.0000   1.0000   1.0000   0.0000

          k = 0.0833 0.3368 0.0000 (  2792 PWs)   bands (ev):

   -76.9294 -76.8888 -40.2886 -40.2261 -40.1851 -40.1210 -40.0597 -40.0546
    12.8103  14.7775  15.2230  15.6737  16.4768  16.5812  16.9130  17.5492
    17.8203  18.1793  18.5144  24.7667  26.3808

     occupation numbers 
     1.0000   1.0000   1.0000   1.0000   1.0000   1.0000   1.0000   1.0000
     1.0000   1.0000   1.0000   1.0000   1.0000   1.0000   1.0000   1.0000
     1.0000   1.0000   1.0000   0.0000   0.0000

          k = 0.0833 0.3368 0.1036 (  2794 PWs)   bands (ev):

   -76.9267 -76.8915 -40.2946 -40.2108 -40.1894 -40.1202 -40.0645 -40.0557
    12.9780  14.8516  15.1235  15.7277  16.3504  16.7118  16.8910  17.5696
    17.9171  18.0460  18.5142  22.7344  28.7963

     occupation numbers 
     1.0000   1.0000   1.0000   1.0000   1.0000   1.0000   1.0000   1.0000
     1.0000   1.0000   1.0000   1.0000   1.0000   1.0000   1.0000   1.0000
     1.0000   1.0000   1.0000   0.0000   0.0000

          k = 0.0833 0.3368 0.2072 (  2795 PWs)   bands (ev):

   -76.9193 -76.8990 -40.2918 -40.2350 -40.1531 -40.1117 -40.0786 -40.0652
    13.4318  14.6225  15.2237  15.8201  16.2495  16.7411  16.9320  17.5379
    18.0061  18.1727  18.4695  20.5997  30.9881

     occupation numbers 
     1.0000   1.0000   1.0000   1.0000   1.0000   1.0000   1.0000   1.0000
     1.0000   1.0000   1.0000   1.0000   1.0000   1.0000   1.0000   1.0000
     1.0000   1.0000   1.0000   0.0000   0.0000

          k = 0.0833 0.3368-0.3108 (  2790 PWs)   bands (ev):

   -76.9091 -76.9091 -40.2697 -40.2697 -40.1147 -40.1147 -40.0834 -40.0834
    14.0384  14.0384  15.5846  15.5846  16.4717  16.4717  17.2079  17.2079
    18.2447  18.2447  19.0721  19.0721  32.2001

     occupation numbers 
     1.0000   1.0000   1.0000   1.0000   1.0000   1.0000   1.0000   1.0000
     1.0000   1.0000   1.0000   1.0000   1.0000   1.0000   1.0000   1.0000
     1.0000   1.0000   0.9985   0.9985   0.0000

          k = 0.0833 0.4330 0.0000 (  2804 PWs)   bands (ev):

   -76.9159 -76.8863 -40.2803 -40.2504 -40.2304 -40.1430 -40.0837 -40.0662
    13.8315  14.6016  14.8206  15.8981  16.3508  16.7175  16.7777  18.0630
    18.2631  18.5412  18.9891  25.5735  26.7821

     occupation numbers 
     1.0000   1.0000   1.0000   1.0000   1.0000   1.0000   1.0000   1.0000
     1.0000   1.0000   1.0000   1.0000   1.0000   1.0000   1.0000   1.0000
     1.0000   1.0000   1.0000   0.0000   0.0000

          k = 0.0833 0.4330 0.1036 (  2793 PWs)   bands (ev):

   -76.9139 -76.8883 -40.3055 -40.2510 -40.2067 -40.1389 -40.0838 -40.0680
    13.8251  14.6322  14.9736  15.6721  16.4310  16.7795  17.0658  18.0096
    18.3284  18.3452  18.9930  23.7930  27.3614

     occupation numbers 
     1.0000   1.0000   1.0000   1.0000   1.0000   1.0000   1.0000   1.0000
     1.0000   1.0000   1.0000   1.0000   1.0000   1.0000   1.0000   1.0000
     1.0000   1.0000   1.0000   0.0000   0.0000

          k = 0.0833 0.4330 0.2072 (  2790 PWs)   bands (ev):

   -76.9085 -76.8937 -40.3205 -40.2830 -40.1586 -40.1237 -40.0947 -40.0733
    13.9117  14.5069  15.1623  15.6636  16.5397  16.9802  17.4442  17.7444
    18.1963  18.5040  19.0543  21.6097  28.0794

     occupation numbers 
     1.0000   1.0000   1.0000   1.0000   1.0000   1.0000   1.0000   1.0000
     1.0000   1.0000   1.0000   1.0000   1.0000   1.0000   1.0000   1.0000
     1.0000   1.0000   1.0000   0.0000   0.0000

          k = 0.0833 0.4330-0.3108 (  2794 PWs)   bands (ev):

   -76.9011 -76.9011 -40.3113 -40.3113 -40.1246 -40.1246 -40.0910 -40.0910
    14.1647  14.1647  15.4701  15.4701  16.9920  16.9920  17.3950  17.3950
    18.4538  18.4538  19.9059  19.9059  29.1388

     occupation numbers 
     1.0000   1.0000   1.0000   1.0000   1.0000   1.0000   1.0000   1.0000
     1.0000   1.0000   1.0000   1.0000   1.0000   1.0000   1.0000   1.0000
     1.0000   1.0000   0.0000   0.0000   0.0000

          k = 0.0833 0.5292 0.0000 (  2785 PWs)   bands (ev):

   -76.9068 -76.8861 -40.3118 -40.2566 -40.2213 -40.1551 -40.1046 -40.0729
    14.2929  14.4365  14.6189  16.2623  16.2997  16.5886  16.9375  18.4315
    18.5048  18.5531  20.2658  23.2455  28.6997

     occupation numbers 
     1.0000   1.0000   1.0000   1.0000   1.0000   1.0000   1.0000   1.0000
     1.0000   1.0000   1.0000   1.0000   1.0000   1.0000   1.0000   1.0000
     1.0000   1.0000   0.0000   0.0000   0.0000

          k = 0.0833 0.5292 0.1036 (  2797 PWs)   bands (ev):

   -76.9055 -76.8874 -40.3275 -40.2751 -40.1962 -40.1472 -40.1008 -40.0755
    14.0766  14.4520  15.0651  15.6184  16.3551  16.9827  17.3211  18.3062
    18.4694  18.5406  20.1922  22.9797  27.4192

     occupation numbers 
     1.0000   1.0000   1.0000   1.0000   1.0000   1.0000   1.0000   1.0000
     1.0000   1.0000   1.0000   1.0000   1.0000   1.0000   1.0000   1.0000
     1.0000   1.0000   0.0000   0.0000   0.0000

          k = 0.0833 0.5292 0.2072 (  2802 PWs)   bands (ev):

   -76.9016 -76.8912 -40.3430 -40.3101 -40.1592 -40.1233 -40.1074 -40.0791
    13.9858  14.4324  15.1926  15.5281  16.5337  17.2977  17.7376  17.9815
    18.4231  18.6260  20.2200  22.1109  26.6720

     occupation numbers 
     1.0000   1.0000   1.0000   1.0000   1.0000   1.0000   1.0000   1.0000
     1.0000   1.0000   1.0000   1.0000   1.0000   1.0000   1.0000   1.0000
     1.0000   1.0000   0.0000   0.0000   0.0000

          k = 0.0833 0.5292-0.3108 (  2798 PWs)   bands (ev):

   -76.8964 -76.8964 -40.3370 -40.3370 -40.1307 -40.1307 -40.0932 -40.0932
    14.1484  14.1484  15.3848  15.3848  17.1058  17.1058  17.8332  17.8332
    18.4960  18.4960  20.9683  20.9683  26.9434

     occupation numbers 
     1.0000   1.0000   1.0000   1.0000   1.0000   1.0000   1.0000   1.0000
     1.0000   1.0000   1.0000   1.0000   1.0000   1.0000   1.0000   1.0000
     1.0000   1.0000   0.0000   0.0000   0.0000

          k = 0.1667 0.2887 0.0000 (  2784 PWs)   bands (ev):

   -76.9314 -76.8893 -40.2938 -40.2008 -40.1909 -40.1114 -40.0631 -40.0567
    12.6637  14.9535  15.3397  15.4532  16.4061  16.5774  17.0071  17.3122
    17.8076  18.1996  18.4753  24.5051  26.4361

     occupation numbers 
     1.0000   1.0000   1.0000   1.0000   1.0000   1.0000   1.0000   1.0000
     1.0000   1.0000   1.0000   1.0000   1.0000   1.0000   1.0000   1.0000
     1.0000   1.0000   1.0000   0.0000   0.0000

          k = 0.1667 0.2887 0.1036 (  2782 PWs)   bands (ev):

   -76.9286 -76.8921 -40.2940 -40.1982 -40.1829 -40.1186 -40.0676 -40.0555
    12.8539  15.0540  15.1958  15.5086  16.3792  16.5882  16.8763  17.3897
    17.9336  18.0376  18.5254  22.5958  28.8180

     occupation numbers 
     1.0000   1.0000   1.0000   1.0000   1.0000   1.0000   1.0000   1.0000
     1.0000   1.0000   1.0000   1.0000   1.0000   1.0000   1.0000   1.0000
     1.0000   1.0000   1.0000   0.0000   0.0000

          k = 0.1667 0.2887 0.2072 (  2796 PWs)   bands (ev):

   -76.9209 -76.8998 -40.2847 -40.2243 -40.1452 -40.1210 -40.0784 -40.0636
    13.3746  14.7479  15.3280  15.6695  16.2009  16.4458  16.8678  17.4743
    18.0246  18.1464  18.5476  20.5227  32.2132

     occupation numbers 
     1.0000   1.0000   1.0000   1.0000   1.0000   1.0000   1.0000   1.0000
     1.0000   1.0000   1.0000   1.0000   1.0000   1.0000   1.0000   1.0000
     1.0000   1.0000   1.0000   0.0000   0.0000

          k = 0.1667 0.2887-0.3108 (  2774 PWs)   bands (ev):

   -76.9104 -76.9104 -40.2590 -40.2590 -40.1185 -40.1185 -40.0811 -40.0811
    14.0770  14.0770  15.6657  15.6657  16.1463  16.1463  17.1563  17.1563
    18.2972  18.2972  19.0510  19.0510  33.9110

     occupation numbers 
     1.0000   1.0000   1.0000   1.0000   1.0000   1.0000   1.0000   1.0000
     1.0000   1.0000   1.0000   1.0000   1.0000   1.0000   1.0000   1.0000
     1.0000   1.0000   1.0000   1.0000   0.0000

          k = 0.1667 0.3849 0.0000 (  2796 PWs)   bands (ev):

   -76.9181 -76.8865 -40.2572 -40.2492 -40.2254 -40.1407 -40.0843 -40.0792
    13.7701  14.9425  14.9643  15.4158  16.2465  16.7257  16.8114  17.6272
    18.2648  18.4746  19.0132  26.3838  26.7488

     occupation numbers 
     1.0000   1.0000   1.0000   1.0000   1.0000   1.0000   1.0000   1.0000
     1.0000   1.0000   1.0000   1.0000   1.0000   1.0000   1.0000   1.0000
     1.0000   1.0000   1.0000   0.0000   0.0000

          k = 0.1667 0.3849 0.1036 (  2796 PWs)   bands (ev):

   -76.9160 -76.8886 -40.2866 -40.2440 -40.1968 -40.1468 -40.0907 -40.0710
    13.8507  14.8921  15.0505  15.5042  16.3038  16.7016  16.7617  17.6578
    18.2430  18.3590  19.1097  23.8915  28.7983

     occupation numbers 
     1.0000   1.0000   1.0000   1.0000   1.0000   1.0000   1.0000   1.0000
     1.0000   1.0000   1.0000   1.0000   1.0000   1.0000   1.0000   1.0000
     1.0000   1.0000   0.1751   0.0000   0.0000

          k = 0.1667 0.3849 0.2072 (  2796 PWs)   bands (ev):

   -76.9102 -76.8944 -40.3007 -40.2668 -40.1583 -40.1414 -40.0992 -40.0696
    14.0705  14.6875  15.3093  15.7532  16.2206  16.5223  16.8973  17.6139
    18.1356  18.5202  19.2958  21.6378  29.7727

     occupation numbers 
     1.0000   1.0000   1.0000   1.0000   1.0000   1.0000   1.0000   1.0000
     1.0000   1.0000   1.0000   1.0000   1.0000   1.0000   1.0000   1.0000
     1.0000   1.0000   0.0000   0.0000   0.0000

          k = 0.1667 0.3849-0.3108 (  2796 PWs)   bands (ev):

   -76.9023 -76.9023 -40.2917 -40.2917 -40.1405 -40.1405 -40.0858 -40.0858
    14.3767  14.3767  15.6688  15.6688  16.2944  16.2944  17.1811  17.1812
    18.5133  18.5133  20.0046  20.0046  30.9452

     occupation numbers 
     1.0000   1.0000   1.0000   1.0000   1.0000   1.0000   1.0000   1.0000
     1.0000   1.0000   1.0000   1.0000   1.0000   1.0000   1.0000   1.0000
     1.0000   1.0000   0.0000   0.0000   0.0000

          k = 0.1667 0.4811 0.0000 (  2798 PWs)   bands (ev):

   -76.9069 -76.8860 -40.2880 -40.2417 -40.2217 -40.1687 -40.1042 -40.0987
    14.4749  14.7317  14.7388  15.7241  16.2020  16.5997  16.9329  18.0432
    18.4728  18.4945  20.1940  24.9082  28.4142

     occupation numbers 
     1.0000   1.0000   1.0000   1.0000   1.0000   1.0000   1.0000   1.0000
     1.0000   1.0000   1.0000   1.0000   1.0000   1.0000   1.0000   1.0000
     1.0000   1.0000   0.0000   0.0000   0.0000

          k = 0.1667 0.4811 0.1036 (  2804 PWs)   bands (ev):

   -76.9055 -76.8874 -40.3035 -40.2626 -40.1982 -40.1609 -40.1113 -40.0864
    14.3179  14.8062  14.9998  15.5519  16.2539  16.7276  16.9980  18.0263
    18.2641  18.5613  20.2793  24.3605  27.1964

     occupation numbers 
     1.0000   1.0000   1.0000   1.0000   1.0000   1.0000   1.0000   1.0000
     1.0000   1.0000   1.0000   1.0000   1.0000   1.0000   1.0000   1.0000
     1.0000   1.0000   0.0000   0.0000   0.0000

          k = 0.1667 0.4811 0.2072 (  2792 PWs)   bands (ev):

   -76.9017 -76.8912 -40.3203 -40.2931 -40.1795 -40.1414 -40.1117 -40.0765
    14.2790  14.7310  15.2047  15.7737  16.1400  16.8465  17.2132  17.7084
    18.2219  18.6446  20.5932  22.8322  27.2572

     occupation numbers 
     1.0000   1.0000   1.0000   1.0000   1.0000   1.0000   1.0000   1.0000
     1.0000   1.0000   1.0000   1.0000   1.0000   1.0000   1.0000   1.0000
     1.0000   1.0000   0.0000   0.0000   0.0000

          k = 0.1667 0.4811-0.3108 (  2794 PWs)   bands (ev):

   -76.8964 -76.8964 -40.3167 -40.3167 -40.1583 -40.1583 -40.0862 -40.0862
    14.4413  14.4413  15.5676  15.5676  16.5605  16.5605  17.3733  17.3733
    18.5187  18.5187  21.4087  21.4087  28.1439

     occupation numbers 
     1.0000   1.0000   1.0000   1.0000   1.0000   1.0000   1.0000   1.0000
     1.0000   1.0000   1.0000   1.0000   1.0000   1.0000   1.0000   1.0000
     1.0000   1.0000   0.0000   0.0000   0.0000

          k = 0.1667 0.5774 0.0000 (  2792 PWs)   bands (ev):

   -76.9019 -76.8867 -40.3020 -40.2464 -40.2037 -40.1805 -40.1184 -40.1037
    14.6381  14.6529  14.6535  15.9461  16.2185  16.4901  17.0217  18.3251
    18.4718  18.4745  21.4497  23.0627  29.4922

     occupation numbers 
     1.0000   1.0000   1.0000   1.0000   1.0000   1.0000   1.0000   1.0000
     1.0000   1.0000   1.0000   1.0000   1.0000   1.0000   1.0000   1.0000
     1.0000   1.0000   0.0000   0.0000   0.0000

          k = 0.1667 0.5774 0.1036 (  2805 PWs)   bands (ev):

   -76.9009 -76.8877 -40.3143 -40.2659 -40.2030 -40.1543 -40.1239 -40.0933
    14.3431  14.7175  15.1692  15.5346  16.1748  16.8467  17.0911  18.2339
    18.3214  18.5333  21.5490  23.0086  28.4987

     occupation numbers 
     1.0000   1.0000   1.0000   1.0000   1.0000   1.0000   1.0000   1.0000
     1.0000   1.0000   1.0000   1.0000   1.0000   1.0000   1.0000   1.0000
     1.0000   1.0000   0.0000   0.0000   0.0000

          k = 0.1667 0.5774 0.2072 (  2800 PWs)   bands (ev):

   -76.8981 -76.8905 -40.3294 -40.3013 -40.1883 -40.1412 -40.1138 -40.0802
    14.2757  14.7416  15.2435  15.7316  16.0535  17.0525  17.3375  17.7809
    18.3385  18.5760  21.8549  22.7965  27.2143

     occupation numbers 
     1.0000   1.0000   1.0000   1.0000   1.0000   1.0000   1.0000   1.0000
     1.0000   1.0000   1.0000   1.0000   1.0000   1.0000   1.0000   1.0000
     1.0000   1.0000   0.0000   0.0000   0.0000

          k = 0.1667 0.5774-0.3108 (  2806 PWs)   bands (ev):

   -76.8943 -76.8943 -40.3260 -40.3260 -40.1651 -40.1651 -40.0859 -40.0859
    14.4433  14.4433  15.5263  15.5263  16.6033  16.6033  17.5797  17.5797
    18.4556  18.4556  22.3533  22.3533  26.7289

     occupation numbers 
     1.0000   1.0000   1.0000   1.0000   1.0000   1.0000   1.0000   1.0000
     1.0000   1.0000   1.0000   1.0000   1.0000   1.0000   1.0000   1.0000
     1.0000   1.0000   0.0000   0.0000   0.0000

          k = 0.2500 0.4330 0.0000 (  2808 PWs)   bands (ev):

   -76.9069 -76.8860 -40.2671 -40.2438 -40.2219 -40.1687 -40.1178 -40.1040
    14.6064  14.7963  15.1394  15.1914  16.1371  16.6143  16.9393  17.8127
    18.4316  18.5014  20.2041  26.6868  27.4303

     occupation numbers 
     1.0000   1.0000   1.0000   1.0000   1.0000   1.0000   1.0000   1.0000
     1.0000   1.0000   1.0000   1.0000   1.0000   1.0000   1.0000   1.0000
     1.0000   1.0000   0.0000   0.0000   0.0000

          k = 0.2500 0.4330 0.1036 (  2807 PWs)   bands (ev):

   -76.9055 -76.8874 -40.2783 -40.2711 -40.1823 -40.1815 -40.1207 -40.0893
    14.6141  14.7463  15.2059  15.3289  16.2906  16.4637  16.9285  17.8455
    18.2114  18.5698  20.3346  25.1743  27.7206

     occupation numbers 
     1.0000   1.0000   1.0000   1.0000   1.0000   1.0000   1.0000   1.0000
     1.0000   1.0000   1.0000   1.0000   1.0000   1.0000   1.0000   1.0000
     1.0000   1.0000   0.0000   0.0000   0.0000

          k = 0.2500 0.4330 0.2072 (  2785 PWs)   bands (ev):

   -76.9017 -76.8912 -40.3029 -40.2873 -40.1872 -40.1590 -40.1105 -40.0761
    14.6195  14.6928  15.3824  15.7307  16.1245  16.4032  16.9572  17.6208
    18.1913  18.6517  20.7173  23.1240  28.5204

     occupation numbers 
     1.0000   1.0000   1.0000   1.0000   1.0000   1.0000   1.0000   1.0000
     1.0000   1.0000   1.0000   1.0000   1.0000   1.0000   1.0000   1.0000
     1.0000   1.0000   0.0000   0.0000   0.0000

          k = 0.2500 0.4330-0.3108 (  2792 PWs)   bands (ev):

   -76.8964 -76.8964 -40.3041 -40.3041 -40.1731 -40.1731 -40.0842 -40.0842
    14.6473  14.6473  15.7192  15.7192  16.1763  16.1763  17.1730  17.1730
    18.5392  18.5392  21.5751  21.5751  29.5664

     occupation numbers 
     1.0000   1.0000   1.0000   1.0000   1.0000   1.0000   1.0000   1.0000
     1.0000   1.0000   1.0000   1.0000   1.0000   1.0000   1.0000   1.0000
     1.0000   1.0000   0.0000   0.0000   0.0000

          k = 0.2500 0.5292 0.0000 (  2822 PWs)   bands (ev):

   -76.8985 -76.8877 -40.2810 -40.2338 -40.1999 -40.1903 -40.1391 -40.1296
    14.7164  14.9033  15.0022  15.5050  16.1566  16.4107  17.1121  18.0937
    18.4062  18.4480  21.8614  24.4490  26.7762

     occupation numbers 
     1.0000   1.0000   1.0000   1.0000   1.0000   1.0000   1.0000   1.0000
     1.0000   1.0000   1.0000   1.0000   1.0000   1.0000   1.0000   1.0000
     1.0000   1.0000   0.0000   0.0000   0.0000

          k = 0.2500 0.5292 0.1036 (  2808 PWs)   bands (ev):

   -76.8977 -76.8884 -40.2872 -40.2583 -40.2189 -40.1606 -40.1416 -40.1070
    14.6587  15.0357  15.1324  15.4072  16.1848  16.4053  17.1146  18.1031
    18.1841  18.4945  22.0554  24.4685  26.8252

     occupation numbers 
     1.0000   1.0000   1.0000   1.0000   1.0000   1.0000   1.0000   1.0000
     1.0000   1.0000   1.0000   1.0000   1.0000   1.0000   1.0000   1.0000
     1.0000   1.0000   0.0000   0.0000   0.0000

          k = 0.2500 0.5292 0.2072 (  2796 PWs)   bands (ev):

   -76.8958 -76.8904 -40.3040 -40.2883 -40.2179 -40.1729 -40.1061 -40.0838
    14.6792  15.0414  15.3039  15.6056  16.0463  16.4156  17.1564  17.6528
    18.2597  18.5369  22.5608  24.1750  26.7892

     occupation numbers 
     1.0000   1.0000   1.0000   1.0000   1.0000   1.0000   1.0000   1.0000
     1.0000   1.0000   1.0000   1.0000   1.0000   1.0000   1.0000   1.0000
     1.0000   1.0000   0.0000   0.0000   0.0000

          k = 0.2500 0.5292-0.3108 (  2794 PWs)   bands (ev):

   -76.8931 -76.8931 -40.3069 -40.3069 -40.1970 -40.1970 -40.0825 -40.0825
    14.8219  14.8219  15.6100  15.6100  16.1831  16.1831  17.2914  17.2914
    18.4459  18.4459  23.3339  23.3339  27.3456

     occupation numbers 
     1.0000   1.0000   1.0000   1.0000   1.0000   1.0000   1.0000   1.0000
     1.0000   1.0000   1.0000   1.0000   1.0000   1.0000   1.0000   1.0000
     1.0000   1.0000   0.0000   0.0000   0.0000

          k = 0.3333 0.5774 0.0000 (  2814 PWs)   bands (ev):

   -76.8918 -76.8918 -40.2721 -40.2193 -40.2193 -40.1638 -40.1589 -40.1589
    14.7216  15.0999  15.0999  15.3885  16.2360  16.2360  17.2129  18.2436
    18.2436  18.3796  23.5896  24.4506  24.4506

     occupation numbers 
     1.0000   1.0000   1.0000   1.0000   1.0000   1.0000   1.0000   1.0000
     1.0000   1.0000   1.0000   1.0000   1.0000   1.0000   1.0000   1.0000
     1.0000   1.0000   0.0000   0.0000   0.0000

          k = 0.3333 0.5774 0.1036 (  2817 PWs)   bands (ev):

   -76.8918 -76.8918 -40.2649 -40.2488 -40.2488 -40.1711 -40.1292 -40.1292
    14.8199  15.1271  15.1271  15.4100  16.2063  16.2063  17.1830  18.1304
    18.2840  18.2840  24.0036  24.5243  24.5243

     occupation numbers 
     1.0000   1.0000   1.0000   1.0000   1.0000   1.0000   1.0000   1.0000
     1.0000   1.0000   1.0000   1.0000   1.0000   1.0000   1.0000   1.0000
     1.0000   1.0000   0.0000   0.0000   0.0000

          k = 0.3333 0.5774 0.2072 (  2787 PWs)   bands (ev):

   -76.8918 -76.8918 -40.2832 -40.2832 -40.2451 -40.1910 -40.0945 -40.0945
    15.0703  15.1805  15.1805  15.4293  16.1533  16.1533  17.1428  17.6237
    18.3602  18.3602  24.7065  24.7065  25.0543

     occupation numbers 
     1.0000   1.0000   1.0000   1.0000   1.0000   1.0000   1.0000   1.0000
     1.0000   1.0000   1.0000   1.0000   1.0000   1.0000   1.0000   1.0000
     1.0000   1.0000   0.0000   0.0000   0.0000

          k = 0.3333 0.5774-0.3108 (  2772 PWs)   bands (ev):

   -76.8918 -76.8918 -40.2963 -40.2963 -40.2181 -40.2181 -40.0812 -40.0812
    15.2065  15.2065  15.3276  15.3276  16.1300  16.1300  17.2440  17.2440
    18.3961  18.3961  24.8236  24.8236  26.4889

     occupation numbers 
     1.0000   1.0000   1.0000   1.0000   1.0000   1.0000   1.0000   1.0000
     1.0000   1.0000   1.0000   1.0000   1.0000   1.0000   1.0000   1.0000
     1.0000   1.0000   0.0000   0.0000   0.0000

 ------ SPIN DOWN ----------


          k = 0.0000 0.0000 0.0000 (  2803 PWs)   bands (ev):

   -74.8940 -74.8259 -38.3778 -38.0522 -38.0522 -37.9958 -37.9958 -37.9886
    10.0367  14.8286  18.1676  18.1676  18.1764  18.5564  18.5564  18.9109
    18.9630  18.9630  20.2534  20.2534  26.7652

     occupation numbers 
     1.0000   1.0000   1.0000   1.0000   1.0000   1.0000   1.0000   1.0000
     1.0000   1.0000   1.0000   1.0000   1.0000   1.0000   1.0000   1.0000
     1.0000   1.0000   0.0000   0.0000   0.0000

          k = 0.0000 0.0000 0.1036 (  2803 PWs)   bands (ev):

   -74.8894 -74.8305 -38.3521 -38.0485 -38.0485 -38.0151 -37.9996 -37.9996
    10.3220  14.6082  18.0788  18.0926  18.0926  18.2970  18.4654  18.4654
    19.1558  19.1558  20.2395  20.2395  28.1054

     occupation numbers 
     1.0000   1.0000   1.0000   1.0000   1.0000   1.0000   1.0000   1.0000
     1.0000   1.0000   1.0000   1.0000   1.0000   1.0000   1.0000   1.0000
     0.0000   0.0000   0.0000   0.0000   0.0000

          k = 0.0000 0.0000 0.2072 (  2773 PWs)   bands (ev):

   -74.8770 -74.8430 -38.2817 -38.0871 -38.0381 -38.0381 -38.0099 -38.0099
    11.1460  13.7404  17.6146  17.8314  18.0291  18.0291  18.2668  18.2668
    19.5385  19.5385  20.1443  20.1443  31.1338

     occupation numbers 
     1.0000   1.0000   1.0000   1.0000   1.0000   1.0000   1.0000   1.0000
     1.0000   1.0000   1.0000   1.0000   1.0000   1.0000   1.0000   1.0000
     0.0000   0.0000   0.0000   0.0000   0.0000

          k = 0.0000 0.0000-0.3108 (  2810 PWs)   bands (ev):

   -74.8600 -74.8600 -38.1848 -38.1848 -38.0240 -38.0240 -38.0240 -38.0240
    12.3897  12.3897  17.5790  17.5790  18.0921  18.0921  18.0921  18.0921
    19.9035  19.9035  19.9035  19.9035  34.8379

     occupation numbers 
     1.0000   1.0000   1.0000   1.0000   1.0000   1.0000   1.0000   1.0000
     1.0000   1.0000   1.0000   1.0000   1.0000   1.0000   1.0000   1.0000
     0.0000   0.0000   0.0000   0.0000   0.0000

          k = 0.0000 0.0962 0.0000 (  2799 PWs)   bands (ev):

   -74.8903 -74.8243 -38.3694 -38.0702 -38.0582 -38.0144 -37.9986 -37.9922
    10.2825  14.9953  17.8809  18.2471  18.2962  18.4003  18.4938  18.6698
    18.8765  18.8992  20.2916  21.1317  26.7803

     occupation numbers 
     1.0000   1.0000   1.0000   1.0000   1.0000   1.0000   1.0000   1.0000
     1.0000   1.0000   1.0000   1.0000   1.0000   1.0000   1.0000   1.0000
     1.0000   1.0000   0.0000   0.0000   0.0000

          k = 0.0000 0.0962 0.1036 (  2789 PWs)   bands (ev):

   -74.8859 -74.8287 -38.3452 -38.0658 -38.0542 -38.0324 -38.0035 -38.0026
    10.5639  14.7887  17.7961  17.8774  18.1880  18.2024  18.5161  18.5703
    19.1017  19.1243  20.2682  20.7723  28.1865

     occupation numbers 
     1.0000   1.0000   1.0000   1.0000   1.0000   1.0000   1.0000   1.0000
     1.0000   1.0000   1.0000   1.0000   1.0000   1.0000   1.0000   1.0000
     0.4581   0.0071   0.0000   0.0000   0.0000

          k = 0.0000 0.0962 0.2072 (  2790 PWs)   bands (ev):

   -74.8738 -74.8409 -38.2790 -38.0968 -38.0534 -38.0433 -38.0193 -38.0135
    11.3764  13.9376  17.3679  17.8122  17.9232  18.1304  18.3073  18.3705
    19.5068  19.5465  20.1518  20.3468  31.2697

     occupation numbers 
     1.0000   1.0000   1.0000   1.0000   1.0000   1.0000   1.0000   1.0000
     1.0000   1.0000   1.0000   1.0000   1.0000   1.0000   1.0000   1.0000
     0.0000   0.0000   0.0000   0.0000   0.0000

          k = 0.0000 0.0962-0.3108 (  2812 PWs)   bands (ev):

   -74.8574 -74.8574 -38.1880 -38.1880 -38.0366 -38.0366 -38.0284 -38.0284
    12.6031  12.6031  17.4679  17.4679  18.0670  18.0670  18.1943  18.1943
    19.8895  19.8895  19.9712  19.9712  34.9980

     occupation numbers 
     1.0000   1.0000   1.0000   1.0000   1.0000   1.0000   1.0000   1.0000
     1.0000   1.0000   1.0000   1.0000   1.0000   1.0000   1.0000   1.0000
     0.0000   0.0000   0.0000   0.0000   0.0000

          k = 0.0000 0.1925 0.0000 (  2793 PWs)   bands (ev):

   -74.8800 -74.8201 -38.3454 -38.1195 -38.0740 -38.0649 -38.0068 -38.0028
    10.9974  15.4231  17.3741  17.5073  18.2643  18.6617  18.6648  18.7354
    18.7449  18.9889  20.3725  22.6324  26.8427

     occupation numbers 
     1.0000   1.0000   1.0000   1.0000   1.0000   1.0000   1.0000   1.0000
     1.0000   1.0000   1.0000   1.0000   1.0000   1.0000   1.0000   1.0000
     1.0000   1.0000   0.0000   0.0000   0.0000

          k = 0.0000 0.1925 0.1036 (  2786 PWs)   bands (ev):

   -74.8760 -74.8241 -38.3263 -38.1128 -38.0815 -38.0695 -38.0125 -38.0113
    11.2650  15.2619  17.1018  17.5462  18.1495  18.4445  18.4530  18.8381
    19.0733  19.1465  20.3278  21.8241  28.4601

     occupation numbers 
     1.0000   1.0000   1.0000   1.0000   1.0000   1.0000   1.0000   1.0000
     1.0000   1.0000   1.0000   1.0000   1.0000   1.0000   1.0000   1.0000
     0.9978   0.0000   0.0000   0.0000   0.0000

          k = 0.0000 0.1925 0.2072 (  2786 PWs)   bands (ev):

   -74.8651 -74.8351 -38.2741 -38.1329 -38.0914 -38.0572 -38.0359 -38.0236
    12.0366  14.4661  16.9521  17.6282  17.7812  18.2572  18.3797  18.6586
    19.4701  19.6143  20.1665  20.8390  31.6789

     occupation numbers 
     1.0000   1.0000   1.0000   1.0000   1.0000   1.0000   1.0000   1.0000
     1.0000   1.0000   1.0000   1.0000   1.0000   1.0000   1.0000   1.0000
     0.0000   0.0000   0.0000   0.0000   0.0000

          k = 0.0000 0.1925-0.3108 (  2786 PWs)   bands (ev):

   -74.8501 -74.8501 -38.2028 -38.2028 -38.0646 -38.0646 -38.0404 -38.0404
    13.1982  13.1982  17.2444  17.2444  17.9613  17.9613  18.4680  18.4680
    19.8672  19.8672  20.1613  20.1613  35.4319

     occupation numbers 
     1.0000   1.0000   1.0000   1.0000   1.0000   1.0000   1.0000   1.0000
     1.0000   1.0000   1.0000   1.0000   1.0000   1.0000   1.0000   1.0000
     0.0000   0.0000   0.0000   0.0000   0.0000

          k = 0.0000 0.2887 0.0000 (  2778 PWs)   bands (ev):

   -74.8654 -74.8148 -38.3094 -38.1874 -38.1325 -38.0949 -38.0206 -38.0186
    12.1036  15.8409  16.6733  17.1772  18.1101  18.4124  18.5160  19.1985
    19.1988  19.4500  20.4484  24.3575  26.9721

     occupation numbers 
     1.0000   1.0000   1.0000   1.0000   1.0000   1.0000   1.0000   1.0000
     1.0000   1.0000   1.0000   1.0000   1.0000   1.0000   1.0000   0.0000
     0.0000   0.0000   0.0000   0.0000   0.0000

          k = 0.0000 0.2887 0.1036 (  2781 PWs)   bands (ev):

   -74.8620 -74.8182 -38.3024 -38.1741 -38.1470 -38.0898 -38.0267 -38.0237
    12.3398  15.7524  16.5328  17.2400  17.9614  18.4496  18.4605  19.2466
[...]
    20.4059  20.4907  21.6236  24.1756  29.2037

     occupation numbers 
     1.0000   1.0000   1.0000   1.0000   1.0000   1.0000   1.0000   1.0000
     1.0000   1.0000   1.0000   1.0000   1.0000   1.0000   1.0000   0.0000
     0.0000   0.0000   0.0000   0.0000   0.0000

          k = 0.0833 0.5292 0.1036 (  2797 PWs)   bands (ev):

   -74.8299 -74.8105 -38.3314 -38.2743 -38.1840 -38.1346 -38.0804 -38.0565
    14.9997  15.6227  16.1863  16.7259  17.9712  18.5167  18.5748  20.1955
    20.3651  20.4505  21.4825  23.8359  28.1302

     occupation numbers 
     1.0000   1.0000   1.0000   1.0000   1.0000   1.0000   1.0000   1.0000
     1.0000   1.0000   1.0000   1.0000   1.0000   1.0000   1.0000   0.0000
     0.0000   0.0000   0.0000   0.0000   0.0000

          k = 0.0833 0.5292 0.2072 (  2802 PWs)   bands (ev):

   -74.8258 -74.8146 -38.3476 -38.3120 -38.1455 -38.1073 -38.0899 -38.0586
    14.9736  15.4647  16.4930  16.8275  18.0348  18.8190  19.0365  19.7110
    20.3121  20.5512  21.2550  22.8873  27.5650

     occupation numbers 
     1.0000   1.0000   1.0000   1.0000   1.0000   1.0000   1.0000   1.0000
     1.0000   1.0000   1.0000   1.0000   1.0000   1.0000   1.0000   0.0000
     0.0000   0.0000   0.0000   0.0000   0.0000

          k = 0.0833 0.5292-0.3108 (  2798 PWs)   bands (ev):

   -74.8202 -74.8202 -38.3411 -38.3411 -38.1155 -38.1155 -38.0738 -38.0738
    15.1553  15.1553  16.7744  16.7744  18.5533  18.5533  19.3432  19.3432
    20.3962  20.3962  21.8085  21.8085  27.8202

     occupation numbers 
     1.0000   1.0000   1.0000   1.0000   1.0000   1.0000   1.0000   1.0000
     1.0000   1.0000   1.0000   1.0000   1.0000   1.0000   0.0000   0.0000
     0.0000   0.0000   0.0000   0.0000   0.0000

          k = 0.1667 0.2887 0.0000 (  2784 PWs)   bands (ev):

   -74.8577 -74.8125 -38.2895 -38.1936 -38.1836 -38.0962 -38.0440 -38.0315
    12.7337  16.1332  16.4886  16.8356  18.0289  18.1420  18.6261  19.0715
    19.5949  19.9716  20.4013  25.2695  27.1890

     occupation numbers 
     1.0000   1.0000   1.0000   1.0000   1.0000   1.0000   1.0000   1.0000
     1.0000   1.0000   1.0000   1.0000   1.0000   1.0000   1.0000   0.9988
     0.0000   0.0000   0.0000   0.0000   0.0000

          k = 0.1667 0.2887 0.1036 (  2782 PWs)   bands (ev):

   -74.8547 -74.8155 -38.2906 -38.1912 -38.1733 -38.1035 -38.0489 -38.0312
    12.9503  16.0888  16.3716  16.9040  17.9516  18.1698  18.5062  19.1432
    19.7298  19.8475  20.4089  23.5938  29.4098

     occupation numbers 
     1.0000   1.0000   1.0000   1.0000   1.0000   1.0000   1.0000   1.0000
     1.0000   1.0000   1.0000   1.0000   1.0000   1.0000   1.0000   0.0000
     0.0000   0.0000   0.0000   0.0000   0.0000

          k = 0.1667 0.2887 0.2072 (  2796 PWs)   bands (ev):

   -74.8465 -74.8238 -38.2818 -38.2186 -38.1312 -38.1057 -38.0605 -38.0412
    13.5637  15.4075  16.6283  17.0793  17.7029  17.9934  18.5591  19.1855
    19.8613  19.9684  20.3573  21.8236  32.6962

     occupation numbers 
     1.0000   1.0000   1.0000   1.0000   1.0000   1.0000   1.0000   1.0000
     1.0000   1.0000   1.0000   1.0000   1.0000   1.0000   1.0000   0.0000
     0.0000   0.0000   0.0000   0.0000   0.0000

          k = 0.1667 0.2887-0.3108 (  2774 PWs)   bands (ev):

   -74.8351 -74.8351 -38.2551 -38.2551 -38.1023 -38.1023 -38.0622 -38.0622
    14.4552  14.4552  17.0187  17.0187  17.6634  17.6634  18.8749  18.8749
    20.1700  20.1700  20.6057  20.6057  34.3314

     occupation numbers 
     1.0000   1.0000   1.0000   1.0000   1.0000   1.0000   1.0000   1.0000
     1.0000   1.0000   1.0000   1.0000   1.0000   1.0000   1.0000   1.0000
     0.0000   0.0000   0.0000   0.0000   0.0000

          k = 0.1667 0.3849 0.0000 (  2796 PWs)   bands (ev):

   -74.8435 -74.8095 -38.2494 -38.2468 -38.2206 -38.1281 -38.0670 -38.0558
    13.9928  16.1657  16.2034  16.6379  17.8268  18.2859  18.3918  19.4180
    20.1177  20.4003  20.7089  27.0671  27.3661

     occupation numbers 
     1.0000   1.0000   1.0000   1.0000   1.0000   1.0000   1.0000   1.0000
     1.0000   1.0000   1.0000   1.0000   1.0000   1.0000   1.0000   0.0000
     0.0000   0.0000   0.0000   0.0000   0.0000

          k = 0.1667 0.3849 0.1036 (  2796 PWs)   bands (ev):

   -74.8412 -74.8118 -38.2844 -38.2408 -38.1868 -38.1341 -38.0735 -38.0481
    14.1420  16.0296  16.3121  16.7465  17.8146  18.2356  18.3497  19.4477
    20.1170  20.2248  20.8278  24.7011  29.4143

     occupation numbers 
     1.0000   1.0000   1.0000   1.0000   1.0000   1.0000   1.0000   1.0000
     1.0000   1.0000   1.0000   1.0000   1.0000   1.0000   1.0000   0.0000
     0.0000   0.0000   0.0000   0.0000   0.0000

          k = 0.1667 0.3849 0.2072 (  2796 PWs)   bands (ev):

   -74.8350 -74.8180 -38.3004 -38.2649 -38.1453 -38.1272 -38.0825 -38.0474
    14.5502  15.6508  16.6093  16.9765  17.6865  17.9395  18.5385  19.3777
    19.9764  20.4184  20.9134  22.6558  30.3725

     occupation numbers 
     1.0000   1.0000   1.0000   1.0000   1.0000   1.0000   1.0000   1.0000
     1.0000   1.0000   1.0000   1.0000   1.0000   1.0000   1.0000   0.0000
     0.0000   0.0000   0.0000   0.0000   0.0000

          k = 0.1667 0.3849-0.3108 (  2796 PWs)   bands (ev):

   -74.8265 -74.8265 -38.2912 -38.2912 -38.1266 -38.1266 -38.0660 -38.0660
    15.1059  15.1059  16.9685  16.9685  17.6571  17.6571  18.9097  18.9097
    20.4236  20.4236  21.2850  21.2850  31.5027

     occupation numbers 
     1.0000   1.0000   1.0000   1.0000   1.0000   1.0000   1.0000   1.0000
     1.0000   1.0000   1.0000   1.0000   1.0000   1.0000   1.0000   1.0000
     0.0000   0.0000   0.0000   0.0000   0.0000

          k = 0.1667 0.4811 0.0000 (  2798 PWs)   bands (ev):

   -74.8314 -74.8090 -38.2891 -38.2384 -38.2107 -38.1585 -38.0830 -38.0825
    15.0947  15.9740  15.9786  16.6916  17.7674  18.1302  18.5290  19.8752
    20.3911  20.3980  21.6354  25.6576  28.9965

     occupation numbers 
     1.0000   1.0000   1.0000   1.0000   1.0000   1.0000   1.0000   1.0000
     1.0000   1.0000   1.0000   1.0000   1.0000   1.0000   1.0000   0.0000
     0.0000   0.0000   0.0000   0.0000   0.0000

          k = 0.1667 0.4811 0.1036 (  2804 PWs)   bands (ev):

   -74.8299 -74.8105 -38.3049 -38.2604 -38.1875 -38.1486 -38.0949 -38.0656
    15.1061  15.9345  16.1525  16.7294  17.7868  18.1148  18.5797  19.8595
    20.1498  20.4706  21.6903  25.0519  27.9466

     occupation numbers 
     1.0000   1.0000   1.0000   1.0000   1.0000   1.0000   1.0000   1.0000
     1.0000   1.0000   1.0000   1.0000   1.0000   1.0000   1.0000   0.0000
     0.0000   0.0000   0.0000   0.0000   0.0000

          k = 0.1667 0.4811 0.2072 (  2792 PWs)   bands (ev):

   -74.8258 -74.8146 -38.3226 -38.2934 -38.1689 -38.1271 -38.0946 -38.0549
    15.2048  15.7338  16.5002  17.0249  17.6202  18.0895  18.7816  19.5103
    20.0825  20.5735  21.8463  23.5952  28.0568

     occupation numbers 
     1.0000   1.0000   1.0000   1.0000   1.0000   1.0000   1.0000   1.0000
     1.0000   1.0000   1.0000   1.0000   1.0000   1.0000   1.0000   0.0000
     0.0000   0.0000   0.0000   0.0000   0.0000

          k = 0.1667 0.4811-0.3108 (  2794 PWs)   bands (ev):

   -74.8202 -74.8202 -38.3187 -38.3187 -38.1462 -38.1462 -38.0657 -38.0657
    15.4336  15.4336  16.9313  16.9313  17.8097  17.8097  19.0608  19.0608
    20.4173  20.4173  22.3905  22.3905  28.8749

     occupation numbers 
     1.0000   1.0000   1.0000   1.0000   1.0000   1.0000   1.0000   1.0000
     1.0000   1.0000   1.0000   1.0000   1.0000   1.0000   1.0000   1.0000
     0.0000   0.0000   0.0000   0.0000   0.0000

          k = 0.1667 0.5774 0.0000 (  2792 PWs)   bands (ev):

   -74.8260 -74.8097 -38.3043 -38.2434 -38.1910 -38.1713 -38.0984 -38.0880
    15.5553  15.8394  15.9112  16.7589  17.8030  17.9770  18.6379  20.1948
    20.3765  20.3966  22.5496  24.0756  29.9078

     occupation numbers 
     1.0000   1.0000   1.0000   1.0000   1.0000   1.0000   1.0000   1.0000
     1.0000   1.0000   1.0000   1.0000   1.0000   1.0000   1.0000   0.0000
     0.0000   0.0000   0.0000   0.0000   0.0000

          k = 0.1667 0.5774 0.1036 (  2805 PWs)   bands (ev):

   -74.8249 -74.8108 -38.3170 -38.2642 -38.1933 -38.1404 -38.1077 -38.0737
    15.3918  15.8900  16.3045  16.5781  17.7391  18.1546  18.6981  20.1164
    20.1920  20.4449  22.5817  23.9750  29.0937

     occupation numbers 
     1.0000   1.0000   1.0000   1.0000   1.0000   1.0000   1.0000   1.0000
     1.0000   1.0000   1.0000   1.0000   1.0000   1.0000   1.0000   0.0000
     0.0000   0.0000   0.0000   0.0000   0.0000

          k = 0.1667 0.5774 0.2072 (  2800 PWs)   bands (ev):

   -74.8220 -74.8138 -38.3328 -38.3021 -38.1786 -38.1276 -38.0957 -38.0590
    15.3479  15.7909  16.5664  16.9409  17.5271  18.2678  18.9331  19.5866
    20.2165  20.4923  22.7140  23.6414  27.9961

     occupation numbers 
     1.0000   1.0000   1.0000   1.0000   1.0000   1.0000   1.0000   1.0000
     1.0000   1.0000   1.0000   1.0000   1.0000   1.0000   1.0000   0.0000
     0.0000   0.0000   0.0000   0.0000   0.0000

          k = 0.1667 0.5774-0.3108 (  2806 PWs)   bands (ev):

   -74.8179 -74.8179 -38.3289 -38.3289 -38.1537 -38.1537 -38.0652 -38.0652
    15.5097  15.5097  16.9208  16.9208  17.8625  17.8625  19.2309  19.2309
    20.3507  20.3507  23.1191  23.1191  27.6146

     occupation numbers 
     1.0000   1.0000   1.0000   1.0000   1.0000   1.0000   1.0000   1.0000
     1.0000   1.0000   1.0000   1.0000   1.0000   1.0000   0.0000   0.0000
     0.0000   0.0000   0.0000   0.0000   0.0000

          k = 0.2500 0.4330 0.0000 (  2808 PWs)   bands (ev):

   -74.8315 -74.8089 -38.2663 -38.2404 -38.2109 -38.1587 -38.1033 -38.0827
    15.1070  16.0486  16.3308  16.3541  17.6758  18.1547  18.5298  19.6336
    20.3508  20.3973  21.6732  27.2475  28.0413

     occupation numbers 
     1.0000   1.0000   1.0000   1.0000   1.0000   1.0000   1.0000   1.0000
     1.0000   1.0000   1.0000   1.0000   1.0000   1.0000   1.0000   0.0000
     0.0000   0.0000   0.0000   0.0000   0.0000

          k = 0.2500 0.4330 0.1036 (  2807 PWs)   bands (ev):

   -74.8299 -74.8104 -38.2762 -38.2704 -38.1727 -38.1690 -38.1063 -38.0677
    15.1863  15.9668  16.4019  16.5493  17.7273  17.9745  18.5251  19.6651
    20.0922  20.4805  21.7844  25.8168  28.3376

     occupation numbers 
     1.0000   1.0000   1.0000   1.0000   1.0000   1.0000   1.0000   1.0000
     1.0000   1.0000   1.0000   1.0000   1.0000   1.0000   1.0000   0.0000
     0.0000   0.0000   0.0000   0.0000   0.0000

          k = 0.2500 0.4330 0.2072 (  2785 PWs)   bands (ev):

   -74.8258 -74.8146 -38.3030 -38.2872 -38.1779 -38.1465 -38.0931 -38.0541
    15.3876  15.8299  16.6343  16.9287  17.5785  17.7111  18.5947  19.4113
    20.0425  20.5819  22.0299  23.9231  29.1372

     occupation numbers 
     1.0000   1.0000   1.0000   1.0000   1.0000   1.0000   1.0000   1.0000
     1.0000   1.0000   1.0000   1.0000   1.0000   1.0000   1.0000   0.0000
     0.0000   0.0000   0.0000   0.0000   0.0000

          k = 0.2500 0.4330-0.3108 (  2792 PWs)   bands (ev):

   -74.8202 -74.8202 -38.3048 -38.3048 -38.1627 -38.1627 -38.0634 -38.0634
    15.6291  15.6291  16.9937  16.9937  17.4716  17.4716  18.8928  18.8928
    20.4419  20.4419  22.6122  22.6122  30.1696

     occupation numbers 
     1.0000   1.0000   1.0000   1.0000   1.0000   1.0000   1.0000   1.0000
     1.0000   1.0000   1.0000   1.0000   1.0000   1.0000   1.0000   1.0000
     0.0000   0.0000   0.0000   0.0000   0.0000

          k = 0.2500 0.5292 0.0000 (  2822 PWs)   bands (ev):

   -74.8224 -74.8107 -38.2813 -38.2297 -38.1927 -38.1765 -38.1264 -38.1105
    15.8184  16.0055  16.1665  16.4470  17.6796  17.9103  18.7349  19.9450
    20.3214  20.3447  22.9689  25.2492  27.3503

     occupation numbers 
     1.0000   1.0000   1.0000   1.0000   1.0000   1.0000   1.0000   1.0000
     1.0000   1.0000   1.0000   1.0000   1.0000   1.0000   1.0000   0.0000
     0.0000   0.0000   0.0000   0.0000   0.0000

          k = 0.2500 0.5292 0.1036 (  2808 PWs)   bands (ev):

   -74.8216 -74.8115 -38.2874 -38.2554 -38.2122 -38.1474 -38.1273 -38.0872
    15.7701  16.1400  16.2556  16.5113  17.6597  17.8110  18.7377  19.9570
    20.0590  20.3998  23.1390  25.2273  27.4276

     occupation numbers 
     1.0000   1.0000   1.0000   1.0000   1.0000   1.0000   1.0000   1.0000
     1.0000   1.0000   1.0000   1.0000   1.0000   1.0000   1.0000   0.0000
     0.0000   0.0000   0.0000   0.0000   0.0000

          k = 0.2500 0.5292 0.2072 (  2796 PWs)   bands (ev):

   -74.8194 -74.8136 -38.3047 -38.2877 -38.2116 -38.1627 -38.0871 -38.0625
    15.8064  16.1058  16.5446  16.8670  17.4132  17.6672  18.7963  19.4542
    20.1300  20.4470  23.5331  24.8674  27.5321

     occupation numbers 
     1.0000   1.0000   1.0000   1.0000   1.0000   1.0000   1.0000   1.0000
     1.0000   1.0000   1.0000   1.0000   1.0000   1.0000   1.0000   0.0000
     0.0000   0.0000   0.0000   0.0000   0.0000

          k = 0.2500 0.5292-0.3108 (  2794 PWs)   bands (ev):

   -74.8165 -74.8165 -38.3078 -38.3078 -38.1890 -38.1890 -38.0612 -38.0612
    15.9436  15.9436  16.9524  16.9524  17.3746  17.3746  19.0037  19.0037
    20.3377  20.3377  24.1337  24.1337  28.0921

     occupation numbers 
     1.0000   1.0000   1.0000   1.0000   1.0000   1.0000   1.0000   1.0000
     1.0000   1.0000   1.0000   1.0000   1.0000   1.0000   1.0000   1.0000
     0.0000   0.0000   0.0000   0.0000   0.0000

          k = 0.3333 0.5774 0.0000 (  2814 PWs)   bands (ev):

   -74.8152 -74.8152 -38.2714 -38.2140 -38.2140 -38.1532 -38.1423 -38.1423
    16.0339  16.1661  16.1661  16.3701  17.7302  17.7302  18.8443  20.1173
    20.1173  20.2910  24.4142  25.2438  25.2439

     occupation numbers 
     1.0000   1.0000   1.0000   1.0000   1.0000   1.0000   1.0000   1.0000
     1.0000   1.0000   1.0000   1.0000   1.0000   1.0000   1.0000   0.0000
     0.0000   0.0000   0.0000   0.0000   0.0000

          k = 0.3333 0.5774 0.1036 (  2817 PWs)   bands (ev):

   -74.8152 -74.8152 -38.2636 -38.2448 -38.2448 -38.1612 -38.1113 -38.1113
    16.1126  16.2426  16.2426  16.4038  17.6443  17.6443  18.8194  20.0001
    20.1628  20.1628  24.8450  25.2937  25.2937

     occupation numbers 
     1.0000   1.0000   1.0000   1.0000   1.0000   1.0000   1.0000   1.0000
     1.0000   1.0000   1.0000   1.0000   1.0000   1.0000   1.0000   0.0000
     0.0000   0.0000   0.0000   0.0000   0.0000

          k = 0.3333 0.5774 0.2072 (  2787 PWs)   bands (ev):

   -74.8152 -74.8152 -38.2817 -38.2817 -38.2420 -38.1829 -38.0740 -38.0740
    16.2979  16.4242  16.4242  16.4652  17.4523  17.4523  18.8085  19.4271
    20.2449  20.2449  25.4166  25.4166  25.8824

     occupation numbers 
     1.0000   1.0000   1.0000   1.0000   1.0000   1.0000   1.0000   1.0000
     1.0000   1.0000   1.0000   1.0000   1.0000   1.0000   1.0000   0.0000
     0.0000   0.0000   0.0000   0.0000   0.0000

          k = 0.3333 0.5774-0.3108 (  2772 PWs)   bands (ev):

   -74.8152 -74.8152 -38.2959 -38.2959 -38.2125 -38.2125 -38.0597 -38.0597
    16.4501  16.4501  16.5414  16.5414  17.3336  17.3336  18.9766  18.9766
    20.2820  20.2820  25.4943  25.4943  27.2401

     occupation numbers 
     1.0000   1.0000   1.0000   1.0000   1.0000   1.0000   1.0000   1.0000
     1.0000   1.0000   1.0000   1.0000   1.0000   1.0000   1.0000   1.0000
     0.0000   0.0000   0.0000   0.0000   0.0000

     the Fermi energy is    19.1007 ev

!    total energy              =    -753.45485638 Ry
     total all-electron energy =     -5573.811548 Ry
     estimated scf accuracy    <       0.00000051 Ry
     smearing contrib. (-TS)   =      -0.00001809 Ry
     internal energy E=F+TS    =    -753.45483829 Ry

     The total energy is F=E-TS. E is the sum of the following terms:
     one-electron contribution =    -278.48988071 Ry
     hartree contribution      =     163.43434764 Ry
     xc contribution           =     -61.42425051 Ry
     ewald contribution        =    -401.79964202 Ry
     one-center paw contrib.   =    -175.17541269 Ry
      -> PAW hartree energy AE =     222.15029856 Ry
      -> PAW hartree energy PS =    -221.09409231 Ry
      -> PAW xc energy AE      =    -117.67619796 Ry
      -> PAW xc energy PS      =      29.03228537 Ry
      -> total E_H with PAW    =     164.49055389 Ry
      -> total E_XC with PAW   =    -150.06816310 Ry

     total magnetization       =     3.23 Bohr mag/cell
     absolute magnetization    =     3.55 Bohr mag/cell

     convergence has been achieved in   7 iterations

     Writing all to output data dir ./out2/Co.save/
 
     init_run     :      0.29s CPU      0.38s WALL (       1 calls)
     electrons    :      8.47s CPU      9.04s WALL (       1 calls)

     Called by init_run:
     wfcinit      :      0.13s CPU      0.19s WALL (       1 calls)
     potinit      :      0.10s CPU      0.12s WALL (       1 calls)
     hinit0       :      0.05s CPU      0.05s WALL (       1 calls)

     Called by electrons:
     c_bands      :      7.05s CPU      7.45s WALL (       7 calls)
     sum_band     :      0.73s CPU      0.79s WALL (       7 calls)
     v_of_rho     :      0.03s CPU      0.03s WALL (       8 calls)
     v_h          :      0.00s CPU      0.00s WALL (       8 calls)
     v_xc         :      0.03s CPU      0.03s WALL (       8 calls)
     newd         :      0.02s CPU      0.02s WALL (       8 calls)
     PAW_pot      :      0.71s CPU      0.84s WALL (       8 calls)
     mix_rho      :      0.00s CPU      0.01s WALL (       7 calls)

     Called by c_bands:
     init_us_2    :      0.05s CPU      0.06s WALL (    1064 calls)
     init_us_2:cp :      0.05s CPU      0.06s WALL (    1064 calls)
     cegterg      :      6.67s CPU      7.00s WALL (     532 calls)

     Called by sum_band:
     sum_band:wei :      0.01s CPU      0.01s WALL (       7 calls)
     sum_band:loo :      0.68s CPU      0.73s WALL (       7 calls)
     sum_band:buf :      0.01s CPU      0.01s WALL (     532 calls)
     sum_band:ini :      0.03s CPU      0.03s WALL (     532 calls)
     sum_band:cal :      0.06s CPU      0.06s WALL (     532 calls)
     sum_band:bec :      0.01s CPU      0.01s WALL (     532 calls)
     addusdens    :      0.03s CPU      0.04s WALL (       7 calls)
                                        0.00s GPU  (       7 calls)
     addusd:skk   :      0.00s CPU      0.00s WALL (       7 calls)
                                        0.00s GPU  (       7 calls)

     Called by *egterg:
     cdiaghg      :      1.51s CPU      1.58s WALL (    3054 calls)
     cegterg:over :      0.22s CPU      0.23s WALL (    2598 calls)
     cegterg:upda :      0.06s CPU      0.06s WALL (    2598 calls)
     cegterg:last :      0.12s CPU      0.12s WALL (    1793 calls)
     h_psi        :      4.45s CPU      4.67s WALL (    3130 calls)
     s_psi        :      0.08s CPU      0.09s WALL (    3130 calls)
     g_psi        :      0.02s CPU      0.02s WALL (    2598 calls)

     Called by h_psi:
     h_psi:calbec :      0.24s CPU      0.25s WALL (    3130 calls)
     vloc_psi     :      4.08s CPU      4.28s WALL (    3130 calls)
     add_vuspsi   :      0.10s CPU      0.10s WALL (    3130 calls)

     General routines
     calbec       :      0.29s CPU      0.31s WALL (    3662 calls)
     fft          :      0.01s CPU      0.02s WALL (     194 calls)
     ffts         :      0.00s CPU      0.00s WALL (      30 calls)
     fftw         :      4.22s CPU      4.44s WALL (   92624 calls)
     interpolate  :      0.00s CPU      0.00s WALL (      16 calls)
 
     Parallel routines

     PAW routines
     PAW_pot      :      0.71s CPU      0.84s WALL (       8 calls)
     PAW_symme    :      0.01s CPU      0.01s WALL (      14 calls)
 
     PWSCF        :      9.01s CPU      9.96s WALL

 
   This run was terminated on:  10:44:49  22Mar2024            

=------------------------------------------------------------------------------=
   JOB DONE.
=------------------------------------------------------------------------------=
