
     Program PWSCF v.7.2 starts on 22Mar2024 at 10:51:52 

     This program is part of the open-source Quantum ESPRESSO suite
     for quantum simulation of materials; please cite
         "P. Giannozzi et al., J. Phys.:Condens. Matter 21 395502 (2009);
         "P. Giannozzi et al., J. Phys.:Condens. Matter 29 465901 (2017);
         "P. Giannozzi et al., J. Chem. Phys. 152 154105 (2020);
          URL http://www.quantum-espresso.org", 
     in publications or presentations arising from this work. More details at
     http://www.quantum-espresso.org/quote

     Parallel version (MPI), running on    28 processors

     MPI processes distributed on     1 nodes
     182080 MiB available memory on the printing compute node when the environment starts
 
     Waiting for input...
     Reading input from standard input

     Current dimensions of program PWSCF are:
     Max number of different atomic species (ntypx) = 10
     Max number of k-points (npk) = 120000
     Max angular momentum in pseudopotentials (lmaxx) =  4
     file Co.pbe-spn-kjpaw_psl.0.3.1.UPF: wavefunction(s)  3P 3D renormalized
 
     K-points division:     npool     =       2
     R & G space division:  proc/nbgrp/npool/nimage =      14
     Subspace diagonalization in iterative solution of the eigenvalue problem:
     a serial algorithm will be used

 
     Parallelization info
     --------------------
     sticks:   dense  smooth     PW     G-vecs:    dense   smooth      PW
     Min          48      48     14                 1650     1606     260
     Max          52      49     15                 1664     1613     267
     Sum         685     673    199                23175    22501    3681
 
     Using Slab Decomposition
 


     bravais-lattice index     =            4
     lattice parameter (alat)  =       4.7149  a.u.
     unit-cell volume          =     144.0667 (a.u.)^3
     number of atoms/cell      =            2
     number of atomic types    =            1
     number of electrons       =        34.00
     number of Kohn-Sham states=           21
     kinetic-energy cutoff     =     110.0000  Ry
     charge density cutoff     =     450.0000  Ry
     scf convergence threshold =      1.0E-06
     mixing beta               =       0.7000
     number of iterations used =            8  plain     mixing
     Exchange-correlation= SLA  PW   PBX  PBC
                           (   1   4   3   4   0   0   0)

     celldm(1)=   4.714867  celldm(2)=   0.000000  celldm(3)=   1.587174
     celldm(4)=   0.000000  celldm(5)=   0.000000  celldm(6)=   0.000000

     crystal axes: (cart. coord. in units of alat)
               a(1) = (   1.000000   0.000000   0.000000 )  
               a(2) = (  -0.500000   0.866025   0.000000 )  
               a(3) = (   0.000000   0.000000   1.587174 )  

     reciprocal axes: (cart. coord. in units 2 pi/alat)
               b(1) = (  1.000000  0.577350  0.000000 )  
               b(2) = (  0.000000  1.154701  0.000000 )  
               b(3) = (  0.000000  0.000000  0.630051 )  


     PseudoPot. # 1 for Co read from file:
     /truba/home/amuhaymin/ZnS/pseudo/QE/Co.pbe-spn-kjpaw_psl.0.3.1.UPF
     MD5 check sum: b0a1ad65bf214e88c1f3d33b20c7d919
     Pseudo is Projector augmented-wave + core cor, Zval = 17.0
     Generated using &quot;atomic&quot; code by A. Dal Corso  v.6.2.2
     Shape of augmentation charge: PSQ
     Using radial grid of 1193 points,  6 beta functions with: 
                l(1) =   0
                l(2) =   0
                l(3) =   1
                l(4) =   1
                l(5) =   2
                l(6) =   2
     Q(r) pseudized with 0 coefficients 


     atomic species   valence    mass     pseudopotential
        Co            17.00    58.93300     Co( 1.00)

     Starting magnetic structure 
     atomic species   magnetization
        Co           0.294

     24 Sym. Ops., with inversion, found (12 have fractional translation)


                                    s                        frac. trans.

      isym =  1     identity                                     

 cryst.   s( 1) = (     1          0          0      )
                  (     0          1          0      )
                  (     0          0          1      )

 cart.    s( 1) = (  1.0000000  0.0000000  0.0000000 )
                  (  0.0000000  1.0000000  0.0000000 )
                  (  0.0000000  0.0000000  1.0000000 )


      isym =  2     180 deg rotation - cart. axis [0,0,1]        

 cryst.   s( 2) = (    -1          0          0      )    f =(  0.0000000 )
                  (     0         -1          0      )       ( -0.0000000 )
                  (     0          0          1      )       ( -0.5000000 )

 cart.    s( 2) = ( -1.0000000  0.0000000  0.0000000 )    f =(  0.0000000 )
                  (  0.0000000 -1.0000000  0.0000000 )       ( -0.0000000 )
                  (  0.0000000  0.0000000  1.0000000 )       ( -0.7935872 )


      isym =  3     180 deg rotation - cart. axis [0,1,0]        

 cryst.   s( 3) = (    -1          0          0      )    f =(  0.0000000 )
                  (     1          1          0      )       (  0.0000000 )
                  (     0          0         -1      )       (  0.5000000 )

 cart.    s( 3) = ( -1.0000000  0.0000000  0.0000000 )    f =(  0.0000000 )
                  (  0.0000000  1.0000000  0.0000000 )       (  0.0000000 )
                  (  0.0000000  0.0000000 -1.0000000 )       (  0.7935872 )


      isym =  4     180 deg rotation - cart. axis [1,0,0]        

 cryst.   s( 4) = (     1          0          0      )
                  (    -1         -1          0      )
                  (     0          0         -1      )

 cart.    s( 4) = (  1.0000000  0.0000000  0.0000000 )
                  (  0.0000000 -1.0000000  0.0000000 )
                  (  0.0000000  0.0000000 -1.0000000 )


      isym =  5      60 deg rotation - cryst. axis [0,0,1]       

 cryst.   s( 5) = (     1          1          0      )    f =(  0.0000000 )
                  (    -1          0          0      )       ( -0.0000000 )
                  (     0          0          1      )       ( -0.5000000 )

 cart.    s( 5) = (  0.5000000 -0.8660254  0.0000000 )    f =(  0.0000000 )
                  (  0.8660254  0.5000000  0.0000000 )       ( -0.0000000 )
                  (  0.0000000  0.0000000  1.0000000 )       ( -0.7935872 )


      isym =  6      60 deg rotation - cryst. axis [0,0,-1]      

 cryst.   s( 6) = (     0         -1          0      )    f =(  0.0000000 )
                  (     1          1          0      )       ( -0.0000000 )
                  (     0          0          1      )       ( -0.5000000 )

 cart.    s( 6) = (  0.5000000  0.8660254  0.0000000 )    f =(  0.0000000 )
                  ( -0.8660254  0.5000000  0.0000000 )       ( -0.0000000 )
                  (  0.0000000  0.0000000  1.0000000 )       ( -0.7935872 )


      isym =  7     120 deg rotation - cryst. axis [0,0,1]       

 cryst.   s( 7) = (     0          1          0      )
                  (    -1         -1          0      )
                  (     0          0          1      )

 cart.    s( 7) = ( -0.5000000 -0.8660254  0.0000000 )
                  (  0.8660254 -0.5000000  0.0000000 )
                  (  0.0000000  0.0000000  1.0000000 )


      isym =  8     120 deg rotation - cryst. axis [0,0,-1]      

 cryst.   s( 8) = (    -1         -1          0      )
                  (     1          0          0      )
                  (     0          0          1      )

 cart.    s( 8) = ( -0.5000000  0.8660254  0.0000000 )
                  ( -0.8660254 -0.5000000  0.0000000 )
                  (  0.0000000  0.0000000  1.0000000 )


      isym =  9     180 deg rotation - cryst. axis [1,-1,0]      

 cryst.   s( 9) = (     0         -1          0      )    f =( -0.0000000 )
                  (    -1          0          0      )       ( -0.0000000 )
                  (     0          0         -1      )       (  0.5000000 )

 cart.    s( 9) = (  0.5000000 -0.8660254  0.0000000 )    f =( -0.0000000 )
                  ( -0.8660254 -0.5000000  0.0000000 )       ( -0.0000000 )
                  (  0.0000000  0.0000000 -1.0000000 )       (  0.7935872 )


      isym = 10     180 deg rotation - cryst. axis [2,1,0]       

 cryst.   s(10) = (     1          1          0      )    f =(  0.0000000 )
                  (     0         -1          0      )       ( -0.0000000 )
                  (     0          0         -1      )       (  0.5000000 )

 cart.    s(10) = (  0.5000000  0.8660254  0.0000000 )    f =(  0.0000000 )
                  (  0.8660254 -0.5000000  0.0000000 )       ( -0.0000000 )
                  (  0.0000000  0.0000000 -1.0000000 )       (  0.7935872 )


      isym = 11     180 deg rotation - cryst. axis [0,1,0]       

 cryst.   s(11) = (    -1         -1          0      )
                  (     0          1          0      )
                  (     0          0         -1      )

 cart.    s(11) = ( -0.5000000 -0.8660254  0.0000000 )
                  ( -0.8660254  0.5000000  0.0000000 )
                  (  0.0000000  0.0000000 -1.0000000 )


      isym = 12     180 deg rotation - cryst. axis [1,1,0]       

 cryst.   s(12) = (     0          1          0      )
                  (     1          0          0      )
                  (     0          0         -1      )

 cart.    s(12) = ( -0.5000000  0.8660254  0.0000000 )
                  (  0.8660254  0.5000000  0.0000000 )
                  (  0.0000000  0.0000000 -1.0000000 )


      isym = 13     inversion                                    

 cryst.   s(13) = (    -1          0          0      )
                  (     0         -1          0      )
                  (     0          0         -1      )

 cart.    s(13) = ( -1.0000000  0.0000000  0.0000000 )
                  (  0.0000000 -1.0000000  0.0000000 )
                  (  0.0000000  0.0000000 -1.0000000 )


      isym = 14     inv. 180 deg rotation - cart. axis [0,0,1]   

 cryst.   s(14) = (     1          0          0      )    f =(  0.0000000 )
                  (     0          1          0      )       (  0.0000000 )
                  (     0          0         -1      )       (  0.5000000 )

 cart.    s(14) = (  1.0000000  0.0000000  0.0000000 )    f =(  0.0000000 )
                  (  0.0000000  1.0000000  0.0000000 )       (  0.0000000 )
                  (  0.0000000  0.0000000 -1.0000000 )       (  0.7935872 )


      isym = 15     inv. 180 deg rotation - cart. axis [0,1,0]   

 cryst.   s(15) = (     1          0          0      )    f =(  0.0000000 )
                  (    -1         -1          0      )       ( -0.0000000 )
                  (     0          0          1      )       ( -0.5000000 )

 cart.    s(15) = (  1.0000000  0.0000000  0.0000000 )    f =(  0.0000000 )
                  (  0.0000000 -1.0000000  0.0000000 )       ( -0.0000000 )
                  (  0.0000000  0.0000000  1.0000000 )       ( -0.7935872 )


      isym = 16     inv. 180 deg rotation - cart. axis [1,0,0]   

 cryst.   s(16) = (    -1          0          0      )
                  (     1          1          0      )
                  (     0          0          1      )

 cart.    s(16) = ( -1.0000000  0.0000000  0.0000000 )
                  (  0.0000000  1.0000000  0.0000000 )
                  (  0.0000000  0.0000000  1.0000000 )


      isym = 17     inv.  60 deg rotation - cryst. axis [0,0,1]  

 cryst.   s(17) = (    -1         -1          0      )    f =(  0.0000000 )
                  (     1          0          0      )       ( -0.0000000 )
                  (     0          0         -1      )       (  0.5000000 )

 cart.    s(17) = ( -0.5000000  0.8660254  0.0000000 )    f =(  0.0000000 )
                  ( -0.8660254 -0.5000000  0.0000000 )       ( -0.0000000 )
                  (  0.0000000  0.0000000 -1.0000000 )       (  0.7935872 )


      isym = 18     inv.  60 deg rotation - cryst. axis [0,0,-1] 

 cryst.   s(18) = (     0          1          0      )    f =( -0.0000000 )
                  (    -1         -1          0      )       ( -0.0000000 )
                  (     0          0         -1      )       (  0.5000000 )

 cart.    s(18) = ( -0.5000000 -0.8660254  0.0000000 )    f =(  0.0000000 )
                  (  0.8660254 -0.5000000  0.0000000 )       ( -0.0000000 )
                  (  0.0000000  0.0000000 -1.0000000 )       (  0.7935872 )


      isym = 19     inv. 120 deg rotation - cryst. axis [0,0,1]  

 cryst.   s(19) = (     0         -1          0      )
                  (     1          1          0      )
                  (     0          0         -1      )

 cart.    s(19) = (  0.5000000  0.8660254  0.0000000 )
                  ( -0.8660254  0.5000000  0.0000000 )
                  (  0.0000000  0.0000000 -1.0000000 )


      isym = 20     inv. 120 deg rotation - cryst. axis [0,0,-1] 

 cryst.   s(20) = (     1          1          0      )
                  (    -1          0          0      )
                  (     0          0         -1      )

 cart.    s(20) = (  0.5000000 -0.8660254  0.0000000 )
                  (  0.8660254  0.5000000  0.0000000 )
                  (  0.0000000  0.0000000 -1.0000000 )


      isym = 21     inv. 180 deg rotation - cryst. axis [1,-1,0] 

 cryst.   s(21) = (     0          1          0      )    f =(  0.0000000 )
                  (     1          0          0      )       ( -0.0000000 )
                  (     0          0          1      )       ( -0.5000000 )

 cart.    s(21) = ( -0.5000000  0.8660254  0.0000000 )    f =(  0.0000000 )
                  (  0.8660254  0.5000000  0.0000000 )       ( -0.0000000 )
                  (  0.0000000  0.0000000  1.0000000 )       ( -0.7935872 )


      isym = 22     inv. 180 deg rotation - cryst. axis [2,1,0]  

 cryst.   s(22) = (    -1         -1          0      )    f =(  0.0000000 )
                  (     0          1          0      )       ( -0.0000000 )
                  (     0          0          1      )       ( -0.5000000 )

 cart.    s(22) = ( -0.5000000 -0.8660254  0.0000000 )    f =(  0.0000000 )
                  ( -0.8660254  0.5000000  0.0000000 )       ( -0.0000000 )
                  (  0.0000000  0.0000000  1.0000000 )       ( -0.7935872 )


      isym = 23     inv. 180 deg rotation - cryst. axis [0,1,0]  

 cryst.   s(23) = (     1          1          0      )
                  (     0         -1          0      )
                  (     0          0          1      )

 cart.    s(23) = (  0.5000000  0.8660254  0.0000000 )
                  (  0.8660254 -0.5000000  0.0000000 )
                  (  0.0000000  0.0000000  1.0000000 )


      isym = 24     inv. 180 deg rotation - cryst. axis [1,1,0]  

 cryst.   s(24) = (     0         -1          0      )
                  (    -1          0          0      )
                  (     0          0          1      )

 cart.    s(24) = (  0.5000000 -0.8660254  0.0000000 )
                  ( -0.8660254 -0.5000000  0.0000000 )
                  (  0.0000000  0.0000000  1.0000000 )


     point group D_6h(6/mmm)
     there are 12 classes
     the character table:

       E     2C6   2C3   C2    3C2'  3C2'' i     2S3   2S6   s_h   3s_d  3s_v 
A_1g   1.00  1.00  1.00  1.00  1.00  1.00  1.00  1.00  1.00  1.00  1.00  1.00
A_2g   1.00  1.00  1.00  1.00 -1.00 -1.00  1.00  1.00  1.00  1.00 -1.00 -1.00
B_1g   1.00 -1.00  1.00 -1.00  1.00 -1.00  1.00 -1.00  1.00 -1.00  1.00 -1.00
B_2g   1.00 -1.00  1.00 -1.00 -1.00  1.00  1.00 -1.00  1.00 -1.00 -1.00  1.00
E_1g   2.00  1.00 -1.00 -2.00  0.00  0.00  2.00  1.00 -1.00 -2.00  0.00  0.00
E_2g   2.00 -1.00 -1.00  2.00  0.00  0.00  2.00 -1.00 -1.00  2.00  0.00  0.00
A_1u   1.00  1.00  1.00  1.00  1.00  1.00 -1.00 -1.00 -1.00 -1.00 -1.00 -1.00
A_2u   1.00  1.00  1.00  1.00 -1.00 -1.00 -1.00 -1.00 -1.00 -1.00  1.00  1.00
B_1u   1.00 -1.00  1.00 -1.00  1.00 -1.00 -1.00  1.00 -1.00  1.00 -1.00  1.00
B_2u   1.00 -1.00  1.00 -1.00 -1.00  1.00 -1.00  1.00 -1.00  1.00  1.00 -1.00
E_1u   2.00  1.00 -1.00 -2.00  0.00  0.00 -2.00 -1.00  1.00  2.00  0.00  0.00
E_2u   2.00 -1.00 -1.00  2.00  0.00  0.00 -2.00  1.00  1.00 -2.00  0.00  0.00

     the symmetry operations in each class and the name of the first element:

     E        1
          identity                                               
     2C6      5    6
           60 deg rotation - cryst. axis [0,0,1]                 
     2C3      7    8
          120 deg rotation - cryst. axis [0,0,1]                 
     C2       2
          180 deg rotation - cart. axis [0,0,1]                  
     3C2'     4   12   11
          180 deg rotation - cart. axis [1,0,0]                  
     3C2''    3    9   10
          180 deg rotation - cart. axis [0,1,0]                  
     i       13
          inversion                                              
     2S3     17   18
          inv.  60 deg rotation - cryst. axis [0,0,1]            
     2S6     19   20
          inv. 120 deg rotation - cryst. axis [0,0,1]            
     s_h     14
          inv. 180 deg rotation - cart. axis [0,0,1]             
     3s_d    16   24   23
          inv. 180 deg rotation - cart. axis [1,0,0]             
     3s_v    15   21   22
          inv. 180 deg rotation - cart. axis [0,1,0]             

   Cartesian axes

     site n.     atom                  positions (alat units)
         1           Co  tau(   1) = (  -0.0000000   0.5773503   0.3967936  )
         2           Co  tau(   2) = (   0.5000000   0.2886751   1.1903808  )

   Crystallographic axes

     site n.     atom                  positions (cryst. coord.)
         1           Co  tau(   1) = (  0.3333333  0.6666667  0.2500000  )
         2           Co  tau(   2) = (  0.6666667  0.3333333  0.7500000  )

     number of k points=    76  Gaussian smearing, width (Ry)=  0.0010
                       cart. coord. in units 2pi/alat
        k(    1) = (   0.0000000   0.0000000   0.0000000), wk =   0.0011574
        k(    2) = (   0.0000000   0.0000000   0.1050084), wk =   0.0023148
        k(    3) = (   0.0000000   0.0000000   0.2100168), wk =   0.0023148
        k(    4) = (   0.0000000   0.0000000  -0.3150253), wk =   0.0011574
        k(    5) = (   0.0000000   0.0962250   0.0000000), wk =   0.0069444
        k(    6) = (   0.0000000   0.0962250   0.1050084), wk =   0.0138889
        k(    7) = (   0.0000000   0.0962250   0.2100168), wk =   0.0138889
        k(    8) = (   0.0000000   0.0962250  -0.3150253), wk =   0.0069444
        k(    9) = (   0.0000000   0.1924501   0.0000000), wk =   0.0069444
        k(   10) = (   0.0000000   0.1924501   0.1050084), wk =   0.0138889
        k(   11) = (   0.0000000   0.1924501   0.2100168), wk =   0.0138889
        k(   12) = (   0.0000000   0.1924501  -0.3150253), wk =   0.0069444
        k(   13) = (   0.0000000   0.2886751   0.0000000), wk =   0.0069444
        k(   14) = (   0.0000000   0.2886751   0.1050084), wk =   0.0138889
        k(   15) = (   0.0000000   0.2886751   0.2100168), wk =   0.0138889
        k(   16) = (   0.0000000   0.2886751  -0.3150253), wk =   0.0069444
        k(   17) = (   0.0000000   0.3849002   0.0000000), wk =   0.0069444
        k(   18) = (   0.0000000   0.3849002   0.1050084), wk =   0.0138889
        k(   19) = (   0.0000000   0.3849002   0.2100168), wk =   0.0138889
        k(   20) = (   0.0000000   0.3849002  -0.3150253), wk =   0.0069444
        k(   21) = (   0.0000000   0.4811252   0.0000000), wk =   0.0069444
        k(   22) = (   0.0000000   0.4811252   0.1050084), wk =   0.0138889
        k(   23) = (   0.0000000   0.4811252   0.2100168), wk =   0.0138889
        k(   24) = (   0.0000000   0.4811252  -0.3150253), wk =   0.0069444
        k(   25) = (   0.0000000  -0.5773503   0.0000000), wk =   0.0034722
        k(   26) = (   0.0000000  -0.5773503   0.1050084), wk =   0.0069444
        k(   27) = (   0.0000000  -0.5773503   0.2100168), wk =   0.0069444
        k(   28) = (   0.0000000  -0.5773503  -0.3150253), wk =   0.0034722
        k(   29) = (   0.0833333   0.1443376   0.0000000), wk =   0.0069444
        k(   30) = (   0.0833333   0.1443376   0.1050084), wk =   0.0138889
        k(   31) = (   0.0833333   0.1443376   0.2100168), wk =   0.0138889
        k(   32) = (   0.0833333   0.1443376  -0.3150253), wk =   0.0069444
        k(   33) = (   0.0833333   0.2405626   0.0000000), wk =   0.0138889
        k(   34) = (   0.0833333   0.2405626   0.1050084), wk =   0.0277778
        k(   35) = (   0.0833333   0.2405626   0.2100168), wk =   0.0277778
        k(   36) = (   0.0833333   0.2405626  -0.3150253), wk =   0.0138889
        k(   37) = (   0.0833333   0.3367877   0.0000000), wk =   0.0138889
        k(   38) = (   0.0833333   0.3367877   0.1050084), wk =   0.0277778
        k(   39) = (   0.0833333   0.3367877   0.2100168), wk =   0.0277778
        k(   40) = (   0.0833333   0.3367877  -0.3150253), wk =   0.0138889
        k(   41) = (   0.0833333   0.4330127   0.0000000), wk =   0.0138889
        k(   42) = (   0.0833333   0.4330127   0.1050084), wk =   0.0277778
        k(   43) = (   0.0833333   0.4330127   0.2100168), wk =   0.0277778
        k(   44) = (   0.0833333   0.4330127  -0.3150253), wk =   0.0138889
        k(   45) = (   0.0833333   0.5292377   0.0000000), wk =   0.0138889
        k(   46) = (   0.0833333   0.5292377   0.1050084), wk =   0.0277778
        k(   47) = (   0.0833333   0.5292377   0.2100168), wk =   0.0277778
        k(   48) = (   0.0833333   0.5292377  -0.3150253), wk =   0.0138889
        k(   49) = (   0.1666667   0.2886751   0.0000000), wk =   0.0069444
        k(   50) = (   0.1666667   0.2886751   0.1050084), wk =   0.0138889
        k(   51) = (   0.1666667   0.2886751   0.2100168), wk =   0.0138889
        k(   52) = (   0.1666667   0.2886751  -0.3150253), wk =   0.0069444
        k(   53) = (   0.1666667   0.3849002   0.0000000), wk =   0.0138889
        k(   54) = (   0.1666667   0.3849002   0.1050084), wk =   0.0277778
        k(   55) = (   0.1666667   0.3849002   0.2100168), wk =   0.0277778
        k(   56) = (   0.1666667   0.3849002  -0.3150253), wk =   0.0138889
        k(   57) = (   0.1666667   0.4811252   0.0000000), wk =   0.0138889
        k(   58) = (   0.1666667   0.4811252   0.1050084), wk =   0.0277778
        k(   59) = (   0.1666667   0.4811252   0.2100168), wk =   0.0277778
        k(   60) = (   0.1666667   0.4811252  -0.3150253), wk =   0.0138889
        k(   61) = (   0.1666667   0.5773503   0.0000000), wk =   0.0069444
        k(   62) = (   0.1666667   0.5773503   0.1050084), wk =   0.0138889
        k(   63) = (   0.1666667   0.5773503   0.2100168), wk =   0.0138889
        k(   64) = (   0.1666667   0.5773503  -0.3150253), wk =   0.0069444
        k(   65) = (   0.2500000   0.4330127   0.0000000), wk =   0.0069444
        k(   66) = (   0.2500000   0.4330127   0.1050084), wk =   0.0138889
        k(   67) = (   0.2500000   0.4330127   0.2100168), wk =   0.0138889
        k(   68) = (   0.2500000   0.4330127  -0.3150253), wk =   0.0069444
        k(   69) = (   0.2500000   0.5292377   0.0000000), wk =   0.0138889
        k(   70) = (   0.2500000   0.5292377   0.1050084), wk =   0.0277778
        k(   71) = (   0.2500000   0.5292377   0.2100168), wk =   0.0277778
        k(   72) = (   0.2500000   0.5292377  -0.3150253), wk =   0.0138889
        k(   73) = (   0.3333333   0.5773503   0.0000000), wk =   0.0023148
        k(   74) = (   0.3333333   0.5773503   0.1050084), wk =   0.0046296
        k(   75) = (   0.3333333   0.5773503   0.2100168), wk =   0.0046296
        k(   76) = (   0.3333333   0.5773503  -0.3150253), wk =   0.0023148

                       cryst. coord.
        k(    1) = (   0.0000000   0.0000000   0.0000000), wk =   0.0011574
        k(    2) = (   0.0000000   0.0000000   0.1666667), wk =   0.0023148
        k(    3) = (   0.0000000   0.0000000   0.3333333), wk =   0.0023148
        k(    4) = (   0.0000000   0.0000000  -0.5000000), wk =   0.0011574
        k(    5) = (   0.0000000   0.0833333   0.0000000), wk =   0.0069444
        k(    6) = (   0.0000000   0.0833333   0.1666667), wk =   0.0138889
        k(    7) = (   0.0000000   0.0833333   0.3333333), wk =   0.0138889
        k(    8) = (   0.0000000   0.0833333  -0.5000000), wk =   0.0069444
        k(    9) = (   0.0000000   0.1666667   0.0000000), wk =   0.0069444
        k(   10) = (   0.0000000   0.1666667   0.1666667), wk =   0.0138889
        k(   11) = (   0.0000000   0.1666667   0.3333333), wk =   0.0138889
        k(   12) = (   0.0000000   0.1666667  -0.5000000), wk =   0.0069444
        k(   13) = (   0.0000000   0.2500000   0.0000000), wk =   0.0069444
        k(   14) = (   0.0000000   0.2500000   0.1666667), wk =   0.0138889
        k(   15) = (   0.0000000   0.2500000   0.3333333), wk =   0.0138889
        k(   16) = (   0.0000000   0.2500000  -0.5000000), wk =   0.0069444
        k(   17) = (   0.0000000   0.3333333   0.0000000), wk =   0.0069444
        k(   18) = (   0.0000000   0.3333333   0.1666667), wk =   0.0138889
        k(   19) = (   0.0000000   0.3333333   0.3333333), wk =   0.0138889
        k(   20) = (   0.0000000   0.3333333  -0.5000000), wk =   0.0069444
        k(   21) = (   0.0000000   0.4166667   0.0000000), wk =   0.0069444
        k(   22) = (   0.0000000   0.4166667   0.1666667), wk =   0.0138889
        k(   23) = (   0.0000000   0.4166667   0.3333333), wk =   0.0138889
        k(   24) = (   0.0000000   0.4166667  -0.5000000), wk =   0.0069444
        k(   25) = (   0.0000000  -0.5000000   0.0000000), wk =   0.0034722
        k(   26) = (   0.0000000  -0.5000000   0.1666667), wk =   0.0069444
        k(   27) = (   0.0000000  -0.5000000   0.3333333), wk =   0.0069444
        k(   28) = (   0.0000000  -0.5000000  -0.5000000), wk =   0.0034722
        k(   29) = (   0.0833333   0.0833333   0.0000000), wk =   0.0069444
        k(   30) = (   0.0833333   0.0833333   0.1666667), wk =   0.0138889
        k(   31) = (   0.0833333   0.0833333   0.3333333), wk =   0.0138889
        k(   32) = (   0.0833333   0.0833333  -0.5000000), wk =   0.0069444
        k(   33) = (   0.0833333   0.1666667   0.0000000), wk =   0.0138889
        k(   34) = (   0.0833333   0.1666667   0.1666667), wk =   0.0277778
        k(   35) = (   0.0833333   0.1666667   0.3333333), wk =   0.0277778
        k(   36) = (   0.0833333   0.1666667  -0.5000000), wk =   0.0138889
        k(   37) = (   0.0833333   0.2500000   0.0000000), wk =   0.0138889
        k(   38) = (   0.0833333   0.2500000   0.1666667), wk =   0.0277778
        k(   39) = (   0.0833333   0.2500000   0.3333333), wk =   0.0277778
        k(   40) = (   0.0833333   0.2500000  -0.5000000), wk =   0.0138889
        k(   41) = (   0.0833333   0.3333333   0.0000000), wk =   0.0138889
        k(   42) = (   0.0833333   0.3333333   0.1666667), wk =   0.0277778
        k(   43) = (   0.0833333   0.3333333   0.3333333), wk =   0.0277778
        k(   44) = (   0.0833333   0.3333333  -0.5000000), wk =   0.0138889
        k(   45) = (   0.0833333   0.4166667   0.0000000), wk =   0.0138889
        k(   46) = (   0.0833333   0.4166667   0.1666667), wk =   0.0277778
        k(   47) = (   0.0833333   0.4166667   0.3333333), wk =   0.0277778
        k(   48) = (   0.0833333   0.4166667  -0.5000000), wk =   0.0138889
        k(   49) = (   0.1666667   0.1666667   0.0000000), wk =   0.0069444
        k(   50) = (   0.1666667   0.1666667   0.1666667), wk =   0.0138889
        k(   51) = (   0.1666667   0.1666667   0.3333333), wk =   0.0138889
        k(   52) = (   0.1666667   0.1666667  -0.5000000), wk =   0.0069444
        k(   53) = (   0.1666667   0.2500000   0.0000000), wk =   0.0138889
        k(   54) = (   0.1666667   0.2500000   0.1666667), wk =   0.0277778
        k(   55) = (   0.1666667   0.2500000   0.3333333), wk =   0.0277778
        k(   56) = (   0.1666667   0.2500000  -0.5000000), wk =   0.0138889
        k(   57) = (   0.1666667   0.3333333   0.0000000), wk =   0.0138889
        k(   58) = (   0.1666667   0.3333333   0.1666667), wk =   0.0277778
        k(   59) = (   0.1666667   0.3333333   0.3333333), wk =   0.0277778
        k(   60) = (   0.1666667   0.3333333  -0.5000000), wk =   0.0138889
        k(   61) = (   0.1666667   0.4166667   0.0000000), wk =   0.0069444
        k(   62) = (   0.1666667   0.4166667   0.1666667), wk =   0.0138889
        k(   63) = (   0.1666667   0.4166667   0.3333333), wk =   0.0138889
        k(   64) = (   0.1666667   0.4166667  -0.5000000), wk =   0.0069444
        k(   65) = (   0.2500000   0.2500000   0.0000000), wk =   0.0069444
        k(   66) = (   0.2500000   0.2500000   0.1666667), wk =   0.0138889
        k(   67) = (   0.2500000   0.2500000   0.3333333), wk =   0.0138889
        k(   68) = (   0.2500000   0.2500000  -0.5000000), wk =   0.0069444
        k(   69) = (   0.2500000   0.3333333   0.0000000), wk =   0.0138889
        k(   70) = (   0.2500000   0.3333333   0.1666667), wk =   0.0277778
        k(   71) = (   0.2500000   0.3333333   0.3333333), wk =   0.0277778
        k(   72) = (   0.2500000   0.3333333  -0.5000000), wk =   0.0138889
        k(   73) = (   0.3333333   0.3333333   0.0000000), wk =   0.0023148
        k(   74) = (   0.3333333   0.3333333   0.1666667), wk =   0.0046296
        k(   75) = (   0.3333333   0.3333333   0.3333333), wk =   0.0046296
        k(   76) = (   0.3333333   0.3333333  -0.5000000), wk =   0.0023148

     Dense  grid:    23175 G-vectors     FFT dimensions: (  32,  32,  54)

     Smooth grid:    22501 G-vectors     FFT dimensions: (  32,  32,  50)

     Dynamical RAM for                 wfc:       0.06 MB

     Dynamical RAM for     wfc (w. buffer):       4.93 MB

     Dynamical RAM for           str. fact:       0.03 MB

     Dynamical RAM for           local pot:       0.00 MB

     Dynamical RAM for          nlocal pot:       0.11 MB

     Dynamical RAM for                qrad:       1.70 MB

     Dynamical RAM for          rho,v,vnew:       0.34 MB

     Dynamical RAM for               rhoin:       0.11 MB

     Dynamical RAM for            rho*nmix:       0.81 MB

     Dynamical RAM for           G-vectors:       0.11 MB

     Dynamical RAM for          h,s,v(r/c):       0.08 MB

     Dynamical RAM for          <psi|beta>:       0.01 MB

     Dynamical RAM for                 psi:       0.13 MB

     Dynamical RAM for                hpsi:       0.13 MB

     Dynamical RAM for                spsi:       0.13 MB

     Dynamical RAM for      wfcinit/wfcrot:       0.14 MB

     Dynamical RAM for           addusdens:       2.41 MB

     Estimated static dynamical RAM per process >       7.57 MB

     Estimated max dynamical RAM per process >      10.79 MB

     Estimated total dynamical RAM >     290.85 MB

     Check: negative core charge=   -0.000043
     Generating pointlists ...
     new r_m :   0.4048 (alat units)  1.9087 (a.u.) for type    1

     The initial density is read from file :
     ./out2/Co.save/charge-density


     starting charge      33.6691, renormalised to      34.0000

     negative rho (up, down):  2.182E+00 1.707E+00
     Starting wfcs from file
     Checking if some PAW data can be deallocated... 

     total cpu time spent up to now is        0.5 secs

     Self-consistent Calculation

     iteration #  1     ecut=   110.00 Ry     beta= 0.70
     Davidson diagonalization with overlap

---- Real-time Memory Report at c_bands before calling an iterative solver
            57 MiB given to the printing process from OS
             0 MiB allocation reported by mallinfo(arena+hblkhd)
        181282 MiB available memory on the node where the printing process lives
------------------
     c_bands:  2 eigenvalues not converged
     c_bands:  2 eigenvalues not converged
     c_bands:  1 eigenvalues not converged
     c_bands:  2 eigenvalues not converged
     c_bands:  1 eigenvalues not converged
     c_bands:  1 eigenvalues not converged
     c_bands:  3 eigenvalues not converged
     c_bands:  4 eigenvalues not converged
     c_bands:  2 eigenvalues not converged
     c_bands:  5 eigenvalues not converged
     c_bands:  1 eigenvalues not converged
     c_bands:  2 eigenvalues not converged
     c_bands:  2 eigenvalues not converged
     c_bands:  5 eigenvalues not converged
     c_bands:  3 eigenvalues not converged
     c_bands:  1 eigenvalues not converged
     c_bands:  4 eigenvalues not converged
     c_bands:  2 eigenvalues not converged
     c_bands:  1 eigenvalues not converged
     c_bands:  3 eigenvalues not converged
     c_bands:  4 eigenvalues not converged
     ethr =  1.00E-05,  avg # of iterations = 24.5

     negative rho (up, down):  1.057E-01 5.619E-02

     total cpu time spent up to now is        6.6 secs

     total energy              =    -752.80764335 Ry
     estimated scf accuracy    <       2.78469322 Ry

     total magnetization       =     2.85 Bohr mag/cell
     absolute magnetization    =     3.10 Bohr mag/cell

     iteration #  2     ecut=   110.00 Ry     beta= 0.70
     Davidson diagonalization with overlap

---- Real-time Memory Report at c_bands before calling an iterative solver
            80 MiB given to the printing process from OS
             0 MiB allocation reported by mallinfo(arena+hblkhd)
        180968 MiB available memory on the node where the printing process lives
------------------
     ethr =  8.19E-03,  avg # of iterations =  2.1

     negative rho (up, down):  2.570E-03 1.252E-03

     total cpu time spent up to now is        7.4 secs

     total energy              =    -752.78597934 Ry
     estimated scf accuracy    <       1.13532095 Ry

     total magnetization       =     2.88 Bohr mag/cell
     absolute magnetization    =     3.12 Bohr mag/cell

     iteration #  3     ecut=   110.00 Ry     beta= 0.70
     Davidson diagonalization with overlap

---- Real-time Memory Report at c_bands before calling an iterative solver
            81 MiB given to the printing process from OS
             0 MiB allocation reported by mallinfo(arena+hblkhd)
        180952 MiB available memory on the node where the printing process lives
------------------
     ethr =  3.34E-03,  avg # of iterations =  2.1

     total cpu time spent up to now is        8.3 secs

     total energy              =    -753.39542805 Ry
     estimated scf accuracy    <       0.42564460 Ry

     total magnetization       =     3.04 Bohr mag/cell
     absolute magnetization    =     3.25 Bohr mag/cell

     iteration #  4     ecut=   110.00 Ry     beta= 0.70
     Davidson diagonalization with overlap

---- Real-time Memory Report at c_bands before calling an iterative solver
            82 MiB given to the printing process from OS
             0 MiB allocation reported by mallinfo(arena+hblkhd)
        180938 MiB available memory on the node where the printing process lives
------------------
     ethr =  1.25E-03,  avg # of iterations =  1.8

     total cpu time spent up to now is        9.1 secs

     total energy              =    -753.43069259 Ry
     estimated scf accuracy    <       0.03025359 Ry

     total magnetization       =     3.09 Bohr mag/cell
     absolute magnetization    =     3.35 Bohr mag/cell

     iteration #  5     ecut=   110.00 Ry     beta= 0.70
     Davidson diagonalization with overlap

---- Real-time Memory Report at c_bands before calling an iterative solver
            83 MiB given to the printing process from OS
             0 MiB allocation reported by mallinfo(arena+hblkhd)
        180929 MiB available memory on the node where the printing process lives
------------------
     ethr =  8.90E-05,  avg # of iterations =  5.3

     total cpu time spent up to now is       10.4 secs

     total energy              =    -753.44781237 Ry
     estimated scf accuracy    <       0.01509490 Ry

     total magnetization       =     3.10 Bohr mag/cell
     absolute magnetization    =     3.39 Bohr mag/cell

     iteration #  6     ecut=   110.00 Ry     beta= 0.70
     Davidson diagonalization with overlap

---- Real-time Memory Report at c_bands before calling an iterative solver
            83 MiB given to the printing process from OS
             0 MiB allocation reported by mallinfo(arena+hblkhd)
        180927 MiB available memory on the node where the printing process lives
------------------
     ethr =  4.44E-05,  avg # of iterations =  3.9

     total cpu time spent up to now is       11.4 secs

     total energy              =    -753.45334029 Ry
     estimated scf accuracy    <       0.00299979 Ry

     total magnetization       =     3.16 Bohr mag/cell
     absolute magnetization    =     3.47 Bohr mag/cell

     iteration #  7     ecut=   110.00 Ry     beta= 0.70
     Davidson diagonalization with overlap

---- Real-time Memory Report at c_bands before calling an iterative solver
            84 MiB given to the printing process from OS
             0 MiB allocation reported by mallinfo(arena+hblkhd)
        180920 MiB available memory on the node where the printing process lives
------------------
     ethr =  8.82E-06,  avg # of iterations =  6.1

     total cpu time spent up to now is       12.7 secs

     total energy              =    -753.45443653 Ry
     estimated scf accuracy    <       0.00011695 Ry

     total magnetization       =     3.16 Bohr mag/cell
     absolute magnetization    =     3.48 Bohr mag/cell

     iteration #  8     ecut=   110.00 Ry     beta= 0.70
     Davidson diagonalization with overlap

---- Real-time Memory Report at c_bands before calling an iterative solver
            85 MiB given to the printing process from OS
             0 MiB allocation reported by mallinfo(arena+hblkhd)
        180916 MiB available memory on the node where the printing process lives
------------------
     ethr =  3.44E-07,  avg # of iterations = 11.4

     total cpu time spent up to now is       14.8 secs

     total energy              =    -753.45474315 Ry
     estimated scf accuracy    <       0.00002330 Ry

     total magnetization       =     3.20 Bohr mag/cell
     absolute magnetization    =     3.53 Bohr mag/cell

     iteration #  9     ecut=   110.00 Ry     beta= 0.70
     Davidson diagonalization with overlap

---- Real-time Memory Report at c_bands before calling an iterative solver
            85 MiB given to the printing process from OS
             0 MiB allocation reported by mallinfo(arena+hblkhd)
        181021 MiB available memory on the node where the printing process lives
------------------
     ethr =  6.85E-08,  avg # of iterations =  5.4

     total cpu time spent up to now is       16.0 secs

     total energy              =    -753.45474876 Ry
     estimated scf accuracy    <       0.00002390 Ry

     total magnetization       =     3.21 Bohr mag/cell
     absolute magnetization    =     3.54 Bohr mag/cell

     iteration # 10     ecut=   110.00 Ry     beta= 0.70
     Davidson diagonalization with overlap

---- Real-time Memory Report at c_bands before calling an iterative solver
            85 MiB given to the printing process from OS
             0 MiB allocation reported by mallinfo(arena+hblkhd)
        181018 MiB available memory on the node where the printing process lives
------------------
     ethr =  6.85E-08,  avg # of iterations =  1.5

     total cpu time spent up to now is       16.8 secs

     total energy              =    -753.45475273 Ry
     estimated scf accuracy    <       0.00000213 Ry

     total magnetization       =     3.22 Bohr mag/cell
     absolute magnetization    =     3.54 Bohr mag/cell

     iteration # 11     ecut=   110.00 Ry     beta= 0.70
     Davidson diagonalization with overlap

---- Real-time Memory Report at c_bands before calling an iterative solver
            85 MiB given to the printing process from OS
             0 MiB allocation reported by mallinfo(arena+hblkhd)
        181018 MiB available memory on the node where the printing process lives
------------------
     ethr =  6.27E-09,  avg # of iterations =  7.0

     total cpu time spent up to now is       18.4 secs

     total energy              =    -753.45475295 Ry
     estimated scf accuracy    <       0.00001078 Ry

     total magnetization       =     3.22 Bohr mag/cell
     absolute magnetization    =     3.55 Bohr mag/cell

     iteration # 12     ecut=   110.00 Ry     beta= 0.70
     Davidson diagonalization with overlap

---- Real-time Memory Report at c_bands before calling an iterative solver
            85 MiB given to the printing process from OS
             0 MiB allocation reported by mallinfo(arena+hblkhd)
        181016 MiB available memory on the node where the printing process lives
------------------
     ethr =  6.27E-09,  avg # of iterations =  4.5
 
     Magnetic moment per site  (integrated on atomic sphere of radius R)
     atom   1 (R=0.405)  charge= 15.5396  magn=  1.6870
     atom   2 (R=0.405)  charge= 15.5396  magn=  1.6870

     total cpu time spent up to now is       19.5 secs

     End of self-consistent calculation

 ------ SPIN UP ------------


          k = 0.0000 0.0000 0.0000 (  2815 PWs)   bands (ev):

   -77.0576 -76.9919 -40.4664 -40.1746 -40.1746 -40.1187 -40.1187 -40.1022
     9.9649  13.8067  16.4117  16.4117  16.4876  16.7569  16.7569  17.0477
    17.0477  18.2594  18.2594  19.0254  25.7814

     occupation numbers 
     1.0000   1.0000   1.0000   1.0000   1.0000   1.0000   1.0000   1.0000
     1.0000   1.0000   1.0000   1.0000   1.0000   1.0000   1.0000   1.0000
     1.0000   1.0000   1.0000   0.0000   0.0000

          k = 0.0000 0.0000 0.1050 (  2809 PWs)   bands (ev):

   -77.0532 -76.9963 -40.4423 -40.1709 -40.1709 -40.1269 -40.1225 -40.1225
    10.2534  13.7507  16.3300  16.3300  16.4086  16.6712  16.6712  17.2378
    17.2378  18.0195  18.2465  18.2465  27.3573

     occupation numbers 
     1.0000   1.0000   1.0000   1.0000   1.0000   1.0000   1.0000   1.0000
     1.0000   1.0000   1.0000   1.0000   1.0000   1.0000   1.0000   1.0000
     1.0000   1.0000   1.0000   1.0000   0.0000

          k = 0.0000 0.0000 0.2100 (  2785 PWs)   bands (ev):

   -77.0412 -77.0083 -40.3764 -40.1943 -40.1607 -40.1607 -40.1327 -40.1327
    11.0792  13.3446  16.2241  16.2629  16.2629  16.4844  16.4844  16.6145
    17.5991  17.5991  18.1588  18.1588  30.6754

     occupation numbers 
     1.0000   1.0000   1.0000   1.0000   1.0000   1.0000   1.0000   1.0000
     1.0000   1.0000   1.0000   1.0000   1.0000   1.0000   1.0000   1.0000
     1.0000   1.0000   1.0000   1.0000   0.0000

          k = 0.0000 0.0000-0.3150 (  2808 PWs)   bands (ev):

   -77.0248 -77.0248 -40.2857 -40.2857 -40.1467 -40.1467 -40.1467 -40.1467
    12.2750  12.2750  16.1294  16.1294  16.3203  16.3203  16.3203  16.3203
    17.9371  17.9371  17.9371  17.9371  34.6145

     occupation numbers 
     1.0000   1.0000   1.0000   1.0000   1.0000   1.0000   1.0000   1.0000
     1.0000   1.0000   1.0000   1.0000   1.0000   1.0000   1.0000   1.0000
     1.0000   1.0000   1.0000   1.0000   0.0000

          k = 0.0000 0.0962 0.0000 (  2805 PWs)   bands (ev):

   -77.0543 -76.9906 -40.4588 -40.1900 -40.1799 -40.1348 -40.1211 -40.1057
    10.2064  13.9478  16.1874  16.5261  16.6626  16.7207  16.8569  16.9034
    16.9739  17.4770  18.2930  20.1217  25.8197

     occupation numbers 
     1.0000   1.0000   1.0000   1.0000   1.0000   1.0000   1.0000   1.0000
     1.0000   1.0000   1.0000   1.0000   1.0000   1.0000   1.0000   1.0000
     1.0000   1.0000   1.0000   0.0000   0.0000

          k = 0.0000 0.0962 0.1050 (  2799 PWs)   bands (ev):

   -77.0500 -76.9949 -40.4362 -40.1856 -40.1759 -40.1484 -40.1251 -40.1198
    10.4903  13.9070  16.1756  16.4242  16.4672  16.5214  16.7644  17.1198
    17.1958  17.3373  18.2719  19.2940  27.4632

     occupation numbers 
     1.0000   1.0000   1.0000   1.0000   1.0000   1.0000   1.0000   1.0000
     1.0000   1.0000   1.0000   1.0000   1.0000   1.0000   1.0000   1.0000
     1.0000   1.0000   1.0000   0.0000   0.0000

          k = 0.0000 0.0962 0.2100 (  2796 PWs)   bands (ev):

   -77.0384 -77.0066 -40.3742 -40.2049 -40.1734 -40.1652 -40.1388 -40.1358
    11.3029  13.5311  16.0836  16.1598  16.2227  16.3508  16.5771  16.7114
    17.5746  17.6274  18.1661  18.4728  30.8242

     occupation numbers 
     1.0000   1.0000   1.0000   1.0000   1.0000   1.0000   1.0000   1.0000
     1.0000   1.0000   1.0000   1.0000   1.0000   1.0000   1.0000   1.0000
     1.0000   1.0000   1.0000   1.0000   0.0000

          k = 0.0000 0.0962-0.3150 (  2798 PWs)   bands (ev):

   -77.0225 -77.0225 -40.2894 -40.2894 -40.1566 -40.1566 -40.1505 -40.1505
    12.4796  12.4796  15.9424  15.9424  16.3706  16.3706  16.4108  16.4108
    17.9266  17.9266  18.0348  18.0348  34.7758

     occupation numbers 
     1.0000   1.0000   1.0000   1.0000   1.0000   1.0000   1.0000   1.0000
     1.0000   1.0000   1.0000   1.0000   1.0000   1.0000   1.0000   1.0000
     1.0000   1.0000   1.0000   1.0000   0.0000

          k = 0.0000 0.1925 0.0000 (  2803 PWs)   bands (ev):

   -77.0451 -76.9873 -40.4370 -40.2323 -40.1939 -40.1784 -40.1280 -40.1163
    10.9046  14.2963  15.8887  16.2228  16.5551  16.7921  16.8495  16.9800
    17.0639  17.1373  18.3658  21.7333  25.9534

     occupation numbers 
     1.0000   1.0000   1.0000   1.0000   1.0000   1.0000   1.0000   1.0000
     1.0000   1.0000   1.0000   1.0000   1.0000   1.0000   1.0000   1.0000
     1.0000   1.0000   1.0000   0.0000   0.0000

          k = 0.0000 0.1925 0.1050 (  2790 PWs)   bands (ev):

   -77.0413 -76.9911 -40.4193 -40.2256 -40.1937 -40.1895 -40.1324 -40.1260
    11.1718  14.3015  15.9141  15.9510  16.4362  16.6189  16.8464  17.0062
    17.1893  17.3258  18.3261  20.5586  27.8065

     occupation numbers 
     1.0000   1.0000   1.0000   1.0000   1.0000   1.0000   1.0000   1.0000
     1.0000   1.0000   1.0000   1.0000   1.0000   1.0000   1.0000   1.0000
     1.0000   1.0000   1.0000   0.0000   0.0000

          k = 0.0000 0.1925 0.2100 (  2792 PWs)   bands (ev):

   -77.0307 -77.0018 -40.3709 -40.2406 -40.2046 -40.1775 -40.1494 -40.1445
    11.9330  14.0154  15.5667  15.9742  16.1518  16.5647  16.6485  16.8355
    17.5504  17.7357  18.1815  19.1457  31.2669

     occupation numbers 
     1.0000   1.0000   1.0000   1.0000   1.0000   1.0000   1.0000   1.0000
     1.0000   1.0000   1.0000   1.0000   1.0000   1.0000   1.0000   1.0000
     1.0000   1.0000   1.0000   0.0000   0.0000

          k = 0.0000 0.1925-0.3150 (  2792 PWs)   bands (ev):

   -77.0162 -77.0162 -40.3050 -40.3050 -40.1780 -40.1780 -40.1610 -40.1610
    13.0294  13.0294  15.6844  15.6844  16.3300  16.3300  16.6527  16.6527
    17.9112  17.9112  18.2964  18.2964  35.1914

     occupation numbers 
     1.0000   1.0000   1.0000   1.0000   1.0000   1.0000   1.0000   1.0000
     1.0000   1.0000   1.0000   1.0000   1.0000   1.0000   1.0000   1.0000
     1.0000   1.0000   1.0000   1.0000   0.0000

          k = 0.0000 0.2887 0.0000 (  2788 PWs)   bands (ev):

   -77.0321 -76.9832 -40.4042 -40.2906 -40.2369 -40.2125 -40.1378 -40.1338
    11.9623  14.5798  15.4866  15.6939  16.4769  16.5736  16.8707  17.3184
    17.4044  17.5409  18.4368  23.5481  26.2011

     occupation numbers 
     1.0000   1.0000   1.0000   1.0000   1.0000   1.0000   1.0000   1.0000
     1.0000   1.0000   1.0000   1.0000   1.0000   1.0000   1.0000   1.0000
     1.0000   1.0000   1.0000   0.0000   0.0000

          k = 0.0000 0.2887 0.1050 (  2801 PWs)   bands (ev):

   -77.0288 -76.9865 -40.3980 -40.2775 -40.2513 -40.2075 -40.1429 -40.1391
    12.1853  14.6398  15.3321  15.7469  16.3130  16.6107  16.8807  17.3724
    17.4879  17.5215  18.3784  21.8667  28.4078

     occupation numbers 
     1.0000   1.0000   1.0000   1.0000   1.0000   1.0000   1.0000   1.0000
     1.0000   1.0000   1.0000   1.0000   1.0000   1.0000   1.0000   1.0000
     1.0000   1.0000   1.0000   0.0000   0.0000

          k = 0.0000 0.2887 0.2100 (  2810 PWs)   bands (ev):

   -77.0199 -76.9955 -40.3767 -40.2956 -40.2356 -40.1939 -40.1585 -40.1566
    12.8055  14.4490  15.2125  15.8094  16.1481  16.7080  16.7346  17.2042
    17.6641  17.9128  18.2064  19.9434  31.7564

     occupation numbers 
     1.0000   1.0000   1.0000   1.0000   1.0000   1.0000   1.0000   1.0000
     1.0000   1.0000   1.0000   1.0000   1.0000   1.0000   1.0000   1.0000
     1.0000   1.0000   1.0000   0.0000   0.0000

          k = 0.0000 0.2887-0.3150 (  2810 PWs)   bands (ev):

   -77.0077 -77.0077 -40.3399 -40.3399 -40.1934 -40.1934 -40.1752 -40.1752
    13.6613  13.6613  15.5291  15.5291  16.3814  16.3814  16.9474  16.9474
    17.9473  17.9473  18.6575  18.6575  33.4800

     occupation numbers 
     1.0000   1.0000   1.0000   1.0000   1.0000   1.0000   1.0000   1.0000
     1.0000   1.0000   1.0000   1.0000   1.0000   1.0000   1.0000   1.0000
     1.0000   1.0000   1.0000   1.0000   0.0000

          k = 0.0000 0.3849 0.0000 (  2810 PWs)   bands (ev):

   -77.0180 -76.9802 -40.3657 -40.3495 -40.2943 -40.2306 -40.1571 -40.1482
    13.1245  14.5209  14.9438  15.7807  16.3773  16.6030  16.7080  17.8173
    17.9802  18.0732  18.4874  25.5192  26.0999

     occupation numbers 
     1.0000   1.0000   1.0000   1.0000   1.0000   1.0000   1.0000   1.0000
     1.0000   1.0000   1.0000   1.0000   1.0000   1.0000   1.0000   1.0000
     1.0000   1.0000   1.0000   0.0000   0.0000

          k = 0.0000 0.3849 0.1050 (  2806 PWs)   bands (ev):

   -77.0155 -76.9828 -40.3922 -40.3201 -40.2970 -40.2251 -40.1573 -40.1537
    13.2320  14.5732  14.9671  15.6697  16.4743  16.4873  17.0453  17.8482
    17.8799  18.0092  18.4204  23.1082  28.0698

     occupation numbers 
     1.0000   1.0000   1.0000   1.0000   1.0000   1.0000   1.0000   1.0000
     1.0000   1.0000   1.0000   1.0000   1.0000   1.0000   1.0000   1.0000
     1.0000   1.0000   1.0000   0.0000   0.0000

          k = 0.0000 0.3849 0.2100 (  2807 PWs)   bands (ev):

   -77.0086 -76.9897 -40.4014 -40.3518 -40.2459 -40.2100 -40.1688 -40.1676
    13.5306  14.4148  15.0941  15.6394  16.5437  16.7483  17.3103  17.5626
    17.9616  18.1445  18.2731  20.8330  29.1035

     occupation numbers 
     1.0000   1.0000   1.0000   1.0000   1.0000   1.0000   1.0000   1.0000
     1.0000   1.0000   1.0000   1.0000   1.0000   1.0000   1.0000   1.0000
     1.0000   1.0000   1.0000   0.0000   0.0000

          k = 0.0000 0.3849-0.3150 (  2802 PWs)   bands (ev):

   -76.9991 -76.9991 -40.3855 -40.3855 -40.1979 -40.1979 -40.1895 -40.1895
    13.9622  13.9622  15.4186  15.4186  16.9615  16.9615  17.1442  17.1442
    18.1097  18.1097  19.1401  19.1401  30.2654

     occupation numbers 
     1.0000   1.0000   1.0000   1.0000   1.0000   1.0000   1.0000   1.0000
     1.0000   1.0000   1.0000   1.0000   1.0000   1.0000   1.0000   1.0000
     1.0000   1.0000   0.0000   0.0000   0.0000

          k = 0.0000 0.4811 0.0000 (  2820 PWs)   bands (ev):

   -77.0063 -76.9794 -40.3929 -40.3356 -40.3299 -40.2436 -40.1818 -40.1559
    13.9087  14.3355  14.6168  16.1278  16.2434  16.5944  16.8027  18.1889
    18.3465  18.5156  19.1598  24.0404  27.5451

     occupation numbers 
     1.0000   1.0000   1.0000   1.0000   1.0000   1.0000   1.0000   1.0000
     1.0000   1.0000   1.0000   1.0000   1.0000   1.0000   1.0000   1.0000
     1.0000   1.0000   0.0000   0.0000   0.0000

          k = 0.0000 0.4811 0.1050 (  2800 PWs)   bands (ev):

   -77.0045 -76.9812 -40.4140 -40.3557 -40.2934 -40.2377 -40.1768 -40.1618
    13.8056  14.3463  14.9350  15.5767  16.3636  16.7777  17.3811  18.1629
    18.2486  18.4630  18.9938  23.3120  26.7241

     occupation numbers 
     1.0000   1.0000   1.0000   1.0000   1.0000   1.0000   1.0000   1.0000
     1.0000   1.0000   1.0000   1.0000   1.0000   1.0000   1.0000   1.0000
     1.0000   1.0000   0.1820   0.0000   0.0000

          k = 0.0000 0.4811 0.2100 (  2812 PWs)   bands (ev):

   -76.9996 -76.9861 -40.4305 -40.3926 -40.2398 -40.2217 -40.1779 -40.1768
    13.7831  14.2852  15.0868  15.4573  16.7049  16.9842  17.7583  18.2676
    18.3742  18.3981  18.6405  21.6061  26.7956

     occupation numbers 
     1.0000   1.0000   1.0000   1.0000   1.0000   1.0000   1.0000   1.0000
     1.0000   1.0000   1.0000   1.0000   1.0000   1.0000   1.0000   1.0000
     1.0000   1.0000   1.0000   0.0000   0.0000

          k = 0.0000 0.4811-0.3150 (  2810 PWs)   bands (ev):

   -76.9928 -76.9928 -40.4223 -40.4223 -40.1999 -40.1999 -40.1975 -40.1975
    13.9805  13.9805  15.3037  15.3037  17.2072  17.2072  17.7031  17.7031
    18.3307  18.3307  19.9238  19.9238  27.5881

     occupation numbers 
     1.0000   1.0000   1.0000   1.0000   1.0000   1.0000   1.0000   1.0000
     1.0000   1.0000   1.0000   1.0000   1.0000   1.0000   1.0000   1.0000
     1.0000   1.0000   0.0000   0.0000   0.0000

          k = 0.0000-0.5774 0.0000 (  2806 PWs)   bands (ev):

   -77.0013 -76.9798 -40.4089 -40.3506 -40.3131 -40.2483 -40.1945 -40.1588
    14.1851  14.1897  14.5079  16.1962  16.3689  16.5536  16.8826  18.3228
    18.4952  18.5244  20.2897  22.3074  28.8517

     occupation numbers 
     1.0000   1.0000   1.0000   1.0000   1.0000   1.0000   1.0000   1.0000
     1.0000   1.0000   1.0000   1.0000   1.0000   1.0000   1.0000   1.0000
     1.0000   1.0000   0.0000   0.0000   0.0000

          k = 0.0000-0.5774 0.1050 (  2810 PWs)   bands (ev):

   -76.9999 -76.9812 -40.4262 -40.3700 -40.2838 -40.2423 -40.1869 -40.1648
    13.9167  14.2442  14.9754  15.5517  16.3229  16.8727  17.5738  18.2508
    18.4153  18.4865  20.0758  22.1345  27.9193

     occupation numbers 
     1.0000   1.0000   1.0000   1.0000   1.0000   1.0000   1.0000   1.0000
     1.0000   1.0000   1.0000   1.0000   1.0000   1.0000   1.0000   1.0000
     1.0000   1.0000   0.0000   0.0000   0.0000

          k = 0.0000-0.5774 0.2100 (  2822 PWs)   bands (ev):

   -76.9959 -76.9852 -40.4427 -40.4075 -40.2348 -40.2260 -40.1815 -40.1813
    13.8060  14.2352  15.1089  15.3758  16.6836  17.1367  17.8056  18.4011
    18.4627  18.4902  19.7232  21.5431  26.7753

     occupation numbers 
     1.0000   1.0000   1.0000   1.0000   1.0000   1.0000   1.0000   1.0000
     1.0000   1.0000   1.0000   1.0000   1.0000   1.0000   1.0000   1.0000
     1.0000   1.0000   0.0000   0.0000   0.0000

          k = 0.0000-0.5774-0.3150 (  2820 PWs)   bands (ev):

   -76.9905 -76.9905 -40.4362 -40.4362 -40.2037 -40.2037 -40.1969 -40.1969
    13.9618  13.9618  15.2570  15.2570  17.2165  17.2165  17.9633  17.9633
    18.4304  18.4304  20.5311  20.5311  26.3614

     occupation numbers 
     1.0000   1.0000   1.0000   1.0000   1.0000   1.0000   1.0000   1.0000
     1.0000   1.0000   1.0000   1.0000   1.0000   1.0000   1.0000   1.0000
     1.0000   1.0000   0.0000   0.0000   0.0000

          k = 0.0833 0.1443 0.0000 (  2808 PWs)   bands (ev):

   -77.0481 -76.9883 -40.4441 -40.2161 -40.1952 -40.1597 -40.1278 -40.1128
    10.6770  14.1980  15.9536  16.4687  16.6113  16.7601  16.7757  16.8350
    17.0812  17.1753  18.3373  21.2812  25.9078

     occupation numbers 
     1.0000   1.0000   1.0000   1.0000   1.0000   1.0000   1.0000   1.0000
     1.0000   1.0000   1.0000   1.0000   1.0000   1.0000   1.0000   1.0000
     1.0000   1.0000   1.0000   0.0000   0.0000

          k = 0.0833 0.1443 0.1050 (  2801 PWs)   bands (ev):

   -77.0441 -76.9923 -40.4246 -40.2102 -40.1937 -40.1728 -40.1320 -40.1230
    10.9505  14.1884  15.9741  16.1261  16.4766  16.5942  16.8129  16.9252
    17.2402  17.2805  18.3065  20.2157  27.6900

     occupation numbers 
     1.0000   1.0000   1.0000   1.0000   1.0000   1.0000   1.0000   1.0000
     1.0000   1.0000   1.0000   1.0000   1.0000   1.0000   1.0000   1.0000
     1.0000   1.0000   1.0000   0.0000   0.0000

          k = 0.0833 0.1443 0.2100 (  2793 PWs)   bands (ev):

   -77.0332 -77.0033 -40.3714 -40.2284 -40.1938 -40.1757 -40.1446 -40.1435
    11.7316  13.8730  15.6963  16.0224  16.1665  16.5092  16.6574  16.7533
    17.5817  17.6728  18.1818  18.9507  31.1234

     occupation numbers 
     1.0000   1.0000   1.0000   1.0000   1.0000   1.0000   1.0000   1.0000
     1.0000   1.0000   1.0000   1.0000   1.0000   1.0000   1.0000   1.0000
     1.0000   1.0000   1.0000   0.9998   0.0000

          k = 0.0833 0.1443-0.3150 (  2782 PWs)   bands (ev):

   -77.0182 -77.0182 -40.2989 -40.2989 -40.1723 -40.1723 -40.1578 -40.1578
    12.8605  12.8605  15.7473  15.7473  16.3279  16.3279  16.5902  16.5902
    17.9173  17.9173  18.2145  18.2145  35.0828

     occupation numbers 
     1.0000   1.0000   1.0000   1.0000   1.0000   1.0000   1.0000   1.0000
     1.0000   1.0000   1.0000   1.0000   1.0000   1.0000   1.0000   1.0000
     1.0000   1.0000   1.0000   1.0000   0.0000

          k = 0.0833 0.2406 0.0000 (  2806 PWs)   bands (ev):

   -77.0369 -76.9846 -40.4167 -40.2624 -40.2311 -40.1920 -40.1393 -40.1269
    11.5631  14.5547  15.6621  15.7588  16.5043  16.5524  17.0135  17.0874
    17.1869  17.4971  18.3939  22.8935  26.1223

     occupation numbers 
     1.0000   1.0000   1.0000   1.0000   1.0000   1.0000   1.0000   1.0000
     1.0000   1.0000   1.0000   1.0000   1.0000   1.0000   1.0000   1.0000
     1.0000   1.0000   1.0000   0.0000   0.0000

          k = 0.0833 0.2406 0.1050 (  2803 PWs)   bands (ev):

   -77.0334 -76.9881 -40.4049 -40.2531 -40.2370 -40.1971 -40.1443 -40.1323
    11.8082  14.6051  15.5371  15.7117  16.3656  16.6176  16.8079  17.1599
    17.4054  17.4931  18.3545  21.4168  28.1879

     occupation numbers 
     1.0000   1.0000   1.0000   1.0000   1.0000   1.0000   1.0000   1.0000
     1.0000   1.0000   1.0000   1.0000   1.0000   1.0000   1.0000   1.0000
     1.0000   1.0000   1.0000   0.0000   0.0000

          k = 0.0833 0.2406 0.2100 (  2806 PWs)   bands (ev):

   -77.0239 -76.9977 -40.3717 -40.2739 -40.2230 -40.1930 -40.1578 -40.1501
    12.4997  14.3905  15.2976  15.8171  16.1059  16.5387  16.7174  17.0720
    17.6709  17.8141  18.2248  19.6666  31.6962

     occupation numbers 
     1.0000   1.0000   1.0000   1.0000   1.0000   1.0000   1.0000   1.0000
     1.0000   1.0000   1.0000   1.0000   1.0000   1.0000   1.0000   1.0000
     1.0000   1.0000   1.0000   0.0000   0.0000

          k = 0.0833 0.2406-0.3150 (  2790 PWs)   bands (ev):

   -77.0108 -77.0108 -40.3239 -40.3239 -40.1918 -40.1918 -40.1693 -40.1693
    13.4807  13.4807  15.5767  15.5767  16.2281  16.2281  16.8702  16.8702
    17.9585  17.9585  18.5280  18.5280  35.1033

     occupation numbers 
     1.0000   1.0000   1.0000   1.0000   1.0000   1.0000   1.0000   1.0000
     1.0000   1.0000   1.0000   1.0000   1.0000   1.0000   1.0000   1.0000
     1.0000   1.0000   1.0000   1.0000   0.0000

          k = 0.0833 0.3368 0.0000 (  2796 PWs)   bands (ev):

   -77.0233 -76.9812 -40.3808 -40.3197 -40.2773 -40.2210 -40.1517 -40.1476
    12.7079  14.6799  15.1648  15.5639  16.3618  16.5291  16.8281  17.4782
    17.6933  18.0609  18.4428  24.7475  26.4092

     occupation numbers 
     1.0000   1.0000   1.0000   1.0000   1.0000   1.0000   1.0000   1.0000
     1.0000   1.0000   1.0000   1.0000   1.0000   1.0000   1.0000   1.0000
     1.0000   1.0000   1.0000   0.0000   0.0000

          k = 0.0833 0.3368 0.1050 (  2805 PWs)   bands (ev):

   -77.0205 -76.9840 -40.3880 -40.3031 -40.2811 -40.2206 -40.1588 -40.1467
    12.8808  14.7639  15.0601  15.6217  16.2779  16.5980  16.8173  17.4858
    17.7968  17.9369  18.4335  22.6975  28.8126

     occupation numbers 
     1.0000   1.0000   1.0000   1.0000   1.0000   1.0000   1.0000   1.0000
     1.0000   1.0000   1.0000   1.0000   1.0000   1.0000   1.0000   1.0000
     1.0000   1.0000   1.0000   0.0000   0.0000

          k = 0.0833 0.3368 0.2100 (  2804 PWs)   bands (ev):

   -77.0128 -76.9917 -40.3861 -40.3281 -40.2433 -40.2105 -40.1740 -40.1567
    13.3480  14.5640  15.1376  15.7357  16.1687  16.6470  16.8211  17.4181
    17.9048  18.0752  18.3794  20.5352  30.7427

     occupation numbers 
     1.0000   1.0000   1.0000   1.0000   1.0000   1.0000   1.0000   1.0000
     1.0000   1.0000   1.0000   1.0000   1.0000   1.0000   1.0000   1.0000
     1.0000   1.0000   1.0000   0.0000   0.0000

          k = 0.0833 0.3368-0.3150 (  2800 PWs)   bands (ev):

   -77.0023 -77.0023 -40.3637 -40.3637 -40.2065 -40.2065 -40.1792 -40.1792
    13.9699  13.9699  15.5102  15.5102  16.3819  16.3819  17.0836  17.0836
    18.1403  18.1403  18.9924  18.9924  31.9650

     occupation numbers 
     1.0000   1.0000   1.0000   1.0000   1.0000   1.0000   1.0000   1.0000
     1.0000   1.0000   1.0000   1.0000   1.0000   1.0000   1.0000   1.0000
     1.0000   1.0000   0.2226   0.2226   0.0000

          k = 0.0833 0.4330 0.0000 (  2806 PWs)   bands (ev):

   -77.0102 -76.9795 -40.3707 -40.3425 -40.3187 -40.2430 -40.1727 -40.1623
    13.7294  14.5129  14.7588  15.7761  16.2330  16.6512  16.7220  17.9634
    18.1293  18.4745  18.8562  25.4269  26.7540

     occupation numbers 
     1.0000   1.0000   1.0000   1.0000   1.0000   1.0000   1.0000   1.0000
     1.0000   1.0000   1.0000   1.0000   1.0000   1.0000   1.0000   1.0000
     1.0000   1.0000   1.0000   0.0000   0.0000

          k = 0.0833 0.4330 0.1050 (  2810 PWs)   bands (ev):

   -77.0081 -76.9815 -40.3977 -40.3405 -40.2966 -40.2386 -40.1749 -40.1617
    13.7307  14.5565  14.9017  15.5755  16.3177  16.6894  16.9944  17.9075
    18.1979  18.2683  18.8666  23.7218  27.1579

     occupation numbers 
     1.0000   1.0000   1.0000   1.0000   1.0000   1.0000   1.0000   1.0000
     1.0000   1.0000   1.0000   1.0000   1.0000   1.0000   1.0000   1.0000
     1.0000   1.0000   1.0000   0.0000   0.0000

          k = 0.0833 0.4330 0.2100 (  2808 PWs)   bands (ev):

   -77.0025 -76.9871 -40.4133 -40.3741 -40.2492 -40.2202 -40.1889 -40.1642
    13.8296  14.4411  15.0839  15.6026  16.4299  16.8650  17.3482  17.6367
    18.0983  18.3897  18.9327  21.5278  27.8556

     occupation numbers 
     1.0000   1.0000   1.0000   1.0000   1.0000   1.0000   1.0000   1.0000
     1.0000   1.0000   1.0000   1.0000   1.0000   1.0000   1.0000   1.0000
     1.0000   1.0000   1.0000   0.0000   0.0000

          k = 0.0833 0.4330-0.3150 (  2808 PWs)   bands (ev):

   -76.9948 -76.9948 -40.4037 -40.4037 -40.2179 -40.2179 -40.1833 -40.1833
    14.0924  14.0924  15.4077  15.4077  16.8843  16.8843  17.2808  17.2808
    18.3399  18.3399  19.8064  19.8064  28.9328

     occupation numbers 
     1.0000   1.0000   1.0000   1.0000   1.0000   1.0000   1.0000   1.0000
     1.0000   1.0000   1.0000   1.0000   1.0000   1.0000   1.0000   1.0000
     1.0000   1.0000   0.0000   0.0000   0.0000

          k = 0.0833 0.5292 0.0000 (  2816 PWs)   bands (ev):

   -77.0013 -76.9798 -40.4004 -40.3429 -40.3133 -40.2550 -40.1943 -40.1685
    14.2022  14.3499  14.5545  16.1296  16.1743  16.5391  16.8780  18.3054
    18.3759  18.4892  20.1131  23.0600  28.6600

     occupation numbers 
     1.0000   1.0000   1.0000   1.0000   1.0000   1.0000   1.0000   1.0000
     1.0000   1.0000   1.0000   1.0000   1.0000   1.0000   1.0000   1.0000
     1.0000   1.0000   0.0000   0.0000   0.0000

          k = 0.0833 0.5292 0.1050 (  2810 PWs)   bands (ev):

   -76.9999 -76.9812 -40.4176 -40.3628 -40.2873 -40.2458 -40.1906 -40.1702
    13.9939  14.3755  14.9956  15.5266  16.2374  16.9025  17.2304  18.2114
    18.3639  18.4196  20.0433  22.8135  27.3122

     occupation numbers 
     1.0000   1.0000   1.0000   1.0000   1.0000   1.0000   1.0000   1.0000
     1.0000   1.0000   1.0000   1.0000   1.0000   1.0000   1.0000   1.0000
     1.0000   1.0000   0.0000   0.0000   0.0000

          k = 0.0833 0.5292 0.2100 (  2814 PWs)   bands (ev):

   -76.9959 -76.9851 -40.4342 -40.3999 -40.2524 -40.2169 -40.2004 -40.1701
    13.9091  14.3626  15.1143  15.4774  16.4196  17.1877  17.6466  17.8613
    18.3091  18.5149  20.0811  21.9768  26.5044

     occupation numbers 
     1.0000   1.0000   1.0000   1.0000   1.0000   1.0000   1.0000   1.0000
     1.0000   1.0000   1.0000   1.0000   1.0000   1.0000   1.0000   1.0000
     1.0000   1.0000   0.0000   0.0000   0.0000

          k = 0.0833 0.5292-0.3150 (  2808 PWs)   bands (ev):

   -76.9905 -76.9905 -40.4281 -40.4281 -40.2249 -40.2249 -40.1839 -40.1839
    14.0756  14.0756  15.3262  15.3262  17.0009  17.0009  17.7129  17.7129
    18.3814  18.3814  20.8409  20.8409  26.7661

     occupation numbers 
     1.0000   1.0000   1.0000   1.0000   1.0000   1.0000   1.0000   1.0000
     1.0000   1.0000   1.0000   1.0000   1.0000   1.0000   1.0000   1.0000
     1.0000   1.0000   0.0000   0.0000   0.0000

          k = 0.1667 0.2887 0.0000 (  2802 PWs)   bands (ev):

   -77.0252 -76.9815 -40.3860 -40.2953 -40.2853 -40.2099 -40.1599 -40.1444
    12.5608  14.8418  15.2796  15.3591  16.3012  16.5183  16.9097  17.2600
    17.6819  18.0767  18.4067  24.4860  26.4780

     occupation numbers 
     1.0000   1.0000   1.0000   1.0000   1.0000   1.0000   1.0000   1.0000
     1.0000   1.0000   1.0000   1.0000   1.0000   1.0000   1.0000   1.0000
     1.0000   1.0000   1.0000   0.0000   0.0000

          k = 0.1667 0.2887 0.1050 (  2796 PWs)   bands (ev):

   -77.0223 -76.9845 -40.3873 -40.2919 -40.2758 -40.2175 -40.1647 -40.1438
    12.7559  14.9462  15.1395  15.4145  16.2889  16.5279  16.7669  17.3165
    17.8143  17.9283  18.4441  22.5586  28.8781

     occupation numbers 
     1.0000   1.0000   1.0000   1.0000   1.0000   1.0000   1.0000   1.0000
     1.0000   1.0000   1.0000   1.0000   1.0000   1.0000   1.0000   1.0000
     1.0000   1.0000   1.0000   0.0000   0.0000

          k = 0.1667 0.2887 0.2100 (  2801 PWs)   bands (ev):

   -77.0143 -76.9925 -40.3790 -40.3180 -40.2358 -40.2191 -40.1763 -40.1532
    13.2897  14.6903  15.2304  15.5780  16.1275  16.3836  16.7447  17.3560
    17.9377  18.0346  18.4574  20.4568  32.2566

     occupation numbers 
     1.0000   1.0000   1.0000   1.0000   1.0000   1.0000   1.0000   1.0000
     1.0000   1.0000   1.0000   1.0000   1.0000   1.0000   1.0000   1.0000
     1.0000   1.0000   1.0000   0.0000   0.0000

          k = 0.1667 0.2887-0.3150 (  2796 PWs)   bands (ev):

   -77.0034 -77.0034 -40.3534 -40.3534 -40.2119 -40.2119 -40.1755 -40.1755
    14.0079  14.0079  15.5774  15.5774  16.0741  16.0741  17.0343  17.0343
    18.1933  18.1933  18.9695  18.9695  33.6615

     occupation numbers 
     1.0000   1.0000   1.0000   1.0000   1.0000   1.0000   1.0000   1.0000
     1.0000   1.0000   1.0000   1.0000   1.0000   1.0000   1.0000   1.0000
     1.0000   1.0000   0.9471   0.9471   0.0000

          k = 0.1667 0.3849 0.0000 (  2809 PWs)   bands (ev):

   -77.0124 -76.9796 -40.3493 -40.3412 -40.3168 -40.2383 -40.1796 -40.1679
    13.6584  14.8403  14.8971  15.3083  16.1485  16.6681  16.7250  17.5614
    18.1358  18.4140  18.8680  26.3557  26.6985

     occupation numbers 
     1.0000   1.0000   1.0000   1.0000   1.0000   1.0000   1.0000   1.0000
     1.0000   1.0000   1.0000   1.0000   1.0000   1.0000   1.0000   1.0000
     1.0000   1.0000   1.0000   0.0000   0.0000

          k = 0.1667 0.3849 0.1050 (  2807 PWs)   bands (ev):

   -77.0102 -76.9818 -40.3799 -40.3356 -40.2869 -40.2447 -40.1858 -40.1601
    13.7459  14.8198  14.9585  15.4004  16.2169  16.6169  16.6836  17.5810
    18.1660  18.2338  18.9782  23.8391  28.5785

     occupation numbers 
     1.0000   1.0000   1.0000   1.0000   1.0000   1.0000   1.0000   1.0000
     1.0000   1.0000   1.0000   1.0000   1.0000   1.0000   1.0000   1.0000
     1.0000   1.0000   0.7608   0.0000   0.0000

          k = 0.1667 0.3849 0.2100 (  2800 PWs)   bands (ev):

   -77.0042 -76.9878 -40.3946 -40.3590 -40.2519 -40.2343 -40.1946 -40.1586
    13.9809  14.6195  15.2226  15.6633  16.1423  16.4340  16.7972  17.5123
    18.0481  18.4011  19.1717  21.5574  29.5238

     occupation numbers 
     1.0000   1.0000   1.0000   1.0000   1.0000   1.0000   1.0000   1.0000
     1.0000   1.0000   1.0000   1.0000   1.0000   1.0000   1.0000   1.0000
     1.0000   1.0000   0.0000   0.0000   0.0000

          k = 0.1667 0.3849-0.3150 (  2798 PWs)   bands (ev):

   -76.9960 -76.9960 -40.3851 -40.3851 -40.2348 -40.2348 -40.1765 -40.1765
    14.3015  14.3015  15.5935  15.5935  16.2039  16.2039  17.0739  17.0739
    18.4039  18.4039  19.8998  19.8998  30.7190

     occupation numbers 
     1.0000   1.0000   1.0000   1.0000   1.0000   1.0000   1.0000   1.0000
     1.0000   1.0000   1.0000   1.0000   1.0000   1.0000   1.0000   1.0000
     1.0000   1.0000   0.0000   0.0000   0.0000

          k = 0.1667 0.4811 0.0000 (  2816 PWs)   bands (ev):

   -77.0014 -76.9797 -40.3782 -40.3303 -40.3137 -40.2660 -40.1939 -40.1928
    14.3675  14.6445  14.6582  15.6029  16.1015  16.5303  16.8726  17.9560
    18.3715  18.4176  20.0258  24.7026  28.3744

     occupation numbers 
     1.0000   1.0000   1.0000   1.0000   1.0000   1.0000   1.0000   1.0000
     1.0000   1.0000   1.0000   1.0000   1.0000   1.0000   1.0000   1.0000
     1.0000   1.0000   0.0000   0.0000   0.0000

          k = 0.1667 0.4811 0.1050 (  2815 PWs)   bands (ev):

   -76.9999 -76.9812 -40.3949 -40.3525 -40.2907 -40.2557 -40.2043 -40.1767
    14.2259  14.7216  14.9113  15.4501  16.1573  16.6447  16.9209  17.9352
    18.1975  18.4422  20.1173  24.2078  27.0473

     occupation numbers 
     1.0000   1.0000   1.0000   1.0000   1.0000   1.0000   1.0000   1.0000
     1.0000   1.0000   1.0000   1.0000   1.0000   1.0000   1.0000   1.0000
     1.0000   1.0000   0.0000   0.0000   0.0000

          k = 0.1667 0.4811 0.2100 (  2804 PWs)   bands (ev):

   -76.9960 -76.9851 -40.4128 -40.3844 -40.2746 -40.2335 -40.2037 -40.1656
    14.1965  14.6552  15.1200  15.7034  16.0413  16.7494  17.1140  17.6146
    18.1270  18.5296  20.4429  22.7116  27.0545

     occupation numbers 
     1.0000   1.0000   1.0000   1.0000   1.0000   1.0000   1.0000   1.0000
     1.0000   1.0000   1.0000   1.0000   1.0000   1.0000   1.0000   1.0000
     1.0000   1.0000   0.0000   0.0000   0.0000

          k = 0.1667 0.4811-0.3150 (  2810 PWs)   bands (ev):

   -76.9905 -76.9905 -40.4091 -40.4091 -40.2526 -40.2526 -40.1755 -40.1755
    14.3642  14.3642  15.4988  15.4988  16.4626  16.4626  17.2675  17.2675
    18.4098  18.4098  21.2749  21.2749  27.9496

     occupation numbers 
     1.0000   1.0000   1.0000   1.0000   1.0000   1.0000   1.0000   1.0000
     1.0000   1.0000   1.0000   1.0000   1.0000   1.0000   1.0000   1.0000
     1.0000   1.0000   0.0000   0.0000   0.0000

          k = 0.1667 0.5774 0.0000 (  2818 PWs)   bands (ev):

   -76.9965 -76.9807 -40.3916 -40.3336 -40.2955 -40.2781 -40.2085 -40.1974
    14.5475  14.5487  14.5776  15.8185  16.1093  16.4349  16.9599  18.2223
    18.3613  18.4184  21.2660  22.8589  29.2038

     occupation numbers 
     1.0000   1.0000   1.0000   1.0000   1.0000   1.0000   1.0000   1.0000
     1.0000   1.0000   1.0000   1.0000   1.0000   1.0000   1.0000   1.0000
     1.0000   1.0000   0.0000   0.0000   0.0000

          k = 0.1667 0.5774 0.1050 (  2818 PWs)   bands (ev):

   -76.9954 -76.9817 -40.4049 -40.3547 -40.2980 -40.2471 -40.2156 -40.1843
    14.2575  14.6319  15.0791  15.4355  16.0798  16.7599  17.0104  18.1645
    18.2176  18.4278  21.3747  22.8125  28.3670

     occupation numbers 
     1.0000   1.0000   1.0000   1.0000   1.0000   1.0000   1.0000   1.0000
     1.0000   1.0000   1.0000   1.0000   1.0000   1.0000   1.0000   1.0000
     1.0000   1.0000   0.0000   0.0000   0.0000

          k = 0.1667 0.5774 0.2100 (  2815 PWs)   bands (ev):

   -76.9925 -76.9846 -40.4212 -40.3921 -40.2835 -40.2342 -40.2038 -40.1694
    14.1954  14.6653  15.1579  15.6661  15.9539  16.9574  17.2311  17.6884
    18.2323  18.4696  21.6981  22.6226  27.0584

     occupation numbers 
     1.0000   1.0000   1.0000   1.0000   1.0000   1.0000   1.0000   1.0000
     1.0000   1.0000   1.0000   1.0000   1.0000   1.0000   1.0000   1.0000
     1.0000   1.0000   0.0000   0.0000   0.0000

          k = 0.1667 0.5774-0.3150 (  2822 PWs)   bands (ev):

   -76.9886 -76.9886 -40.4179 -40.4179 -40.2593 -40.2593 -40.1748 -40.1748
    14.3661  14.3661  15.4582  15.4582  16.5077  16.5077  17.4688  17.4688
    18.3477  18.3477  22.2003  22.2003  26.5554

     occupation numbers 
     1.0000   1.0000   1.0000   1.0000   1.0000   1.0000   1.0000   1.0000
     1.0000   1.0000   1.0000   1.0000   1.0000   1.0000   1.0000   1.0000
     1.0000   1.0000   0.0000   0.0000   0.0000

          k = 0.2500 0.4330 0.0000 (  2814 PWs)   bands (ev):

   -77.0014 -76.9797 -40.3588 -40.3342 -40.3139 -40.2638 -40.2107 -40.1937
    14.4870  14.7168  15.0234  15.0961  16.0503  16.5347  16.8773  17.7433
    18.3810  18.3818  20.0305  26.4975  27.1659

     occupation numbers 
     1.0000   1.0000   1.0000   1.0000   1.0000   1.0000   1.0000   1.0000
     1.0000   1.0000   1.0000   1.0000   1.0000   1.0000   1.0000   1.0000
     1.0000   1.0000   0.0000   0.0000   0.0000

          k = 0.2500 0.4330 0.1050 (  2819 PWs)   bands (ev):

   -77.0000 -76.9811 -40.3709 -40.3623 -40.2784 -40.2709 -40.2141 -40.1784
    14.5031  14.6662  15.1133  15.2198  16.2042  16.3853  16.8567  17.7662
    18.1496  18.4514  20.1689  25.0691  27.4643

     occupation numbers 
     1.0000   1.0000   1.0000   1.0000   1.0000   1.0000   1.0000   1.0000
     1.0000   1.0000   1.0000   1.0000   1.0000   1.0000   1.0000   1.0000
     1.0000   1.0000   0.0000   0.0000   0.0000

          k = 0.2500 0.4330 0.2100 (  2815 PWs)   bands (ev):

   -76.9960 -76.9851 -40.3964 -40.3793 -40.2830 -40.2500 -40.2016 -40.1645
    14.5266  14.6164  15.2946  15.6322  16.0454  16.3195  16.8687  17.5334
    18.0991  18.5355  20.5638  23.0111  28.2838

     occupation numbers 
     1.0000   1.0000   1.0000   1.0000   1.0000   1.0000   1.0000   1.0000
     1.0000   1.0000   1.0000   1.0000   1.0000   1.0000   1.0000   1.0000
     1.0000   1.0000   0.0000   0.0000   0.0000

          k = 0.2500 0.4330-0.3150 (  2806 PWs)   bands (ev):

   -76.9905 -76.9905 -40.3973 -40.3973 -40.2671 -40.2671 -40.1729 -40.1729
    14.5677  14.5677  15.6394  15.6394  16.0858  16.0858  17.0781  17.0781
    18.4300  18.4300  21.4399  21.4399  29.3525

     occupation numbers 
     1.0000   1.0000   1.0000   1.0000   1.0000   1.0000   1.0000   1.0000
     1.0000   1.0000   1.0000   1.0000   1.0000   1.0000   1.0000   1.0000
     1.0000   1.0000   0.0000   0.0000   0.0000

          k = 0.2500 0.5292 0.0000 (  2831 PWs)   bands (ev):

   -76.9930 -76.9818 -40.3728 -40.3238 -40.2936 -40.2819 -40.2304 -40.2201
    14.6282  14.7883  14.8956  15.3912  16.0716  16.3417  17.0485  18.0115
    18.3444  18.3611  21.6623  24.2204  26.5181

     occupation numbers 
     1.0000   1.0000   1.0000   1.0000   1.0000   1.0000   1.0000   1.0000
     1.0000   1.0000   1.0000   1.0000   1.0000   1.0000   1.0000   1.0000
     1.0000   1.0000   0.0000   0.0000   0.0000

          k = 0.2500 0.5292 0.1050 (  2824 PWs)   bands (ev):

   -76.9923 -76.9826 -40.3789 -40.3499 -40.3136 -40.2506 -40.2328 -40.1965
    14.5681  14.9303  15.0311  15.3026  16.1029  16.3280  17.0421  18.0194
    18.1222  18.3900  21.8645  24.2543  26.5940

     occupation numbers 
     1.0000   1.0000   1.0000   1.0000   1.0000   1.0000   1.0000   1.0000
     1.0000   1.0000   1.0000   1.0000   1.0000   1.0000   1.0000   1.0000
     1.0000   1.0000   0.0000   0.0000   0.0000

          k = 0.2500 0.5292 0.2100 (  2808 PWs)   bands (ev):

   -76.9902 -76.9846 -40.3970 -40.3809 -40.3124 -40.2643 -40.1950 -40.1721
    14.5942  14.9539  15.2139  15.5042  15.9728  16.3279  17.0691  17.5736
    18.1593  18.4277  22.3839  24.0002  26.5986

     occupation numbers 
     1.0000   1.0000   1.0000   1.0000   1.0000   1.0000   1.0000   1.0000
     1.0000   1.0000   1.0000   1.0000   1.0000   1.0000   1.0000   1.0000
     1.0000   1.0000   0.0000   0.0000   0.0000

          k = 0.2500 0.5292-0.3150 (  2804 PWs)   bands (ev):

   -76.9874 -76.9874 -40.4003 -40.4003 -40.2899 -40.2899 -40.1706 -40.1706
    14.7402  14.7402  15.5268  15.5268  16.0948  16.0948  17.2006  17.2006
    18.3356  18.3356  23.1690  23.1690  27.1610

     occupation numbers 
     1.0000   1.0000   1.0000   1.0000   1.0000   1.0000   1.0000   1.0000
     1.0000   1.0000   1.0000   1.0000   1.0000   1.0000   1.0000   1.0000
     1.0000   1.0000   0.0000   0.0000   0.0000

          k = 0.3333 0.5774 0.0000 (  2832 PWs)   bands (ev):

   -76.9863 -76.9863 -40.3660 -40.3107 -40.3107 -40.2526 -40.2500 -40.2500
    14.6262  14.9798  14.9798  15.2872  16.1628  16.1628  17.1482  18.1559
    18.1559  18.3386  23.3707  24.2131  24.2131

     occupation numbers 
     1.0000   1.0000   1.0000   1.0000   1.0000   1.0000   1.0000   1.0000
     1.0000   1.0000   1.0000   1.0000   1.0000   1.0000   1.0000   1.0000
     1.0000   1.0000   0.0000   0.0000   0.0000

          k = 0.3333 0.5774 0.1050 (  2817 PWs)   bands (ev):

   -76.9863 -76.9863 -40.3585 -40.3417 -40.3417 -40.2603 -40.2188 -40.2188
    14.7262  15.0149  15.0149  15.3117  16.1296  16.1296  17.1149  18.0772
    18.1908  18.1908  23.7972  24.2942  24.2942

     occupation numbers 
     1.0000   1.0000   1.0000   1.0000   1.0000   1.0000   1.0000   1.0000
     1.0000   1.0000   1.0000   1.0000   1.0000   1.0000   1.0000   1.0000
     1.0000   1.0000   0.0000   0.0000   0.0000

          k = 0.3333 0.5774 0.2100 (  2829 PWs)   bands (ev):

   -76.9863 -76.9863 -40.3775 -40.3775 -40.3378 -40.2811 -40.1827 -40.1827
    14.9812  15.0855  15.0855  15.3384  16.0691  16.0691  17.0667  17.5510
    18.2547  18.2547  24.4956  24.4956  24.8698

     occupation numbers 
     1.0000   1.0000   1.0000   1.0000   1.0000   1.0000   1.0000   1.0000
     1.0000   1.0000   1.0000   1.0000   1.0000   1.0000   1.0000   1.0000
     1.0000   1.0000   0.0000   0.0000   0.0000

          k = 0.3333 0.5774-0.3150 (  2820 PWs)   bands (ev):

   -76.9863 -76.9863 -40.3911 -40.3911 -40.3095 -40.3095 -40.1689 -40.1689
    15.1208  15.1208  15.2415  15.2415  16.0416  16.0416  17.1627  17.1627
    18.2840  18.2840  24.6257  24.6257  26.3243

     occupation numbers 
     1.0000   1.0000   1.0000   1.0000   1.0000   1.0000   1.0000   1.0000
     1.0000   1.0000   1.0000   1.0000   1.0000   1.0000   1.0000   1.0000
     1.0000   1.0000   0.0000   0.0000   0.0000

 ------ SPIN DOWN ----------


          k = 0.0000 0.0000 0.0000 (  2815 PWs)   bands (ev):

   -74.9889 -74.9183 -38.4841 -38.1531 -38.1531 -38.0930 -38.0930 -38.0879
     9.9568  14.7752  18.0725  18.0725  18.1686  18.4781  18.4781  18.7986
    18.7986  18.9598  20.1395  20.1395  26.8143

     occupation numbers 
     1.0000   1.0000   1.0000   1.0000   1.0000   1.0000   1.0000   1.0000
     1.0000   1.0000   1.0000   1.0000   1.0000   1.0000   1.0000   1.0000
     1.0000   0.9957   0.0000   0.0000   0.0000

          k = 0.0000 0.0000 0.1050 (  2809 PWs)   bands (ev):

   -74.9842 -74.9231 -38.4580 -38.1491 -38.1491 -38.1149 -38.0971 -38.0971
    10.2467  14.5651  17.9829  17.9829  18.0672  18.3122  18.3782  18.3782
    19.0109  19.0109  20.1307  20.1307  28.1873

     occupation numbers 
     1.0000   1.0000   1.0000   1.0000   1.0000   1.0000   1.0000   1.0000
     1.0000   1.0000   1.0000   1.0000   1.0000   1.0000   1.0000   1.0000
     0.0036   0.0036   0.0000   0.0000   0.0000

          k = 0.0000 0.0000 0.2100 (  2785 PWs)   bands (ev):

   -74.9713 -74.9360 -38.3863 -38.1882 -38.1381 -38.1381 -38.1081 -38.1081
    11.0838  13.7092  17.5877  17.8097  17.9093  17.9093  18.1627  18.1627
    19.4170  19.4170  20.0414  20.0414  31.2718

     occupation numbers 
     1.0000   1.0000   1.0000   1.0000   1.0000   1.0000   1.0000   1.0000
     1.0000   1.0000   1.0000   1.0000   1.0000   1.0000   1.0000   1.0000
     0.0000   0.0000   0.0000   0.0000   0.0000

          k = 0.0000 0.0000-0.3150 (  2808 PWs)   bands (ev):

   -74.9537 -74.9537 -38.2877 -38.2877 -38.1231 -38.1231 -38.1231 -38.1231
    12.3462  12.3462  17.5467  17.5467  17.9753  17.9753  17.9753  17.9753
    19.7968  19.7968  19.7968  19.7968  35.0255

     occupation numbers 
     1.0000   1.0000   1.0000   1.0000   1.0000   1.0000   1.0000   1.0000
[...]
    20.2846  20.4057  21.4868  24.0042  29.1477

     occupation numbers 
     1.0000   1.0000   1.0000   1.0000   1.0000   1.0000   1.0000   1.0000
     1.0000   1.0000   1.0000   1.0000   1.0000   1.0000   1.0000   0.0000
     0.0000   0.0000   0.0000   0.0000   0.0000

          k = 0.0833 0.5292 0.1050 (  2810 PWs)   bands (ev):

   -74.9269 -74.9068 -38.4206 -38.3598 -38.2853 -38.2314 -38.1804 -38.1501
    14.9026  15.5489  16.1019  16.6127  17.8361  18.4269  18.5063  20.0867
    20.2642  20.3339  21.3468  23.6817  28.0084

     occupation numbers 
     1.0000   1.0000   1.0000   1.0000   1.0000   1.0000   1.0000   1.0000
     1.0000   1.0000   1.0000   1.0000   1.0000   1.0000   1.0000   0.0000
     0.0000   0.0000   0.0000   0.0000   0.0000

          k = 0.0833 0.5292 0.2100 (  2814 PWs)   bands (ev):

   -74.9226 -74.9111 -38.4397 -38.4016 -38.2430 -38.2035 -38.1853 -38.1543
    14.8859  15.3868  16.4123  16.7632  17.9176  18.7005  18.9295  19.5920
    20.2063  20.4432  21.1163  22.7549  27.3907

     occupation numbers 
     1.0000   1.0000   1.0000   1.0000   1.0000   1.0000   1.0000   1.0000
     1.0000   1.0000   1.0000   1.0000   1.0000   1.0000   1.0000   0.0000
     0.0000   0.0000   0.0000   0.0000   0.0000

          k = 0.0833 0.5292-0.3150 (  2808 PWs)   bands (ev):

   -74.9168 -74.9168 -38.4330 -38.4330 -38.2111 -38.2111 -38.1694 -38.1694
    15.0730  15.0730  16.7165  16.7165  18.4331  18.4331  19.2174  19.2174
    20.2858  20.2858  21.6786  21.6786  27.6382

     occupation numbers 
     1.0000   1.0000   1.0000   1.0000   1.0000   1.0000   1.0000   1.0000
     1.0000   1.0000   1.0000   1.0000   1.0000   1.0000   0.0000   0.0000
     0.0000   0.0000   0.0000   0.0000   0.0000

          k = 0.1667 0.2887 0.0000 (  2802 PWs)   bands (ev):

   -74.9541 -74.9072 -38.3962 -38.2847 -38.2745 -38.1917 -38.1375 -38.1334
    12.6220  16.0287  16.4289  16.7445  17.9003  18.0966  18.4976  19.0361
    19.4756  19.8587  20.3111  25.2212  27.2248

     occupation numbers 
     1.0000   1.0000   1.0000   1.0000   1.0000   1.0000   1.0000   1.0000
     1.0000   1.0000   1.0000   1.0000   1.0000   1.0000   1.0000   0.0000
     0.0000   0.0000   0.0000   0.0000   0.0000

          k = 0.1667 0.2887 0.1050 (  2796 PWs)   bands (ev):

   -74.9510 -74.9104 -38.3958 -38.2826 -38.2652 -38.2013 -38.1427 -38.1304
    12.8433  16.0147  16.2875  16.8130  17.8456  18.1253  18.3671  19.0754
    19.6139  19.7396  20.3175  23.5335  29.4594

     occupation numbers 
     1.0000   1.0000   1.0000   1.0000   1.0000   1.0000   1.0000   1.0000
     1.0000   1.0000   1.0000   1.0000   1.0000   1.0000   1.0000   0.0000
     0.0000   0.0000   0.0000   0.0000   0.0000

          k = 0.1667 0.2887 0.2100 (  2801 PWs)   bands (ev):

   -74.9424 -74.9190 -38.3844 -38.3137 -38.2241 -38.2034 -38.1554 -38.1375
    13.4696  15.3456  16.5351  16.9890  17.6286  17.9366  18.4195  19.0556
    19.7733  19.8583  20.2628  21.7393  32.7379

     occupation numbers 
     1.0000   1.0000   1.0000   1.0000   1.0000   1.0000   1.0000   1.0000
     1.0000   1.0000   1.0000   1.0000   1.0000   1.0000   1.0000   0.0000
     0.0000   0.0000   0.0000   0.0000   0.0000

          k = 0.1667 0.2887-0.3150 (  2796 PWs)   bands (ev):

   -74.9307 -74.9307 -38.3545 -38.3545 -38.1972 -38.1972 -38.1576 -38.1576
    14.3785  14.3785  16.9305  16.9305  17.5982  17.5982  18.7357  18.7357
    20.0663  20.0663  20.5145  20.5145  34.0772

     occupation numbers 
     1.0000   1.0000   1.0000   1.0000   1.0000   1.0000   1.0000   1.0000
     1.0000   1.0000   1.0000   1.0000   1.0000   1.0000   1.0000   1.0000
     0.0000   0.0000   0.0000   0.0000   0.0000

          k = 0.1667 0.3849 0.0000 (  2809 PWs)   bands (ev):

   -74.9403 -74.9051 -38.3560 -38.3351 -38.3083 -38.2225 -38.1589 -38.1588
    13.8708  16.0912  16.1033  16.5329  17.7078  18.2442  18.2779  19.3688
    19.9958  20.3192  20.5739  27.0150  27.3145

     occupation numbers 
     1.0000   1.0000   1.0000   1.0000   1.0000   1.0000   1.0000   1.0000
     1.0000   1.0000   1.0000   1.0000   1.0000   1.0000   1.0000   0.0000
     0.0000   0.0000   0.0000   0.0000   0.0000

          k = 0.1667 0.3849 0.1050 (  2807 PWs)   bands (ev):

   -74.9380 -74.9074 -38.3840 -38.3306 -38.2805 -38.2309 -38.1664 -38.1473
    14.0254  15.9571  16.2166  16.6433  17.7148  18.1447  18.2657  19.3788
    20.0226  20.1048  20.7064  24.6325  29.1928

     occupation numbers 
     1.0000   1.0000   1.0000   1.0000   1.0000   1.0000   1.0000   1.0000
     1.0000   1.0000   1.0000   1.0000   1.0000   1.0000   1.0000   0.0000
     0.0000   0.0000   0.0000   0.0000   0.0000

          k = 0.1667 0.3849 0.2100 (  2800 PWs)   bands (ev):

   -74.9315 -74.9139 -38.3988 -38.3577 -38.2408 -38.2223 -38.1764 -38.1437
    14.4476  15.5771  16.5236  16.8825  17.6094  17.8519  18.4272  19.2584
    19.8915  20.3014  20.7932  22.5622  30.1212

     occupation numbers 
     1.0000   1.0000   1.0000   1.0000   1.0000   1.0000   1.0000   1.0000
     1.0000   1.0000   1.0000   1.0000   1.0000   1.0000   1.0000   0.0000
     0.0000   0.0000   0.0000   0.0000   0.0000

          k = 0.1667 0.3849-0.3150 (  2798 PWs)   bands (ev):

   -74.9227 -74.9227 -38.3875 -38.3875 -38.2212 -38.2212 -38.1610 -38.1610
    15.0202  15.0202  16.8901  16.8901  17.5726  17.5726  18.7870  18.7870
    20.3160  20.3160  21.1740  21.1740  31.2727

     occupation numbers 
     1.0000   1.0000   1.0000   1.0000   1.0000   1.0000   1.0000   1.0000
     1.0000   1.0000   1.0000   1.0000   1.0000   1.0000   1.0000   1.0000
     0.0000   0.0000   0.0000   0.0000   0.0000

          k = 0.1667 0.4811 0.0000 (  2816 PWs)   bands (ev):

   -74.9285 -74.9052 -38.3755 -38.3230 -38.3171 -38.2527 -38.1870 -38.1731
    14.9741  15.8876  15.8890  16.5677  17.6483  18.0361  18.4855  19.8039
    20.2770  20.3229  21.4779  25.4594  28.9371

     occupation numbers 
     1.0000   1.0000   1.0000   1.0000   1.0000   1.0000   1.0000   1.0000
     1.0000   1.0000   1.0000   1.0000   1.0000   1.0000   1.0000   0.0000
     0.0000   0.0000   0.0000   0.0000   0.0000

          k = 0.1667 0.4811 0.1050 (  2815 PWs)   bands (ev):

   -74.9270 -74.9068 -38.3963 -38.3493 -38.2860 -38.2447 -38.1888 -38.1632
    14.9943  15.8513  16.0591  16.6169  17.6765  18.0242  18.5119  19.7763
    20.0678  20.3585  21.5378  24.9000  27.7852

     occupation numbers 
     1.0000   1.0000   1.0000   1.0000   1.0000   1.0000   1.0000   1.0000
     1.0000   1.0000   1.0000   1.0000   1.0000   1.0000   1.0000   0.0000
     0.0000   0.0000   0.0000   0.0000   0.0000

          k = 0.1667 0.4811 0.2100 (  2804 PWs)   bands (ev):

   -74.9227 -74.9110 -38.4168 -38.3851 -38.2648 -38.2209 -38.1893 -38.1511
    15.1071  15.6493  16.4170  16.9373  17.5239  17.9922  18.6798  19.4024
    19.9923  20.4619  21.6994  23.4653  27.8517

     occupation numbers 
     1.0000   1.0000   1.0000   1.0000   1.0000   1.0000   1.0000   1.0000
     1.0000   1.0000   1.0000   1.0000   1.0000   1.0000   1.0000   0.0000
     0.0000   0.0000   0.0000   0.0000   0.0000

          k = 0.1667 0.4811-0.3150 (  2810 PWs)   bands (ev):

   -74.9169 -74.9169 -38.4127 -38.4127 -38.2402 -38.2402 -38.1610 -38.1610
    15.3455  15.3455  16.8633  16.8633  17.7032  17.7032  18.9494  18.9494
    20.3100  20.3100  22.2515  22.2515  28.6765

     occupation numbers 
     1.0000   1.0000   1.0000   1.0000   1.0000   1.0000   1.0000   1.0000
     1.0000   1.0000   1.0000   1.0000   1.0000   1.0000   0.9999   0.9999
     0.0000   0.0000   0.0000   0.0000   0.0000

          k = 0.1667 0.5774 0.0000 (  2818 PWs)   bands (ev):

   -74.9232 -74.9062 -38.3902 -38.3266 -38.2973 -38.2658 -38.2029 -38.1781
    15.4428  15.7535  15.8202  16.6213  17.6692  17.9052  18.5939  20.1063
    20.2737  20.3237  22.3755  23.8805  29.6127

     occupation numbers 
     1.0000   1.0000   1.0000   1.0000   1.0000   1.0000   1.0000   1.0000
     1.0000   1.0000   1.0000   1.0000   1.0000   1.0000   1.0000   0.0000
     0.0000   0.0000   0.0000   0.0000   0.0000

          k = 0.1667 0.5774 0.1050 (  2818 PWs)   bands (ev):

   -74.9221 -74.9074 -38.4064 -38.3511 -38.2930 -38.2373 -38.2030 -38.1698
    15.2922  15.8072  16.2052  16.4578  17.6264  18.0678  18.6286  20.0279
    20.1008  20.3473  22.4139  23.7865  28.9479

     occupation numbers 
     1.0000   1.0000   1.0000   1.0000   1.0000   1.0000   1.0000   1.0000
     1.0000   1.0000   1.0000   1.0000   1.0000   1.0000   1.0000   0.0000
     0.0000   0.0000   0.0000   0.0000   0.0000

          k = 0.1667 0.5774 0.2100 (  2815 PWs)   bands (ev):

   -74.9190 -74.9105 -38.4255 -38.3934 -38.2744 -38.2204 -38.1917 -38.1550
    15.2567  15.7044  16.4778  16.8549  17.4299  18.1680  18.8283  19.4832
    20.1173  20.3886  22.5560  23.4703  27.8336

     occupation numbers 
     1.0000   1.0000   1.0000   1.0000   1.0000   1.0000   1.0000   1.0000
     1.0000   1.0000   1.0000   1.0000   1.0000   1.0000   1.0000   0.0000
     0.0000   0.0000   0.0000   0.0000   0.0000

          k = 0.1667 0.5774-0.3150 (  2822 PWs)   bands (ev):

   -74.9147 -74.9147 -38.4221 -38.4221 -38.2474 -38.2474 -38.1606 -38.1606
    15.4220  15.4220  16.8541  16.8541  17.7518  17.7518  19.1201  19.1201
    20.2434  20.2434  22.9624  22.9624  27.4362

     occupation numbers 
     1.0000   1.0000   1.0000   1.0000   1.0000   1.0000   1.0000   1.0000
     1.0000   1.0000   1.0000   1.0000   1.0000   1.0000   0.0000   0.0000
     0.0000   0.0000   0.0000   0.0000   0.0000

          k = 0.2500 0.4330 0.0000 (  2814 PWs)   bands (ev):

   -74.9286 -74.9052 -38.3543 -38.3272 -38.3174 -38.2504 -38.1927 -38.1868
    14.9779  15.9570  16.2357  16.2390  17.5682  18.0523  18.4844  19.5800
    20.2809  20.2877  21.5091  27.0579  27.7765

     occupation numbers 
     1.0000   1.0000   1.0000   1.0000   1.0000   1.0000   1.0000   1.0000
     1.0000   1.0000   1.0000   1.0000   1.0000   1.0000   1.0000   0.0000
     0.0000   0.0000   0.0000   0.0000   0.0000

          k = 0.2500 0.4330 0.1050 (  2819 PWs)   bands (ev):

   -74.9270 -74.9067 -38.3721 -38.3590 -38.2682 -38.2653 -38.1967 -38.1675
    15.0633  15.8769  16.3089  16.4396  17.6265  17.8766  18.4665  19.5937
    20.0145  20.3696  21.6279  25.6981  28.0810

     occupation numbers 
     1.0000   1.0000   1.0000   1.0000   1.0000   1.0000   1.0000   1.0000
     1.0000   1.0000   1.0000   1.0000   1.0000   1.0000   1.0000   0.0000
     0.0000   0.0000   0.0000   0.0000   0.0000

          k = 0.2500 0.4330 0.2100 (  2815 PWs)   bands (ev):

   -74.9227 -74.9110 -38.3998 -38.3794 -38.2730 -38.2383 -38.1875 -38.1504
    15.2798  15.7437  16.5473  16.8321  17.4861  17.6224  18.5099  19.3086
    19.9537  20.4692  21.8802  23.7980  28.8994

     occupation numbers 
     1.0000   1.0000   1.0000   1.0000   1.0000   1.0000   1.0000   1.0000
     1.0000   1.0000   1.0000   1.0000   1.0000   1.0000   1.0000   0.0000
     0.0000   0.0000   0.0000   0.0000   0.0000

          k = 0.2500 0.4330-0.3150 (  2806 PWs)   bands (ev):

   -74.9169 -74.9169 -38.4003 -38.4003 -38.2554 -38.2554 -38.1584 -38.1584
    15.5365  15.5365  16.9143  16.9143  17.3776  17.3776  18.7908  18.7908
    20.3337  20.3337  22.4713  22.4713  29.9531

     occupation numbers 
     1.0000   1.0000   1.0000   1.0000   1.0000   1.0000   1.0000   1.0000
     1.0000   1.0000   1.0000   1.0000   1.0000   1.0000   1.0000   1.0000
     0.0000   0.0000   0.0000   0.0000   0.0000

          k = 0.2500 0.5292 0.0000 (  2831 PWs)   bands (ev):

   -74.9195 -74.9075 -38.3695 -38.3159 -38.2829 -38.2826 -38.2154 -38.2140
    15.6943  15.9012  16.0658  16.3266  17.5746  17.8218  18.6883  19.8779
    20.2538  20.2579  22.7762  25.0233  27.0899

     occupation numbers 
     1.0000   1.0000   1.0000   1.0000   1.0000   1.0000   1.0000   1.0000
     1.0000   1.0000   1.0000   1.0000   1.0000   1.0000   1.0000   0.0000
     0.0000   0.0000   0.0000   0.0000   0.0000

          k = 0.2500 0.5292 0.1050 (  2824 PWs)   bands (ev):

   -74.9187 -74.9083 -38.3778 -38.3470 -38.3072 -38.2417 -38.2201 -38.1862
    15.6596  16.0288  16.1602  16.3944  17.5615  17.7242  18.6793  19.8771
    19.9866  20.3048  22.9538  25.0149  27.1922

     occupation numbers 
     1.0000   1.0000   1.0000   1.0000   1.0000   1.0000   1.0000   1.0000
     1.0000   1.0000   1.0000   1.0000   1.0000   1.0000   1.0000   0.0000
     0.0000   0.0000   0.0000   0.0000   0.0000

          k = 0.2500 0.5292 0.2100 (  2808 PWs)   bands (ev):

   -74.9165 -74.9105 -38.3996 -38.3817 -38.3047 -38.2519 -38.1827 -38.1587
    15.7074  16.0069  16.4520  16.7563  17.3332  17.5765  18.7165  19.3631
    20.0329  20.3409  23.3577  24.6882  27.3355

     occupation numbers 
     1.0000   1.0000   1.0000   1.0000   1.0000   1.0000   1.0000   1.0000
     1.0000   1.0000   1.0000   1.0000   1.0000   1.0000   1.0000   0.0000
     0.0000   0.0000   0.0000   0.0000   0.0000

          k = 0.2500 0.5292-0.3150 (  2804 PWs)   bands (ev):

   -74.9135 -74.9135 -38.4035 -38.4035 -38.2797 -38.2797 -38.1564 -38.1564
    15.8494  15.8494  16.8643  16.8643  17.2821  17.2821  18.9118  18.9118
    20.2268  20.2268  23.9645  23.9645  27.9038

     occupation numbers 
     1.0000   1.0000   1.0000   1.0000   1.0000   1.0000   1.0000   1.0000
     1.0000   1.0000   1.0000   1.0000   1.0000   1.0000   1.0000   1.0000
     0.0000   0.0000   0.0000   0.0000   0.0000

          k = 0.3333 0.5774 0.0000 (  2832 PWs)   bands (ev):

   -74.9123 -74.9123 -38.3619 -38.3017 -38.3017 -38.2478 -38.2478 -38.2381
    15.9203  16.0434  16.0434  16.2654  17.6385  17.6385  18.7970  20.0439
    20.0439  20.2321  24.1977  25.0075  25.0075

     occupation numbers 
     1.0000   1.0000   1.0000   1.0000   1.0000   1.0000   1.0000   1.0000
     1.0000   1.0000   1.0000   1.0000   1.0000   1.0000   1.0000   0.0000
     0.0000   0.0000   0.0000   0.0000   0.0000

          k = 0.3333 0.5774 0.1050 (  2817 PWs)   bands (ev):

   -74.9123 -74.9123 -38.3537 -38.3389 -38.3389 -38.2465 -38.2105 -38.2105
    16.0014  16.1253  16.1253  16.3013  17.5550  17.5550  18.7665  19.9293
    20.0798  20.0798  24.6416  25.0644  25.0644

     occupation numbers 
     1.0000   1.0000   1.0000   1.0000   1.0000   1.0000   1.0000   1.0000
     1.0000   1.0000   1.0000   1.0000   1.0000   1.0000   1.0000   0.0000
     0.0000   0.0000   0.0000   0.0000   0.0000

          k = 0.3333 0.5774 0.2100 (  2829 PWs)   bands (ev):

   -74.9122 -74.9122 -38.3789 -38.3789 -38.3311 -38.2692 -38.1701 -38.1701
    16.1933  16.3186  16.3186  16.3672  17.3666  17.3666  18.7411  19.3432
    20.1419  20.1419  25.2051  25.2052  25.6979

     occupation numbers 
     1.0000   1.0000   1.0000   1.0000   1.0000   1.0000   1.0000   1.0000
     1.0000   1.0000   1.0000   1.0000   1.0000   1.0000   1.0000   0.0000
     0.0000   0.0000   0.0000   0.0000   0.0000

          k = 0.3333 0.5774-0.3150 (  2820 PWs)   bands (ev):

   -74.9122 -74.9122 -38.3940 -38.3940 -38.3002 -38.3002 -38.1548 -38.1548
    16.3522  16.3522  16.4429  16.4429  17.2486  17.2486  18.8946  18.8946
    20.1684  20.1684  25.2944  25.2944  27.0706

     occupation numbers 
     1.0000   1.0000   1.0000   1.0000   1.0000   1.0000   1.0000   1.0000
     1.0000   1.0000   1.0000   1.0000   1.0000   1.0000   1.0000   1.0000
     0.0000   0.0000   0.0000   0.0000   0.0000

     the Fermi energy is    18.9851 ev

!    total energy              =    -753.45475480 Ry
     total all-electron energy =     -5573.811446 Ry
     estimated scf accuracy    <       0.00000005 Ry
     smearing contrib. (-TS)   =      -0.00002105 Ry
     internal energy E=F+TS    =    -753.45473375 Ry

     The total energy is F=E-TS. E is the sum of the following terms:
     one-electron contribution =    -279.55377179 Ry
     hartree contribution      =     163.85715318 Ry
     xc contribution           =     -61.42153955 Ry
     ewald contribution        =    -401.16135189 Ry
     one-center paw contrib.   =    -175.17522371 Ry
      -> PAW hartree energy AE =     222.17048888 Ry
      -> PAW hartree energy PS =    -221.11422188 Ry
      -> PAW xc energy AE      =    -117.67810036 Ry
      -> PAW xc energy PS      =      29.03422150 Ry
      -> total E_H with PAW    =     164.91342019 Ry
      -> total E_XC with PAW   =    -150.06541841 Ry

     total magnetization       =     3.22 Bohr mag/cell
     absolute magnetization    =     3.55 Bohr mag/cell

     convergence has been achieved in  12 iterations

     Writing all to output data dir ./out2/Co.save/
 
     init_run     :      0.30s CPU      0.39s WALL (       1 calls)
     electrons    :     17.76s CPU     19.02s WALL (       1 calls)

     Called by init_run:
     wfcinit      :      0.15s CPU      0.20s WALL (       1 calls)
     potinit      :      0.10s CPU      0.12s WALL (       1 calls)
     hinit0       :      0.04s CPU      0.05s WALL (       1 calls)

     Called by electrons:
     c_bands      :     15.39s CPU     16.32s WALL (      12 calls)
     sum_band     :      1.25s CPU      1.34s WALL (      12 calls)
     v_of_rho     :      0.05s CPU      0.05s WALL (      13 calls)
     v_h          :      0.00s CPU      0.00s WALL (      13 calls)
     v_xc         :      0.05s CPU      0.05s WALL (      13 calls)
     newd         :      0.03s CPU      0.04s WALL (      13 calls)
     PAW_pot      :      1.11s CPU      1.36s WALL (      13 calls)
     mix_rho      :      0.01s CPU      0.01s WALL (      12 calls)

     Called by c_bands:
     init_us_2    :      0.09s CPU      0.10s WALL (    1824 calls)
     init_us_2:cp :      0.09s CPU      0.09s WALL (    1824 calls)
     cegterg      :     14.20s CPU     14.87s WALL (     957 calls)

     Called by sum_band:
     sum_band:wei :      0.01s CPU      0.01s WALL (      12 calls)
     sum_band:loo :      1.15s CPU      1.23s WALL (      12 calls)
     sum_band:buf :      0.01s CPU      0.01s WALL (     912 calls)
     sum_band:ini :      0.05s CPU      0.05s WALL (     912 calls)
     sum_band:cal :      0.10s CPU      0.10s WALL (     912 calls)
     sum_band:bec :      0.01s CPU      0.01s WALL (     912 calls)
     addusdens    :      0.06s CPU      0.06s WALL (      12 calls)
                                        0.00s GPU  (      12 calls)
     addusd:skk   :      0.00s CPU      0.00s WALL (      12 calls)
                                        0.00s GPU  (      12 calls)

     Called by *egterg:
     cdiaghg      :      3.36s CPU      3.49s WALL (    6558 calls)
     cegterg:over :      0.46s CPU      0.48s WALL (    5722 calls)
     cegterg:upda :      0.14s CPU      0.14s WALL (    5722 calls)
     cegterg:last :      0.27s CPU      0.28s WALL (    3836 calls)
     h_psi        :      9.31s CPU      9.78s WALL (    6679 calls)
     s_psi        :      0.16s CPU      0.17s WALL (    6679 calls)
     g_psi        :      0.05s CPU      0.05s WALL (    5722 calls)

     Called by h_psi:
     h_psi:calbec :      0.49s CPU      0.52s WALL (    6679 calls)
     vloc_psi     :      8.55s CPU      8.99s WALL (    6679 calls)
     add_vuspsi   :      0.20s CPU      0.21s WALL (    6679 calls)

     General routines
     calbec       :      0.57s CPU      0.60s WALL (    7591 calls)
     fft          :      0.03s CPU      0.03s WALL (     319 calls)
     ffts         :      0.00s CPU      0.00s WALL (      50 calls)
     fftw         :      8.62s CPU      9.07s WALL (  194028 calls)
     interpolate  :      0.00s CPU      0.00s WALL (      26 calls)
 
     Parallel routines

     PAW routines
     PAW_pot      :      1.11s CPU      1.36s WALL (      13 calls)
     PAW_symme    :      0.01s CPU      0.01s WALL (      24 calls)
 
     PWSCF        :     18.32s CPU     20.03s WALL

 
   This run was terminated on:  10:52:12  22Mar2024            

=------------------------------------------------------------------------------=
   JOB DONE.
=------------------------------------------------------------------------------=
