
     Program PWSCF v.7.2 starts on 22Mar2024 at 10:47:37 

     This program is part of the open-source Quantum ESPRESSO suite
     for quantum simulation of materials; please cite
         "P. Giannozzi et al., J. Phys.:Condens. Matter 21 395502 (2009);
         "P. Giannozzi et al., J. Phys.:Condens. Matter 29 465901 (2017);
         "P. Giannozzi et al., J. Chem. Phys. 152 154105 (2020);
          URL http://www.quantum-espresso.org", 
     in publications or presentations arising from this work. More details at
     http://www.quantum-espresso.org/quote

     Parallel version (MPI), running on    28 processors

     MPI processes distributed on     1 nodes
     182185 MiB available memory on the printing compute node when the environment starts
 
     Waiting for input...
     Reading input from standard input

     Current dimensions of program PWSCF are:
     Max number of different atomic species (ntypx) = 10
     Max number of k-points (npk) = 120000
     Max angular momentum in pseudopotentials (lmaxx) =  4
     file Co.pbe-spn-kjpaw_psl.0.3.1.UPF: wavefunction(s)  3P 3D renormalized
 
     K-points division:     npool     =       2
     R & G space division:  proc/nbgrp/npool/nimage =      14
     Subspace diagonalization in iterative solution of the eigenvalue problem:
     a serial algorithm will be used

 
     Parallelization info
     --------------------
     sticks:   dense  smooth     PW     G-vecs:    dense   smooth      PW
     Min          48      48     14                 1646     1604     262
     Max          49      49     15                 1658     1609     269
     Sum         673     673    199                23115    22491    3693
 
     Using Slab Decomposition
 


     bravais-lattice index     =            4
     lattice parameter (alat)  =       4.6960  a.u.
     unit-cell volume          =     143.9968 (a.u.)^3
     number of atoms/cell      =            2
     number of atomic types    =            1
     number of electrons       =        34.00
     number of Kohn-Sham states=           21
     kinetic-energy cutoff     =     110.0000  Ry
     charge density cutoff     =     450.0000  Ry
     scf convergence threshold =      1.0E-06
     mixing beta               =       0.7000
     number of iterations used =            8  plain     mixing
     Exchange-correlation= SLA  PW   PBX  PBC
                           (   1   4   3   4   0   0   0)

     celldm(1)=   4.695969  celldm(2)=   0.000000  celldm(3)=   1.605634
     celldm(4)=   0.000000  celldm(5)=   0.000000  celldm(6)=   0.000000

     crystal axes: (cart. coord. in units of alat)
               a(1) = (   1.000000   0.000000   0.000000 )  
               a(2) = (  -0.500000   0.866025   0.000000 )  
               a(3) = (   0.000000   0.000000   1.605634 )  

     reciprocal axes: (cart. coord. in units 2 pi/alat)
               b(1) = (  1.000000  0.577350  0.000000 )  
               b(2) = (  0.000000  1.154701  0.000000 )  
               b(3) = (  0.000000  0.000000  0.622807 )  


     PseudoPot. # 1 for Co read from file:
     /truba/home/amuhaymin/ZnS/pseudo/QE/Co.pbe-spn-kjpaw_psl.0.3.1.UPF
     MD5 check sum: b0a1ad65bf214e88c1f3d33b20c7d919
     Pseudo is Projector augmented-wave + core cor, Zval = 17.0
     Generated using &quot;atomic&quot; code by A. Dal Corso  v.6.2.2
     Shape of augmentation charge: PSQ
     Using radial grid of 1193 points,  6 beta functions with: 
                l(1) =   0
                l(2) =   0
                l(3) =   1
                l(4) =   1
                l(5) =   2
                l(6) =   2
     Q(r) pseudized with 0 coefficients 


     atomic species   valence    mass     pseudopotential
        Co            17.00    58.93300     Co( 1.00)

     Starting magnetic structure 
     atomic species   magnetization
        Co           0.294

     24 Sym. Ops., with inversion, found (12 have fractional translation)


                                    s                        frac. trans.

      isym =  1     identity                                     

 cryst.   s( 1) = (     1          0          0      )
                  (     0          1          0      )
                  (     0          0          1      )

 cart.    s( 1) = (  1.0000000  0.0000000  0.0000000 )
                  (  0.0000000  1.0000000  0.0000000 )
                  (  0.0000000  0.0000000  1.0000000 )


      isym =  2     180 deg rotation - cart. axis [0,0,1]        

 cryst.   s( 2) = (    -1          0          0      )    f =(  0.0000000 )
                  (     0         -1          0      )       (  0.0000000 )
                  (     0          0          1      )       (  0.5000000 )

 cart.    s( 2) = ( -1.0000000  0.0000000  0.0000000 )    f =(  0.0000000 )
                  (  0.0000000 -1.0000000  0.0000000 )       (  0.0000000 )
                  (  0.0000000  0.0000000  1.0000000 )       (  0.8028169 )


      isym =  3     180 deg rotation - cart. axis [0,1,0]        

 cryst.   s( 3) = (    -1          0          0      )    f =(  0.0000000 )
                  (     1          1          0      )       (  0.0000000 )
                  (     0          0         -1      )       (  0.5000000 )

 cart.    s( 3) = ( -1.0000000  0.0000000  0.0000000 )    f =(  0.0000000 )
                  (  0.0000000  1.0000000  0.0000000 )       (  0.0000000 )
                  (  0.0000000  0.0000000 -1.0000000 )       (  0.8028169 )


      isym =  4     180 deg rotation - cart. axis [1,0,0]        

 cryst.   s( 4) = (     1          0          0      )
                  (    -1         -1          0      )
                  (     0          0         -1      )

 cart.    s( 4) = (  1.0000000  0.0000000  0.0000000 )
                  (  0.0000000 -1.0000000  0.0000000 )
                  (  0.0000000  0.0000000 -1.0000000 )


      isym =  5      60 deg rotation - cryst. axis [0,0,1]       

 cryst.   s( 5) = (     1          1          0      )    f =(  0.0000000 )
                  (    -1          0          0      )       ( -0.0000000 )
                  (     0          0          1      )       (  0.5000000 )

 cart.    s( 5) = (  0.5000000 -0.8660254  0.0000000 )    f =(  0.0000000 )
                  (  0.8660254  0.5000000  0.0000000 )       ( -0.0000000 )
                  (  0.0000000  0.0000000  1.0000000 )       (  0.8028169 )


      isym =  6      60 deg rotation - cryst. axis [0,0,-1]      

 cryst.   s( 6) = (     0         -1          0      )    f =(  0.0000000 )
                  (     1          1          0      )       ( -0.0000000 )
                  (     0          0          1      )       (  0.5000000 )

 cart.    s( 6) = (  0.5000000  0.8660254  0.0000000 )    f =(  0.0000000 )
                  ( -0.8660254  0.5000000  0.0000000 )       ( -0.0000000 )
                  (  0.0000000  0.0000000  1.0000000 )       (  0.8028169 )


      isym =  7     120 deg rotation - cryst. axis [0,0,1]       

 cryst.   s( 7) = (     0          1          0      )
                  (    -1         -1          0      )
                  (     0          0          1      )

 cart.    s( 7) = ( -0.5000000 -0.8660254  0.0000000 )
                  (  0.8660254 -0.5000000  0.0000000 )
                  (  0.0000000  0.0000000  1.0000000 )


      isym =  8     120 deg rotation - cryst. axis [0,0,-1]      

 cryst.   s( 8) = (    -1         -1          0      )
                  (     1          0          0      )
                  (     0          0          1      )

 cart.    s( 8) = ( -0.5000000  0.8660254  0.0000000 )
                  ( -0.8660254 -0.5000000  0.0000000 )
                  (  0.0000000  0.0000000  1.0000000 )


      isym =  9     180 deg rotation - cryst. axis [1,-1,0]      

 cryst.   s( 9) = (     0         -1          0      )    f =(  0.0000000 )
                  (    -1          0          0      )       (  0.0000000 )
                  (     0          0         -1      )       (  0.5000000 )

 cart.    s( 9) = (  0.5000000 -0.8660254  0.0000000 )    f =(  0.0000000 )
                  ( -0.8660254 -0.5000000  0.0000000 )       (  0.0000000 )
                  (  0.0000000  0.0000000 -1.0000000 )       (  0.8028169 )


      isym = 10     180 deg rotation - cryst. axis [2,1,0]       

 cryst.   s(10) = (     1          1          0      )    f =(  0.0000000 )
                  (     0         -1          0      )       ( -0.0000000 )
                  (     0          0         -1      )       (  0.5000000 )

 cart.    s(10) = (  0.5000000  0.8660254  0.0000000 )    f =(  0.0000000 )
                  (  0.8660254 -0.5000000  0.0000000 )       ( -0.0000000 )
                  (  0.0000000  0.0000000 -1.0000000 )       (  0.8028169 )


      isym = 11     180 deg rotation - cryst. axis [0,1,0]       

 cryst.   s(11) = (    -1         -1          0      )
                  (     0          1          0      )
                  (     0          0         -1      )

 cart.    s(11) = ( -0.5000000 -0.8660254  0.0000000 )
                  ( -0.8660254  0.5000000  0.0000000 )
                  (  0.0000000  0.0000000 -1.0000000 )


      isym = 12     180 deg rotation - cryst. axis [1,1,0]       

 cryst.   s(12) = (     0          1          0      )
                  (     1          0          0      )
                  (     0          0         -1      )

 cart.    s(12) = ( -0.5000000  0.8660254  0.0000000 )
                  (  0.8660254  0.5000000  0.0000000 )
                  (  0.0000000  0.0000000 -1.0000000 )


      isym = 13     inversion                                    

 cryst.   s(13) = (    -1          0          0      )
                  (     0         -1          0      )
                  (     0          0         -1      )

 cart.    s(13) = ( -1.0000000  0.0000000  0.0000000 )
                  (  0.0000000 -1.0000000  0.0000000 )
                  (  0.0000000  0.0000000 -1.0000000 )


      isym = 14     inv. 180 deg rotation - cart. axis [0,0,1]   

 cryst.   s(14) = (     1          0          0      )    f =(  0.0000000 )
                  (     0          1          0      )       (  0.0000000 )
                  (     0          0         -1      )       (  0.5000000 )

 cart.    s(14) = (  1.0000000  0.0000000  0.0000000 )    f =(  0.0000000 )
                  (  0.0000000  1.0000000  0.0000000 )       (  0.0000000 )
                  (  0.0000000  0.0000000 -1.0000000 )       (  0.8028169 )


      isym = 15     inv. 180 deg rotation - cart. axis [0,1,0]   

 cryst.   s(15) = (     1          0          0      )    f =(  0.0000000 )
                  (    -1         -1          0      )       (  0.0000000 )
                  (     0          0          1      )       (  0.5000000 )

 cart.    s(15) = (  1.0000000  0.0000000  0.0000000 )    f =(  0.0000000 )
                  (  0.0000000 -1.0000000  0.0000000 )       (  0.0000000 )
                  (  0.0000000  0.0000000  1.0000000 )       (  0.8028169 )


      isym = 16     inv. 180 deg rotation - cart. axis [1,0,0]   

 cryst.   s(16) = (    -1          0          0      )
                  (     1          1          0      )
                  (     0          0          1      )

 cart.    s(16) = ( -1.0000000  0.0000000  0.0000000 )
                  (  0.0000000  1.0000000  0.0000000 )
                  (  0.0000000  0.0000000  1.0000000 )


      isym = 17     inv.  60 deg rotation - cryst. axis [0,0,1]  

 cryst.   s(17) = (    -1         -1          0      )    f =(  0.0000000 )
                  (     1          0          0      )       (  0.0000000 )
                  (     0          0         -1      )       (  0.5000000 )

 cart.    s(17) = ( -0.5000000  0.8660254  0.0000000 )    f =(  0.0000000 )
                  ( -0.8660254 -0.5000000  0.0000000 )       (  0.0000000 )
                  (  0.0000000  0.0000000 -1.0000000 )       (  0.8028169 )


      isym = 18     inv.  60 deg rotation - cryst. axis [0,0,-1] 

 cryst.   s(18) = (     0          1          0      )    f =(  0.0000000 )
                  (    -1         -1          0      )       ( -0.0000000 )
                  (     0          0         -1      )       (  0.5000000 )

 cart.    s(18) = ( -0.5000000 -0.8660254  0.0000000 )    f =(  0.0000000 )
                  (  0.8660254 -0.5000000  0.0000000 )       ( -0.0000000 )
                  (  0.0000000  0.0000000 -1.0000000 )       (  0.8028169 )


      isym = 19     inv. 120 deg rotation - cryst. axis [0,0,1]  

 cryst.   s(19) = (     0         -1          0      )
                  (     1          1          0      )
                  (     0          0         -1      )

 cart.    s(19) = (  0.5000000  0.8660254  0.0000000 )
                  ( -0.8660254  0.5000000  0.0000000 )
                  (  0.0000000  0.0000000 -1.0000000 )


      isym = 20     inv. 120 deg rotation - cryst. axis [0,0,-1] 

 cryst.   s(20) = (     1          1          0      )
                  (    -1          0          0      )
                  (     0          0         -1      )

 cart.    s(20) = (  0.5000000 -0.8660254  0.0000000 )
                  (  0.8660254  0.5000000  0.0000000 )
                  (  0.0000000  0.0000000 -1.0000000 )


      isym = 21     inv. 180 deg rotation - cryst. axis [1,-1,0] 

 cryst.   s(21) = (     0          1          0      )    f =(  0.0000000 )
                  (     1          0          0      )       ( -0.0000000 )
                  (     0          0          1      )       (  0.5000000 )

 cart.    s(21) = ( -0.5000000  0.8660254  0.0000000 )    f =(  0.0000000 )
                  (  0.8660254  0.5000000  0.0000000 )       ( -0.0000000 )
                  (  0.0000000  0.0000000  1.0000000 )       (  0.8028169 )


      isym = 22     inv. 180 deg rotation - cryst. axis [2,1,0]  

 cryst.   s(22) = (    -1         -1          0      )    f =(  0.0000000 )
                  (     0          1          0      )       ( -0.0000000 )
                  (     0          0          1      )       (  0.5000000 )

 cart.    s(22) = ( -0.5000000 -0.8660254  0.0000000 )    f =(  0.0000000 )
                  ( -0.8660254  0.5000000  0.0000000 )       ( -0.0000000 )
                  (  0.0000000  0.0000000  1.0000000 )       (  0.8028169 )


      isym = 23     inv. 180 deg rotation - cryst. axis [0,1,0]  

 cryst.   s(23) = (     1          1          0      )
                  (     0         -1          0      )
                  (     0          0          1      )

 cart.    s(23) = (  0.5000000  0.8660254  0.0000000 )
                  (  0.8660254 -0.5000000  0.0000000 )
                  (  0.0000000  0.0000000  1.0000000 )


      isym = 24     inv. 180 deg rotation - cryst. axis [1,1,0]  

 cryst.   s(24) = (     0         -1          0      )
                  (    -1          0          0      )
                  (     0          0          1      )

 cart.    s(24) = (  0.5000000 -0.8660254  0.0000000 )
                  ( -0.8660254 -0.5000000  0.0000000 )
                  (  0.0000000  0.0000000  1.0000000 )


     point group D_6h(6/mmm)
     there are 12 classes
     the character table:

       E     2C6   2C3   C2    3C2'  3C2'' i     2S3   2S6   s_h   3s_d  3s_v 
A_1g   1.00  1.00  1.00  1.00  1.00  1.00  1.00  1.00  1.00  1.00  1.00  1.00
A_2g   1.00  1.00  1.00  1.00 -1.00 -1.00  1.00  1.00  1.00  1.00 -1.00 -1.00
B_1g   1.00 -1.00  1.00 -1.00  1.00 -1.00  1.00 -1.00  1.00 -1.00  1.00 -1.00
B_2g   1.00 -1.00  1.00 -1.00 -1.00  1.00  1.00 -1.00  1.00 -1.00 -1.00  1.00
E_1g   2.00  1.00 -1.00 -2.00  0.00  0.00  2.00  1.00 -1.00 -2.00  0.00  0.00
E_2g   2.00 -1.00 -1.00  2.00  0.00  0.00  2.00 -1.00 -1.00  2.00  0.00  0.00
A_1u   1.00  1.00  1.00  1.00  1.00  1.00 -1.00 -1.00 -1.00 -1.00 -1.00 -1.00
A_2u   1.00  1.00  1.00  1.00 -1.00 -1.00 -1.00 -1.00 -1.00 -1.00  1.00  1.00
B_1u   1.00 -1.00  1.00 -1.00  1.00 -1.00 -1.00  1.00 -1.00  1.00 -1.00  1.00
B_2u   1.00 -1.00  1.00 -1.00 -1.00  1.00 -1.00  1.00 -1.00  1.00  1.00 -1.00
E_1u   2.00  1.00 -1.00 -2.00  0.00  0.00 -2.00 -1.00  1.00  2.00  0.00  0.00
E_2u   2.00 -1.00 -1.00  2.00  0.00  0.00 -2.00  1.00  1.00 -2.00  0.00  0.00

     the symmetry operations in each class and the name of the first element:

     E        1
          identity                                               
     2C6      5    6
           60 deg rotation - cryst. axis [0,0,1]                 
     2C3      7    8
          120 deg rotation - cryst. axis [0,0,1]                 
     C2       2
          180 deg rotation - cart. axis [0,0,1]                  
     3C2'     4   12   11
          180 deg rotation - cart. axis [1,0,0]                  
     3C2''    3    9   10
          180 deg rotation - cart. axis [0,1,0]                  
     i       13
          inversion                                              
     2S3     17   18
          inv.  60 deg rotation - cryst. axis [0,0,1]            
     2S6     19   20
          inv. 120 deg rotation - cryst. axis [0,0,1]            
     s_h     14
          inv. 180 deg rotation - cart. axis [0,0,1]             
     3s_d    16   24   23
          inv. 180 deg rotation - cart. axis [1,0,0]             
     3s_v    15   21   22
          inv. 180 deg rotation - cart. axis [0,1,0]             

   Cartesian axes

     site n.     atom                  positions (alat units)
         1           Co  tau(   1) = (  -0.0000000   0.5773503   0.4014085  )
         2           Co  tau(   2) = (   0.5000000   0.2886751   1.2042254  )

   Crystallographic axes

     site n.     atom                  positions (cryst. coord.)
         1           Co  tau(   1) = (  0.3333333  0.6666667  0.2500000  )
         2           Co  tau(   2) = (  0.6666667  0.3333333  0.7500000  )

     number of k points=    76  Gaussian smearing, width (Ry)=  0.0010
                       cart. coord. in units 2pi/alat
        k(    1) = (   0.0000000   0.0000000   0.0000000), wk =   0.0011574
        k(    2) = (   0.0000000   0.0000000   0.1038012), wk =   0.0023148
        k(    3) = (   0.0000000   0.0000000   0.2076023), wk =   0.0023148
        k(    4) = (   0.0000000   0.0000000  -0.3114035), wk =   0.0011574
        k(    5) = (   0.0000000   0.0962250   0.0000000), wk =   0.0069444
        k(    6) = (   0.0000000   0.0962250   0.1038012), wk =   0.0138889
        k(    7) = (   0.0000000   0.0962250   0.2076023), wk =   0.0138889
        k(    8) = (   0.0000000   0.0962250  -0.3114035), wk =   0.0069444
        k(    9) = (   0.0000000   0.1924501   0.0000000), wk =   0.0069444
        k(   10) = (   0.0000000   0.1924501   0.1038012), wk =   0.0138889
        k(   11) = (   0.0000000   0.1924501   0.2076023), wk =   0.0138889
        k(   12) = (   0.0000000   0.1924501  -0.3114035), wk =   0.0069444
        k(   13) = (   0.0000000   0.2886751   0.0000000), wk =   0.0069444
        k(   14) = (   0.0000000   0.2886751   0.1038012), wk =   0.0138889
        k(   15) = (   0.0000000   0.2886751   0.2076023), wk =   0.0138889
        k(   16) = (   0.0000000   0.2886751  -0.3114035), wk =   0.0069444
        k(   17) = (   0.0000000   0.3849002   0.0000000), wk =   0.0069444
        k(   18) = (   0.0000000   0.3849002   0.1038012), wk =   0.0138889
        k(   19) = (   0.0000000   0.3849002   0.2076023), wk =   0.0138889
        k(   20) = (   0.0000000   0.3849002  -0.3114035), wk =   0.0069444
        k(   21) = (   0.0000000   0.4811252   0.0000000), wk =   0.0069444
        k(   22) = (   0.0000000   0.4811252   0.1038012), wk =   0.0138889
        k(   23) = (   0.0000000   0.4811252   0.2076023), wk =   0.0138889
        k(   24) = (   0.0000000   0.4811252  -0.3114035), wk =   0.0069444
        k(   25) = (   0.0000000  -0.5773503   0.0000000), wk =   0.0034722
        k(   26) = (   0.0000000  -0.5773503   0.1038012), wk =   0.0069444
        k(   27) = (   0.0000000  -0.5773503   0.2076023), wk =   0.0069444
        k(   28) = (   0.0000000  -0.5773503  -0.3114035), wk =   0.0034722
        k(   29) = (   0.0833333   0.1443376   0.0000000), wk =   0.0069444
        k(   30) = (   0.0833333   0.1443376   0.1038012), wk =   0.0138889
        k(   31) = (   0.0833333   0.1443376   0.2076023), wk =   0.0138889
        k(   32) = (   0.0833333   0.1443376  -0.3114035), wk =   0.0069444
        k(   33) = (   0.0833333   0.2405626   0.0000000), wk =   0.0138889
        k(   34) = (   0.0833333   0.2405626   0.1038012), wk =   0.0277778
        k(   35) = (   0.0833333   0.2405626   0.2076023), wk =   0.0277778
        k(   36) = (   0.0833333   0.2405626  -0.3114035), wk =   0.0138889
        k(   37) = (   0.0833333   0.3367877   0.0000000), wk =   0.0138889
        k(   38) = (   0.0833333   0.3367877   0.1038012), wk =   0.0277778
        k(   39) = (   0.0833333   0.3367877   0.2076023), wk =   0.0277778
        k(   40) = (   0.0833333   0.3367877  -0.3114035), wk =   0.0138889
        k(   41) = (   0.0833333   0.4330127   0.0000000), wk =   0.0138889
        k(   42) = (   0.0833333   0.4330127   0.1038012), wk =   0.0277778
        k(   43) = (   0.0833333   0.4330127   0.2076023), wk =   0.0277778
        k(   44) = (   0.0833333   0.4330127  -0.3114035), wk =   0.0138889
        k(   45) = (   0.0833333   0.5292377   0.0000000), wk =   0.0138889
        k(   46) = (   0.0833333   0.5292377   0.1038012), wk =   0.0277778
        k(   47) = (   0.0833333   0.5292377   0.2076023), wk =   0.0277778
        k(   48) = (   0.0833333   0.5292377  -0.3114035), wk =   0.0138889
        k(   49) = (   0.1666667   0.2886751   0.0000000), wk =   0.0069444
        k(   50) = (   0.1666667   0.2886751   0.1038012), wk =   0.0138889
        k(   51) = (   0.1666667   0.2886751   0.2076023), wk =   0.0138889
        k(   52) = (   0.1666667   0.2886751  -0.3114035), wk =   0.0069444
        k(   53) = (   0.1666667   0.3849002   0.0000000), wk =   0.0138889
        k(   54) = (   0.1666667   0.3849002   0.1038012), wk =   0.0277778
        k(   55) = (   0.1666667   0.3849002   0.2076023), wk =   0.0277778
        k(   56) = (   0.1666667   0.3849002  -0.3114035), wk =   0.0138889
        k(   57) = (   0.1666667   0.4811252   0.0000000), wk =   0.0138889
        k(   58) = (   0.1666667   0.4811252   0.1038012), wk =   0.0277778
        k(   59) = (   0.1666667   0.4811252   0.2076023), wk =   0.0277778
        k(   60) = (   0.1666667   0.4811252  -0.3114035), wk =   0.0138889
        k(   61) = (   0.1666667   0.5773503   0.0000000), wk =   0.0069444
        k(   62) = (   0.1666667   0.5773503   0.1038012), wk =   0.0138889
        k(   63) = (   0.1666667   0.5773503   0.2076023), wk =   0.0138889
        k(   64) = (   0.1666667   0.5773503  -0.3114035), wk =   0.0069444
        k(   65) = (   0.2500000   0.4330127   0.0000000), wk =   0.0069444
        k(   66) = (   0.2500000   0.4330127   0.1038012), wk =   0.0138889
        k(   67) = (   0.2500000   0.4330127   0.2076023), wk =   0.0138889
        k(   68) = (   0.2500000   0.4330127  -0.3114035), wk =   0.0069444
        k(   69) = (   0.2500000   0.5292377   0.0000000), wk =   0.0138889
        k(   70) = (   0.2500000   0.5292377   0.1038012), wk =   0.0277778
        k(   71) = (   0.2500000   0.5292377   0.2076023), wk =   0.0277778
        k(   72) = (   0.2500000   0.5292377  -0.3114035), wk =   0.0138889
        k(   73) = (   0.3333333   0.5773503   0.0000000), wk =   0.0023148
        k(   74) = (   0.3333333   0.5773503   0.1038012), wk =   0.0046296
        k(   75) = (   0.3333333   0.5773503   0.2076023), wk =   0.0046296
        k(   76) = (   0.3333333   0.5773503  -0.3114035), wk =   0.0023148

                       cryst. coord.
        k(    1) = (   0.0000000   0.0000000   0.0000000), wk =   0.0011574
        k(    2) = (   0.0000000   0.0000000   0.1666667), wk =   0.0023148
        k(    3) = (   0.0000000   0.0000000   0.3333333), wk =   0.0023148
        k(    4) = (   0.0000000   0.0000000  -0.5000000), wk =   0.0011574
        k(    5) = (   0.0000000   0.0833333   0.0000000), wk =   0.0069444
        k(    6) = (   0.0000000   0.0833333   0.1666667), wk =   0.0138889
        k(    7) = (   0.0000000   0.0833333   0.3333333), wk =   0.0138889
        k(    8) = (   0.0000000   0.0833333  -0.5000000), wk =   0.0069444
        k(    9) = (   0.0000000   0.1666667   0.0000000), wk =   0.0069444
        k(   10) = (   0.0000000   0.1666667   0.1666667), wk =   0.0138889
        k(   11) = (   0.0000000   0.1666667   0.3333333), wk =   0.0138889
        k(   12) = (   0.0000000   0.1666667  -0.5000000), wk =   0.0069444
        k(   13) = (   0.0000000   0.2500000   0.0000000), wk =   0.0069444
        k(   14) = (   0.0000000   0.2500000   0.1666667), wk =   0.0138889
        k(   15) = (   0.0000000   0.2500000   0.3333333), wk =   0.0138889
        k(   16) = (   0.0000000   0.2500000  -0.5000000), wk =   0.0069444
        k(   17) = (   0.0000000   0.3333333   0.0000000), wk =   0.0069444
        k(   18) = (   0.0000000   0.3333333   0.1666667), wk =   0.0138889
        k(   19) = (   0.0000000   0.3333333   0.3333333), wk =   0.0138889
        k(   20) = (   0.0000000   0.3333333  -0.5000000), wk =   0.0069444
        k(   21) = (   0.0000000   0.4166667   0.0000000), wk =   0.0069444
        k(   22) = (   0.0000000   0.4166667   0.1666667), wk =   0.0138889
        k(   23) = (   0.0000000   0.4166667   0.3333333), wk =   0.0138889
        k(   24) = (   0.0000000   0.4166667  -0.5000000), wk =   0.0069444
        k(   25) = (   0.0000000  -0.5000000   0.0000000), wk =   0.0034722
        k(   26) = (   0.0000000  -0.5000000   0.1666667), wk =   0.0069444
        k(   27) = (   0.0000000  -0.5000000   0.3333333), wk =   0.0069444
        k(   28) = (   0.0000000  -0.5000000  -0.5000000), wk =   0.0034722
        k(   29) = (   0.0833333   0.0833333   0.0000000), wk =   0.0069444
        k(   30) = (   0.0833333   0.0833333   0.1666667), wk =   0.0138889
        k(   31) = (   0.0833333   0.0833333   0.3333333), wk =   0.0138889
        k(   32) = (   0.0833333   0.0833333  -0.5000000), wk =   0.0069444
        k(   33) = (   0.0833333   0.1666667   0.0000000), wk =   0.0138889
        k(   34) = (   0.0833333   0.1666667   0.1666667), wk =   0.0277778
        k(   35) = (   0.0833333   0.1666667   0.3333333), wk =   0.0277778
        k(   36) = (   0.0833333   0.1666667  -0.5000000), wk =   0.0138889
        k(   37) = (   0.0833333   0.2500000   0.0000000), wk =   0.0138889
        k(   38) = (   0.0833333   0.2500000   0.1666667), wk =   0.0277778
        k(   39) = (   0.0833333   0.2500000   0.3333333), wk =   0.0277778
        k(   40) = (   0.0833333   0.2500000  -0.5000000), wk =   0.0138889
        k(   41) = (   0.0833333   0.3333333   0.0000000), wk =   0.0138889
        k(   42) = (   0.0833333   0.3333333   0.1666667), wk =   0.0277778
        k(   43) = (   0.0833333   0.3333333   0.3333333), wk =   0.0277778
        k(   44) = (   0.0833333   0.3333333  -0.5000000), wk =   0.0138889
        k(   45) = (   0.0833333   0.4166667   0.0000000), wk =   0.0138889
        k(   46) = (   0.0833333   0.4166667   0.1666667), wk =   0.0277778
        k(   47) = (   0.0833333   0.4166667   0.3333333), wk =   0.0277778
        k(   48) = (   0.0833333   0.4166667  -0.5000000), wk =   0.0138889
        k(   49) = (   0.1666667   0.1666667   0.0000000), wk =   0.0069444
        k(   50) = (   0.1666667   0.1666667   0.1666667), wk =   0.0138889
        k(   51) = (   0.1666667   0.1666667   0.3333333), wk =   0.0138889
        k(   52) = (   0.1666667   0.1666667  -0.5000000), wk =   0.0069444
        k(   53) = (   0.1666667   0.2500000   0.0000000), wk =   0.0138889
        k(   54) = (   0.1666667   0.2500000   0.1666667), wk =   0.0277778
        k(   55) = (   0.1666667   0.2500000   0.3333333), wk =   0.0277778
        k(   56) = (   0.1666667   0.2500000  -0.5000000), wk =   0.0138889
        k(   57) = (   0.1666667   0.3333333   0.0000000), wk =   0.0138889
        k(   58) = (   0.1666667   0.3333333   0.1666667), wk =   0.0277778
        k(   59) = (   0.1666667   0.3333333   0.3333333), wk =   0.0277778
        k(   60) = (   0.1666667   0.3333333  -0.5000000), wk =   0.0138889
        k(   61) = (   0.1666667   0.4166667   0.0000000), wk =   0.0069444
        k(   62) = (   0.1666667   0.4166667   0.1666667), wk =   0.0138889
        k(   63) = (   0.1666667   0.4166667   0.3333333), wk =   0.0138889
        k(   64) = (   0.1666667   0.4166667  -0.5000000), wk =   0.0069444
        k(   65) = (   0.2500000   0.2500000   0.0000000), wk =   0.0069444
        k(   66) = (   0.2500000   0.2500000   0.1666667), wk =   0.0138889
        k(   67) = (   0.2500000   0.2500000   0.3333333), wk =   0.0138889
        k(   68) = (   0.2500000   0.2500000  -0.5000000), wk =   0.0069444
        k(   69) = (   0.2500000   0.3333333   0.0000000), wk =   0.0138889
        k(   70) = (   0.2500000   0.3333333   0.1666667), wk =   0.0277778
        k(   71) = (   0.2500000   0.3333333   0.3333333), wk =   0.0277778
        k(   72) = (   0.2500000   0.3333333  -0.5000000), wk =   0.0138889
        k(   73) = (   0.3333333   0.3333333   0.0000000), wk =   0.0023148
        k(   74) = (   0.3333333   0.3333333   0.1666667), wk =   0.0046296
        k(   75) = (   0.3333333   0.3333333   0.3333333), wk =   0.0046296
        k(   76) = (   0.3333333   0.3333333  -0.5000000), wk =   0.0023148

     Dense  grid:    23115 G-vectors     FFT dimensions: (  32,  32,  54)

     Smooth grid:    22491 G-vectors     FFT dimensions: (  32,  32,  54)

     Dynamical RAM for                 wfc:       0.06 MB

     Dynamical RAM for     wfc (w. buffer):       4.93 MB

     Dynamical RAM for           str. fact:       0.03 MB

     Dynamical RAM for           local pot:       0.00 MB

     Dynamical RAM for          nlocal pot:       0.11 MB

     Dynamical RAM for                qrad:       1.70 MB

     Dynamical RAM for          rho,v,vnew:       0.34 MB

     Dynamical RAM for               rhoin:       0.11 MB

     Dynamical RAM for            rho*nmix:       0.81 MB

     Dynamical RAM for           G-vectors:       0.11 MB

     Dynamical RAM for          h,s,v(r/c):       0.08 MB

     Dynamical RAM for          <psi|beta>:       0.01 MB

     Dynamical RAM for                 psi:       0.13 MB

     Dynamical RAM for                hpsi:       0.13 MB

     Dynamical RAM for                spsi:       0.13 MB

     Dynamical RAM for      wfcinit/wfcrot:       0.14 MB

     Dynamical RAM for           addusdens:       2.41 MB

     Estimated static dynamical RAM per process >       7.57 MB

     Estimated max dynamical RAM per process >      10.79 MB

     Estimated total dynamical RAM >     290.83 MB

     Check: negative core charge=   -0.000044
     Generating pointlists ...
     new r_m :   0.4079 (alat units)  1.9155 (a.u.) for type    1

     The initial density is read from file :
     ./out2/Co.save/charge-density


     starting charge      34.0427, renormalised to      34.0000
     Starting wfcs from file
     Checking if some PAW data can be deallocated... 

     total cpu time spent up to now is        0.5 secs

     Self-consistent Calculation

     iteration #  1     ecut=   110.00 Ry     beta= 0.70
     Davidson diagonalization with overlap

---- Real-time Memory Report at c_bands before calling an iterative solver
            59 MiB given to the printing process from OS
             0 MiB allocation reported by mallinfo(arena+hblkhd)
        181388 MiB available memory on the node where the printing process lives
------------------
     ethr =  1.00E-05,  avg # of iterations =  2.4

     total cpu time spent up to now is        1.5 secs

     total energy              =    -753.45454264 Ry
     estimated scf accuracy    <       0.00062616 Ry

     total magnetization       =     3.28 Bohr mag/cell
     absolute magnetization    =     3.59 Bohr mag/cell

     iteration #  2     ecut=   110.00 Ry     beta= 0.70
     Davidson diagonalization with overlap

---- Real-time Memory Report at c_bands before calling an iterative solver
            83 MiB given to the printing process from OS
             0 MiB allocation reported by mallinfo(arena+hblkhd)
        181049 MiB available memory on the node where the printing process lives
------------------
     ethr =  1.84E-06,  avg # of iterations =  4.2

     total cpu time spent up to now is        2.7 secs

     total energy              =    -753.45469585 Ry
     estimated scf accuracy    <       0.00120367 Ry

     total magnetization       =     3.29 Bohr mag/cell
     absolute magnetization    =     3.60 Bohr mag/cell

     iteration #  3     ecut=   110.00 Ry     beta= 0.70
     Davidson diagonalization with overlap

---- Real-time Memory Report at c_bands before calling an iterative solver
            85 MiB given to the printing process from OS
             0 MiB allocation reported by mallinfo(arena+hblkhd)
        181027 MiB available memory on the node where the printing process lives
------------------
     ethr =  1.84E-06,  avg # of iterations =  3.8

     total cpu time spent up to now is        3.7 secs

     total energy              =    -753.45495757 Ry
     estimated scf accuracy    <       0.00000518 Ry

     total magnetization       =     3.28 Bohr mag/cell
     absolute magnetization    =     3.59 Bohr mag/cell

     iteration #  4     ecut=   110.00 Ry     beta= 0.70
     Davidson diagonalization with overlap

---- Real-time Memory Report at c_bands before calling an iterative solver
            85 MiB given to the printing process from OS
             0 MiB allocation reported by mallinfo(arena+hblkhd)
        181018 MiB available memory on the node where the printing process lives
------------------
     ethr =  1.52E-08,  avg # of iterations =  6.8

     total cpu time spent up to now is        5.4 secs

     total energy              =    -753.45496999 Ry
     estimated scf accuracy    <       0.00000713 Ry

     total magnetization       =     3.28 Bohr mag/cell
     absolute magnetization    =     3.60 Bohr mag/cell

     iteration #  5     ecut=   110.00 Ry     beta= 0.70
     Davidson diagonalization with overlap

---- Real-time Memory Report at c_bands before calling an iterative solver
            87 MiB given to the printing process from OS
             0 MiB allocation reported by mallinfo(arena+hblkhd)
        181008 MiB available memory on the node where the printing process lives
------------------
     ethr =  1.52E-08,  avg # of iterations =  2.6
 
     Magnetic moment per site  (integrated on atomic sphere of radius R)
     atom   1 (R=0.408)  charge= 15.5609  magn=  1.7134
     atom   2 (R=0.408)  charge= 15.5609  magn=  1.7134

     total cpu time spent up to now is        6.3 secs

     End of self-consistent calculation

 ------ SPIN UP ------------


          k = 0.0000 0.0000 0.0000 (  2803 PWs)   bands (ev):

   -77.0689 -77.0062 -40.4787 -40.1761 -40.1761 -40.1245 -40.1237 -40.1237
     9.9668  13.7966  16.4155  16.4155  16.4259  16.7469  16.7469  17.0724
    17.0724  18.2377  18.2377  18.8957  25.6155

     occupation numbers 
     1.0000   1.0000   1.0000   1.0000   1.0000   1.0000   1.0000   1.0000
     1.0000   1.0000   1.0000   1.0000   1.0000   1.0000   1.0000   1.0000
     1.0000   1.0000   1.0000   1.0000   0.0000

          k = 0.0000 0.0000 0.1038 (  2821 PWs)   bands (ev):

   -77.0647 -77.0104 -40.4553 -40.1726 -40.1726 -40.1486 -40.1272 -40.1272
    10.2506  13.7338  16.3426  16.3426  16.3503  16.6670  16.6670  17.2494
    17.2494  17.9183  18.2226  18.2226  27.1614

     occupation numbers 
     1.0000   1.0000   1.0000   1.0000   1.0000   1.0000   1.0000   1.0000
     1.0000   1.0000   1.0000   1.0000   1.0000   1.0000   1.0000   1.0000
     1.0000   1.0000   1.0000   1.0000   0.0000

          k = 0.0000 0.0000 0.2076 (  2773 PWs)   bands (ev):

   -77.0532 -77.0219 -40.3911 -40.2140 -40.1630 -40.1630 -40.1368 -40.1368
    11.0635  13.3115  16.1749  16.2816  16.2816  16.4917  16.4917  16.5567
    17.5929  17.5929  18.1336  18.1336  30.4294

     occupation numbers 
     1.0000   1.0000   1.0000   1.0000   1.0000   1.0000   1.0000   1.0000
     1.0000   1.0000   1.0000   1.0000   1.0000   1.0000   1.0000   1.0000
     1.0000   1.0000   1.0000   1.0000   0.0000

          k = 0.0000 0.0000-0.3114 (  2822 PWs)   bands (ev):

   -77.0376 -77.0376 -40.3030 -40.3030 -40.1499 -40.1499 -40.1499 -40.1499
    12.2431  12.2431  16.0874  16.0874  16.3366  16.3366  16.3366  16.3366
    17.9177  17.9177  17.9177  17.9177  34.3211

     occupation numbers 
     1.0000   1.0000   1.0000   1.0000   1.0000   1.0000   1.0000   1.0000
     1.0000   1.0000   1.0000   1.0000   1.0000   1.0000   1.0000   1.0000
     1.0000   1.0000   1.0000   1.0000   0.0000

          k = 0.0000 0.0962 0.0000 (  2811 PWs)   bands (ev):

   -77.0655 -77.0047 -40.4711 -40.1922 -40.1815 -40.1404 -40.1278 -40.1263
    10.2103  13.9417  16.1783  16.5313  16.6216  16.7019  16.8489  16.9180
    16.9990  17.4265  18.2698  20.0283  25.6541

     occupation numbers 
     1.0000   1.0000   1.0000   1.0000   1.0000   1.0000   1.0000   1.0000
     1.0000   1.0000   1.0000   1.0000   1.0000   1.0000   1.0000   1.0000
     1.0000   1.0000   1.0000   0.0000   0.0000

          k = 0.0000 0.0962 0.1038 (  2802 PWs)   bands (ev):

   -77.0614 -77.0088 -40.4491 -40.1882 -40.1778 -40.1610 -40.1339 -40.1300
    10.4896  13.8938  16.1733  16.4331  16.4399  16.5098  16.7625  17.0873
    17.2055  17.3107  18.2469  19.2338  27.2686

     occupation numbers 
     1.0000   1.0000   1.0000   1.0000   1.0000   1.0000   1.0000   1.0000
     1.0000   1.0000   1.0000   1.0000   1.0000   1.0000   1.0000   1.0000
     1.0000   1.0000   1.0000   0.0000   0.0000

          k = 0.0000 0.0962 0.2076 (  2794 PWs)   bands (ev):

   -77.0503 -77.0199 -40.3886 -40.2221 -40.1768 -40.1677 -40.1459 -40.1401
    11.2895  13.5006  16.0672  16.1426  16.2116  16.3721  16.5862  16.6811
    17.5675  17.6167  18.1404  18.4426  30.5809

     occupation numbers 
     1.0000   1.0000   1.0000   1.0000   1.0000   1.0000   1.0000   1.0000
     1.0000   1.0000   1.0000   1.0000   1.0000   1.0000   1.0000   1.0000
     1.0000   1.0000   1.0000   1.0000   0.0000

          k = 0.0000 0.0962-0.3114 (  2816 PWs)   bands (ev):

   -77.0352 -77.0352 -40.3056 -40.3056 -40.1614 -40.1614 -40.1539 -40.1539
    12.4502  12.4502  15.9220  15.9220  16.3656  16.3656  16.4291  16.4291
    17.9068  17.9068  18.0133  18.0133  34.4867

     occupation numbers 
     1.0000   1.0000   1.0000   1.0000   1.0000   1.0000   1.0000   1.0000
     1.0000   1.0000   1.0000   1.0000   1.0000   1.0000   1.0000   1.0000
     1.0000   1.0000   1.0000   1.0000   0.0000

          k = 0.0000 0.1925 0.0000 (  2799 PWs)   bands (ev):

   -77.0562 -77.0009 -40.4495 -40.2364 -40.1958 -40.1857 -40.1377 -40.1337
    10.9143  14.3003  15.8894  16.1952  16.5290  16.8180  16.8585  16.9350
    17.0450  17.1349  18.3386  21.6435  25.7897

     occupation numbers 
     1.0000   1.0000   1.0000   1.0000   1.0000   1.0000   1.0000   1.0000
     1.0000   1.0000   1.0000   1.0000   1.0000   1.0000   1.0000   1.0000
     1.0000   1.0000   1.0000   0.0000   0.0000

          k = 0.0000 0.1925 0.1038 (  2793 PWs)   bands (ev):

   -77.0525 -77.0046 -40.4320 -40.2303 -40.2027 -40.1916 -40.1448 -40.1379
    11.1770  14.2979  15.9086  15.9345  16.4076  16.6451  16.8082  17.0100
    17.1927  17.3044  18.2982  20.4919  27.6167

     occupation numbers 
     1.0000   1.0000   1.0000   1.0000   1.0000   1.0000   1.0000   1.0000
     1.0000   1.0000   1.0000   1.0000   1.0000   1.0000   1.0000   1.0000
     1.0000   1.0000   1.0000   0.0000   0.0000

          k = 0.0000 0.1925 0.2076 (  2804 PWs)   bands (ev):

   -77.0424 -77.0148 -40.3839 -40.2523 -40.2113 -40.1803 -40.1632 -40.1492
    11.9258  13.9910  15.5544  15.9835  16.1196  16.5924  16.6194  16.8489
    17.5419  17.7154  18.1547  19.1071  31.0329

     occupation numbers 
     1.0000   1.0000   1.0000   1.0000   1.0000   1.0000   1.0000   1.0000
     1.0000   1.0000   1.0000   1.0000   1.0000   1.0000   1.0000   1.0000
     1.0000   1.0000   1.0000   0.0000   0.0000

          k = 0.0000 0.1925-0.3114 (  2794 PWs)   bands (ev):

   -77.0286 -77.0286 -40.3180 -40.3180 -40.1875 -40.1875 -40.1648 -40.1648
    13.0066  13.0066  15.6748  15.6748  16.3151  16.3151  16.6758  16.6758
    17.8910  17.8910  18.2701  18.2701  34.9287

     occupation numbers 
     1.0000   1.0000   1.0000   1.0000   1.0000   1.0000   1.0000   1.0000
     1.0000   1.0000   1.0000   1.0000   1.0000   1.0000   1.0000   1.0000
     1.0000   1.0000   1.0000   1.0000   0.0000

          k = 0.0000 0.2887 0.0000 (  2782 PWs)   bands (ev):

   -77.0429 -76.9962 -40.4171 -40.2972 -40.2466 -40.2147 -40.1542 -40.1443
    11.9793  14.5897  15.4558  15.7069  16.4387  16.6006  16.8461  17.3331
    17.3687  17.5462  18.4045  23.4590  26.0472

     occupation numbers 
     1.0000   1.0000   1.0000   1.0000   1.0000   1.0000   1.0000   1.0000
     1.0000   1.0000   1.0000   1.0000   1.0000   1.0000   1.0000   1.0000
     1.0000   1.0000   1.0000   0.0000   0.0000

          k = 0.0000 0.2887 0.1038 (  2794 PWs)   bands (ev):

   -77.0397 -76.9994 -40.4099 -40.2857 -40.2610 -40.2100 -40.1586 -40.1491
    12.1978  14.6418  15.3056  15.7600  16.2791  16.6390  16.8526  17.3817
    17.4904  17.4971  18.3474  21.7952  28.2347

     occupation numbers 
     1.0000   1.0000   1.0000   1.0000   1.0000   1.0000   1.0000   1.0000
     1.0000   1.0000   1.0000   1.0000   1.0000   1.0000   1.0000   1.0000
     1.0000   1.0000   1.0000   0.0000   0.0000

          k = 0.0000 0.2887 0.2076 (  2802 PWs)   bands (ev):

   -77.0312 -77.0079 -40.3872 -40.3052 -40.2472 -40.1972 -40.1762 -40.1620
    12.8057  14.4260  15.2074  15.8077  16.1297  16.6857  16.7638  17.2215
    17.6618  17.8858  18.1806  19.8984  31.6095

     occupation numbers 
     1.0000   1.0000   1.0000   1.0000   1.0000   1.0000   1.0000   1.0000
     1.0000   1.0000   1.0000   1.0000   1.0000   1.0000   1.0000   1.0000
     1.0000   1.0000   1.0000   0.0000   0.0000

          k = 0.0000 0.2887-0.3114 (  2798 PWs)   bands (ev):

   -77.0196 -77.0196 -40.3496 -40.3496 -40.2084 -40.2084 -40.1796 -40.1796
    13.6461  13.6461  15.5181  15.5181  16.3712  16.3712  16.9729  16.9729
    17.9315  17.9315  18.6268  18.6268  33.5585

     occupation numbers 
     1.0000   1.0000   1.0000   1.0000   1.0000   1.0000   1.0000   1.0000
     1.0000   1.0000   1.0000   1.0000   1.0000   1.0000   1.0000   1.0000
     1.0000   1.0000   1.0000   1.0000   0.0000

          k = 0.0000 0.3849 0.0000 (  2826 PWs)   bands (ev):

   -77.0286 -76.9925 -40.3791 -40.3586 -40.3063 -40.2332 -40.1763 -40.1554
    13.1442  14.5253  14.9168  15.8055  16.4050  16.5632  16.6714  17.8390
    17.9930  18.0568  18.4503  25.4320  26.0288

     occupation numbers 
     1.0000   1.0000   1.0000   1.0000   1.0000   1.0000   1.0000   1.0000
     1.0000   1.0000   1.0000   1.0000   1.0000   1.0000   1.0000   1.0000
     1.0000   1.0000   1.0000   0.0000   0.0000

          k = 0.0000 0.3849 0.1038 (  2801 PWs)   bands (ev):

   -77.0261 -76.9949 -40.4022 -40.3318 -40.3097 -40.2280 -40.1765 -40.1606
    13.2463  14.5668  14.9472  15.6765  16.4653  16.5007  17.0171  17.8635
    17.8957  17.9924  18.3904  23.0423  28.1130

     occupation numbers 
     1.0000   1.0000   1.0000   1.0000   1.0000   1.0000   1.0000   1.0000
     1.0000   1.0000   1.0000   1.0000   1.0000   1.0000   1.0000   1.0000
     1.0000   1.0000   1.0000   0.0000   0.0000

          k = 0.0000 0.3849 0.2076 (  2807 PWs)   bands (ev):

   -77.0196 -77.0015 -40.4104 -40.3619 -40.2616 -40.2138 -40.1864 -40.1749
    13.5327  14.3951  15.0851  15.6170  16.5465  16.7708  17.3060  17.5749
    17.9735  18.1191  18.2587  20.7910  29.1931

     occupation numbers 
     1.0000   1.0000   1.0000   1.0000   1.0000   1.0000   1.0000   1.0000
     1.0000   1.0000   1.0000   1.0000   1.0000   1.0000   1.0000   1.0000
     1.0000   1.0000   1.0000   0.0000   0.0000

          k = 0.0000 0.3849-0.3114 (  2802 PWs)   bands (ev):

   -77.0106 -77.0106 -40.3946 -40.3946 -40.2155 -40.2155 -40.1944 -40.1944
    13.9516  13.9516  15.3964  15.3964  16.9677  16.9677  17.1612  17.1612
    18.1100  18.1100  19.1116  19.1116  30.3358

     occupation numbers 
     1.0000   1.0000   1.0000   1.0000   1.0000   1.0000   1.0000   1.0000
     1.0000   1.0000   1.0000   1.0000   1.0000   1.0000   1.0000   1.0000
     1.0000   1.0000   0.0000   0.0000   0.0000

          k = 0.0000 0.4811 0.0000 (  2816 PWs)   bands (ev):

   -77.0168 -76.9911 -40.4039 -40.3493 -40.3438 -40.2465 -40.1998 -40.1637
    13.9192  14.3365  14.5935  16.1609  16.2715  16.5486  16.7675  18.2169
    18.3641  18.4751  19.1687  24.0854  27.4627

     occupation numbers 
     1.0000   1.0000   1.0000   1.0000   1.0000   1.0000   1.0000   1.0000
     1.0000   1.0000   1.0000   1.0000   1.0000   1.0000   1.0000   1.0000
     1.0000   1.0000   0.0000   0.0000   0.0000

          k = 0.0000 0.4811 0.1038 (  2798 PWs)   bands (ev):

   -77.0150 -76.9929 -40.4242 -40.3684 -40.3086 -40.2410 -40.1954 -40.1693
    13.8099  14.3383  14.9151  15.5753  16.3891  16.7561  17.3648  18.1724
    18.2609  18.4526  19.0031  23.3165  26.7333

     occupation numbers 
     1.0000   1.0000   1.0000   1.0000   1.0000   1.0000   1.0000   1.0000
     1.0000   1.0000   1.0000   1.0000   1.0000   1.0000   1.0000   1.0000
     1.0000   1.0000   0.4801   0.0000   0.0000

          k = 0.0000 0.4811 0.2076 (  2803 PWs)   bands (ev):

   -77.0104 -76.9975 -40.4400 -40.4037 -40.2569 -40.2259 -40.1958 -40.1845
    13.7800  14.2715  15.0742  15.4246  16.7232  16.9868  17.7540  18.2886
    18.3601  18.4068  18.6540  21.5933  26.8472

     occupation numbers 
     1.0000   1.0000   1.0000   1.0000   1.0000   1.0000   1.0000   1.0000
     1.0000   1.0000   1.0000   1.0000   1.0000   1.0000   1.0000   1.0000
     1.0000   1.0000   1.0000   0.0000   0.0000

          k = 0.0000 0.4811-0.3114 (  2810 PWs)   bands (ev):

   -77.0039 -77.0039 -40.4321 -40.4321 -40.2160 -40.2160 -40.2052 -40.2052
    13.9713  13.9713  15.2758  15.2758  17.2142  17.2142  17.7094  17.7094
    18.3472  18.3472  19.9175  19.9175  27.6337

     occupation numbers 
     1.0000   1.0000   1.0000   1.0000   1.0000   1.0000   1.0000   1.0000
     1.0000   1.0000   1.0000   1.0000   1.0000   1.0000   1.0000   1.0000
     1.0000   1.0000   0.0000   0.0000   0.0000

          k = 0.0000-0.5774 0.0000 (  2806 PWs)   bands (ev):

   -77.0118 -76.9913 -40.4205 -40.3649 -40.3272 -40.2513 -40.2121 -40.1668
    14.1833  14.1959  14.4860  16.2244  16.4072  16.5043  16.8467  18.3533
    18.4828  18.5147  20.3178  22.3535  28.7752

     occupation numbers 
     1.0000   1.0000   1.0000   1.0000   1.0000   1.0000   1.0000   1.0000
     1.0000   1.0000   1.0000   1.0000   1.0000   1.0000   1.0000   1.0000
     1.0000   1.0000   0.0000   0.0000   0.0000

          k = 0.0000-0.5774 0.1038 (  2814 PWs)   bands (ev):

   -77.0104 -76.9926 -40.4369 -40.3832 -40.2993 -40.2457 -40.2051 -40.1725
    13.9143  14.2382  14.9529  15.5484  16.3482  16.8480  17.5642  18.2465
    18.4149  18.5064  20.1011  22.1740  27.8853

     occupation numbers 
     1.0000   1.0000   1.0000   1.0000   1.0000   1.0000   1.0000   1.0000
     1.0000   1.0000   1.0000   1.0000   1.0000   1.0000   1.0000   1.0000
     1.0000   1.0000   0.0000   0.0000   0.0000

          k = 0.0000-0.5774 0.2076 (  2810 PWs)   bands (ev):

   -77.0067 -76.9964 -40.4526 -40.4189 -40.2521 -40.2303 -40.2005 -40.1880
    13.8003  14.2235  15.0978  15.3378  16.7006  17.1362  17.7943  18.4228
    18.4780  18.4836  19.7467  21.5669  26.8227

     occupation numbers 
     1.0000   1.0000   1.0000   1.0000   1.0000   1.0000   1.0000   1.0000
     1.0000   1.0000   1.0000   1.0000   1.0000   1.0000   1.0000   1.0000
     1.0000   1.0000   0.0000   0.0000   0.0000

          k = 0.0000-0.5774-0.3114 (  2816 PWs)   bands (ev):

   -77.0015 -77.0015 -40.4464 -40.4464 -40.2156 -40.2156 -40.2092 -40.2092
    13.9529  13.9529  15.2277  15.2277  17.2202  17.2202  17.9638  17.9638
    18.4526  18.4526  20.5455  20.5455  26.3910

     occupation numbers 
     1.0000   1.0000   1.0000   1.0000   1.0000   1.0000   1.0000   1.0000
     1.0000   1.0000   1.0000   1.0000   1.0000   1.0000   1.0000   1.0000
     1.0000   1.0000   0.0000   0.0000   0.0000

          k = 0.0833 0.1443 0.0000 (  2806 PWs)   bands (ev):

   -77.0592 -77.0021 -40.4565 -40.2195 -40.1977 -40.1658 -40.1344 -40.1334
    10.6849  14.1992  15.9515  16.4453  16.5941  16.7679  16.7857  16.7935
    17.0749  17.1633  18.3106  21.1912  25.7432

     occupation numbers 
     1.0000   1.0000   1.0000   1.0000   1.0000   1.0000   1.0000   1.0000
     1.0000   1.0000   1.0000   1.0000   1.0000   1.0000   1.0000   1.0000
     1.0000   1.0000   1.0000   0.0000   0.0000

          k = 0.0833 0.1443 0.1038 (  2798 PWs)   bands (ev):

   -77.0553 -77.0059 -40.4374 -40.2141 -40.1983 -40.1800 -40.1406 -40.1374
    10.9539  14.1822  15.9761  16.1036  16.4509  16.6112  16.7792  16.9261
    17.2277  17.2766  18.2786  20.1508  27.4983

     occupation numbers 
     1.0000   1.0000   1.0000   1.0000   1.0000   1.0000   1.0000   1.0000
     1.0000   1.0000   1.0000   1.0000   1.0000   1.0000   1.0000   1.0000
     1.0000   1.0000   1.0000   0.0000   0.0000

          k = 0.0833 0.1443 0.2076 (  2794 PWs)   bands (ev):

   -77.0449 -77.0164 -40.3849 -40.2414 -40.1993 -40.1795 -40.1557 -40.1482
    11.7224  13.8470  15.6827  16.0326  16.1323  16.5316  16.6305  16.7664
    17.5724  17.6563  18.1543  18.9146  30.8858

     occupation numbers 
     1.0000   1.0000   1.0000   1.0000   1.0000   1.0000   1.0000   1.0000
     1.0000   1.0000   1.0000   1.0000   1.0000   1.0000   1.0000   1.0000
     1.0000   1.0000   1.0000   1.0000   0.0000

          k = 0.0833 0.1443-0.3114 (  2794 PWs)   bands (ev):

   -77.0307 -77.0307 -40.3130 -40.3130 -40.1800 -40.1800 -40.1617 -40.1617
    12.8356  12.8356  15.7363  15.7363  16.3147  16.3147  16.6114  16.6114
    17.8968  17.8968  18.1899  18.1899  34.8041

     occupation numbers 
     1.0000   1.0000   1.0000   1.0000   1.0000   1.0000   1.0000   1.0000
     1.0000   1.0000   1.0000   1.0000   1.0000   1.0000   1.0000   1.0000
     1.0000   1.0000   1.0000   1.0000   0.0000

          k = 0.0833 0.2406 0.0000 (  2792 PWs)   bands (ev):

   -77.0478 -76.9979 -40.4294 -40.2680 -40.2370 -40.1968 -40.1477 -40.1457
    11.5778  14.5666  15.6666  15.7279  16.4757  16.5655  17.0070  17.0444
    17.1993  17.4973  18.3615  22.8045  25.9626

     occupation numbers 
     1.0000   1.0000   1.0000   1.0000   1.0000   1.0000   1.0000   1.0000
     1.0000   1.0000   1.0000   1.0000   1.0000   1.0000   1.0000   1.0000
     1.0000   1.0000   1.0000   0.0000   0.0000

          k = 0.0833 0.2406 0.1038 (  2794 PWs)   bands (ev):

   -77.0445 -77.0012 -40.4173 -40.2599 -40.2448 -40.2014 -40.1529 -40.1487
    11.8184  14.6094  15.5097  15.7171  16.3452  16.6099  16.8078  17.1484
    17.4064  17.4839  18.3226  21.3472  28.0053

     occupation numbers 
     1.0000   1.0000   1.0000   1.0000   1.0000   1.0000   1.0000   1.0000
     1.0000   1.0000   1.0000   1.0000   1.0000   1.0000   1.0000   1.0000
     1.0000   1.0000   1.0000   0.0000   0.0000

          k = 0.0833 0.2406 0.2076 (  2802 PWs)   bands (ev):

   -77.0354 -77.0104 -40.3833 -40.2837 -40.2326 -40.1981 -40.1677 -40.1605
    12.4978  14.3683  15.2922  15.8244  16.0777  16.5121  16.7429  17.0891
    17.6635  17.7925  18.1959  19.6242  31.4760

     occupation numbers 
     1.0000   1.0000   1.0000   1.0000   1.0000   1.0000   1.0000   1.0000
     1.0000   1.0000   1.0000   1.0000   1.0000   1.0000   1.0000   1.0000
     1.0000   1.0000   1.0000   0.0000   0.0000

          k = 0.0833 0.2406-0.3114 (  2786 PWs)   bands (ev):

   -77.0229 -77.0229 -40.3346 -40.3346 -40.2036 -40.2036 -40.1748 -40.1748
    13.4634  13.4634  15.5709  15.5709  16.2108  16.2108  16.8948  16.8948
    17.9405  17.9405  18.4991  18.4991  35.0430

     occupation numbers 
     1.0000   1.0000   1.0000   1.0000   1.0000   1.0000   1.0000   1.0000
     1.0000   1.0000   1.0000   1.0000   1.0000   1.0000   1.0000   1.0000
     1.0000   1.0000   1.0000   1.0000   0.0000

          k = 0.0833 0.3368 0.0000 (  2796 PWs)   bands (ev):

   -77.0340 -76.9937 -40.3939 -40.3277 -40.2870 -40.2249 -40.1672 -40.1589
    12.7290  14.6908  15.1377  15.5812  16.3736  16.4908  16.8120  17.4495
    17.7117  18.0699  18.4048  24.6600  26.2765

     occupation numbers 
     1.0000   1.0000   1.0000   1.0000   1.0000   1.0000   1.0000   1.0000
     1.0000   1.0000   1.0000   1.0000   1.0000   1.0000   1.0000   1.0000
     1.0000   1.0000   1.0000   0.0000   0.0000

          k = 0.0833 0.3368 0.1038 (  2802 PWs)   bands (ev):

   -77.0313 -76.9964 -40.3990 -40.3131 -40.2919 -40.2244 -40.1704 -40.1610
    12.8971  14.7661  15.0384  15.6347  16.2568  16.6085  16.7937  17.4674
    17.8085  17.9373  18.4047  22.6272  28.6885

     occupation numbers 
     1.0000   1.0000   1.0000   1.0000   1.0000   1.0000   1.0000   1.0000
     1.0000   1.0000   1.0000   1.0000   1.0000   1.0000   1.0000   1.0000
     1.0000   1.0000   1.0000   0.0000   0.0000

          k = 0.0833 0.3368 0.2076 (  2803 PWs)   bands (ev):

   -77.0239 -77.0038 -40.3954 -40.3377 -40.2570 -40.2161 -40.1836 -40.1704
    13.3518  14.5418  15.1355  15.7292  16.1563  16.6433  16.8281  17.4298
    17.8985  18.0646  18.3608  20.4917  30.8360

     occupation numbers 
     1.0000   1.0000   1.0000   1.0000   1.0000   1.0000   1.0000   1.0000
     1.0000   1.0000   1.0000   1.0000   1.0000   1.0000   1.0000   1.0000
     1.0000   1.0000   1.0000   0.0000   0.0000

          k = 0.0833 0.3368-0.3114 (  2804 PWs)   bands (ev):

   -77.0139 -77.0139 -40.3728 -40.3728 -40.2194 -40.2194 -40.1879 -40.1879
    13.9587  13.9587  15.4962  15.4962  16.3770  16.3770  17.1002  17.1002
    18.1352  18.1352  18.9644  18.9644  32.0470

     occupation numbers 
     1.0000   1.0000   1.0000   1.0000   1.0000   1.0000   1.0000   1.0000
     1.0000   1.0000   1.0000   1.0000   1.0000   1.0000   1.0000   1.0000
     1.0000   1.0000   1.0000   1.0000   0.0000

          k = 0.0833 0.4330 0.0000 (  2812 PWs)   bands (ev):

   -77.0207 -76.9914 -40.3808 -40.3562 -40.3312 -40.2467 -40.1911 -40.1702
    13.7481  14.5174  14.7366  15.8038  16.2480  16.6205  16.6851  17.9566
    18.1507  18.4322  18.8747  25.4487  26.6701

     occupation numbers 
     1.0000   1.0000   1.0000   1.0000   1.0000   1.0000   1.0000   1.0000
     1.0000   1.0000   1.0000   1.0000   1.0000   1.0000   1.0000   1.0000
     1.0000   1.0000   1.0000   0.0000   0.0000

          k = 0.0833 0.4330 0.1038 (  2809 PWs)   bands (ev):

   -77.0188 -76.9933 -40.4074 -40.3524 -40.3109 -40.2427 -40.1901 -40.1727
    13.7426  14.5498  14.8881  15.5803  16.3293  16.6807  16.9696  17.9024
    18.2158  18.2370  18.8790  23.6822  27.2182

     occupation numbers 
     1.0000   1.0000   1.0000   1.0000   1.0000   1.0000   1.0000   1.0000
     1.0000   1.0000   1.0000   1.0000   1.0000   1.0000   1.0000   1.0000
     1.0000   1.0000   1.0000   0.0000   0.0000

          k = 0.0833 0.4330 0.2076 (  2809 PWs)   bands (ev):

   -77.0134 -76.9987 -40.4224 -40.3845 -40.2632 -40.2279 -40.1994 -40.1786
    13.8304  14.4261  15.0754  15.5767  16.4392  16.8767  17.3447  17.6356
    18.0879  18.3917  18.9426  21.5009  27.9314

     occupation numbers 
     1.0000   1.0000   1.0000   1.0000   1.0000   1.0000   1.0000   1.0000
     1.0000   1.0000   1.0000   1.0000   1.0000   1.0000   1.0000   1.0000
     1.0000   1.0000   1.0000   0.0000   0.0000

          k = 0.0833 0.4330-0.3114 (  2806 PWs)   bands (ev):

   -77.0060 -77.0060 -40.4130 -40.4130 -40.2292 -40.2292 -40.1957 -40.1957
    14.0838  14.0838  15.3840  15.3840  16.8906  16.8906  17.2893  17.2893
    18.3418  18.3418  19.7973  19.7973  28.9925

     occupation numbers 
     1.0000   1.0000   1.0000   1.0000   1.0000   1.0000   1.0000   1.0000
     1.0000   1.0000   1.0000   1.0000   1.0000   1.0000   1.0000   1.0000
     1.0000   1.0000   0.0000   0.0000   0.0000

          k = 0.0833 0.5292 0.0000 (  2802 PWs)   bands (ev):

   -77.0118 -76.9912 -40.4116 -40.3568 -40.3274 -40.2586 -40.2119 -40.1768
    14.2099  14.3535  14.5355  16.1656  16.1958  16.4952  16.8430  18.3190
    18.3915  18.4444  20.1475  23.1158  28.5830

     occupation numbers 
     1.0000   1.0000   1.0000   1.0000   1.0000   1.0000   1.0000   1.0000
     1.0000   1.0000   1.0000   1.0000   1.0000   1.0000   1.0000   1.0000
     1.0000   1.0000   0.0000   0.0000   0.0000

          k = 0.0833 0.5292 0.1038 (  2809 PWs)   bands (ev):

   -77.0105 -76.9926 -40.4281 -40.3756 -40.3015 -40.2509 -40.2072 -40.1797
    13.9944  14.3710  14.9799  15.5270  16.2525  16.8847  17.2217  18.1962
    18.3588  18.4272  20.0761  22.8554  27.2902

     occupation numbers 
     1.0000   1.0000   1.0000   1.0000   1.0000   1.0000   1.0000   1.0000
     1.0000   1.0000   1.0000   1.0000   1.0000   1.0000   1.0000   1.0000
     1.0000   1.0000   0.0000   0.0000   0.0000

          k = 0.0833 0.5292 0.2076 (  2814 PWs)   bands (ev):

   -77.0067 -76.9964 -40.4439 -40.4110 -40.2638 -40.2277 -40.2122 -40.1842
    13.9048  14.3519  15.1048  15.4435  16.4314  17.1938  17.6325  17.8734
    18.3119  18.5129  20.1092  21.9963  26.5318

     occupation numbers 
     1.0000   1.0000   1.0000   1.0000   1.0000   1.0000   1.0000   1.0000
     1.0000   1.0000   1.0000   1.0000   1.0000   1.0000   1.0000   1.0000
     1.0000   1.0000   0.0000   0.0000   0.0000

          k = 0.0833 0.5292-0.3114 (  2802 PWs)   bands (ev):

   -77.0015 -77.0015 -40.4380 -40.4380 -40.2351 -40.2351 -40.1982 -40.1982
    14.0676  14.0676  15.2996  15.2996  17.0016  17.0016  17.7263  17.7263
    18.3835  18.3835  20.8585  20.8585  26.8017

     occupation numbers 
     1.0000   1.0000   1.0000   1.0000   1.0000   1.0000   1.0000   1.0000
     1.0000   1.0000   1.0000   1.0000   1.0000   1.0000   1.0000   1.0000
     1.0000   1.0000   0.0000   0.0000   0.0000

          k = 0.1667 0.2887 0.0000 (  2796 PWs)   bands (ev):

   -77.0359 -76.9942 -40.3991 -40.3029 -40.2931 -40.2152 -40.1673 -40.1642
    12.5826  14.8635  15.2536  15.3641  16.3048  16.4865  16.9035  17.2162
    17.6993  18.0896  18.3665  24.3988  26.3323

     occupation numbers 
     1.0000   1.0000   1.0000   1.0000   1.0000   1.0000   1.0000   1.0000
     1.0000   1.0000   1.0000   1.0000   1.0000   1.0000   1.0000   1.0000
     1.0000   1.0000   1.0000   0.0000   0.0000

          k = 0.1667 0.2887 0.1038 (  2796 PWs)   bands (ev):

   -77.0331 -76.9970 -40.3988 -40.3005 -40.2856 -40.2230 -40.1718 -40.1623
    12.7730  14.9640  15.1117  15.4191  16.2812  16.4969  16.7720  17.2896
    17.8250  17.9287  18.4162  22.4885  28.7147

     occupation numbers 
     1.0000   1.0000   1.0000   1.0000   1.0000   1.0000   1.0000   1.0000
     1.0000   1.0000   1.0000   1.0000   1.0000   1.0000   1.0000   1.0000
     1.0000   1.0000   1.0000   0.0000   0.0000

          k = 0.1667 0.2887 0.2076 (  2800 PWs)   bands (ev):

   -77.0255 -77.0046 -40.3887 -40.3273 -40.2490 -40.2254 -40.1826 -40.1693
    13.2944  14.6665  15.2380  15.5793  16.1079  16.3545  16.7620  17.3666
    17.9180  18.0371  18.4387  20.4141  32.1046

     occupation numbers 
     1.0000   1.0000   1.0000   1.0000   1.0000   1.0000   1.0000   1.0000
     1.0000   1.0000   1.0000   1.0000   1.0000   1.0000   1.0000   1.0000
     1.0000   1.0000   1.0000   0.0000   0.0000

          k = 0.1667 0.2887-0.3114 (  2790 PWs)   bands (ev):

   -77.0151 -77.0151 -40.3626 -40.3626 -40.2228 -40.2228 -40.1858 -40.1858
    13.9969  13.9969  15.5753  15.5753  16.0549  16.0549  17.0493  17.0493
    18.1873  18.1873  18.9430  18.9430  33.7571

     occupation numbers 
     1.0000   1.0000   1.0000   1.0000   1.0000   1.0000   1.0000   1.0000
     1.0000   1.0000   1.0000   1.0000   1.0000   1.0000   1.0000   1.0000
     1.0000   1.0000   1.0000   1.0000   0.0000

          k = 0.1667 0.3849 0.0000 (  2804 PWs)   bands (ev):

   -77.0229 -76.9916 -40.3629 -40.3503 -40.3266 -40.2441 -40.1880 -40.1866
    13.6850  14.8545  14.8789  15.3253  16.1473  16.6339  16.7108  17.5275
    18.1530  18.3670  18.8968  26.2721  26.6360

     occupation numbers 
     1.0000   1.0000   1.0000   1.0000   1.0000   1.0000   1.0000   1.0000
     1.0000   1.0000   1.0000   1.0000   1.0000   1.0000   1.0000   1.0000
     1.0000   1.0000   1.0000   0.0000   0.0000

          k = 0.1667 0.3849 0.1038 (  2808 PWs)   bands (ev):

   -77.0208 -76.9937 -40.3900 -40.3456 -40.3003 -40.2506 -40.1946 -40.1774
    13.7663  14.8069  14.9634  15.4130  16.2075  16.6039  16.6647  17.5557
    18.1354  18.2467  18.9942  23.7813  28.6545

     occupation numbers 
     1.0000   1.0000   1.0000   1.0000   1.0000   1.0000   1.0000   1.0000
     1.0000   1.0000   1.0000   1.0000   1.0000   1.0000   1.0000   1.0000
     1.0000   1.0000   0.8091   0.0000   0.0000

          k = 0.1667 0.3849 0.2076 (  2806 PWs)   bands (ev):

   -77.0151 -76.9994 -40.4035 -40.3687 -40.2623 -40.2455 -40.2032 -40.1753
    13.9873  14.6043  15.2216  15.6628  16.1273  16.4262  16.7961  17.5068
    18.0284  18.4072  19.1817  21.5273  29.6209

     occupation numbers 
     1.0000   1.0000   1.0000   1.0000   1.0000   1.0000   1.0000   1.0000
     1.0000   1.0000   1.0000   1.0000   1.0000   1.0000   1.0000   1.0000
     1.0000   1.0000   0.0000   0.0000   0.0000

          k = 0.1667 0.3849-0.3114 (  2802 PWs)   bands (ev):

   -77.0073 -77.0073 -40.3941 -40.3941 -40.2443 -40.2443 -40.1908 -40.1908
    14.2942  14.2942  15.5806  15.5806  16.2001  16.2001  17.0760  17.0760
    18.4010  18.4010  19.8935  19.8935  30.7955

     occupation numbers 
     1.0000   1.0000   1.0000   1.0000   1.0000   1.0000   1.0000   1.0000
     1.0000   1.0000   1.0000   1.0000   1.0000   1.0000   1.0000   1.0000
     1.0000   1.0000   0.0000   0.0000   0.0000

          k = 0.1667 0.4811 0.0000 (  2808 PWs)   bands (ev):

   -77.0119 -76.9912 -40.3883 -40.3424 -40.3278 -40.2717 -40.2115 -40.2020
    14.3883  14.6464  14.6533  15.6309  16.1028  16.5030  16.8391  17.9383
    18.3660  18.3818  20.0722  24.7739  28.2972

     occupation numbers 
     1.0000   1.0000   1.0000   1.0000   1.0000   1.0000   1.0000   1.0000
     1.0000   1.0000   1.0000   1.0000   1.0000   1.0000   1.0000   1.0000
     1.0000   1.0000   0.0000   0.0000   0.0000

          k = 0.1667 0.4811 0.1038 (  2813 PWs)   bands (ev):

   -77.0105 -76.9926 -40.4047 -40.3639 -40.3026 -40.2647 -40.2156 -40.1921
    14.2333  14.7221  14.9119  15.4602  16.1559  16.6308  16.9009  17.9203
    18.1577  18.4483  20.1584  24.2373  27.0612

     occupation numbers 
     1.0000   1.0000   1.0000   1.0000   1.0000   1.0000   1.0000   1.0000
     1.0000   1.0000   1.0000   1.0000   1.0000   1.0000   1.0000   1.0000
     1.0000   1.0000   0.0000   0.0000   0.0000

          k = 0.1667 0.4811 0.2076 (  2802 PWs)   bands (ev):

   -77.0067 -76.9964 -40.4219 -40.3946 -40.2831 -40.2453 -40.2161 -40.1822
    14.1957  14.6475  15.1168  15.6855  16.0429  16.7487  17.1119  17.6020
    18.1133  18.5309  20.4748  22.7169  27.1131

     occupation numbers 
     1.0000   1.0000   1.0000   1.0000   1.0000   1.0000   1.0000   1.0000
     1.0000   1.0000   1.0000   1.0000   1.0000   1.0000   1.0000   1.0000
     1.0000   1.0000   0.0000   0.0000   0.0000

          k = 0.1667 0.4811-0.3114 (  2808 PWs)   bands (ev):

   -77.0015 -77.0015 -40.4183 -40.4183 -40.2618 -40.2618 -40.1915 -40.1915
    14.3581  14.3581  15.4803  15.4803  16.4632  16.4632  17.2691  17.2691
    18.4063  18.4063  21.2931  21.2931  28.0007

     occupation numbers 
     1.0000   1.0000   1.0000   1.0000   1.0000   1.0000   1.0000   1.0000
     1.0000   1.0000   1.0000   1.0000   1.0000   1.0000   1.0000   1.0000
     1.0000   1.0000   0.0000   0.0000   0.0000

          k = 0.1667 0.5774 0.0000 (  2812 PWs)   bands (ev):

   -77.0070 -76.9919 -40.4020 -40.3469 -40.3100 -40.2834 -40.2256 -40.2069
    14.5540  14.5657  14.5681  15.8513  16.1176  16.3965  16.9269  18.2166
    18.3631  18.3653  21.3263  22.9285  29.3398

     occupation numbers 
     1.0000   1.0000   1.0000   1.0000   1.0000   1.0000   1.0000   1.0000
     1.0000   1.0000   1.0000   1.0000   1.0000   1.0000   1.0000   1.0000
     1.0000   1.0000   0.0000   0.0000   0.0000

          k = 0.1667 0.5774 0.1038 (  2815 PWs)   bands (ev):

   -77.0060 -76.9929 -40.4150 -40.3668 -40.3073 -40.2586 -40.2286 -40.1984
    14.2589  14.6339  15.0805  15.4430  16.0771  16.7497  16.9927  18.1271
    18.2125  18.4219  21.4276  22.8769  28.3675

     occupation numbers 
     1.0000   1.0000   1.0000   1.0000   1.0000   1.0000   1.0000   1.0000
     1.0000   1.0000   1.0000   1.0000   1.0000   1.0000   1.0000   1.0000
     1.0000   1.0000   0.0000   0.0000   0.0000

          k = 0.1667 0.5774 0.2076 (  2808 PWs)   bands (ev):

   -77.0032 -76.9957 -40.4306 -40.4026 -40.2918 -40.2448 -40.2188 -40.1858
    14.1926  14.6587  15.1544  15.6444  15.9566  16.9542  17.2341  17.6747
    18.2284  18.4634  21.7375  22.6720  27.0786

     occupation numbers 
     1.0000   1.0000   1.0000   1.0000   1.0000   1.0000   1.0000   1.0000
     1.0000   1.0000   1.0000   1.0000   1.0000   1.0000   1.0000   1.0000
     1.0000   1.0000   0.0000   0.0000   0.0000

          k = 0.1667 0.5774-0.3114 (  2810 PWs)   bands (ev):

   -76.9994 -76.9994 -40.4273 -40.4273 -40.2684 -40.2684 -40.1913 -40.1913
    14.3602  14.3602  15.4391  15.4391  16.5054  16.5054  17.4747  17.4747
    18.3435  18.3435  22.2359  22.2359  26.5885

     occupation numbers 
     1.0000   1.0000   1.0000   1.0000   1.0000   1.0000   1.0000   1.0000
     1.0000   1.0000   1.0000   1.0000   1.0000   1.0000   1.0000   1.0000
     1.0000   1.0000   0.0000   0.0000   0.0000

          k = 0.2500 0.4330 0.0000 (  2824 PWs)   bands (ev):

   -77.0119 -76.9912 -40.3679 -40.3447 -40.3281 -40.2713 -40.2207 -40.2113
    14.5172  14.7098  15.0481  15.1051  16.0404  16.5160  16.8459  17.7111
    18.3258  18.3891  20.0809  26.5539  27.2835

     occupation numbers 
     1.0000   1.0000   1.0000   1.0000   1.0000   1.0000   1.0000   1.0000
     1.0000   1.0000   1.0000   1.0000   1.0000   1.0000   1.0000   1.0000
     1.0000   1.0000   0.0000   0.0000   0.0000

          k = 0.2500 0.4330 0.1038 (  2811 PWs)   bands (ev):

   -77.0105 -76.9925 -40.3808 -40.3720 -40.2859 -40.2856 -40.2238 -40.1957
    14.5257  14.6604  15.1193  15.2372  16.1949  16.3672  16.8332  17.7417
    18.1059  18.4569  20.2122  25.0564  27.5743

     occupation numbers 
     1.0000   1.0000   1.0000   1.0000   1.0000   1.0000   1.0000   1.0000
     1.0000   1.0000   1.0000   1.0000   1.0000   1.0000   1.0000   1.0000
     1.0000   1.0000   0.0000   0.0000   0.0000

          k = 0.2500 0.4330 0.2076 (  2807 PWs)   bands (ev):

   -77.0067 -76.9963 -40.4052 -40.3888 -40.2903 -40.2623 -40.2150 -40.1819
    14.5331  14.6080  15.2947  15.6387  16.0312  16.3095  16.8583  17.5157
    18.0829  18.5379  20.5968  23.0078  28.3755

     occupation numbers 
     1.0000   1.0000   1.0000   1.0000   1.0000   1.0000   1.0000   1.0000
     1.0000   1.0000   1.0000   1.0000   1.0000   1.0000   1.0000   1.0000
     1.0000   1.0000   0.0000   0.0000   0.0000

          k = 0.2500 0.4330-0.3114 (  2808 PWs)   bands (ev):

   -77.0015 -77.0015 -40.4061 -40.4061 -40.2761 -40.2761 -40.1895 -40.1895
    14.5624  14.5624  15.6300  15.6300  16.0830  16.0830  17.0704  17.0704
    18.4265  18.4265  21.4574  21.4574  29.4233

     occupation numbers 
     1.0000   1.0000   1.0000   1.0000   1.0000   1.0000   1.0000   1.0000
     1.0000   1.0000   1.0000   1.0000   1.0000   1.0000   1.0000   1.0000
     1.0000   1.0000   0.0000   0.0000   0.0000

          k = 0.2500 0.5292 0.0000 (  2834 PWs)   bands (ev):

   -77.0036 -76.9929 -40.3817 -40.3348 -40.3019 -40.2968 -40.2415 -40.2367
    14.6288  14.8133  14.9137  15.4143  16.0601  16.3153  17.0174  17.9889
    18.3013  18.3380  21.7331  24.3108  26.6315

     occupation numbers 
     1.0000   1.0000   1.0000   1.0000   1.0000   1.0000   1.0000   1.0000
     1.0000   1.0000   1.0000   1.0000   1.0000   1.0000   1.0000   1.0000
     1.0000   1.0000   0.0000   0.0000   0.0000

          k = 0.2500 0.5292 0.1038 (  2817 PWs)   bands (ev):

   -77.0029 -76.9936 -40.3883 -40.3601 -40.3217 -40.2646 -40.2454 -40.2129
    14.5718  14.9460  15.0435  15.3166  16.0898  16.3106  17.0184  17.9970
    18.0792  18.3837  21.9278  24.3335  26.6850

     occupation numbers 
     1.0000   1.0000   1.0000   1.0000   1.0000   1.0000   1.0000   1.0000
     1.0000   1.0000   1.0000   1.0000   1.0000   1.0000   1.0000   1.0000
     1.0000   1.0000   0.0000   0.0000   0.0000

          k = 0.2500 0.5292 0.2076 (  2810 PWs)   bands (ev):

   -77.0009 -76.9956 -40.4059 -40.3902 -40.3204 -40.2753 -40.2113 -40.1895
    14.5931  14.9536  15.2160  15.5120  15.9557  16.3216  17.0573  17.5490
    18.1499  18.4244  22.4351  24.0490  26.6520

     occupation numbers 
     1.0000   1.0000   1.0000   1.0000   1.0000   1.0000   1.0000   1.0000
     1.0000   1.0000   1.0000   1.0000   1.0000   1.0000   1.0000   1.0000
     1.0000   1.0000   0.0000   0.0000   0.0000

          k = 0.2500 0.5292-0.3114 (  2808 PWs)   bands (ev):

   -76.9982 -76.9982 -40.4090 -40.4090 -40.2993 -40.2993 -40.1880 -40.1880
    14.7357  14.7357  15.5200  15.5200  16.0906  16.0906  17.1898  17.1898
    18.3333  18.3333  23.2102  23.2102  27.2075

     occupation numbers 
     1.0000   1.0000   1.0000   1.0000   1.0000   1.0000   1.0000   1.0000
     1.0000   1.0000   1.0000   1.0000   1.0000   1.0000   1.0000   1.0000
     1.0000   1.0000   0.0000   0.0000   0.0000

          k = 0.3333 0.5774 0.0000 (  2826 PWs)   bands (ev):

   -76.9970 -76.9970 -40.3732 -40.3207 -40.3207 -40.2657 -40.2657 -40.2655
    14.6329  15.0082  15.0082  15.3009  16.1409  16.1409  17.1180  18.1369
    18.1369  18.2756  23.4591  24.3099  24.3099

     occupation numbers 
     1.0000   1.0000   1.0000   1.0000   1.0000   1.0000   1.0000   1.0000
     1.0000   1.0000   1.0000   1.0000   1.0000   1.0000   1.0000   1.0000
     1.0000   1.0000   0.0000   0.0000   0.0000

          k = 0.3333 0.5774 0.1038 (  2820 PWs)   bands (ev):

   -76.9970 -76.9970 -40.3660 -40.3513 -40.3513 -40.2728 -40.2349 -40.2349
    14.7311  15.0357  15.0357  15.3224  16.1121  16.1121  17.0876  18.0266
    18.1759  18.1759  23.8733  24.3853  24.3853

     occupation numbers 
     1.0000   1.0000   1.0000   1.0000   1.0000   1.0000   1.0000   1.0000
     1.0000   1.0000   1.0000   1.0000   1.0000   1.0000   1.0000   1.0000
     1.0000   1.0000   0.0000   0.0000   0.0000

          k = 0.3333 0.5774 0.2076 (  2817 PWs)   bands (ev):

   -76.9970 -76.9970 -40.3859 -40.3859 -40.3464 -40.2926 -40.2000 -40.2000
    14.9817  15.0897  15.0897  15.3420  16.0609  16.0609  17.0457  17.5211
    18.2490  18.2490  24.5722  24.5722  24.9242

     occupation numbers 
     1.0000   1.0000   1.0000   1.0000   1.0000   1.0000   1.0000   1.0000
     1.0000   1.0000   1.0000   1.0000   1.0000   1.0000   1.0000   1.0000
     1.0000   1.0000   0.0000   0.0000   0.0000

          k = 0.3333 0.5774-0.3114 (  2772 PWs)   bands (ev):

   -76.9970 -76.9970 -40.3990 -40.3990 -40.3195 -40.3195 -40.1867 -40.1867
    15.1160  15.1160  15.2399  15.2399  16.0386  16.0386  17.1439  17.1439
    18.2834  18.2834  24.6925  24.6925  26.3590

     occupation numbers 
     1.0000   1.0000   1.0000   1.0000   1.0000   1.0000   1.0000   1.0000
     1.0000   1.0000   1.0000   1.0000   1.0000   1.0000   1.0000   1.0000
     1.0000   1.0000   0.0000   0.0000   0.0000

 ------ SPIN DOWN ----------


          k = 0.0000 0.0000 0.0000 (  2803 PWs)   bands (ev):

   -74.9710 -74.9036 -38.4575 -38.1305 -38.1305 -38.0742 -38.0742 -38.0717
     9.9695  14.7660  18.0938  18.0938  18.1103  18.4834  18.4834  18.8426
    18.8736  18.8736  20.1659  20.1660  26.6703

     occupation numbers 
     1.0000   1.0000   1.0000   1.0000   1.0000   1.0000   1.0000   1.0000
     1.0000   1.0000   1.0000   1.0000   1.0000   1.0000   1.0000   1.0000
     1.0000   1.0000   0.0000   0.0000   0.0000

          k = 0.0000 0.0000 0.1038 (  2821 PWs)   bands (ev):

   -74.9665 -74.9081 -38.4321 -38.1268 -38.1268 -38.0980 -38.0780 -38.0780
    10.2548  14.5454  18.0125  18.0168  18.0168  18.2267  18.3914  18.3914
    19.0686  19.0686  20.1529  20.1529  28.0134

     occupation numbers 
     1.0000   1.0000   1.0000   1.0000   1.0000   1.0000   1.0000   1.0000
     1.0000   1.0000   1.0000   1.0000   1.0000   1.0000   1.0000   1.0000
     0.0000   0.0000   0.0000   0.0000   0.0000

          k = 0.0000 0.0000 0.2076 (  2773 PWs)   bands (ev):

   -74.9542 -74.9205 -38.3622 -38.1694 -38.1165 -38.1165 -38.0883 -38.0883
    11.0788  13.6759  17.5443  17.7645  17.9521  17.9521  18.1912  18.1912
    19.4531  19.4531  20.0590  20.0590  31.0458

     occupation numbers 
     1.0000   1.0000   1.0000   1.0000   1.0000   1.0000   1.0000   1.0000
     1.0000   1.0000   1.0000   1.0000   1.0000   1.0000   1.0000   1.0000
     0.0000   0.0000   0.0000   0.0000   0.0000

          k = 0.0000 0.0000-0.3114 (  2822 PWs)   bands (ev):

   -74.9374 -74.9374 -38.2662 -38.2662 -38.1024 -38.1024 -38.1024 -38.1024
    12.3232  12.3232  17.5106  17.5106  18.0152  18.0152  18.0152  18.0152
    19.8188  19.8188  19.8188  19.8188  34.7530

     occupation numbers 
     1.0000   1.0000   1.0000   1.0000   1.0000   1.0000   1.0000   1.0000
     1.0000   1.0000   1.0000   1.0000   1.0000   1.0000   1.0000   1.0000
     0.0000   0.0000   0.0000   0.0000   0.0000

          k = 0.0000 0.0962 0.0000 (  2811 PWs)   bands (ev):

   -74.9674 -74.9020 -38.4492 -38.1481 -38.1364 -38.0924 -38.0769 -38.0753
    10.2142  14.9314  17.8095  18.1765  18.2215  18.3314  18.4219  18.5959
    18.7876  18.8122  20.2042  21.0446  26.6857

     occupation numbers 
     1.0000   1.0000   1.0000   1.0000   1.0000   1.0000   1.0000   1.0000
     1.0000   1.0000   1.0000   1.0000   1.0000   1.0000   1.0000   1.0000
     1.0000   1.0000   0.0000   0.0000   0.0000

          k = 0.0000 0.0962 0.1038 (  2802 PWs)   bands (ev):

   -74.9630 -74.9064 -38.4252 -38.1437 -38.1324 -38.1129 -38.0839 -38.0809
    10.4956  14.7247  17.7249  17.8053  18.1174  18.1253  18.4444  18.4952
    19.0156  19.0392  20.1816  20.6843  28.0946

     occupation numbers 
     1.0000   1.0000   1.0000   1.0000   1.0000   1.0000   1.0000   1.0000
     1.0000   1.0000   1.0000   1.0000   1.0000   1.0000   1.0000   1.0000
     0.0886   0.0001   0.0000   0.0000   0.0000

          k = 0.0000 0.0962 0.2076 (  2794 PWs)   bands (ev):

   -74.9511 -74.9184 -38.3595 -38.1785 -38.1314 -38.1215 -38.0978 -38.0918
    11.3082  13.8720  17.2972  17.7436  17.8480  18.0521  18.2338  18.2938
    19.4221  19.4619  20.0666  20.2602  31.1812

     occupation numbers 
     1.0000   1.0000   1.0000   1.0000   1.0000   1.0000   1.0000   1.0000
     1.0000   1.0000   1.0000   1.0000   1.0000   1.0000   1.0000   1.0000
     0.0000   0.0000   0.0000   0.0000   0.0000

          k = 0.0000 0.0962-0.3114 (  2816 PWs)   bands (ev):

   -74.9348 -74.9348 -38.2692 -38.2692 -38.1148 -38.1148 -38.1067 -38.1067
    12.5356  12.5356  17.3983  17.3983  17.9924  17.9924  18.1163  18.1163
    19.8051  19.8051  19.8862  19.8862  34.9121

     occupation numbers 
     1.0000   1.0000   1.0000   1.0000   1.0000   1.0000   1.0000   1.0000
     1.0000   1.0000   1.0000   1.0000   1.0000   1.0000   1.0000   1.0000
     0.0000   0.0000   0.0000   0.0000   0.0000

          k = 0.0000 0.1925 0.0000 (  2799 PWs)   bands (ev):

   -74.9574 -74.8979 -38.4255 -38.1963 -38.1519 -38.1419 -38.0859 -38.0849
    10.9260  15.3559  17.3053  17.4359  18.1951  18.5769  18.5844  18.6517
    18.6744  18.9122  20.2854  22.5416  26.7487

     occupation numbers 
     1.0000   1.0000   1.0000   1.0000   1.0000   1.0000   1.0000   1.0000
     1.0000   1.0000   1.0000   1.0000   1.0000   1.0000   1.0000   1.0000
     1.0000   1.0000   0.0000   0.0000   0.0000

          k = 0.0000 0.1925 0.1038 (  2793 PWs)   bands (ev):

   -74.9534 -74.9019 -38.4065 -38.1898 -38.1596 -38.1474 -38.0943 -38.0894
    11.1938  15.1949  17.0323  17.4742  18.0784  18.3619  18.3809  18.7595
    18.9917  19.0662  20.2416  21.7330  28.3679

     occupation numbers 
     1.0000   1.0000   1.0000   1.0000   1.0000   1.0000   1.0000   1.0000
     1.0000   1.0000   1.0000   1.0000   1.0000   1.0000   1.0000   1.0000
     0.8704   0.0000   0.0000   0.0000   0.0000

          k = 0.0000 0.1925 0.2076 (  2804 PWs)   bands (ev):

   -74.9425 -74.9128 -38.3545 -38.2125 -38.1688 -38.1352 -38.1155 -38.1017
    11.9657  14.3980  16.8820  17.5542  17.7121  18.1859  18.2976  18.5791
    19.3873  19.5312  20.0818  20.7500  31.5888

     occupation numbers 
     1.0000   1.0000   1.0000   1.0000   1.0000   1.0000   1.0000   1.0000
     1.0000   1.0000   1.0000   1.0000   1.0000   1.0000   1.0000   1.0000
     0.0000   0.0000   0.0000   0.0000   0.0000

          k = 0.0000 0.1925-0.3114 (  2794 PWs)   bands (ev):

   -74.9277 -74.9277 -38.2832 -38.2832 -38.1427 -38.1427 -38.1185 -38.1185
    13.1283  13.1283  17.1739  17.1739  17.8895  17.8895  18.3870  18.3870
    19.7837  19.7837  20.0756  20.0756  35.3418

     occupation numbers 
     1.0000   1.0000   1.0000   1.0000   1.0000   1.0000   1.0000   1.0000
     1.0000   1.0000   1.0000   1.0000   1.0000   1.0000   1.0000   1.0000
     0.0000   0.0000   0.0000   0.0000   0.0000

          k = 0.0000 0.2887 0.0000 (  2782 PWs)   bands (ev):

   -74.9430 -74.8929 -38.3900 -38.2628 -38.2081 -38.1725 -38.1037 -38.0963
    12.0281  15.7719  16.6066  17.1045  18.0431  18.3257  18.4364  19.1175
    19.1243  19.3694  20.3619  24.2616  26.8784

     occupation numbers 
     1.0000   1.0000   1.0000   1.0000   1.0000   1.0000   1.0000   1.0000
     1.0000   1.0000   1.0000   1.0000   1.0000   1.0000   1.0000   0.0000
     0.0000   0.0000   0.0000   0.0000   0.0000

          k = 0.0000 0.2887 0.1038 (  2794 PWs)   bands (ev):

   -74.9397 -74.8962 -38.3826 -38.2502 -38.2233 -38.1674 -38.1089 -38.1015
    12.2647  15.6842  16.4647  17.1667  17.8924  18.3630  18.3855  19.1655
    19.2837  19.3240  20.2976  22.8800  28.8784

     occupation numbers 
     1.0000   1.0000   1.0000   1.0000   1.0000   1.0000   1.0000   1.0000
     1.0000   1.0000   1.0000   1.0000   1.0000   1.0000   1.0000   0.0000
     0.0000   0.0000   0.0000   0.0000   0.0000

          k = 0.0000 0.2887 0.2076 (  2802 PWs)   bands (ev):

   -74.9305 -74.9054 -38.3586 -38.2710 -38.2073 -38.1535 -38.1287 -38.1154
    12.9398  15.0044  16.5735  17.2572  17.6574  18.1699  18.4912  18.9890
    19.5135  19.6886  20.1081  21.3469  32.1232

     occupation numbers 
     1.0000   1.0000   1.0000   1.0000   1.0000   1.0000   1.0000   1.0000
     1.0000   1.0000   1.0000   1.0000   1.0000   1.0000   1.0000   0.9205
     0.0000   0.0000   0.0000   0.0000   0.0000

          k = 0.0000 0.2887-0.3114 (  2798 PWs)   bands (ev):

   -74.9180 -74.9180 -38.3185 -38.3185 -38.1644 -38.1644 -38.1345 -38.1345
    13.9351  13.9351  16.9644  16.9644  17.8337  17.8337  18.7157  18.7157
    19.8233  19.8233  20.3363  20.3363  34.0214

     occupation numbers 
     1.0000   1.0000   1.0000   1.0000   1.0000   1.0000   1.0000   1.0000
     1.0000   1.0000   1.0000   1.0000   1.0000   1.0000   1.0000   1.0000
     0.0000   0.0000   0.0000   0.0000   0.0000

          k = 0.0000 0.3849 0.0000 (  2826 PWs)   bands (ev):

   -74.9276 -74.8889 -38.3483 -38.3301 -38.2730 -38.1926 -38.1276 -38.1083
    13.3466  15.8064  16.1115  16.9715  18.1009  18.1425  18.2250  19.6966
[...]
    20.3178  20.4064  21.5246  24.0610  29.0931

     occupation numbers 
     1.0000   1.0000   1.0000   1.0000   1.0000   1.0000   1.0000   1.0000
     1.0000   1.0000   1.0000   1.0000   1.0000   1.0000   1.0000   0.0000
     0.0000   0.0000   0.0000   0.0000   0.0000

          k = 0.0833 0.5292 0.1038 (  2809 PWs)   bands (ev):

   -74.9082 -74.8890 -38.4053 -38.3481 -38.2644 -38.2116 -38.1617 -38.1343
    14.9298  15.5595  16.1173  16.6486  17.8902  18.4372  18.4985  20.1095
    20.2796  20.3621  21.3845  23.7254  28.0100

     occupation numbers 
     1.0000   1.0000   1.0000   1.0000   1.0000   1.0000   1.0000   1.0000
     1.0000   1.0000   1.0000   1.0000   1.0000   1.0000   1.0000   0.0000
     0.0000   0.0000   0.0000   0.0000   0.0000

          k = 0.0833 0.5292 0.2076 (  2814 PWs)   bands (ev):

   -74.9041 -74.8930 -38.4221 -38.3864 -38.2243 -38.1857 -38.1685 -38.1380
    14.9070  15.3994  16.4240  16.7602  17.9543  18.7347  18.9517  19.6254
    20.2256  20.4623  21.1583  22.7838  27.4372

     occupation numbers 
     1.0000   1.0000   1.0000   1.0000   1.0000   1.0000   1.0000   1.0000
     1.0000   1.0000   1.0000   1.0000   1.0000   1.0000   1.0000   0.0000
     0.0000   0.0000   0.0000   0.0000   0.0000

          k = 0.0833 0.5292-0.3114 (  2802 PWs)   bands (ev):

   -74.8986 -74.8986 -38.4157 -38.4157 -38.1937 -38.1937 -38.1531 -38.1531
    15.0897  15.0897  16.7089  16.7089  18.4691  18.4691  19.2565  19.2565
    20.3082  20.3082  21.7100  21.7100  27.6909

     occupation numbers 
     1.0000   1.0000   1.0000   1.0000   1.0000   1.0000   1.0000   1.0000
     1.0000   1.0000   1.0000   1.0000   1.0000   1.0000   0.0000   0.0000
     0.0000   0.0000   0.0000   0.0000   0.0000

          k = 0.1667 0.2887 0.0000 (  2796 PWs)   bands (ev):

   -74.9355 -74.8907 -38.3703 -38.2688 -38.2588 -38.1732 -38.1213 -38.1145
    12.6559  16.0606  16.4219  16.7666  17.9487  18.0745  18.5425  18.9990
    19.5106  19.8860  20.3167  25.1705  27.0945

     occupation numbers 
     1.0000   1.0000   1.0000   1.0000   1.0000   1.0000   1.0000   1.0000
     1.0000   1.0000   1.0000   1.0000   1.0000   1.0000   1.0000   0.6458
     0.0000   0.0000   0.0000   0.0000   0.0000

          k = 0.1667 0.2887 0.1038 (  2796 PWs)   bands (ev):

   -74.9325 -74.8937 -38.3705 -38.2667 -38.2495 -38.1812 -38.1262 -38.1131
    12.8731  16.0186  16.3024  16.8348  17.8744  18.1024  18.4217  19.0662
    19.6454  19.7627  20.3242  23.4971  29.3139

     occupation numbers 
     1.0000   1.0000   1.0000   1.0000   1.0000   1.0000   1.0000   1.0000
     1.0000   1.0000   1.0000   1.0000   1.0000   1.0000   1.0000   0.0000
     0.0000   0.0000   0.0000   0.0000   0.0000

          k = 0.1667 0.2887 0.2076 (  2800 PWs)   bands (ev):

   -74.9243 -74.9019 -38.3605 -38.2952 -38.2089 -38.1837 -38.1379 -38.1215
    13.4882  15.3377  16.5572  17.0096  17.6302  17.9241  18.4753  19.1005
    19.7782  19.8836  20.2726  21.7303  32.5950

     occupation numbers 
     1.0000   1.0000   1.0000   1.0000   1.0000   1.0000   1.0000   1.0000
     1.0000   1.0000   1.0000   1.0000   1.0000   1.0000   1.0000   0.0000
     0.0000   0.0000   0.0000   0.0000   0.0000

          k = 0.1667 0.2887-0.3114 (  2790 PWs)   bands (ev):

   -74.9131 -74.9131 -38.3328 -38.3328 -38.1805 -38.1805 -38.1406 -38.1406
    14.3825  14.3825  16.9479  16.9479  17.5932  17.5932  18.7901  18.7901
    20.0850  20.0850  20.5177  20.5177  34.1847

     occupation numbers 
     1.0000   1.0000   1.0000   1.0000   1.0000   1.0000   1.0000   1.0000
     1.0000   1.0000   1.0000   1.0000   1.0000   1.0000   1.0000   1.0000
     0.0000   0.0000   0.0000   0.0000   0.0000

          k = 0.1667 0.3849 0.0000 (  2804 PWs)   bands (ev):

   -74.9216 -74.8879 -38.3307 -38.3210 -38.2950 -38.2046 -38.1437 -38.1388
    13.9123  16.0993  16.1333  16.5656  17.7487  18.2176  18.3112  19.3422
    20.0303  20.3171  20.6160  26.9625  27.2621

     occupation numbers 
     1.0000   1.0000   1.0000   1.0000   1.0000   1.0000   1.0000   1.0000
     1.0000   1.0000   1.0000   1.0000   1.0000   1.0000   1.0000   0.0000
     0.0000   0.0000   0.0000   0.0000   0.0000

          k = 0.1667 0.3849 0.1038 (  2808 PWs)   bands (ev):

   -74.9193 -74.8901 -38.3620 -38.3157 -38.2644 -38.2113 -38.1506 -38.1296
    14.0628  15.9631  16.2424  16.6739  17.7389  18.1609  18.2729  19.3691
    20.0329  20.1370  20.7364  24.6003  29.2799

     occupation numbers 
     1.0000   1.0000   1.0000   1.0000   1.0000   1.0000   1.0000   1.0000
     1.0000   1.0000   1.0000   1.0000   1.0000   1.0000   1.0000   0.0000
     0.0000   0.0000   0.0000   0.0000   0.0000

          k = 0.1667 0.3849 0.2076 (  2806 PWs)   bands (ev):

   -74.9131 -74.8963 -38.3772 -38.3404 -38.2233 -38.2051 -38.1599 -38.1278
    14.4743  15.5829  16.5402  16.9042  17.6137  17.8645  18.4588  19.2933
    19.8929  20.3299  20.8218  22.5581  30.2300

     occupation numbers 
     1.0000   1.0000   1.0000   1.0000   1.0000   1.0000   1.0000   1.0000
     1.0000   1.0000   1.0000   1.0000   1.0000   1.0000   1.0000   0.0000
     0.0000   0.0000   0.0000   0.0000   0.0000

          k = 0.1667 0.3849-0.3114 (  2802 PWs)   bands (ev):

   -74.9047 -74.9047 -38.3675 -38.3675 -38.2041 -38.2041 -38.1452 -38.1452
    15.0344  15.0344  16.8991  16.8991  17.5828  17.5828  18.8271  18.8271
    20.3356  20.3356  21.1913  21.1913  31.3617

     occupation numbers 
     1.0000   1.0000   1.0000   1.0000   1.0000   1.0000   1.0000   1.0000
     1.0000   1.0000   1.0000   1.0000   1.0000   1.0000   1.0000   1.0000
     0.0000   0.0000   0.0000   0.0000   0.0000

          k = 0.1667 0.4811 0.0000 (  2808 PWs)   bands (ev):

   -74.9097 -74.8874 -38.3624 -38.3121 -38.2924 -38.2346 -38.1658 -38.1589
    15.0161  15.9075  15.9120  16.6131  17.6896  18.0533  18.4585  19.7949
    20.3032  20.3157  21.5341  25.5353  28.8859

     occupation numbers 
     1.0000   1.0000   1.0000   1.0000   1.0000   1.0000   1.0000   1.0000
     1.0000   1.0000   1.0000   1.0000   1.0000   1.0000   1.0000   0.0000
     0.0000   0.0000   0.0000   0.0000   0.0000

          k = 0.1667 0.4811 0.1038 (  2813 PWs)   bands (ev):

   -74.9082 -74.8889 -38.3796 -38.3351 -38.2664 -38.2262 -38.1727 -38.1461
    15.0307  15.8676  16.0835  16.6539  17.7098  18.0382  18.5052  19.7776
    20.0675  20.3823  21.5895  24.9389  27.8213

     occupation numbers 
     1.0000   1.0000   1.0000   1.0000   1.0000   1.0000   1.0000   1.0000
     1.0000   1.0000   1.0000   1.0000   1.0000   1.0000   1.0000   0.0000
     0.0000   0.0000   0.0000   0.0000   0.0000

          k = 0.1667 0.4811 0.2076 (  2802 PWs)   bands (ev):

   -74.9041 -74.8930 -38.3979 -38.3684 -38.2463 -38.2049 -38.1730 -38.1352
    15.1339  15.6658  16.4316  16.9529  17.5452  18.0108  18.7017  19.4273
    19.9978  20.4841  21.7458  23.4898  27.9245

     occupation numbers 
     1.0000   1.0000   1.0000   1.0000   1.0000   1.0000   1.0000   1.0000
     1.0000   1.0000   1.0000   1.0000   1.0000   1.0000   1.0000   0.0000
     0.0000   0.0000   0.0000   0.0000   0.0000

          k = 0.1667 0.4811-0.3114 (  2808 PWs)   bands (ev):

   -74.8986 -74.8986 -38.3940 -38.3940 -38.2233 -38.2233 -38.1455 -38.1455
    15.3651  15.3651  16.8636  16.8636  17.7305  17.7305  18.9791  18.9791
    20.3286  20.3286  22.2884  22.2884  28.7423

     occupation numbers 
     1.0000   1.0000   1.0000   1.0000   1.0000   1.0000   1.0000   1.0000
     1.0000   1.0000   1.0000   1.0000   1.0000   1.0000   0.9927   0.9927
     0.0000   0.0000   0.0000   0.0000   0.0000

          k = 0.1667 0.5774 0.0000 (  2812 PWs)   bands (ev):

   -74.9044 -74.8882 -38.3774 -38.3169 -38.2729 -38.2473 -38.1811 -38.1643
    15.4804  15.7738  15.8445  16.6754  17.7227  17.9040  18.5666  20.1116
    20.2897  20.3147  22.4421  23.9570  29.7623

     occupation numbers 
     1.0000   1.0000   1.0000   1.0000   1.0000   1.0000   1.0000   1.0000
     1.0000   1.0000   1.0000   1.0000   1.0000   1.0000   1.0000   0.0000
     0.0000   0.0000   0.0000   0.0000   0.0000

          k = 0.1667 0.5774 0.1038 (  2815 PWs)   bands (ev):

   -74.9033 -74.8893 -38.3910 -38.3383 -38.2718 -38.2190 -38.1862 -38.1534
    15.3219  15.8244  16.2329  16.4995  17.6623  18.0778  18.6226  20.0336
    20.1082  20.3580  22.4750  23.8581  28.9702

     occupation numbers 
     1.0000   1.0000   1.0000   1.0000   1.0000   1.0000   1.0000   1.0000
     1.0000   1.0000   1.0000   1.0000   1.0000   1.0000   1.0000   0.0000
     0.0000   0.0000   0.0000   0.0000   0.0000

          k = 0.1667 0.5774 0.2076 (  2808 PWs)   bands (ev):

   -74.9004 -74.8923 -38.4076 -38.3770 -38.2557 -38.2047 -38.1752 -38.1391
    15.2805  15.7232  16.4960  16.8690  17.4524  18.1879  18.8518  19.5042
    20.1307  20.4034  22.6085  23.5295  27.8712

     occupation numbers 
     1.0000   1.0000   1.0000   1.0000   1.0000   1.0000   1.0000   1.0000
     1.0000   1.0000   1.0000   1.0000   1.0000   1.0000   1.0000   0.0000
     0.0000   0.0000   0.0000   0.0000   0.0000

          k = 0.1667 0.5774-0.3114 (  2810 PWs)   bands (ev):

   -74.8963 -74.8963 -38.4039 -38.4039 -38.2305 -38.2305 -38.1451 -38.1451
    15.4425  15.4425  16.8535  16.8535  17.7825  17.7825  19.1485  19.1485
    20.2619  20.2619  23.0121  23.0121  27.4868

     occupation numbers 
     1.0000   1.0000   1.0000   1.0000   1.0000   1.0000   1.0000   1.0000
     1.0000   1.0000   1.0000   1.0000   1.0000   1.0000   0.0000   0.0000
     0.0000   0.0000   0.0000   0.0000   0.0000

          k = 0.2500 0.4330 0.0000 (  2824 PWs)   bands (ev):

   -74.9097 -74.8874 -38.3402 -38.3145 -38.2926 -38.2344 -38.1793 -38.1655
    15.0253  15.9810  16.2618  16.2800  17.5998  18.0767  18.4602  19.5560
    20.2695  20.3097  21.5709  27.1235  27.9041

     occupation numbers 
     1.0000   1.0000   1.0000   1.0000   1.0000   1.0000   1.0000   1.0000
     1.0000   1.0000   1.0000   1.0000   1.0000   1.0000   1.0000   0.0000
     0.0000   0.0000   0.0000   0.0000   0.0000

          k = 0.2500 0.4330 0.1038 (  2811 PWs)   bands (ev):

   -74.9082 -74.8889 -38.3526 -38.3445 -38.2494 -38.2480 -38.1826 -38.1493
    15.1063  15.8993  16.3330  16.4752  17.6515  17.8980  18.4535  19.5848
    20.0108  20.3922  21.6827  25.7067  28.2010

     occupation numbers 
     1.0000   1.0000   1.0000   1.0000   1.0000   1.0000   1.0000   1.0000
     1.0000   1.0000   1.0000   1.0000   1.0000   1.0000   1.0000   0.0000
     0.0000   0.0000   0.0000   0.0000   0.0000

          k = 0.2500 0.4330 0.2076 (  2807 PWs)   bands (ev):

   -74.9041 -74.8930 -38.3793 -38.3623 -38.2545 -38.2236 -38.1717 -38.1346
    15.3121  15.7621  16.5653  16.8549  17.5045  17.6360  18.5190  19.3295
    19.9576  20.4924  21.9280  23.8172  29.0018

     occupation numbers 
     1.0000   1.0000   1.0000   1.0000   1.0000   1.0000   1.0000   1.0000
     1.0000   1.0000   1.0000   1.0000   1.0000   1.0000   1.0000   0.0000
     0.0000   0.0000   0.0000   0.0000   0.0000

          k = 0.2500 0.4330-0.3114 (  2808 PWs)   bands (ev):

   -74.8986 -74.8986 -38.3806 -38.3806 -38.2391 -38.2391 -38.1432 -38.1432
    15.5584  15.5584  16.9238  16.9238  17.3963  17.3963  18.8135  18.8135
    20.3528  20.3528  22.5087  22.5087  30.0357

     occupation numbers 
     1.0000   1.0000   1.0000   1.0000   1.0000   1.0000   1.0000   1.0000
     1.0000   1.0000   1.0000   1.0000   1.0000   1.0000   1.0000   1.0000
     0.0000   0.0000   0.0000   0.0000   0.0000

          k = 0.2500 0.5292 0.0000 (  2834 PWs)   bands (ev):

   -74.9008 -74.8893 -38.3551 -38.3037 -38.2678 -38.2585 -38.2019 -38.1931
    15.7402  15.9368  16.0965  16.3699  17.6037  17.8353  18.6644  19.8645
    20.2413  20.2593  22.8568  25.1230  27.2147

     occupation numbers 
     1.0000   1.0000   1.0000   1.0000   1.0000   1.0000   1.0000   1.0000
     1.0000   1.0000   1.0000   1.0000   1.0000   1.0000   1.0000   0.0000
     0.0000   0.0000   0.0000   0.0000   0.0000

          k = 0.2500 0.5292 0.1038 (  2817 PWs)   bands (ev):

   -74.9000 -74.8900 -38.3618 -38.3307 -38.2886 -38.2254 -38.2051 -38.1682
    15.6968  16.0666  16.1862  16.4355  17.5848  17.7364  18.6655  19.8748
    19.9783  20.3134  23.0272  25.1037  27.2963

     occupation numbers 
     1.0000   1.0000   1.0000   1.0000   1.0000   1.0000   1.0000   1.0000
     1.0000   1.0000   1.0000   1.0000   1.0000   1.0000   1.0000   0.0000
     0.0000   0.0000   0.0000   0.0000   0.0000

          k = 0.2500 0.5292 0.2076 (  2810 PWs)   bands (ev):

   -74.8979 -74.8921 -38.3804 -38.3634 -38.2874 -38.2384 -38.1669 -38.1429
    15.7361  16.0344  16.4741  16.7915  17.3417  17.5919  18.7208  19.3742
    20.0434  20.3581  23.4214  24.7510  27.4054

     occupation numbers 
     1.0000   1.0000   1.0000   1.0000   1.0000   1.0000   1.0000   1.0000
     1.0000   1.0000   1.0000   1.0000   1.0000   1.0000   1.0000   0.0000
     0.0000   0.0000   0.0000   0.0000   0.0000

          k = 0.2500 0.5292-0.3114 (  2808 PWs)   bands (ev):

   -74.8950 -74.8950 -38.3836 -38.3836 -38.2646 -38.2646 -38.1414 -38.1414
    15.8738  15.8738  16.8812  16.8812  17.2998  17.2998  18.9257  18.9257
    20.2481  20.2481  24.0211  24.0211  27.9650

     occupation numbers 
     1.0000   1.0000   1.0000   1.0000   1.0000   1.0000   1.0000   1.0000
     1.0000   1.0000   1.0000   1.0000   1.0000   1.0000   1.0000   1.0000
     0.0000   0.0000   0.0000   0.0000   0.0000

          k = 0.3333 0.5774 0.0000 (  2826 PWs)   bands (ev):

   -74.8937 -74.8937 -38.3456 -38.2885 -38.2885 -38.2280 -38.2246 -38.2246
    15.9641  16.0893  16.0893  16.2977  17.6557  17.6557  18.7741  20.0349
    20.0349  20.2117  24.2960  25.1150  25.1150

     occupation numbers 
     1.0000   1.0000   1.0000   1.0000   1.0000   1.0000   1.0000   1.0000
     1.0000   1.0000   1.0000   1.0000   1.0000   1.0000   1.0000   0.0000
     0.0000   0.0000   0.0000   0.0000   0.0000

          k = 0.3333 0.5774 0.1038 (  2820 PWs)   bands (ev):

   -74.8937 -74.8937 -38.3378 -38.3208 -38.3208 -38.2359 -38.1921 -38.1921
    16.0426  16.1667  16.1667  16.3316  17.5704  17.5704  18.7485  19.9205
    20.0785  20.0785  24.7273  25.1663  25.1663

     occupation numbers 
     1.0000   1.0000   1.0000   1.0000   1.0000   1.0000   1.0000   1.0000
     1.0000   1.0000   1.0000   1.0000   1.0000   1.0000   1.0000   0.0000
     0.0000   0.0000   0.0000   0.0000   0.0000

          k = 0.3333 0.5774 0.2076 (  2817 PWs)   bands (ev):

   -74.8937 -74.8937 -38.3583 -38.3583 -38.3164 -38.2575 -38.1543 -38.1543
    16.2275  16.3502  16.3502  16.3937  17.3793  17.3793  18.7355  19.3485
    20.1568  20.1568  25.2928  25.2928  25.7643

     occupation numbers 
     1.0000   1.0000   1.0000   1.0000   1.0000   1.0000   1.0000   1.0000
     1.0000   1.0000   1.0000   1.0000   1.0000   1.0000   1.0000   0.0000
     0.0000   0.0000   0.0000   0.0000   0.0000

          k = 0.3333 0.5774-0.3114 (  2772 PWs)   bands (ev):

   -74.8937 -74.8937 -38.3725 -38.3725 -38.2870 -38.2870 -38.1399 -38.1399
    16.3793  16.3793  16.4686  16.4686  17.2607  17.2607  18.9006  18.9006
    20.1919  20.1919  25.3728  25.3728  27.1208

     occupation numbers 
     1.0000   1.0000   1.0000   1.0000   1.0000   1.0000   1.0000   1.0000
     1.0000   1.0000   1.0000   1.0000   1.0000   1.0000   1.0000   1.0000
     0.0000   0.0000   0.0000   0.0000   0.0000

     the Fermi energy is    19.0026 ev

!    total energy              =    -753.45497089 Ry
     total all-electron energy =     -5573.811662 Ry
     estimated scf accuracy    <       0.00000058 Ry
     smearing contrib. (-TS)   =      -0.00002374 Ry
     internal energy E=F+TS    =    -753.45494715 Ry

     The total energy is F=E-TS. E is the sum of the following terms:
     one-electron contribution =    -279.38373136 Ry
     hartree contribution      =     163.78747116 Ry
     xc contribution           =     -61.42583058 Ry
     ewald contribution        =    -401.25662535 Ry
     one-center paw contrib.   =    -175.17623102 Ry
      -> PAW hartree energy AE =     222.13977151 Ry
      -> PAW hartree energy PS =    -221.08390451 Ry
      -> PAW xc energy AE      =    -117.67864922 Ry
      -> PAW xc energy PS      =      29.03466671 Ry
      -> total E_H with PAW    =     164.84333816 Ry
      -> total E_XC with PAW   =    -150.06981309 Ry

     total magnetization       =     3.28 Bohr mag/cell
     absolute magnetization    =     3.60 Bohr mag/cell

     convergence has been achieved in   5 iterations

     Writing all to output data dir ./out2/Co.save/
 
     init_run     :      0.29s CPU      0.37s WALL (       1 calls)
     electrons    :      5.36s CPU      5.78s WALL (       1 calls)

     Called by init_run:
     wfcinit      :      0.13s CPU      0.18s WALL (       1 calls)
     potinit      :      0.10s CPU      0.12s WALL (       1 calls)
     hinit0       :      0.04s CPU      0.05s WALL (       1 calls)

     Called by electrons:
     c_bands      :      4.36s CPU      4.64s WALL (       5 calls)
     sum_band     :      0.53s CPU      0.56s WALL (       5 calls)
     v_of_rho     :      0.02s CPU      0.02s WALL (       6 calls)
     v_h          :      0.00s CPU      0.00s WALL (       6 calls)
     v_xc         :      0.02s CPU      0.02s WALL (       6 calls)
     newd         :      0.01s CPU      0.02s WALL (       6 calls)
     PAW_pot      :      0.52s CPU      0.63s WALL (       6 calls)
     mix_rho      :      0.00s CPU      0.00s WALL (       5 calls)

     Called by c_bands:
     init_us_2    :      0.04s CPU      0.04s WALL (     760 calls)
     init_us_2:cp :      0.04s CPU      0.04s WALL (     760 calls)
     cegterg      :      4.05s CPU      4.27s WALL (     380 calls)

     Called by sum_band:
     sum_band:wei :      0.00s CPU      0.00s WALL (       5 calls)
     sum_band:loo :      0.49s CPU      0.52s WALL (       5 calls)
     sum_band:buf :      0.00s CPU      0.00s WALL (     380 calls)
     sum_band:ini :      0.02s CPU      0.02s WALL (     380 calls)
     sum_band:cal :      0.04s CPU      0.04s WALL (     380 calls)
     sum_band:bec :      0.00s CPU      0.00s WALL (     380 calls)
     addusdens    :      0.02s CPU      0.03s WALL (       5 calls)
                                        0.00s GPU  (       5 calls)
     addusd:skk   :      0.00s CPU      0.00s WALL (       5 calls)
                                        0.00s GPU  (       5 calls)

     Called by *egterg:
     cdiaghg      :      0.86s CPU      0.90s WALL (    1799 calls)
     cegterg:over :      0.13s CPU      0.14s WALL (    1495 calls)
     cegterg:upda :      0.04s CPU      0.04s WALL (    1495 calls)
     cegterg:last :      0.07s CPU      0.07s WALL (    1086 calls)
     h_psi        :      2.76s CPU      2.92s WALL (    1875 calls)
     s_psi        :      0.05s CPU      0.05s WALL (    1875 calls)
     g_psi        :      0.01s CPU      0.01s WALL (    1495 calls)

     Called by h_psi:
     h_psi:calbec :      0.15s CPU      0.16s WALL (    1875 calls)
     vloc_psi     :      2.53s CPU      2.68s WALL (    1875 calls)
     add_vuspsi   :      0.06s CPU      0.06s WALL (    1875 calls)

     General routines
     calbec       :      0.18s CPU      0.20s WALL (    2255 calls)
     fft          :      0.01s CPU      0.01s WALL (     144 calls)
     ffts         :      0.00s CPU      0.00s WALL (      22 calls)
     fftw         :      2.67s CPU      2.82s WALL (   59778 calls)
     interpolate  :      0.00s CPU      0.00s WALL (      12 calls)
 
     Parallel routines

     PAW routines
     PAW_pot      :      0.52s CPU      0.63s WALL (       6 calls)
     PAW_symme    :      0.01s CPU      0.01s WALL (      10 calls)
 
     PWSCF        :      5.88s CPU      6.69s WALL

 
   This run was terminated on:  10:47:44  22Mar2024            

=------------------------------------------------------------------------------=
   JOB DONE.
=------------------------------------------------------------------------------=
