
     Program PWSCF v.7.2 starts on 22Mar2024 at 10:50:23 

     This program is part of the open-source Quantum ESPRESSO suite
     for quantum simulation of materials; please cite
         "P. Giannozzi et al., J. Phys.:Condens. Matter 21 395502 (2009);
         "P. Giannozzi et al., J. Phys.:Condens. Matter 29 465901 (2017);
         "P. Giannozzi et al., J. Chem. Phys. 152 154105 (2020);
          URL http://www.quantum-espresso.org", 
     in publications or presentations arising from this work. More details at
     http://www.quantum-espresso.org/quote

     Parallel version (MPI), running on    28 processors

     MPI processes distributed on     1 nodes
     182142 MiB available memory on the printing compute node when the environment starts
 
     Waiting for input...
     Reading input from standard input

     Current dimensions of program PWSCF are:
     Max number of different atomic species (ntypx) = 10
     Max number of k-points (npk) = 120000
     Max angular momentum in pseudopotentials (lmaxx) =  4
     file Co.pbe-spn-kjpaw_psl.0.3.1.UPF: wavefunction(s)  3P 3D renormalized
 
     K-points division:     npool     =       2
     R & G space division:  proc/nbgrp/npool/nimage =      14
     Subspace diagonalization in iterative solution of the eigenvalue problem:
     a serial algorithm will be used

 
     Parallelization info
     --------------------
     sticks:   dense  smooth     PW     G-vecs:    dense   smooth      PW
     Min          48      48     14                 1653     1604     262
     Max          51      49     15                 1668     1609     269
     Sum         685     673    199                23187    22491    3705
 
     Using Slab Decomposition
 


     bravais-lattice index     =            4
     lattice parameter (alat)  =       4.7054  a.u.
     unit-cell volume          =     144.5769 (a.u.)^3
     number of atoms/cell      =            2
     number of atomic types    =            1
     number of electrons       =        34.00
     number of Kohn-Sham states=           21
     kinetic-energy cutoff     =     110.0000  Ry
     charge density cutoff     =     450.0000  Ry
     scf convergence threshold =      1.0E-06
     mixing beta               =       0.7000
     number of iterations used =            8  plain     mixing
     Exchange-correlation= SLA  PW   PBX  PBC
                           (   1   4   3   4   0   0   0)

     celldm(1)=   4.705418  celldm(2)=   0.000000  celldm(3)=   1.602410
     celldm(4)=   0.000000  celldm(5)=   0.000000  celldm(6)=   0.000000

     crystal axes: (cart. coord. in units of alat)
               a(1) = (   1.000000   0.000000   0.000000 )  
               a(2) = (  -0.500000   0.866025   0.000000 )  
               a(3) = (   0.000000   0.000000   1.602410 )  

     reciprocal axes: (cart. coord. in units 2 pi/alat)
               b(1) = (  1.000000  0.577350  0.000000 )  
               b(2) = (  0.000000  1.154701  0.000000 )  
               b(3) = (  0.000000  0.000000  0.624060 )  


     PseudoPot. # 1 for Co read from file:
     /truba/home/amuhaymin/ZnS/pseudo/QE/Co.pbe-spn-kjpaw_psl.0.3.1.UPF
     MD5 check sum: b0a1ad65bf214e88c1f3d33b20c7d919
     Pseudo is Projector augmented-wave + core cor, Zval = 17.0
     Generated using &quot;atomic&quot; code by A. Dal Corso  v.6.2.2
     Shape of augmentation charge: PSQ
     Using radial grid of 1193 points,  6 beta functions with: 
                l(1) =   0
                l(2) =   0
                l(3) =   1
                l(4) =   1
                l(5) =   2
                l(6) =   2
     Q(r) pseudized with 0 coefficients 


     atomic species   valence    mass     pseudopotential
        Co            17.00    58.93300     Co( 1.00)

     Starting magnetic structure 
     atomic species   magnetization
        Co           0.294

     24 Sym. Ops., with inversion, found (12 have fractional translation)


                                    s                        frac. trans.

      isym =  1     identity                                     

 cryst.   s( 1) = (     1          0          0      )
                  (     0          1          0      )
                  (     0          0          1      )

 cart.    s( 1) = (  1.0000000  0.0000000  0.0000000 )
                  (  0.0000000  1.0000000  0.0000000 )
                  (  0.0000000  0.0000000  1.0000000 )


      isym =  2     180 deg rotation - cart. axis [0,0,1]        

 cryst.   s( 2) = (    -1          0          0      )    f =(  0.0000000 )
                  (     0         -1          0      )       ( -0.0000000 )
                  (     0          0          1      )       (  0.5000000 )

 cart.    s( 2) = ( -1.0000000  0.0000000  0.0000000 )    f =(  0.0000000 )
                  (  0.0000000 -1.0000000  0.0000000 )       ( -0.0000000 )
                  (  0.0000000  0.0000000  1.0000000 )       (  0.8012048 )


      isym =  3     180 deg rotation - cart. axis [0,1,0]        

 cryst.   s( 3) = (    -1          0          0      )    f =(  0.0000000 )
                  (     1          1          0      )       (  0.0000000 )
                  (     0          0         -1      )       (  0.5000000 )

 cart.    s( 3) = ( -1.0000000  0.0000000  0.0000000 )    f =(  0.0000000 )
                  (  0.0000000  1.0000000  0.0000000 )       (  0.0000000 )
                  (  0.0000000  0.0000000 -1.0000000 )       (  0.8012048 )


      isym =  4     180 deg rotation - cart. axis [1,0,0]        

 cryst.   s( 4) = (     1          0          0      )
                  (    -1         -1          0      )
                  (     0          0         -1      )

 cart.    s( 4) = (  1.0000000  0.0000000  0.0000000 )
                  (  0.0000000 -1.0000000  0.0000000 )
                  (  0.0000000  0.0000000 -1.0000000 )


      isym =  5      60 deg rotation - cryst. axis [0,0,1]       

 cryst.   s( 5) = (     1          1          0      )    f =(  0.0000000 )
                  (    -1          0          0      )       ( -0.0000000 )
                  (     0          0          1      )       (  0.5000000 )

 cart.    s( 5) = (  0.5000000 -0.8660254  0.0000000 )    f =(  0.0000000 )
                  (  0.8660254  0.5000000  0.0000000 )       ( -0.0000000 )
                  (  0.0000000  0.0000000  1.0000000 )       (  0.8012048 )


      isym =  6      60 deg rotation - cryst. axis [0,0,-1]      

 cryst.   s( 6) = (     0         -1          0      )    f =(  0.0000000 )
                  (     1          1          0      )       ( -0.0000000 )
                  (     0          0          1      )       (  0.5000000 )

 cart.    s( 6) = (  0.5000000  0.8660254  0.0000000 )    f =(  0.0000000 )
                  ( -0.8660254  0.5000000  0.0000000 )       ( -0.0000000 )
                  (  0.0000000  0.0000000  1.0000000 )       (  0.8012048 )


      isym =  7     120 deg rotation - cryst. axis [0,0,1]       

 cryst.   s( 7) = (     0          1          0      )
                  (    -1         -1          0      )
                  (     0          0          1      )

 cart.    s( 7) = ( -0.5000000 -0.8660254  0.0000000 )
                  (  0.8660254 -0.5000000  0.0000000 )
                  (  0.0000000  0.0000000  1.0000000 )


      isym =  8     120 deg rotation - cryst. axis [0,0,-1]      

 cryst.   s( 8) = (    -1         -1          0      )
                  (     1          0          0      )
                  (     0          0          1      )

 cart.    s( 8) = ( -0.5000000  0.8660254  0.0000000 )
                  ( -0.8660254 -0.5000000  0.0000000 )
                  (  0.0000000  0.0000000  1.0000000 )


      isym =  9     180 deg rotation - cryst. axis [1,-1,0]      

 cryst.   s( 9) = (     0         -1          0      )    f =( -0.0000000 )
                  (    -1          0          0      )       ( -0.0000000 )
                  (     0          0         -1      )       (  0.5000000 )

 cart.    s( 9) = (  0.5000000 -0.8660254  0.0000000 )    f =( -0.0000000 )
                  ( -0.8660254 -0.5000000  0.0000000 )       ( -0.0000000 )
                  (  0.0000000  0.0000000 -1.0000000 )       (  0.8012048 )


      isym = 10     180 deg rotation - cryst. axis [2,1,0]       

 cryst.   s(10) = (     1          1          0      )    f =(  0.0000000 )
                  (     0         -1          0      )       ( -0.0000000 )
                  (     0          0         -1      )       (  0.5000000 )

 cart.    s(10) = (  0.5000000  0.8660254  0.0000000 )    f =(  0.0000000 )
                  (  0.8660254 -0.5000000  0.0000000 )       ( -0.0000000 )
                  (  0.0000000  0.0000000 -1.0000000 )       (  0.8012048 )


      isym = 11     180 deg rotation - cryst. axis [0,1,0]       

 cryst.   s(11) = (    -1         -1          0      )
                  (     0          1          0      )
                  (     0          0         -1      )

 cart.    s(11) = ( -0.5000000 -0.8660254  0.0000000 )
                  ( -0.8660254  0.5000000  0.0000000 )
                  (  0.0000000  0.0000000 -1.0000000 )


      isym = 12     180 deg rotation - cryst. axis [1,1,0]       

 cryst.   s(12) = (     0          1          0      )
                  (     1          0          0      )
                  (     0          0         -1      )

 cart.    s(12) = ( -0.5000000  0.8660254  0.0000000 )
                  (  0.8660254  0.5000000  0.0000000 )
                  (  0.0000000  0.0000000 -1.0000000 )


      isym = 13     inversion                                    

 cryst.   s(13) = (    -1          0          0      )
                  (     0         -1          0      )
                  (     0          0         -1      )

 cart.    s(13) = ( -1.0000000  0.0000000  0.0000000 )
                  (  0.0000000 -1.0000000  0.0000000 )
                  (  0.0000000  0.0000000 -1.0000000 )


      isym = 14     inv. 180 deg rotation - cart. axis [0,0,1]   

 cryst.   s(14) = (     1          0          0      )    f =(  0.0000000 )
                  (     0          1          0      )       (  0.0000000 )
                  (     0          0         -1      )       (  0.5000000 )

 cart.    s(14) = (  1.0000000  0.0000000  0.0000000 )    f =(  0.0000000 )
                  (  0.0000000  1.0000000  0.0000000 )       (  0.0000000 )
                  (  0.0000000  0.0000000 -1.0000000 )       (  0.8012048 )


      isym = 15     inv. 180 deg rotation - cart. axis [0,1,0]   

 cryst.   s(15) = (     1          0          0      )    f =(  0.0000000 )
                  (    -1         -1          0      )       ( -0.0000000 )
                  (     0          0          1      )       (  0.5000000 )

 cart.    s(15) = (  1.0000000  0.0000000  0.0000000 )    f =(  0.0000000 )
                  (  0.0000000 -1.0000000  0.0000000 )       ( -0.0000000 )
                  (  0.0000000  0.0000000  1.0000000 )       (  0.8012048 )


      isym = 16     inv. 180 deg rotation - cart. axis [1,0,0]   

 cryst.   s(16) = (    -1          0          0      )
                  (     1          1          0      )
                  (     0          0          1      )

 cart.    s(16) = ( -1.0000000  0.0000000  0.0000000 )
                  (  0.0000000  1.0000000  0.0000000 )
                  (  0.0000000  0.0000000  1.0000000 )


      isym = 17     inv.  60 deg rotation - cryst. axis [0,0,1]  

 cryst.   s(17) = (    -1         -1          0      )    f =(  0.0000000 )
                  (     1          0          0      )       ( -0.0000000 )
                  (     0          0         -1      )       (  0.5000000 )

 cart.    s(17) = ( -0.5000000  0.8660254  0.0000000 )    f =(  0.0000000 )
                  ( -0.8660254 -0.5000000  0.0000000 )       ( -0.0000000 )
                  (  0.0000000  0.0000000 -1.0000000 )       (  0.8012048 )


      isym = 18     inv.  60 deg rotation - cryst. axis [0,0,-1] 

 cryst.   s(18) = (     0          1          0      )    f =( -0.0000000 )
                  (    -1         -1          0      )       ( -0.0000000 )
                  (     0          0         -1      )       (  0.5000000 )

 cart.    s(18) = ( -0.5000000 -0.8660254  0.0000000 )    f =(  0.0000000 )
                  (  0.8660254 -0.5000000  0.0000000 )       ( -0.0000000 )
                  (  0.0000000  0.0000000 -1.0000000 )       (  0.8012048 )


      isym = 19     inv. 120 deg rotation - cryst. axis [0,0,1]  

 cryst.   s(19) = (     0         -1          0      )
                  (     1          1          0      )
                  (     0          0         -1      )

 cart.    s(19) = (  0.5000000  0.8660254  0.0000000 )
                  ( -0.8660254  0.5000000  0.0000000 )
                  (  0.0000000  0.0000000 -1.0000000 )


      isym = 20     inv. 120 deg rotation - cryst. axis [0,0,-1] 

 cryst.   s(20) = (     1          1          0      )
                  (    -1          0          0      )
                  (     0          0         -1      )

 cart.    s(20) = (  0.5000000 -0.8660254  0.0000000 )
                  (  0.8660254  0.5000000  0.0000000 )
                  (  0.0000000  0.0000000 -1.0000000 )


      isym = 21     inv. 180 deg rotation - cryst. axis [1,-1,0] 

 cryst.   s(21) = (     0          1          0      )    f =(  0.0000000 )
                  (     1          0          0      )       ( -0.0000000 )
                  (     0          0          1      )       (  0.5000000 )

 cart.    s(21) = ( -0.5000000  0.8660254  0.0000000 )    f =(  0.0000000 )
                  (  0.8660254  0.5000000  0.0000000 )       ( -0.0000000 )
                  (  0.0000000  0.0000000  1.0000000 )       (  0.8012048 )


      isym = 22     inv. 180 deg rotation - cryst. axis [2,1,0]  

 cryst.   s(22) = (    -1         -1          0      )    f =(  0.0000000 )
                  (     0          1          0      )       ( -0.0000000 )
                  (     0          0          1      )       (  0.5000000 )

 cart.    s(22) = ( -0.5000000 -0.8660254  0.0000000 )    f =(  0.0000000 )
                  ( -0.8660254  0.5000000  0.0000000 )       ( -0.0000000 )
                  (  0.0000000  0.0000000  1.0000000 )       (  0.8012048 )


      isym = 23     inv. 180 deg rotation - cryst. axis [0,1,0]  

 cryst.   s(23) = (     1          1          0      )
                  (     0         -1          0      )
                  (     0          0          1      )

 cart.    s(23) = (  0.5000000  0.8660254  0.0000000 )
                  (  0.8660254 -0.5000000  0.0000000 )
                  (  0.0000000  0.0000000  1.0000000 )


      isym = 24     inv. 180 deg rotation - cryst. axis [1,1,0]  

 cryst.   s(24) = (     0         -1          0      )
                  (    -1          0          0      )
                  (     0          0          1      )

 cart.    s(24) = (  0.5000000 -0.8660254  0.0000000 )
                  ( -0.8660254 -0.5000000  0.0000000 )
                  (  0.0000000  0.0000000  1.0000000 )


     point group D_6h(6/mmm)
     there are 12 classes
     the character table:

       E     2C6   2C3   C2    3C2'  3C2'' i     2S3   2S6   s_h   3s_d  3s_v 
A_1g   1.00  1.00  1.00  1.00  1.00  1.00  1.00  1.00  1.00  1.00  1.00  1.00
A_2g   1.00  1.00  1.00  1.00 -1.00 -1.00  1.00  1.00  1.00  1.00 -1.00 -1.00
B_1g   1.00 -1.00  1.00 -1.00  1.00 -1.00  1.00 -1.00  1.00 -1.00  1.00 -1.00
B_2g   1.00 -1.00  1.00 -1.00 -1.00  1.00  1.00 -1.00  1.00 -1.00 -1.00  1.00
E_1g   2.00  1.00 -1.00 -2.00  0.00  0.00  2.00  1.00 -1.00 -2.00  0.00  0.00
E_2g   2.00 -1.00 -1.00  2.00  0.00  0.00  2.00 -1.00 -1.00  2.00  0.00  0.00
A_1u   1.00  1.00  1.00  1.00  1.00  1.00 -1.00 -1.00 -1.00 -1.00 -1.00 -1.00
A_2u   1.00  1.00  1.00  1.00 -1.00 -1.00 -1.00 -1.00 -1.00 -1.00  1.00  1.00
B_1u   1.00 -1.00  1.00 -1.00  1.00 -1.00 -1.00  1.00 -1.00  1.00 -1.00  1.00
B_2u   1.00 -1.00  1.00 -1.00 -1.00  1.00 -1.00  1.00 -1.00  1.00  1.00 -1.00
E_1u   2.00  1.00 -1.00 -2.00  0.00  0.00 -2.00 -1.00  1.00  2.00  0.00  0.00
E_2u   2.00 -1.00 -1.00  2.00  0.00  0.00 -2.00  1.00  1.00 -2.00  0.00  0.00

     the symmetry operations in each class and the name of the first element:

     E        1
          identity                                               
     2C6      5    6
           60 deg rotation - cryst. axis [0,0,1]                 
     2C3      7    8
          120 deg rotation - cryst. axis [0,0,1]                 
     C2       2
          180 deg rotation - cart. axis [0,0,1]                  
     3C2'     4   12   11
          180 deg rotation - cart. axis [1,0,0]                  
     3C2''    3    9   10
          180 deg rotation - cart. axis [0,1,0]                  
     i       13
          inversion                                              
     2S3     17   18
          inv.  60 deg rotation - cryst. axis [0,0,1]            
     2S6     19   20
          inv. 120 deg rotation - cryst. axis [0,0,1]            
     s_h     14
          inv. 180 deg rotation - cart. axis [0,0,1]             
     3s_d    16   24   23
          inv. 180 deg rotation - cart. axis [1,0,0]             
     3s_v    15   21   22
          inv. 180 deg rotation - cart. axis [0,1,0]             

   Cartesian axes

     site n.     atom                  positions (alat units)
         1           Co  tau(   1) = (  -0.0000000   0.5773503   0.4006024  )
         2           Co  tau(   2) = (   0.5000000   0.2886751   1.2018072  )

   Crystallographic axes

     site n.     atom                  positions (cryst. coord.)
         1           Co  tau(   1) = (  0.3333333  0.6666667  0.2500000  )
         2           Co  tau(   2) = (  0.6666667  0.3333333  0.7500000  )

     number of k points=    76  Gaussian smearing, width (Ry)=  0.0010
                       cart. coord. in units 2pi/alat
        k(    1) = (   0.0000000   0.0000000   0.0000000), wk =   0.0011574
        k(    2) = (   0.0000000   0.0000000   0.1040100), wk =   0.0023148
        k(    3) = (   0.0000000   0.0000000   0.2080201), wk =   0.0023148
        k(    4) = (   0.0000000   0.0000000  -0.3120301), wk =   0.0011574
        k(    5) = (   0.0000000   0.0962250   0.0000000), wk =   0.0069444
        k(    6) = (   0.0000000   0.0962250   0.1040100), wk =   0.0138889
        k(    7) = (   0.0000000   0.0962250   0.2080201), wk =   0.0138889
        k(    8) = (   0.0000000   0.0962250  -0.3120301), wk =   0.0069444
        k(    9) = (   0.0000000   0.1924501   0.0000000), wk =   0.0069444
        k(   10) = (   0.0000000   0.1924501   0.1040100), wk =   0.0138889
        k(   11) = (   0.0000000   0.1924501   0.2080201), wk =   0.0138889
        k(   12) = (   0.0000000   0.1924501  -0.3120301), wk =   0.0069444
        k(   13) = (   0.0000000   0.2886751   0.0000000), wk =   0.0069444
        k(   14) = (   0.0000000   0.2886751   0.1040100), wk =   0.0138889
        k(   15) = (   0.0000000   0.2886751   0.2080201), wk =   0.0138889
        k(   16) = (   0.0000000   0.2886751  -0.3120301), wk =   0.0069444
        k(   17) = (   0.0000000   0.3849002   0.0000000), wk =   0.0069444
        k(   18) = (   0.0000000   0.3849002   0.1040100), wk =   0.0138889
        k(   19) = (   0.0000000   0.3849002   0.2080201), wk =   0.0138889
        k(   20) = (   0.0000000   0.3849002  -0.3120301), wk =   0.0069444
        k(   21) = (   0.0000000   0.4811252   0.0000000), wk =   0.0069444
        k(   22) = (   0.0000000   0.4811252   0.1040100), wk =   0.0138889
        k(   23) = (   0.0000000   0.4811252   0.2080201), wk =   0.0138889
        k(   24) = (   0.0000000   0.4811252  -0.3120301), wk =   0.0069444
        k(   25) = (   0.0000000  -0.5773503   0.0000000), wk =   0.0034722
        k(   26) = (   0.0000000  -0.5773503   0.1040100), wk =   0.0069444
        k(   27) = (   0.0000000  -0.5773503   0.2080201), wk =   0.0069444
        k(   28) = (   0.0000000  -0.5773503  -0.3120301), wk =   0.0034722
        k(   29) = (   0.0833333   0.1443376   0.0000000), wk =   0.0069444
        k(   30) = (   0.0833333   0.1443376   0.1040100), wk =   0.0138889
        k(   31) = (   0.0833333   0.1443376   0.2080201), wk =   0.0138889
        k(   32) = (   0.0833333   0.1443376  -0.3120301), wk =   0.0069444
        k(   33) = (   0.0833333   0.2405626   0.0000000), wk =   0.0138889
        k(   34) = (   0.0833333   0.2405626   0.1040100), wk =   0.0277778
        k(   35) = (   0.0833333   0.2405626   0.2080201), wk =   0.0277778
        k(   36) = (   0.0833333   0.2405626  -0.3120301), wk =   0.0138889
        k(   37) = (   0.0833333   0.3367877   0.0000000), wk =   0.0138889
        k(   38) = (   0.0833333   0.3367877   0.1040100), wk =   0.0277778
        k(   39) = (   0.0833333   0.3367877   0.2080201), wk =   0.0277778
        k(   40) = (   0.0833333   0.3367877  -0.3120301), wk =   0.0138889
        k(   41) = (   0.0833333   0.4330127   0.0000000), wk =   0.0138889
        k(   42) = (   0.0833333   0.4330127   0.1040100), wk =   0.0277778
        k(   43) = (   0.0833333   0.4330127   0.2080201), wk =   0.0277778
        k(   44) = (   0.0833333   0.4330127  -0.3120301), wk =   0.0138889
        k(   45) = (   0.0833333   0.5292377   0.0000000), wk =   0.0138889
        k(   46) = (   0.0833333   0.5292377   0.1040100), wk =   0.0277778
        k(   47) = (   0.0833333   0.5292377   0.2080201), wk =   0.0277778
        k(   48) = (   0.0833333   0.5292377  -0.3120301), wk =   0.0138889
        k(   49) = (   0.1666667   0.2886751   0.0000000), wk =   0.0069444
        k(   50) = (   0.1666667   0.2886751   0.1040100), wk =   0.0138889
        k(   51) = (   0.1666667   0.2886751   0.2080201), wk =   0.0138889
        k(   52) = (   0.1666667   0.2886751  -0.3120301), wk =   0.0069444
        k(   53) = (   0.1666667   0.3849002   0.0000000), wk =   0.0138889
        k(   54) = (   0.1666667   0.3849002   0.1040100), wk =   0.0277778
        k(   55) = (   0.1666667   0.3849002   0.2080201), wk =   0.0277778
        k(   56) = (   0.1666667   0.3849002  -0.3120301), wk =   0.0138889
        k(   57) = (   0.1666667   0.4811252   0.0000000), wk =   0.0138889
        k(   58) = (   0.1666667   0.4811252   0.1040100), wk =   0.0277778
        k(   59) = (   0.1666667   0.4811252   0.2080201), wk =   0.0277778
        k(   60) = (   0.1666667   0.4811252  -0.3120301), wk =   0.0138889
        k(   61) = (   0.1666667   0.5773503   0.0000000), wk =   0.0069444
        k(   62) = (   0.1666667   0.5773503   0.1040100), wk =   0.0138889
        k(   63) = (   0.1666667   0.5773503   0.2080201), wk =   0.0138889
        k(   64) = (   0.1666667   0.5773503  -0.3120301), wk =   0.0069444
        k(   65) = (   0.2500000   0.4330127   0.0000000), wk =   0.0069444
        k(   66) = (   0.2500000   0.4330127   0.1040100), wk =   0.0138889
        k(   67) = (   0.2500000   0.4330127   0.2080201), wk =   0.0138889
        k(   68) = (   0.2500000   0.4330127  -0.3120301), wk =   0.0069444
        k(   69) = (   0.2500000   0.5292377   0.0000000), wk =   0.0138889
        k(   70) = (   0.2500000   0.5292377   0.1040100), wk =   0.0277778
        k(   71) = (   0.2500000   0.5292377   0.2080201), wk =   0.0277778
        k(   72) = (   0.2500000   0.5292377  -0.3120301), wk =   0.0138889
        k(   73) = (   0.3333333   0.5773503   0.0000000), wk =   0.0023148
        k(   74) = (   0.3333333   0.5773503   0.1040100), wk =   0.0046296
        k(   75) = (   0.3333333   0.5773503   0.2080201), wk =   0.0046296
        k(   76) = (   0.3333333   0.5773503  -0.3120301), wk =   0.0023148

                       cryst. coord.
        k(    1) = (   0.0000000   0.0000000   0.0000000), wk =   0.0011574
        k(    2) = (   0.0000000   0.0000000   0.1666667), wk =   0.0023148
        k(    3) = (   0.0000000   0.0000000   0.3333333), wk =   0.0023148
        k(    4) = (   0.0000000   0.0000000  -0.5000000), wk =   0.0011574
        k(    5) = (   0.0000000   0.0833333   0.0000000), wk =   0.0069444
        k(    6) = (   0.0000000   0.0833333   0.1666667), wk =   0.0138889
        k(    7) = (   0.0000000   0.0833333   0.3333333), wk =   0.0138889
        k(    8) = (   0.0000000   0.0833333  -0.5000000), wk =   0.0069444
        k(    9) = (   0.0000000   0.1666667   0.0000000), wk =   0.0069444
        k(   10) = (   0.0000000   0.1666667   0.1666667), wk =   0.0138889
        k(   11) = (   0.0000000   0.1666667   0.3333333), wk =   0.0138889
        k(   12) = (   0.0000000   0.1666667  -0.5000000), wk =   0.0069444
        k(   13) = (   0.0000000   0.2500000   0.0000000), wk =   0.0069444
        k(   14) = (   0.0000000   0.2500000   0.1666667), wk =   0.0138889
        k(   15) = (   0.0000000   0.2500000   0.3333333), wk =   0.0138889
        k(   16) = (   0.0000000   0.2500000  -0.5000000), wk =   0.0069444
        k(   17) = (   0.0000000   0.3333333   0.0000000), wk =   0.0069444
        k(   18) = (   0.0000000   0.3333333   0.1666667), wk =   0.0138889
        k(   19) = (   0.0000000   0.3333333   0.3333333), wk =   0.0138889
        k(   20) = (   0.0000000   0.3333333  -0.5000000), wk =   0.0069444
        k(   21) = (   0.0000000   0.4166667   0.0000000), wk =   0.0069444
        k(   22) = (   0.0000000   0.4166667   0.1666667), wk =   0.0138889
        k(   23) = (   0.0000000   0.4166667   0.3333333), wk =   0.0138889
        k(   24) = (   0.0000000   0.4166667  -0.5000000), wk =   0.0069444
        k(   25) = (   0.0000000  -0.5000000   0.0000000), wk =   0.0034722
        k(   26) = (   0.0000000  -0.5000000   0.1666667), wk =   0.0069444
        k(   27) = (   0.0000000  -0.5000000   0.3333333), wk =   0.0069444
        k(   28) = (   0.0000000  -0.5000000  -0.5000000), wk =   0.0034722
        k(   29) = (   0.0833333   0.0833333   0.0000000), wk =   0.0069444
        k(   30) = (   0.0833333   0.0833333   0.1666667), wk =   0.0138889
        k(   31) = (   0.0833333   0.0833333   0.3333333), wk =   0.0138889
        k(   32) = (   0.0833333   0.0833333  -0.5000000), wk =   0.0069444
        k(   33) = (   0.0833333   0.1666667   0.0000000), wk =   0.0138889
        k(   34) = (   0.0833333   0.1666667   0.1666667), wk =   0.0277778
        k(   35) = (   0.0833333   0.1666667   0.3333333), wk =   0.0277778
        k(   36) = (   0.0833333   0.1666667  -0.5000000), wk =   0.0138889
        k(   37) = (   0.0833333   0.2500000   0.0000000), wk =   0.0138889
        k(   38) = (   0.0833333   0.2500000   0.1666667), wk =   0.0277778
        k(   39) = (   0.0833333   0.2500000   0.3333333), wk =   0.0277778
        k(   40) = (   0.0833333   0.2500000  -0.5000000), wk =   0.0138889
        k(   41) = (   0.0833333   0.3333333   0.0000000), wk =   0.0138889
        k(   42) = (   0.0833333   0.3333333   0.1666667), wk =   0.0277778
        k(   43) = (   0.0833333   0.3333333   0.3333333), wk =   0.0277778
        k(   44) = (   0.0833333   0.3333333  -0.5000000), wk =   0.0138889
        k(   45) = (   0.0833333   0.4166667   0.0000000), wk =   0.0138889
        k(   46) = (   0.0833333   0.4166667   0.1666667), wk =   0.0277778
        k(   47) = (   0.0833333   0.4166667   0.3333333), wk =   0.0277778
        k(   48) = (   0.0833333   0.4166667  -0.5000000), wk =   0.0138889
        k(   49) = (   0.1666667   0.1666667   0.0000000), wk =   0.0069444
        k(   50) = (   0.1666667   0.1666667   0.1666667), wk =   0.0138889
        k(   51) = (   0.1666667   0.1666667   0.3333333), wk =   0.0138889
        k(   52) = (   0.1666667   0.1666667  -0.5000000), wk =   0.0069444
        k(   53) = (   0.1666667   0.2500000   0.0000000), wk =   0.0138889
        k(   54) = (   0.1666667   0.2500000   0.1666667), wk =   0.0277778
        k(   55) = (   0.1666667   0.2500000   0.3333333), wk =   0.0277778
        k(   56) = (   0.1666667   0.2500000  -0.5000000), wk =   0.0138889
        k(   57) = (   0.1666667   0.3333333   0.0000000), wk =   0.0138889
        k(   58) = (   0.1666667   0.3333333   0.1666667), wk =   0.0277778
        k(   59) = (   0.1666667   0.3333333   0.3333333), wk =   0.0277778
        k(   60) = (   0.1666667   0.3333333  -0.5000000), wk =   0.0138889
        k(   61) = (   0.1666667   0.4166667   0.0000000), wk =   0.0069444
        k(   62) = (   0.1666667   0.4166667   0.1666667), wk =   0.0138889
        k(   63) = (   0.1666667   0.4166667   0.3333333), wk =   0.0138889
        k(   64) = (   0.1666667   0.4166667  -0.5000000), wk =   0.0069444
        k(   65) = (   0.2500000   0.2500000   0.0000000), wk =   0.0069444
        k(   66) = (   0.2500000   0.2500000   0.1666667), wk =   0.0138889
        k(   67) = (   0.2500000   0.2500000   0.3333333), wk =   0.0138889
        k(   68) = (   0.2500000   0.2500000  -0.5000000), wk =   0.0069444
        k(   69) = (   0.2500000   0.3333333   0.0000000), wk =   0.0138889
        k(   70) = (   0.2500000   0.3333333   0.1666667), wk =   0.0277778
        k(   71) = (   0.2500000   0.3333333   0.3333333), wk =   0.0277778
        k(   72) = (   0.2500000   0.3333333  -0.5000000), wk =   0.0138889
        k(   73) = (   0.3333333   0.3333333   0.0000000), wk =   0.0023148
        k(   74) = (   0.3333333   0.3333333   0.1666667), wk =   0.0046296
        k(   75) = (   0.3333333   0.3333333   0.3333333), wk =   0.0046296
        k(   76) = (   0.3333333   0.3333333  -0.5000000), wk =   0.0023148

     Dense  grid:    23187 G-vectors     FFT dimensions: (  32,  32,  54)

     Smooth grid:    22491 G-vectors     FFT dimensions: (  32,  32,  54)

     Dynamical RAM for                 wfc:       0.06 MB

     Dynamical RAM for     wfc (w. buffer):       4.96 MB

     Dynamical RAM for           str. fact:       0.03 MB

     Dynamical RAM for           local pot:       0.00 MB

     Dynamical RAM for          nlocal pot:       0.11 MB

     Dynamical RAM for                qrad:       1.70 MB

     Dynamical RAM for          rho,v,vnew:       0.34 MB

     Dynamical RAM for               rhoin:       0.11 MB

     Dynamical RAM for            rho*nmix:       0.81 MB

     Dynamical RAM for           G-vectors:       0.11 MB

     Dynamical RAM for          h,s,v(r/c):       0.08 MB

     Dynamical RAM for          <psi|beta>:       0.01 MB

     Dynamical RAM for                 psi:       0.13 MB

     Dynamical RAM for                hpsi:       0.13 MB

     Dynamical RAM for                spsi:       0.13 MB

     Dynamical RAM for      wfcinit/wfcrot:       0.14 MB

     Dynamical RAM for           addusdens:       2.41 MB

     Estimated static dynamical RAM per process >       7.59 MB

     Estimated max dynamical RAM per process >      10.81 MB

     Estimated total dynamical RAM >     291.43 MB

     Check: negative core charge=   -0.000043
     Generating pointlists ...
     new r_m :   0.4074 (alat units)  1.9168 (a.u.) for type    1

     The initial density is read from file :
     ./out2/Co.save/charge-density


     starting charge      34.0427, renormalised to      34.0000

     negative rho (up, down):  9.171E-04 3.447E-04
     Starting wfcs from file
     Checking if some PAW data can be deallocated... 

     total cpu time spent up to now is        0.5 secs

     Self-consistent Calculation

     iteration #  1     ecut=   110.00 Ry     beta= 0.70
     Davidson diagonalization with overlap

---- Real-time Memory Report at c_bands before calling an iterative solver
            58 MiB given to the printing process from OS
             0 MiB allocation reported by mallinfo(arena+hblkhd)
        181343 MiB available memory on the node where the printing process lives
------------------
     ethr =  1.00E-05,  avg # of iterations =  8.9

     total cpu time spent up to now is        2.9 secs

     total energy              =    -753.43780322 Ry
     estimated scf accuracy    <       0.01148816 Ry

     total magnetization       =     3.28 Bohr mag/cell
     absolute magnetization    =     3.56 Bohr mag/cell

     iteration #  2     ecut=   110.00 Ry     beta= 0.70
     Davidson diagonalization with overlap

---- Real-time Memory Report at c_bands before calling an iterative solver
            79 MiB given to the printing process from OS
             0 MiB allocation reported by mallinfo(arena+hblkhd)
        181035 MiB available memory on the node where the printing process lives
------------------
     ethr =  3.38E-05,  avg # of iterations =  5.6

     total cpu time spent up to now is        4.3 secs

     total energy              =    -753.44322104 Ry
     estimated scf accuracy    <       0.05434247 Ry

     total magnetization       =     3.27 Bohr mag/cell
     absolute magnetization    =     3.60 Bohr mag/cell

     iteration #  3     ecut=   110.00 Ry     beta= 0.70
     Davidson diagonalization with overlap

---- Real-time Memory Report at c_bands before calling an iterative solver
            84 MiB given to the printing process from OS
             0 MiB allocation reported by mallinfo(arena+hblkhd)
        181015 MiB available memory on the node where the printing process lives
------------------
     ethr =  3.38E-05,  avg # of iterations =  4.1

     total cpu time spent up to now is        5.4 secs

     total energy              =    -753.45438424 Ry
     estimated scf accuracy    <       0.00193008 Ry

     total magnetization       =     3.29 Bohr mag/cell
     absolute magnetization    =     3.60 Bohr mag/cell

     iteration #  4     ecut=   110.00 Ry     beta= 0.70
     Davidson diagonalization with overlap

---- Real-time Memory Report at c_bands before calling an iterative solver
            85 MiB given to the printing process from OS
             0 MiB allocation reported by mallinfo(arena+hblkhd)
        181007 MiB available memory on the node where the printing process lives
------------------
     ethr =  5.68E-06,  avg # of iterations =  4.1

     total cpu time spent up to now is        6.6 secs

     total energy              =    -753.45497407 Ry
     estimated scf accuracy    <       0.00010323 Ry

     total magnetization       =     3.29 Bohr mag/cell
     absolute magnetization    =     3.61 Bohr mag/cell

     iteration #  5     ecut=   110.00 Ry     beta= 0.70
     Davidson diagonalization with overlap

---- Real-time Memory Report at c_bands before calling an iterative solver
            85 MiB given to the printing process from OS
             0 MiB allocation reported by mallinfo(arena+hblkhd)
        180999 MiB available memory on the node where the printing process lives
------------------
     ethr =  3.04E-07,  avg # of iterations =  4.6

     total cpu time spent up to now is        7.8 secs

     total energy              =    -753.45503859 Ry
     estimated scf accuracy    <       0.00003160 Ry

     total magnetization       =     3.30 Bohr mag/cell
     absolute magnetization    =     3.61 Bohr mag/cell

     iteration #  6     ecut=   110.00 Ry     beta= 0.70
     Davidson diagonalization with overlap

---- Real-time Memory Report at c_bands before calling an iterative solver
            86 MiB given to the printing process from OS
             0 MiB allocation reported by mallinfo(arena+hblkhd)
        180992 MiB available memory on the node where the printing process lives
------------------
     ethr =  9.29E-08,  avg # of iterations =  4.1

     total cpu time spent up to now is        9.0 secs

     total energy              =    -753.45505068 Ry
     estimated scf accuracy    <       0.00001726 Ry

     total magnetization       =     3.30 Bohr mag/cell
     absolute magnetization    =     3.62 Bohr mag/cell

     iteration #  7     ecut=   110.00 Ry     beta= 0.70
     Davidson diagonalization with overlap

---- Real-time Memory Report at c_bands before calling an iterative solver
            86 MiB given to the printing process from OS
             0 MiB allocation reported by mallinfo(arena+hblkhd)
        180987 MiB available memory on the node where the printing process lives
------------------
     ethr =  5.08E-08,  avg # of iterations =  2.2
 
     Magnetic moment per site  (integrated on atomic sphere of radius R)
     atom   1 (R=0.407)  charge= 15.5594  magn=  1.7246
     atom   2 (R=0.407)  charge= 15.5594  magn=  1.7246

     total cpu time spent up to now is        9.8 secs

     End of self-consistent calculation

 ------ SPIN UP ------------


          k = 0.0000 0.0000 0.0000 (  2803 PWs)   bands (ev):

   -77.1653 -77.1032 -40.5727 -40.2758 -40.2758 -40.2235 -40.2235 -40.2219
     9.8979  13.7213  16.3222  16.3222  16.3433  16.6535  16.6535  16.9705
    16.9705  18.1363  18.1363  18.8285  25.5126

     occupation numbers 
     1.0000   1.0000   1.0000   1.0000   1.0000   1.0000   1.0000   1.0000
     1.0000   1.0000   1.0000   1.0000   1.0000   1.0000   1.0000   1.0000
     1.0000   1.0000   1.0000   1.0000   0.0000

          k = 0.0000 0.0000 0.1040 (  2821 PWs)   bands (ev):

   -77.1612 -77.1074 -40.5495 -40.2723 -40.2723 -40.2458 -40.2270 -40.2270
    10.1817  13.6597  16.2482  16.2482  16.2677  16.5732  16.5732  17.1486
    17.1486  17.8453  18.1216  18.1216  27.0638

     occupation numbers 
     1.0000   1.0000   1.0000   1.0000   1.0000   1.0000   1.0000   1.0000
     1.0000   1.0000   1.0000   1.0000   1.0000   1.0000   1.0000   1.0000
     1.0000   1.0000   1.0000   1.0000   0.0000

          k = 0.0000 0.0000 0.2080 (  2797 PWs)   bands (ev):

   -77.1499 -77.1188 -40.4860 -40.3106 -40.2628 -40.2628 -40.2366 -40.2366
    10.9945  13.2407  16.0921  16.1865  16.1865  16.3971  16.3971  16.4768
    17.4928  17.4928  18.0332  18.0332  30.3372

     occupation numbers 
     1.0000   1.0000   1.0000   1.0000   1.0000   1.0000   1.0000   1.0000
     1.0000   1.0000   1.0000   1.0000   1.0000   1.0000   1.0000   1.0000
     1.0000   1.0000   1.0000   1.0000   0.0000

          k = 0.0000 0.0000-0.3120 (  2822 PWs)   bands (ev):

   -77.1343 -77.1343 -40.3986 -40.3986 -40.2497 -40.2497 -40.2497 -40.2497
    12.1740  12.1740  16.0048  16.0048  16.2415  16.2415  16.2415  16.2415
    17.8178  17.8178  17.8178  17.8178  34.2330

     occupation numbers 
     1.0000   1.0000   1.0000   1.0000   1.0000   1.0000   1.0000   1.0000
     1.0000   1.0000   1.0000   1.0000   1.0000   1.0000   1.0000   1.0000
     1.0000   1.0000   1.0000   1.0000   0.0000

          k = 0.0000 0.0962 0.0000 (  2815 PWs)   bands (ev):

   -77.1621 -77.1018 -40.5653 -40.2916 -40.2811 -40.2399 -40.2260 -40.2252
    10.1403  13.8650  16.0890  16.4370  16.5344  16.6100  16.7545  16.8197
    16.8976  17.3394  18.1684  19.9437  25.5515

     occupation numbers 
     1.0000   1.0000   1.0000   1.0000   1.0000   1.0000   1.0000   1.0000
     1.0000   1.0000   1.0000   1.0000   1.0000   1.0000   1.0000   1.0000
     1.0000   1.0000   1.0000   0.0000   0.0000

          k = 0.0000 0.0962 0.1040 (  2804 PWs)   bands (ev):

   -77.1580 -77.1059 -40.5434 -40.2875 -40.2774 -40.2590 -40.2326 -40.2297
    10.4197  13.8183  16.0830  16.3443  16.3457  16.4191  16.6676  16.9983
    17.1054  17.2175  18.1459  19.1402  27.1711

     occupation numbers 
     1.0000   1.0000   1.0000   1.0000   1.0000   1.0000   1.0000   1.0000
     1.0000   1.0000   1.0000   1.0000   1.0000   1.0000   1.0000   1.0000
     1.0000   1.0000   1.0000   0.0000   0.0000

          k = 0.0000 0.0962 0.2080 (  2808 PWs)   bands (ev):

   -77.1470 -77.1169 -40.4836 -40.3188 -40.2761 -40.2673 -40.2452 -40.2398
    11.2195  13.4288  15.9812  16.0566  16.1202  16.2760  16.4907  16.5928
    17.4678  17.5174  18.0400  18.3424  30.4883

     occupation numbers 
     1.0000   1.0000   1.0000   1.0000   1.0000   1.0000   1.0000   1.0000
     1.0000   1.0000   1.0000   1.0000   1.0000   1.0000   1.0000   1.0000
     1.0000   1.0000   1.0000   1.0000   0.0000

          k = 0.0000 0.0962-0.3120 (  2820 PWs)   bands (ev):

   -77.1320 -77.1320 -40.4014 -40.4014 -40.2608 -40.2608 -40.2536 -40.2536
    12.3801  12.3801  15.8367  15.8367  16.2740  16.2740  16.3331  16.3331
    17.8070  17.8070  17.9134  17.9134  34.3977

     occupation numbers 
     1.0000   1.0000   1.0000   1.0000   1.0000   1.0000   1.0000   1.0000
     1.0000   1.0000   1.0000   1.0000   1.0000   1.0000   1.0000   1.0000
     1.0000   1.0000   1.0000   1.0000   0.0000

          k = 0.0000 0.1925 0.0000 (  2807 PWs)   bands (ev):

   -77.1529 -77.0982 -40.5439 -40.3347 -40.2951 -40.2842 -40.2351 -40.2332
    10.8413  14.2201  15.8005  16.1109  16.4401  16.7177  16.7614  16.8463
    16.9521  17.0376  18.2373  21.5517  25.6880

     occupation numbers 
     1.0000   1.0000   1.0000   1.0000   1.0000   1.0000   1.0000   1.0000
     1.0000   1.0000   1.0000   1.0000   1.0000   1.0000   1.0000   1.0000
     1.0000   1.0000   1.0000   0.0000   0.0000

          k = 0.0000 0.1925 0.1040 (  2806 PWs)   bands (ev):

   -77.1493 -77.1019 -40.5266 -40.3287 -40.3007 -40.2910 -40.2424 -40.2374
    11.1041  14.2189  15.8223  15.8482  16.3197  16.5462  16.7202  16.9127
    17.0939  17.2094  18.1973  20.3949  27.5192

     occupation numbers 
     1.0000   1.0000   1.0000   1.0000   1.0000   1.0000   1.0000   1.0000
     1.0000   1.0000   1.0000   1.0000   1.0000   1.0000   1.0000   1.0000
     1.0000   1.0000   1.0000   0.0000   0.0000

          k = 0.0000 0.1925 0.2080 (  2812 PWs)   bands (ev):

   -77.1393 -77.1119 -40.4791 -40.3494 -40.3096 -40.2797 -40.2612 -40.2487
    11.8531  13.9164  15.4705  15.8925  16.0343  16.4937  16.5309  16.7510
    17.4428  17.6174  18.0545  19.0065  30.9388

     occupation numbers 
     1.0000   1.0000   1.0000   1.0000   1.0000   1.0000   1.0000   1.0000
     1.0000   1.0000   1.0000   1.0000   1.0000   1.0000   1.0000   1.0000
     1.0000   1.0000   1.0000   0.0000   0.0000

          k = 0.0000 0.1925-0.3120 (  2802 PWs)   bands (ev):

   -77.1256 -77.1256 -40.4141 -40.4141 -40.2858 -40.2858 -40.2642 -40.2642
    12.9341  12.9341  15.5890  15.5890  16.2258  16.2258  16.5774  16.5774
    17.7915  17.7915  18.1701  18.1701  34.8350

     occupation numbers 
     1.0000   1.0000   1.0000   1.0000   1.0000   1.0000   1.0000   1.0000
     1.0000   1.0000   1.0000   1.0000   1.0000   1.0000   1.0000   1.0000
     1.0000   1.0000   1.0000   1.0000   0.0000

          k = 0.0000 0.2887 0.0000 (  2806 PWs)   bands (ev):

   -77.1399 -77.0937 -40.5119 -40.3942 -40.3438 -40.3138 -40.2515 -40.2436
    11.9023  14.5072  15.3764  15.6176  16.3526  16.5016  16.7553  17.2319
    17.2757  17.4449  18.3036  23.3612  25.9463

     occupation numbers 
     1.0000   1.0000   1.0000   1.0000   1.0000   1.0000   1.0000   1.0000
     1.0000   1.0000   1.0000   1.0000   1.0000   1.0000   1.0000   1.0000
     1.0000   1.0000   1.0000   0.0000   0.0000

          k = 0.0000 0.2887 0.1040 (  2804 PWs)   bands (ev):

   -77.1368 -77.0968 -40.5050 -40.3827 -40.3581 -40.3091 -40.2560 -40.2483
    12.1211  14.5604  15.2263  15.6703  16.1932  16.5397  16.7627  17.2811
    17.3955  17.3957  18.2467  21.6950  28.1359

     occupation numbers 
     1.0000   1.0000   1.0000   1.0000   1.0000   1.0000   1.0000   1.0000
     1.0000   1.0000   1.0000   1.0000   1.0000   1.0000   1.0000   1.0000
     1.0000   1.0000   1.0000   0.0000   0.0000

          k = 0.0000 0.2887 0.2080 (  2816 PWs)   bands (ev):

   -77.1284 -77.1053 -40.4827 -40.4017 -40.3443 -40.2963 -40.2735 -40.2612
    12.7299  14.3500  15.1241  15.7200  16.0423  16.5960  16.6635  17.1205
    17.5610  17.7881  18.0801  19.7970  31.5038

     occupation numbers 
     1.0000   1.0000   1.0000   1.0000   1.0000   1.0000   1.0000   1.0000
     1.0000   1.0000   1.0000   1.0000   1.0000   1.0000   1.0000   1.0000
     1.0000   1.0000   1.0000   0.0000   0.0000

          k = 0.0000 0.2887-0.3120 (  2814 PWs)   bands (ev):

   -77.1168 -77.1168 -40.4457 -40.4457 -40.3056 -40.3056 -40.2788 -40.2788
    13.5712  13.5712  15.4335  15.4335  16.2813  16.2813  16.8720  16.8720
    17.8311  17.8311  18.5265  18.5265  33.4076

     occupation numbers 
     1.0000   1.0000   1.0000   1.0000   1.0000   1.0000   1.0000   1.0000
     1.0000   1.0000   1.0000   1.0000   1.0000   1.0000   1.0000   1.0000
     1.0000   1.0000   1.0000   1.0000   0.0000

          k = 0.0000 0.3849 0.0000 (  2830 PWs)   bands (ev):

   -77.1259 -77.0902 -40.4744 -40.4543 -40.4022 -40.3319 -40.2735 -40.2544
    13.0642  14.4444  14.8398  15.7146  16.3072  16.4765  16.5839  17.7331
    17.8875  17.9568  18.3499  25.3287  25.9202

     occupation numbers 
     1.0000   1.0000   1.0000   1.0000   1.0000   1.0000   1.0000   1.0000
     1.0000   1.0000   1.0000   1.0000   1.0000   1.0000   1.0000   1.0000
     1.0000   1.0000   1.0000   0.0000   0.0000

          k = 0.0000 0.3849 0.1040 (  2813 PWs)   bands (ev):

   -77.1235 -77.0926 -40.4975 -40.4275 -40.4058 -40.3267 -40.2736 -40.2596
    13.1673  14.4877  14.8686  15.5887  16.3765  16.4026  16.9271  17.7587
    17.7901  17.8925  18.2892  22.9394  27.9791

     occupation numbers 
     1.0000   1.0000   1.0000   1.0000   1.0000   1.0000   1.0000   1.0000
     1.0000   1.0000   1.0000   1.0000   1.0000   1.0000   1.0000   1.0000
     1.0000   1.0000   1.0000   0.0000   0.0000

          k = 0.0000 0.3849 0.2080 (  2815 PWs)   bands (ev):

   -77.1170 -77.0991 -40.5056 -40.4575 -40.3579 -40.3126 -40.2834 -40.2738
    13.4557  14.3193  15.0031  15.5339  16.4538  16.6717  17.2118  17.4724
    17.8682  18.0199  18.1558  20.6889  29.0454

     occupation numbers 
     1.0000   1.0000   1.0000   1.0000   1.0000   1.0000   1.0000   1.0000
     1.0000   1.0000   1.0000   1.0000   1.0000   1.0000   1.0000   1.0000
     1.0000   1.0000   1.0000   0.0000   0.0000

          k = 0.0000 0.3849-0.3120 (  2810 PWs)   bands (ev):

   -77.1080 -77.1080 -40.4900 -40.4900 -40.3122 -40.3122 -40.2932 -40.2932
    13.8759  13.8759  15.3145  15.3145  16.8729  16.8729  17.0605  17.0605
    18.0057  18.0057  19.0110  19.0110  30.1896

     occupation numbers 
     1.0000   1.0000   1.0000   1.0000   1.0000   1.0000   1.0000   1.0000
     1.0000   1.0000   1.0000   1.0000   1.0000   1.0000   1.0000   1.0000
     1.0000   1.0000   0.0000   0.0000   0.0000

          k = 0.0000 0.4811 0.0000 (  2818 PWs)   bands (ev):

   -77.1143 -77.0889 -40.4986 -40.4443 -40.4395 -40.3450 -40.2969 -40.2625
    13.8394  14.2573  14.5177  16.0680  16.1746  16.4634  16.6785  18.1071
    18.2552  18.3751  19.0606  23.9604  27.3540

     occupation numbers 
     1.0000   1.0000   1.0000   1.0000   1.0000   1.0000   1.0000   1.0000
     1.0000   1.0000   1.0000   1.0000   1.0000   1.0000   1.0000   1.0000
     1.0000   1.0000   0.0000   0.0000   0.0000

          k = 0.0000 0.4811 0.1040 (  2816 PWs)   bands (ev):

   -77.1126 -77.0906 -40.5189 -40.4635 -40.4045 -40.3395 -40.2924 -40.2680
    13.7321  14.2611  14.8364  15.4896  16.2919  16.6653  17.2719  18.0667
    18.1534  18.3473  18.8964  23.2031  26.6024

     occupation numbers 
     1.0000   1.0000   1.0000   1.0000   1.0000   1.0000   1.0000   1.0000
     1.0000   1.0000   1.0000   1.0000   1.0000   1.0000   1.0000   1.0000
     1.0000   1.0000   0.8905   0.0000   0.0000

          k = 0.0000 0.4811 0.2080 (  2817 PWs)   bands (ev):

   -77.1080 -77.0953 -40.5346 -40.4985 -40.3532 -40.3244 -40.2927 -40.2832
    13.7041  14.1956  14.9928  15.3445  16.6251  16.8916  17.6531  18.1796
    18.2567  18.2989  18.5558  21.4883  26.7070

     occupation numbers 
     1.0000   1.0000   1.0000   1.0000   1.0000   1.0000   1.0000   1.0000
     1.0000   1.0000   1.0000   1.0000   1.0000   1.0000   1.0000   1.0000
     1.0000   1.0000   1.0000   0.0000   0.0000

          k = 0.0000 0.4811-0.3120 (  2810 PWs)   bands (ev):

   -77.1016 -77.1016 -40.5268 -40.5268 -40.3126 -40.3126 -40.3038 -40.3038
    13.8958  13.8958  15.1956  15.1956  17.1149  17.1149  17.6098  17.6098
    18.2385  18.2385  19.8160  19.8160  27.4942

     occupation numbers 
     1.0000   1.0000   1.0000   1.0000   1.0000   1.0000   1.0000   1.0000
     1.0000   1.0000   1.0000   1.0000   1.0000   1.0000   1.0000   1.0000
     1.0000   1.0000   0.0000   0.0000   0.0000

          k = 0.0000-0.5774 0.0000 (  2806 PWs)   bands (ev):

   -77.1094 -77.0891 -40.5148 -40.4596 -40.4232 -40.3497 -40.3091 -40.2655
    14.1061  14.1153  14.4106  16.1277  16.3125  16.4201  16.7574  18.2422
    18.3829  18.4043  20.2053  22.2294  28.6630

     occupation numbers 
     1.0000   1.0000   1.0000   1.0000   1.0000   1.0000   1.0000   1.0000
     1.0000   1.0000   1.0000   1.0000   1.0000   1.0000   1.0000   1.0000
     1.0000   1.0000   0.0000   0.0000   0.0000

          k = 0.0000-0.5774 0.1040 (  2826 PWs)   bands (ev):

   -77.1081 -77.0904 -40.5313 -40.4779 -40.3953 -40.3441 -40.3020 -40.2712
    13.8376  14.1614  14.8743  15.4633  16.2513  16.7571  17.4690  18.1428
    18.3078  18.3960  19.9921  22.0532  27.7626

     occupation numbers 
     1.0000   1.0000   1.0000   1.0000   1.0000   1.0000   1.0000   1.0000
     1.0000   1.0000   1.0000   1.0000   1.0000   1.0000   1.0000   1.0000
     1.0000   1.0000   0.0000   0.0000   0.0000

          k = 0.0000-0.5774 0.2080 (  2838 PWs)   bands (ev):

   -77.1043 -77.0942 -40.5470 -40.5135 -40.3485 -40.3287 -40.2973 -40.2866
    13.7250  14.1476  15.0160  15.2592  16.6029  17.0406  17.6942  18.3126
    18.3733  18.3737  19.6478  21.4549  26.6537

     occupation numbers 
     1.0000   1.0000   1.0000   1.0000   1.0000   1.0000   1.0000   1.0000
     1.0000   1.0000   1.0000   1.0000   1.0000   1.0000   1.0000   1.0000
     1.0000   1.0000   0.0000   0.0000   0.0000

          k = 0.0000-0.5774-0.3120 (  2816 PWs)   bands (ev):

   -77.0993 -77.0993 -40.5408 -40.5408 -40.3122 -40.3122 -40.3077 -40.3077
    13.8776  13.8776  15.1482  15.1482  17.1214  17.1214  17.8629  17.8629
    18.3422  18.3422  20.4430  20.4430  26.2541

     occupation numbers 
     1.0000   1.0000   1.0000   1.0000   1.0000   1.0000   1.0000   1.0000
     1.0000   1.0000   1.0000   1.0000   1.0000   1.0000   1.0000   1.0000
     1.0000   1.0000   0.0000   0.0000   0.0000

          k = 0.0833 0.1443 0.0000 (  2818 PWs)   bands (ev):

   -77.1558 -77.0993 -40.5509 -40.3183 -40.2969 -40.2648 -40.2330 -40.2318
    10.6129  14.1200  15.8626  16.3589  16.5032  16.6716  16.6949  16.6987
    16.9787  17.0683  18.2095  21.1011  25.6413

     occupation numbers 
     1.0000   1.0000   1.0000   1.0000   1.0000   1.0000   1.0000   1.0000
     1.0000   1.0000   1.0000   1.0000   1.0000   1.0000   1.0000   1.0000
     1.0000   1.0000   1.0000   0.0000   0.0000

          k = 0.0833 0.1443 0.1040 (  2809 PWs)   bands (ev):

   -77.1521 -77.1031 -40.5319 -40.3128 -40.2971 -40.2788 -40.2385 -40.2370
    10.8819  14.1042  15.8863  16.0188  16.3622  16.5143  16.6908  16.8297
    17.1313  17.1789  18.1779  20.0547  27.4009

     occupation numbers 
     1.0000   1.0000   1.0000   1.0000   1.0000   1.0000   1.0000   1.0000
     1.0000   1.0000   1.0000   1.0000   1.0000   1.0000   1.0000   1.0000
     1.0000   1.0000   1.0000   0.0000   0.0000

          k = 0.0833 0.1443 0.2080 (  2808 PWs)   bands (ev):

   -77.1417 -77.1135 -40.4800 -40.3384 -40.2980 -40.2787 -40.2543 -40.2477
    11.6506  13.7731  15.5983  15.9410  16.0471  16.4345  16.5413  16.6691
    17.4733  17.5578  18.0543  18.8141  30.7922

     occupation numbers 
     1.0000   1.0000   1.0000   1.0000   1.0000   1.0000   1.0000   1.0000
     1.0000   1.0000   1.0000   1.0000   1.0000   1.0000   1.0000   1.0000
     1.0000   1.0000   1.0000   1.0000   0.0000

          k = 0.0833 0.1443-0.3120 (  2808 PWs)   bands (ev):

   -77.1276 -77.1276 -40.4090 -40.4090 -40.2787 -40.2787 -40.2612 -40.2612
    12.7638  12.7638  15.6504  15.6504  16.2250  16.2250  16.5137  16.5137
    17.7973  17.7973  18.0898  18.0898  34.7129

     occupation numbers 
     1.0000   1.0000   1.0000   1.0000   1.0000   1.0000   1.0000   1.0000
     1.0000   1.0000   1.0000   1.0000   1.0000   1.0000   1.0000   1.0000
     1.0000   1.0000   1.0000   1.0000   0.0000

          k = 0.0833 0.2406 0.0000 (  2808 PWs)   bands (ev):

   -77.1447 -77.0953 -40.5241 -40.3657 -40.3350 -40.2957 -40.2450 -40.2449
    11.5021  14.4838  15.5787  15.6471  16.3877  16.4694  16.9117  16.9547
    17.0994  17.3972  18.2610  22.7087  25.8615

     occupation numbers 
     1.0000   1.0000   1.0000   1.0000   1.0000   1.0000   1.0000   1.0000
     1.0000   1.0000   1.0000   1.0000   1.0000   1.0000   1.0000   1.0000
     1.0000   1.0000   1.0000   0.0000   0.0000

          k = 0.0833 0.2406 0.1040 (  2806 PWs)   bands (ev):

   -77.1414 -77.0986 -40.5122 -40.3574 -40.3424 -40.3003 -40.2512 -40.2473
    11.7430  14.5276  15.4294  15.6287  16.2565  16.5178  16.7122  17.0528
    17.3071  17.3853  18.2222  21.2478  27.9073

     occupation numbers 
     1.0000   1.0000   1.0000   1.0000   1.0000   1.0000   1.0000   1.0000
     1.0000   1.0000   1.0000   1.0000   1.0000   1.0000   1.0000   1.0000
     1.0000   1.0000   1.0000   0.0000   0.0000

          k = 0.0833 0.2406 0.2080 (  2815 PWs)   bands (ev):

   -77.1324 -77.1076 -40.4787 -40.3806 -40.3302 -40.2968 -40.2658 -40.2594
    12.4229  14.2921  15.2085  15.7349  15.9921  16.4239  16.6434  16.9891
    17.5637  17.6943  18.0960  19.5228  31.3796

     occupation numbers 
     1.0000   1.0000   1.0000   1.0000   1.0000   1.0000   1.0000   1.0000
     1.0000   1.0000   1.0000   1.0000   1.0000   1.0000   1.0000   1.0000
     1.0000   1.0000   1.0000   0.0000   0.0000

          k = 0.0833 0.2406-0.3120 (  2804 PWs)   bands (ev):

   -77.1200 -77.1200 -40.4308 -40.4308 -40.3013 -40.3013 -40.2739 -40.2739
    13.3889  13.3889  15.4851  15.4851  16.1227  16.1227  16.7947  16.7947
    17.8405  17.8405  18.3988  18.3988  34.9190

     occupation numbers 
     1.0000   1.0000   1.0000   1.0000   1.0000   1.0000   1.0000   1.0000
     1.0000   1.0000   1.0000   1.0000   1.0000   1.0000   1.0000   1.0000
     1.0000   1.0000   1.0000   1.0000   0.0000

          k = 0.0833 0.3368 0.0000 (  2812 PWs)   bands (ev):

   -77.1312 -77.0913 -40.4891 -40.4241 -40.3836 -40.3235 -40.2645 -40.2578
    12.6495  14.6077  15.0595  15.4923  16.2792  16.4045  16.7196  17.3548
    17.6073  17.9650  18.3049  24.5585  26.1743

     occupation numbers 
     1.0000   1.0000   1.0000   1.0000   1.0000   1.0000   1.0000   1.0000
     1.0000   1.0000   1.0000   1.0000   1.0000   1.0000   1.0000   1.0000
     1.0000   1.0000   1.0000   0.0000   0.0000

          k = 0.0833 0.3368 0.1040 (  2814 PWs)   bands (ev):

   -77.1285 -77.0940 -40.4943 -40.4094 -40.3884 -40.3230 -40.2682 -40.2594
    12.8182  14.6843  14.9596  15.5460  16.1691  16.5127  16.7032  17.3709
    17.7047  17.8344  18.3033  22.5250  28.5833

     occupation numbers 
     1.0000   1.0000   1.0000   1.0000   1.0000   1.0000   1.0000   1.0000
     1.0000   1.0000   1.0000   1.0000   1.0000   1.0000   1.0000   1.0000
     1.0000   1.0000   1.0000   0.0000   0.0000

          k = 0.0833 0.3368 0.2080 (  2818 PWs)   bands (ev):

   -77.1212 -77.1013 -40.4909 -40.4338 -40.3537 -40.3145 -40.2817 -40.2686
    13.2744  14.4656  15.0520  15.6430  16.0680  16.5508  16.7315  17.3286
    17.7970  17.9628  18.2586  20.3893  30.6868

     occupation numbers 
     1.0000   1.0000   1.0000   1.0000   1.0000   1.0000   1.0000   1.0000
     1.0000   1.0000   1.0000   1.0000   1.0000   1.0000   1.0000   1.0000
     1.0000   1.0000   1.0000   0.0000   0.0000

          k = 0.0833 0.3368-0.3120 (  2812 PWs)   bands (ev):

   -77.1113 -77.1113 -40.4685 -40.4685 -40.3166 -40.3166 -40.2864 -40.2864
    13.8826  13.8826  15.4124  15.4124  16.2865  16.2865  17.0001  17.0001
    18.0317  18.0317  18.8634  18.8634  31.8970

     occupation numbers 
     1.0000   1.0000   1.0000   1.0000   1.0000   1.0000   1.0000   1.0000
     1.0000   1.0000   1.0000   1.0000   1.0000   1.0000   1.0000   1.0000
     1.0000   1.0000   1.0000   1.0000   0.0000

          k = 0.0833 0.4330 0.0000 (  2820 PWs)   bands (ev):

   -77.1182 -77.0891 -40.4760 -40.4518 -40.4267 -40.3450 -40.2883 -40.2689
    13.6668  14.4367  14.6598  15.7128  16.1538  16.5320  16.5971  17.8548
    18.0428  18.3328  18.7648  25.3261  26.5631

     occupation numbers 
     1.0000   1.0000   1.0000   1.0000   1.0000   1.0000   1.0000   1.0000
     1.0000   1.0000   1.0000   1.0000   1.0000   1.0000   1.0000   1.0000
     1.0000   1.0000   1.0000   0.0000   0.0000

          k = 0.0833 0.4330 0.1040 (  2823 PWs)   bands (ev):

   -77.1162 -77.0911 -40.5025 -40.4478 -40.4068 -40.3410 -40.2874 -40.2711
    13.6631  14.4712  14.8085  15.4934  16.2354  16.5880  16.8794  17.8006
    18.1080  18.1374  18.7700  23.5749  27.0789

     occupation numbers 
     1.0000   1.0000   1.0000   1.0000   1.0000   1.0000   1.0000   1.0000
     1.0000   1.0000   1.0000   1.0000   1.0000   1.0000   1.0000   1.0000
     1.0000   1.0000   1.0000   0.0000   0.0000

          k = 0.0833 0.4330 0.2080 (  2816 PWs)   bands (ev):

   -77.1109 -77.0964 -40.5174 -40.4798 -40.3597 -40.3259 -40.2973 -40.2765
    13.7532  14.3495  14.9933  15.4945  16.3455  16.7797  17.2495  17.5350
    17.9858  18.2852  18.8355  21.3962  27.7871

     occupation numbers 
     1.0000   1.0000   1.0000   1.0000   1.0000   1.0000   1.0000   1.0000
     1.0000   1.0000   1.0000   1.0000   1.0000   1.0000   1.0000   1.0000
     1.0000   1.0000   1.0000   0.0000   0.0000

          k = 0.0833 0.4330-0.3120 (  2810 PWs)   bands (ev):

   -77.1036 -77.1036 -40.5081 -40.5081 -40.3265 -40.3265 -40.2936 -40.2936
    14.0075  14.0075  15.3025  15.3025  16.7954  16.7954  17.1900  17.1900
    18.2357  18.2357  19.6934  19.6934  28.8497

     occupation numbers 
     1.0000   1.0000   1.0000   1.0000   1.0000   1.0000   1.0000   1.0000
     1.0000   1.0000   1.0000   1.0000   1.0000   1.0000   1.0000   1.0000
     1.0000   1.0000   0.0000   0.0000   0.0000

          k = 0.0833 0.5292 0.0000 (  2813 PWs)   bands (ev):

   -77.1095 -77.0891 -40.5061 -40.4517 -40.4234 -40.3568 -40.3089 -40.2753
    14.1297  14.2736  14.4593  16.0721  16.1006  16.4100  16.7536  18.2111
    18.2827  18.3454  20.0331  22.9893  28.4709

     occupation numbers 
     1.0000   1.0000   1.0000   1.0000   1.0000   1.0000   1.0000   1.0000
     1.0000   1.0000   1.0000   1.0000   1.0000   1.0000   1.0000   1.0000
     1.0000   1.0000   0.0000   0.0000   0.0000

          k = 0.0833 0.5292 0.1040 (  2822 PWs)   bands (ev):

   -77.1081 -77.0904 -40.5226 -40.4705 -40.3976 -40.3490 -40.3042 -40.2781
    13.9167  14.2932  14.9000  15.4413  16.1582  16.7923  17.1280  18.0944
    18.2538  18.3191  19.9636  22.7341  27.1653

     occupation numbers 
     1.0000   1.0000   1.0000   1.0000   1.0000   1.0000   1.0000   1.0000
     1.0000   1.0000   1.0000   1.0000   1.0000   1.0000   1.0000   1.0000
     1.0000   1.0000   0.0000   0.0000   0.0000

          k = 0.0833 0.5292 0.2080 (  2824 PWs)   bands (ev):

   -77.1044 -77.0942 -40.5384 -40.5057 -40.3606 -40.3254 -40.3097 -40.2820
    13.8287  14.2752  15.0226  15.3636  16.3370  17.0960  17.5355  17.7702
    18.2060  18.4061  20.0015  21.8847  26.3960

     occupation numbers 
     1.0000   1.0000   1.0000   1.0000   1.0000   1.0000   1.0000   1.0000
     1.0000   1.0000   1.0000   1.0000   1.0000   1.0000   1.0000   1.0000
     1.0000   1.0000   0.0000   0.0000   0.0000

          k = 0.0833 0.5292-0.3120 (  2822 PWs)   bands (ev):

   -77.0993 -77.0993 -40.5326 -40.5326 -40.3325 -40.3325 -40.2958 -40.2958
    13.9915  13.9915  15.2191  15.2191  16.9057  16.9057  17.6243  17.6243
    18.2772  18.2772  20.7515  20.7516  26.6642

     occupation numbers 
     1.0000   1.0000   1.0000   1.0000   1.0000   1.0000   1.0000   1.0000
     1.0000   1.0000   1.0000   1.0000   1.0000   1.0000   1.0000   1.0000
     1.0000   1.0000   0.0000   0.0000   0.0000

          k = 0.1667 0.2887 0.0000 (  2812 PWs)   bands (ev):

   -77.1331 -77.0918 -40.4942 -40.3997 -40.3900 -40.3137 -40.2661 -40.2615
    12.5031  14.7774  15.1745  15.2784  16.2122  16.3991  16.8088  17.1254
    17.5952  17.9839  18.2672  24.2979  26.2308

     occupation numbers 
     1.0000   1.0000   1.0000   1.0000   1.0000   1.0000   1.0000   1.0000
     1.0000   1.0000   1.0000   1.0000   1.0000   1.0000   1.0000   1.0000
     1.0000   1.0000   1.0000   0.0000   0.0000

          k = 0.1667 0.2887 0.1040 (  2802 PWs)   bands (ev):

   -77.1303 -77.0945 -40.4940 -40.3971 -40.3824 -40.3214 -40.2705 -40.2598
    12.6941  14.8780  15.0338  15.3330  16.1909  16.4094  16.6759  17.1956
    17.7212  17.8259  18.3148  22.3862  28.6141

     occupation numbers 
     1.0000   1.0000   1.0000   1.0000   1.0000   1.0000   1.0000   1.0000
     1.0000   1.0000   1.0000   1.0000   1.0000   1.0000   1.0000   1.0000
     1.0000   1.0000   1.0000   0.0000   0.0000

          k = 0.1667 0.2887 0.2080 (  2813 PWs)   bands (ev):

   -77.1227 -77.1021 -40.4843 -40.4235 -40.3459 -40.3236 -40.2814 -40.2670
    13.2167  14.5900  15.1521  15.4926  16.0209  16.2677  16.6638  17.2661
    17.8185  17.9331  18.3362  20.3114  31.9979

     occupation numbers 
     1.0000   1.0000   1.0000   1.0000   1.0000   1.0000   1.0000   1.0000
     1.0000   1.0000   1.0000   1.0000   1.0000   1.0000   1.0000   1.0000
     1.0000   1.0000   1.0000   0.0000   0.0000

          k = 0.1667 0.2887-0.3120 (  2818 PWs)   bands (ev):

   -77.1124 -77.1124 -40.4585 -40.4585 -40.3203 -40.3203 -40.2841 -40.2841
    13.9204  13.9204  15.4890  15.4890  15.9683  15.9683  16.9498  16.9498
    18.0836  18.0836  18.8416  18.8416  33.6056

     occupation numbers 
     1.0000   1.0000   1.0000   1.0000   1.0000   1.0000   1.0000   1.0000
     1.0000   1.0000   1.0000   1.0000   1.0000   1.0000   1.0000   1.0000
     1.0000   1.0000   1.0000   1.0000   0.0000

          k = 0.1667 0.3849 0.0000 (  2823 PWs)   bands (ev):

   -77.1203 -77.0893 -40.4584 -40.4461 -40.4227 -40.3420 -40.2863 -40.2838
    13.6020  14.7701  14.8006  15.2381  16.0567  16.5461  16.6187  17.4330
    18.0457  18.2689  18.7847  26.1657  26.5250

     occupation numbers 
     1.0000   1.0000   1.0000   1.0000   1.0000   1.0000   1.0000   1.0000
     1.0000   1.0000   1.0000   1.0000   1.0000   1.0000   1.0000   1.0000
     1.0000   1.0000   1.0000   0.0000   0.0000

          k = 0.1667 0.3849 0.1040 (  2818 PWs)   bands (ev):

   -77.1183 -77.0914 -40.4854 -40.4414 -40.3963 -40.3485 -40.2928 -40.2749
    13.6845  14.7281  14.8800  15.3258  16.1183  16.5131  16.5734  17.4596
    18.0364  18.1395  18.8836  23.6751  28.5136

     occupation numbers 
     1.0000   1.0000   1.0000   1.0000   1.0000   1.0000   1.0000   1.0000
     1.0000   1.0000   1.0000   1.0000   1.0000   1.0000   1.0000   1.0000
     1.0000   1.0000   0.9948   0.0000   0.0000

          k = 0.1667 0.3849 0.2080 (  2813 PWs)   bands (ev):

   -77.1126 -77.0971 -40.4988 -40.4643 -40.3593 -40.3428 -40.3013 -40.2728
    13.9079  14.5269  15.1375  15.5763  16.0396  16.3358  16.7012  17.4080
    17.9282  18.3000  19.0724  21.4215  29.4724

     occupation numbers 
     1.0000   1.0000   1.0000   1.0000   1.0000   1.0000   1.0000   1.0000
     1.0000   1.0000   1.0000   1.0000   1.0000   1.0000   1.0000   1.0000
     1.0000   1.0000   0.0000   0.0000   0.0000

          k = 0.1667 0.3849-0.3120 (  2816 PWs)   bands (ev):

   -77.1048 -77.1048 -40.4895 -40.4895 -40.3417 -40.3417 -40.2884 -40.2884
    14.2165  14.2165  15.4963  15.4963  16.1107  16.1107  16.9786  16.9786
    18.2952  18.2952  19.7872  19.7872  30.6489

     occupation numbers 
     1.0000   1.0000   1.0000   1.0000   1.0000   1.0000   1.0000   1.0000
     1.0000   1.0000   1.0000   1.0000   1.0000   1.0000   1.0000   1.0000
     1.0000   1.0000   0.0000   0.0000   0.0000

          k = 0.1667 0.4811 0.0000 (  2827 PWs)   bands (ev):

   -77.1095 -77.0890 -40.4834 -40.4379 -40.4238 -40.3693 -40.3085 -40.3000
    14.3044  14.5683  14.5712  15.5409  16.0120  16.4147  16.7497  17.8384
    18.2687  18.2741  19.9543  24.6425  28.1850

     occupation numbers 
     1.0000   1.0000   1.0000   1.0000   1.0000   1.0000   1.0000   1.0000
     1.0000   1.0000   1.0000   1.0000   1.0000   1.0000   1.0000   1.0000
     1.0000   1.0000   0.0000   0.0000   0.0000

          k = 0.1667 0.4811 0.1040 (  2826 PWs)   bands (ev):

   -77.1081 -77.0904 -40.4998 -40.4592 -40.3989 -40.3620 -40.3131 -40.2896
    14.1531  14.6414  14.8295  15.3733  16.0654  16.5404  16.8089  17.8200
    18.0600  18.3407  20.0415  24.1169  26.9301

     occupation numbers 
     1.0000   1.0000   1.0000   1.0000   1.0000   1.0000   1.0000   1.0000
     1.0000   1.0000   1.0000   1.0000   1.0000   1.0000   1.0000   1.0000
     1.0000   1.0000   0.0000   0.0000   0.0000

          k = 0.1667 0.4811 0.2080 (  2812 PWs)   bands (ev):

   -77.1044 -77.0941 -40.5169 -40.4897 -40.3801 -40.3424 -40.3136 -40.2796
    14.1174  14.5687  15.0335  15.6017  15.9528  16.6559  17.0160  17.5036
    18.0115  18.4235  20.3603  22.6049  26.9730

     occupation numbers 
     1.0000   1.0000   1.0000   1.0000   1.0000   1.0000   1.0000   1.0000
     1.0000   1.0000   1.0000   1.0000   1.0000   1.0000   1.0000   1.0000
     1.0000   1.0000   0.0000   0.0000   0.0000

          k = 0.1667 0.4811-0.3120 (  2814 PWs)   bands (ev):

   -77.0993 -77.0993 -40.5133 -40.5133 -40.3590 -40.3590 -40.2888 -40.2888
    14.2801  14.2801  15.3974  15.3974  16.3718  16.3718  17.1709  17.1709
    18.3007  18.3007  21.1810  21.1810  27.8613

     occupation numbers 
     1.0000   1.0000   1.0000   1.0000   1.0000   1.0000   1.0000   1.0000
     1.0000   1.0000   1.0000   1.0000   1.0000   1.0000   1.0000   1.0000
     1.0000   1.0000   0.0000   0.0000   0.0000

          k = 0.1667 0.5774 0.0000 (  2824 PWs)   bands (ev):

   -77.1047 -77.0898 -40.4969 -40.4420 -40.4062 -40.3809 -40.3225 -40.3048
    14.4732  14.4816  14.4901  15.7596  16.0254  16.3110  16.8368  18.1127
    18.2569  18.2683  21.2061  22.7978  29.1899

     occupation numbers 
     1.0000   1.0000   1.0000   1.0000   1.0000   1.0000   1.0000   1.0000
     1.0000   1.0000   1.0000   1.0000   1.0000   1.0000   1.0000   1.0000
     1.0000   1.0000   0.0000   0.0000   0.0000

          k = 0.1667 0.5774 0.1040 (  2826 PWs)   bands (ev):

   -77.1037 -77.0908 -40.5098 -40.4620 -40.4040 -40.3557 -40.3257 -40.2959
    14.1800  14.5535  14.9970  15.3567  15.9872  16.6585  16.8996  18.0293
    18.1086  18.3164  21.3094  22.7486  28.2400

     occupation numbers 
     1.0000   1.0000   1.0000   1.0000   1.0000   1.0000   1.0000   1.0000
     1.0000   1.0000   1.0000   1.0000   1.0000   1.0000   1.0000   1.0000
     1.0000   1.0000   0.0000   0.0000   0.0000

          k = 0.1667 0.5774 0.2080 (  2820 PWs)   bands (ev):

   -77.1009 -77.0935 -40.5254 -40.4975 -40.3887 -40.3420 -40.3159 -40.2832
    14.1148  14.5797  15.0708  15.5615  15.8668  16.8610  17.1363  17.5759
    18.1241  18.3578  21.6231  22.5505  26.9445

     occupation numbers 
     1.0000   1.0000   1.0000   1.0000   1.0000   1.0000   1.0000   1.0000
     1.0000   1.0000   1.0000   1.0000   1.0000   1.0000   1.0000   1.0000
     1.0000   1.0000   0.0000   0.0000   0.0000

          k = 0.1667 0.5774-0.3120 (  2818 PWs)   bands (ev):

   -77.0972 -77.0972 -40.5222 -40.5222 -40.3655 -40.3655 -40.2886 -40.2886
    14.2822  14.2822  15.3565  15.3565  16.4142  16.4142  17.3748  17.3748
    18.2384  18.2384  22.1212  22.1212  26.4524

     occupation numbers 
     1.0000   1.0000   1.0000   1.0000   1.0000   1.0000   1.0000   1.0000
     1.0000   1.0000   1.0000   1.0000   1.0000   1.0000   1.0000   1.0000
     1.0000   1.0000   0.0000   0.0000   0.0000

          k = 0.2500 0.4330 0.0000 (  2838 PWs)   bands (ev):

   -77.1095 -77.0890 -40.4634 -40.4404 -40.4240 -40.3686 -40.3183 -40.3083
    14.4307  14.6305  14.9606  15.0215  15.9520  16.4261  16.7563  17.6151
    18.2295  18.2818  19.9617  26.4233  27.1394

     occupation numbers 
     1.0000   1.0000   1.0000   1.0000   1.0000   1.0000   1.0000   1.0000
     1.0000   1.0000   1.0000   1.0000   1.0000   1.0000   1.0000   1.0000
     1.0000   1.0000   0.0000   0.0000   0.0000

          k = 0.2500 0.4330 0.1040 (  2827 PWs)   bands (ev):

   -77.1082 -77.0904 -40.4763 -40.4674 -40.3828 -40.3820 -40.3214 -40.2929
    14.4407  14.5811  15.0357  15.1500  16.1061  16.2783  16.7422  17.6442
    18.0093  18.3494  20.0939  24.9415  27.4309

     occupation numbers 
     1.0000   1.0000   1.0000   1.0000   1.0000   1.0000   1.0000   1.0000
     1.0000   1.0000   1.0000   1.0000   1.0000   1.0000   1.0000   1.0000
     1.0000   1.0000   0.0000   0.0000   0.0000

          k = 0.2500 0.4330 0.2080 (  2820 PWs)   bands (ev):

   -77.1044 -77.0941 -40.5005 -40.4842 -40.3874 -40.3590 -40.3123 -40.2792
    14.4515  14.5294  15.2104  15.5511  15.9439  16.2207  16.7647  17.4188
    17.9817  18.4303  20.4803  22.8951  28.2335

     occupation numbers 
     1.0000   1.0000   1.0000   1.0000   1.0000   1.0000   1.0000   1.0000
     1.0000   1.0000   1.0000   1.0000   1.0000   1.0000   1.0000   1.0000
     1.0000   1.0000   0.0000   0.0000   0.0000

          k = 0.2500 0.4330-0.3120 (  2820 PWs)   bands (ev):

   -77.0993 -77.0993 -40.5014 -40.5014 -40.3731 -40.3731 -40.2867 -40.2867
    14.4832  14.4832  15.5449  15.5449  15.9944  15.9944  16.9748  16.9748
    18.3207  18.3207  21.3435  21.3435  29.2829

     occupation numbers 
     1.0000   1.0000   1.0000   1.0000   1.0000   1.0000   1.0000   1.0000
     1.0000   1.0000   1.0000   1.0000   1.0000   1.0000   1.0000   1.0000
     1.0000   1.0000   0.0000   0.0000   0.0000

          k = 0.2500 0.5292 0.0000 (  2843 PWs)   bands (ev):

   -77.1014 -77.0908 -40.4771 -40.4305 -40.3986 -40.3931 -40.3386 -40.3335
    14.5487  14.7267  14.8285  15.3265  15.9719  16.2282  16.9266  17.8894
    18.2060  18.2334  21.6082  24.1757  26.4896

     occupation numbers 
     1.0000   1.0000   1.0000   1.0000   1.0000   1.0000   1.0000   1.0000
     1.0000   1.0000   1.0000   1.0000   1.0000   1.0000   1.0000   1.0000
     1.0000   1.0000   0.0000   0.0000   0.0000

          k = 0.2500 0.5292 0.1040 (  2833 PWs)   bands (ev):

   -77.1006 -77.0915 -40.4836 -40.4557 -40.4183 -40.3611 -40.3423 -40.3100
    14.4911  14.8605  14.9588  15.2302  16.0020  16.2225  16.9263  17.8976
    17.9824  18.2787  21.8037  24.2016  26.5476

     occupation numbers 
     1.0000   1.0000   1.0000   1.0000   1.0000   1.0000   1.0000   1.0000
     1.0000   1.0000   1.0000   1.0000   1.0000   1.0000   1.0000   1.0000
     1.0000   1.0000   0.0000   0.0000   0.0000

          k = 0.2500 0.5292 0.2080 (  2824 PWs)   bands (ev):

   -77.0987 -77.0934 -40.5012 -40.4856 -40.4169 -40.3720 -40.3083 -40.2867
    14.5130  14.8713  15.1318  15.4247  15.8698  16.2323  16.9629  17.4530
    18.0470  18.3186  22.3127  23.9258  26.5181

     occupation numbers 
     1.0000   1.0000   1.0000   1.0000   1.0000   1.0000   1.0000   1.0000
     1.0000   1.0000   1.0000   1.0000   1.0000   1.0000   1.0000   1.0000
     1.0000   1.0000   0.0000   0.0000   0.0000

          k = 0.2500 0.5292-0.3120 (  2822 PWs)   bands (ev):

   -77.0960 -77.0960 -40.5042 -40.5042 -40.3959 -40.3959 -40.2852 -40.2852
    14.6554  14.6554  15.4352  15.4352  16.0024  16.0024  17.0941  17.0941
    18.2280  18.2280  23.0896  23.0896  27.0728

     occupation numbers 
     1.0000   1.0000   1.0000   1.0000   1.0000   1.0000   1.0000   1.0000
     1.0000   1.0000   1.0000   1.0000   1.0000   1.0000   1.0000   1.0000
     1.0000   1.0000   0.0000   0.0000   0.0000

          k = 0.3333 0.5774 0.0000 (  2826 PWs)   bands (ev):

   -77.0949 -77.0949 -40.4690 -40.4168 -40.4168 -40.3622 -40.3622 -40.3620
    14.5517  14.9201  14.9201  15.2157  16.0541  16.0541  17.0265  18.0357
    18.0357  18.1810  23.3313  24.1726  24.1726

     occupation numbers 
     1.0000   1.0000   1.0000   1.0000   1.0000   1.0000   1.0000   1.0000
     1.0000   1.0000   1.0000   1.0000   1.0000   1.0000   1.0000   1.0000
     1.0000   1.0000   0.0000   0.0000   0.0000

          k = 0.3333 0.5774 0.1040 (  2820 PWs)   bands (ev):

   -77.0949 -77.0949 -40.4619 -40.4472 -40.4472 -40.3692 -40.3317 -40.3317
    14.6497  14.9487  14.9487  15.2377  16.0250  16.0250  16.9958  17.9317
    18.0737  18.0737  23.7459  24.2496  24.2496

     occupation numbers 
     1.0000   1.0000   1.0000   1.0000   1.0000   1.0000   1.0000   1.0000
     1.0000   1.0000   1.0000   1.0000   1.0000   1.0000   1.0000   1.0000
     1.0000   1.0000   0.0000   0.0000   0.0000

          k = 0.3333 0.5774 0.2080 (  2823 PWs)   bands (ev):

   -77.0949 -77.0949 -40.4816 -40.4816 -40.4424 -40.3888 -40.2970 -40.2970
    14.8998  15.0049  15.0049  15.2583  15.9730  15.9730  16.9530  17.4262
    18.1448  18.1448  24.4408  24.4408  24.7972

     occupation numbers 
     1.0000   1.0000   1.0000   1.0000   1.0000   1.0000   1.0000   1.0000
     1.0000   1.0000   1.0000   1.0000   1.0000   1.0000   1.0000   1.0000
     1.0000   1.0000   0.0000   0.0000   0.0000

          k = 0.3333 0.5774-0.3120 (  2814 PWs)   bands (ev):

   -77.0949 -77.0949 -40.4946 -40.4946 -40.4156 -40.4156 -40.2838 -40.2838
    15.0324  15.0324  15.1573  15.1573  15.9503  15.9503  17.0498  17.0498
    18.1781  18.1781  24.5641  24.5641  26.2322

     occupation numbers 
     1.0000   1.0000   1.0000   1.0000   1.0000   1.0000   1.0000   1.0000
     1.0000   1.0000   1.0000   1.0000   1.0000   1.0000   1.0000   1.0000
     1.0000   1.0000   0.0000   0.0000   0.0000

 ------ SPIN DOWN ----------


          k = 0.0000 0.0000 0.0000 (  2803 PWs)   bands (ev):

   -75.0552 -74.9883 -38.5414 -38.2174 -38.2174 -38.1611 -38.1611 -38.1590
     9.9015  14.7013  18.0124  18.0124  18.0419  18.4026  18.4026  18.7745
    18.7776  18.7776  20.0714  20.0714  26.5729

     occupation numbers 
     1.0000   1.0000   1.0000   1.0000   1.0000   1.0000   1.0000   1.0000
     1.0000   1.0000   1.0000   1.0000   1.0000   1.0000   1.0000   1.0000
     1.0000   1.0000   0.0000   0.0000   0.0000

          k = 0.0000 0.0000 0.1040 (  2821 PWs)   bands (ev):

   -75.0507 -74.9928 -38.5162 -38.2137 -38.2137 -38.1851 -38.1649 -38.1649
    10.1868  14.4808  17.9337  17.9337  17.9439  18.1561  18.3098  18.3098
    18.9745  18.9745  20.0591  20.0591  27.9193

     occupation numbers 
     1.0000   1.0000   1.0000   1.0000   1.0000   1.0000   1.0000   1.0000
     1.0000   1.0000   1.0000   1.0000   1.0000   1.0000   1.0000   1.0000
     0.0000   0.0000   0.0000   0.0000   0.0000

          k = 0.0000 0.0000 0.2080 (  2797 PWs)   bands (ev):

   -75.0385 -75.0051 -38.4470 -38.2558 -38.2034 -38.2034 -38.1752 -38.1752
    11.0109  13.6100  17.4729  17.6954  17.8677  17.8677  18.1080  18.1080
    19.3607  19.3607  19.9664  19.9664  30.9560

     occupation numbers 
     1.0000   1.0000   1.0000   1.0000   1.0000   1.0000   1.0000   1.0000
     1.0000   1.0000   1.0000   1.0000   1.0000   1.0000   1.0000   1.0000
     0.0000   0.0000   0.0000   0.0000   0.0000

          k = 0.0000 0.0000-0.3120 (  2822 PWs)   bands (ev):

   -75.0218 -75.0218 -38.3518 -38.3518 -38.1893 -38.1893 -38.1893 -38.1893
    12.2558  12.2558  17.4405  17.4405  17.9310  17.9310  17.9310  17.9310
    19.7268  19.7268  19.7268  19.7268  34.6666

     occupation numbers 
     1.0000   1.0000   1.0000   1.0000   1.0000   1.0000   1.0000   1.0000
     1.0000   1.0000   1.0000   1.0000   1.0000   1.0000   1.0000   1.0000
     0.0000   0.0000   0.0000   0.0000   0.0000

          k = 0.0000 0.0962 0.0000 (  2815 PWs)   bands (ev):

   -75.0516 -74.9868 -38.5332 -38.2346 -38.2232 -38.1790 -38.1639 -38.1626
    10.1451  14.8654  17.7324  18.1035  18.1392  18.2579  18.3429  18.5141
    18.6920  18.7192  20.1097  20.9526  26.5885

     occupation numbers 
     1.0000   1.0000   1.0000   1.0000   1.0000   1.0000   1.0000   1.0000
     1.0000   1.0000   1.0000   1.0000   1.0000   1.0000   1.0000   1.0000
     1.0000   1.0000   0.0000   0.0000   0.0000

          k = 0.0000 0.0962 0.1040 (  2804 PWs)   bands (ev):

   -75.0473 -74.9912 -38.5095 -38.2302 -38.2192 -38.1997 -38.1708 -38.1678
    10.4265  14.6588  17.6511  17.7273  18.0408  18.0428  18.3660  18.4124
    18.9226  18.9476  20.0879  20.5904  28.0005

     occupation numbers 
     1.0000   1.0000   1.0000   1.0000   1.0000   1.0000   1.0000   1.0000
     1.0000   1.0000   1.0000   1.0000   1.0000   1.0000   1.0000   1.0000
     0.0676   0.0000   0.0000   0.0000   0.0000

          k = 0.0000 0.0962 0.2080 (  2808 PWs)   bands (ev):

   -75.0355 -75.0031 -38.4443 -38.2649 -38.2180 -38.2084 -38.1845 -38.1787
    11.2392  13.8051  17.2241  17.6722  17.7660  17.9664  18.1535  18.2096
    19.3304  19.3706  19.9742  20.1669  31.0909

     occupation numbers 
     1.0000   1.0000   1.0000   1.0000   1.0000   1.0000   1.0000   1.0000
     1.0000   1.0000   1.0000   1.0000   1.0000   1.0000   1.0000   1.0000
     0.0000   0.0000   0.0000   0.0000   0.0000

          k = 0.0000 0.0962-0.3120 (  2820 PWs)   bands (ev):

   -75.0193 -75.0193 -38.3548 -38.3548 -38.2014 -38.2014 -38.1935 -38.1935
    12.4672  12.4672  17.3260  17.3260  17.9110  17.9110  18.0310  18.0310
    19.7134  19.7135  19.7942  19.7942  34.8248

     occupation numbers 
     1.0000   1.0000   1.0000   1.0000   1.0000   1.0000   1.0000   1.0000
     1.0000   1.0000   1.0000   1.0000   1.0000   1.0000   1.0000   1.0000
     0.0000   0.0000   0.0000   0.0000   0.0000

          k = 0.0000 0.1925 0.0000 (  2807 PWs)   bands (ev):

   -75.0418 -74.9829 -38.5098 -38.2818 -38.2384 -38.2275 -38.1733 -38.1716
    10.8538  15.2865  17.2331  17.3587  18.1189  18.4824  18.4995  18.5620
    18.5999  18.8276  20.1911  22.4469  26.6521

     occupation numbers 
     1.0000   1.0000   1.0000   1.0000   1.0000   1.0000   1.0000   1.0000
     1.0000   1.0000   1.0000   1.0000   1.0000   1.0000   1.0000   1.0000
     1.0000   1.0000   0.0000   0.0000   0.0000

          k = 0.0000 0.1925 0.1040 (  2806 PWs)   bands (ev):

   -75.0378 -74.9868 -38.4910 -38.2753 -38.2453 -38.2340 -38.1813 -38.1761
    11.1217  15.1260  16.9595  17.3960  18.0024  18.2722  18.3027  18.6733
    18.9029  18.9805  20.1481  21.6372  28.2735

     occupation numbers 
     1.0000   1.0000   1.0000   1.0000   1.0000   1.0000   1.0000   1.0000
     1.0000   1.0000   1.0000   1.0000   1.0000   1.0000   1.0000   1.0000
     0.7095   0.0000   0.0000   0.0000   0.0000

          k = 0.0000 0.1925 0.2080 (  2812 PWs)   bands (ev):

   -75.0271 -74.9976 -38.4394 -38.2983 -38.2545 -38.2218 -38.2018 -38.1883
    11.8939  14.3286  16.8084  17.4734  17.6397  18.1084  18.2084  18.4922
    19.2973  19.4420  19.9898  20.6554  31.4968

     occupation numbers 
     1.0000   1.0000   1.0000   1.0000   1.0000   1.0000   1.0000   1.0000
     1.0000   1.0000   1.0000   1.0000   1.0000   1.0000   1.0000   1.0000
     0.0000   0.0000   0.0000   0.0000   0.0000

          k = 0.0000 0.1925-0.3120 (  2802 PWs)   bands (ev):

   -75.0124 -75.0124 -38.3687 -38.3687 -38.2286 -38.2286 -38.2051 -38.2051
    13.0574  13.0574  17.0995  17.0995  17.8119  17.8119  18.2986  18.2986
    19.6929  19.6929  19.9837  19.9837  35.2501

     occupation numbers 
     1.0000   1.0000   1.0000   1.0000   1.0000   1.0000   1.0000   1.0000
     1.0000   1.0000   1.0000   1.0000   1.0000   1.0000   1.0000   1.0000
     0.0000   0.0000   0.0000   0.0000   0.0000

          k = 0.0000 0.2887 0.0000 (  2806 PWs)   bands (ev):

   -75.0277 -74.9780 -38.4747 -38.3469 -38.2924 -38.2587 -38.1910 -38.1828
    11.9519  15.7000  16.5358  17.0264  17.9698  18.2325  18.3510  19.0287
    19.0460  19.2808  20.2681  24.1626  26.7823

     occupation numbers 
     1.0000   1.0000   1.0000   1.0000   1.0000   1.0000   1.0000   1.0000
     1.0000   1.0000   1.0000   1.0000   1.0000   1.0000   1.0000   0.0000
     0.0000   0.0000   0.0000   0.0000   0.0000

          k = 0.0000 0.2887 0.1040 (  2804 PWs)   bands (ev):

   -75.0244 -74.9814 -38.4673 -38.3344 -38.3077 -38.2536 -38.1958 -38.1879
[...]
    20.2218  20.3149  21.4211  23.9431  28.9809

     occupation numbers 
     1.0000   1.0000   1.0000   1.0000   1.0000   1.0000   1.0000   1.0000
     1.0000   1.0000   1.0000   1.0000   1.0000   1.0000   1.0000   0.0000
     0.0000   0.0000   0.0000   0.0000   0.0000

          k = 0.0833 0.5292 0.1040 (  2822 PWs)   bands (ev):

   -74.9935 -74.9745 -38.4872 -38.4301 -38.3499 -38.2970 -38.2481 -38.2200
    14.8563  15.4913  16.0439  16.5681  17.8034  18.3533  18.4179  20.0162
    20.1870  20.2665  21.2818  23.6118  27.8870

     occupation numbers 
     1.0000   1.0000   1.0000   1.0000   1.0000   1.0000   1.0000   1.0000
     1.0000   1.0000   1.0000   1.0000   1.0000   1.0000   1.0000   0.0000
     0.0000   0.0000   0.0000   0.0000   0.0000

          k = 0.0833 0.5292 0.2080 (  2824 PWs)   bands (ev):

   -74.9895 -74.9785 -38.5043 -38.4686 -38.3097 -38.2712 -38.2542 -38.2241
    14.8364  15.3296  16.3509  16.6877  17.8693  18.6458  18.8627  19.5328
    20.1326  20.3678  21.0561  22.6769  27.3058

     occupation numbers 
     1.0000   1.0000   1.0000   1.0000   1.0000   1.0000   1.0000   1.0000
     1.0000   1.0000   1.0000   1.0000   1.0000   1.0000   1.0000   0.0000
     0.0000   0.0000   0.0000   0.0000   0.0000

          k = 0.0833 0.5292-0.3120 (  2822 PWs)   bands (ev):

   -74.9840 -74.9840 -38.4979 -38.4979 -38.2791 -38.2791 -38.2390 -38.2390
    15.0198  15.0198  16.6385  16.6385  18.3806  18.3806  19.1643  19.1643
    20.2141  20.2141  21.6071  21.6071  27.5579

     occupation numbers 
     1.0000   1.0000   1.0000   1.0000   1.0000   1.0000   1.0000   1.0000
     1.0000   1.0000   1.0000   1.0000   1.0000   1.0000   0.0000   0.0000
     0.0000   0.0000   0.0000   0.0000   0.0000

          k = 0.1667 0.2887 0.0000 (  2812 PWs)   bands (ev):

   -75.0204 -74.9760 -38.4553 -38.3526 -38.3427 -38.2588 -38.2072 -38.2018
    12.5773  15.9851  16.3511  16.6917  17.8624  18.0002  18.4528  18.9224
    19.4191  19.7933  20.2249  25.0686  26.9976

     occupation numbers 
     1.0000   1.0000   1.0000   1.0000   1.0000   1.0000   1.0000   1.0000
     1.0000   1.0000   1.0000   1.0000   1.0000   1.0000   1.0000   0.0698
     0.0000   0.0000   0.0000   0.0000   0.0000

          k = 0.1667 0.2887 0.1040 (  2802 PWs)   bands (ev):

   -75.0174 -74.9789 -38.4553 -38.3506 -38.3337 -38.2671 -38.2121 -38.1999
    12.7949  15.9456  16.2294  16.7596  17.7919  18.0282  18.3312  18.9843
    19.5535  19.6713  20.2322  23.3969  29.2158

     occupation numbers 
     1.0000   1.0000   1.0000   1.0000   1.0000   1.0000   1.0000   1.0000
     1.0000   1.0000   1.0000   1.0000   1.0000   1.0000   1.0000   0.0000
     0.0000   0.0000   0.0000   0.0000   0.0000

          k = 0.1667 0.2887 0.2080 (  2813 PWs)   bands (ev):

   -75.0093 -74.9871 -38.4449 -38.3793 -38.2937 -38.2695 -38.2238 -38.2078
    13.4115  15.2655  16.4823  16.9335  17.5536  17.8488  18.3849  19.0088
    19.6896  19.7913  20.1804  21.6325  32.4916

     occupation numbers 
     1.0000   1.0000   1.0000   1.0000   1.0000   1.0000   1.0000   1.0000
     1.0000   1.0000   1.0000   1.0000   1.0000   1.0000   1.0000   0.0000
     0.0000   0.0000   0.0000   0.0000   0.0000

          k = 0.1667 0.2887-0.3120 (  2818 PWs)   bands (ev):

   -74.9982 -74.9982 -38.4171 -38.4171 -38.2659 -38.2659 -38.2265 -38.2265
    14.3080  14.3080  16.8720  16.8720  17.5183  17.5183  18.6985  18.6985
    19.9927  19.9927  20.4243  20.4243  34.0358

     occupation numbers 
     1.0000   1.0000   1.0000   1.0000   1.0000   1.0000   1.0000   1.0000
     1.0000   1.0000   1.0000   1.0000   1.0000   1.0000   1.0000   1.0000
     0.0000   0.0000   0.0000   0.0000   0.0000

          k = 0.1667 0.3849 0.0000 (  2823 PWs)   bands (ev):

   -75.0067 -74.9733 -38.4161 -38.4038 -38.3780 -38.2897 -38.2291 -38.2259
    13.8305  16.0283  16.0591  16.4886  17.6646  18.1431  18.2246  19.2619
    19.9358  20.2266  20.5164  26.8555  27.1556

     occupation numbers 
     1.0000   1.0000   1.0000   1.0000   1.0000   1.0000   1.0000   1.0000
     1.0000   1.0000   1.0000   1.0000   1.0000   1.0000   1.0000   0.0000
     0.0000   0.0000   0.0000   0.0000   0.0000

          k = 0.1667 0.3849 0.1040 (  2818 PWs)   bands (ev):

   -75.0045 -74.9755 -38.4460 -38.3987 -38.3487 -38.2967 -38.2361 -38.2163
    13.9821  15.8924  16.1683  16.5965  17.6578  18.0798  18.1905  19.2857
    19.9421  20.0423  20.6380  24.4964  29.1427

     occupation numbers 
     1.0000   1.0000   1.0000   1.0000   1.0000   1.0000   1.0000   1.0000
     1.0000   1.0000   1.0000   1.0000   1.0000   1.0000   1.0000   0.0000
     0.0000   0.0000   0.0000   0.0000   0.0000

          k = 0.1667 0.3849 0.2080 (  2813 PWs)   bands (ev):

   -74.9983 -74.9817 -38.4609 -38.4236 -38.3083 -38.2903 -38.2454 -38.2140
    14.3965  15.5115  16.4662  16.8268  17.5366  17.7843  18.3726  19.2023
    19.8044  20.2347  20.7231  22.4563  30.0849

     occupation numbers 
     1.0000   1.0000   1.0000   1.0000   1.0000   1.0000   1.0000   1.0000
     1.0000   1.0000   1.0000   1.0000   1.0000   1.0000   1.0000   0.0000
     0.0000   0.0000   0.0000   0.0000   0.0000

          k = 0.1667 0.3849-0.3120 (  2816 PWs)   bands (ev):

   -74.9900 -74.9900 -38.4509 -38.4509 -38.2893 -38.2893 -38.2311 -38.2311
    14.9603  14.9603  16.8243  16.8243  17.5045  17.5045  18.7378  18.7378
    20.2417  20.2417  21.0921  21.0921  31.2182

     occupation numbers 
     1.0000   1.0000   1.0000   1.0000   1.0000   1.0000   1.0000   1.0000
     1.0000   1.0000   1.0000   1.0000   1.0000   1.0000   1.0000   1.0000
     0.0000   0.0000   0.0000   0.0000   0.0000

          k = 0.1667 0.4811 0.0000 (  2827 PWs)   bands (ev):

   -74.9950 -74.9730 -38.4444 -38.3944 -38.3782 -38.3193 -38.2527 -38.2440
    14.9351  15.8362  15.8404  16.5311  17.6057  17.9708  18.3827  19.7092
    20.2086  20.2260  21.4271  25.4102  28.7735

     occupation numbers 
     1.0000   1.0000   1.0000   1.0000   1.0000   1.0000   1.0000   1.0000
     1.0000   1.0000   1.0000   1.0000   1.0000   1.0000   1.0000   0.0000
     0.0000   0.0000   0.0000   0.0000   0.0000

          k = 0.1667 0.4811 0.1040 (  2826 PWs)   bands (ev):

   -74.9936 -74.9744 -38.4621 -38.4178 -38.3514 -38.3113 -38.2581 -38.2323
    14.9524  15.7960  16.0100  16.5744  17.6272  17.9561  18.4253  19.6902
    19.9782  20.2876  21.4830  24.8231  27.6929

     occupation numbers 
     1.0000   1.0000   1.0000   1.0000   1.0000   1.0000   1.0000   1.0000
     1.0000   1.0000   1.0000   1.0000   1.0000   1.0000   1.0000   0.0000
     0.0000   0.0000   0.0000   0.0000   0.0000

          k = 0.1667 0.4811 0.2080 (  2812 PWs)   bands (ev):

   -74.9895 -74.9785 -38.4807 -38.4511 -38.3311 -38.2899 -38.2585 -38.2213
    15.0595  15.5936  16.3582  16.8759  17.4655  17.9275  18.6158  19.3374
    19.9082  20.3890  21.6393  23.3809  27.7888

     occupation numbers 
     1.0000   1.0000   1.0000   1.0000   1.0000   1.0000   1.0000   1.0000
     1.0000   1.0000   1.0000   1.0000   1.0000   1.0000   1.0000   0.0000
     0.0000   0.0000   0.0000   0.0000   0.0000

          k = 0.1667 0.4811-0.3120 (  2814 PWs)   bands (ev):

   -74.9840 -74.9840 -38.4768 -38.4768 -38.3081 -38.3081 -38.2314 -38.2314
    15.2928  15.2928  16.7907  16.7907  17.6472  17.6472  18.8907  18.8907
    20.2348  20.2348  22.1814  22.1814  28.6066

     occupation numbers 
     1.0000   1.0000   1.0000   1.0000   1.0000   1.0000   1.0000   1.0000
     1.0000   1.0000   1.0000   1.0000   1.0000   1.0000   0.9655   0.9655
     0.0000   0.0000   0.0000   0.0000   0.0000

          k = 0.1667 0.5774 0.0000 (  2824 PWs)   bands (ev):

   -74.9898 -74.9738 -38.4592 -38.3990 -38.3590 -38.3319 -38.2679 -38.2492
    15.4021  15.7034  15.7731  16.5896  17.6365  17.8255  18.4903  20.0217
    20.1969  20.2254  22.3300  23.8346  29.6149

     occupation numbers 
     1.0000   1.0000   1.0000   1.0000   1.0000   1.0000   1.0000   1.0000
     1.0000   1.0000   1.0000   1.0000   1.0000   1.0000   1.0000   0.0000
     0.0000   0.0000   0.0000   0.0000   0.0000

          k = 0.1667 0.5774 0.1040 (  2826 PWs)   bands (ev):

   -74.9888 -74.9749 -38.4732 -38.4207 -38.3569 -38.3043 -38.2717 -38.2393
    15.2481  15.7537  16.1569  16.4181  17.5796  17.9959  18.5420  19.9435
    20.0179  20.2655  22.3638  23.7375  28.8441

     occupation numbers 
     1.0000   1.0000   1.0000   1.0000   1.0000   1.0000   1.0000   1.0000
     1.0000   1.0000   1.0000   1.0000   1.0000   1.0000   1.0000   0.0000
     0.0000   0.0000   0.0000   0.0000   0.0000

          k = 0.1667 0.5774 0.2080 (  2820 PWs)   bands (ev):

   -74.9858 -74.9778 -38.4900 -38.4595 -38.3404 -38.2896 -38.2608 -38.2252
    15.2089  15.6510  16.4215  16.7920  17.3729  18.1034  18.7648  19.4145
    20.0391  20.3099  22.4986  23.4137  27.7407

     occupation numbers 
     1.0000   1.0000   1.0000   1.0000   1.0000   1.0000   1.0000   1.0000
     1.0000   1.0000   1.0000   1.0000   1.0000   1.0000   1.0000   0.0000
     0.0000   0.0000   0.0000   0.0000   0.0000

          k = 0.1667 0.5774-0.3120 (  2818 PWs)   bands (ev):

   -74.9818 -74.9818 -38.4864 -38.4864 -38.3152 -38.3152 -38.2311 -38.2311
    15.3710  15.3710  16.7811  16.7811  17.6981  17.6981  19.0594  19.0594
    20.1686  20.1686  22.9011  22.9011  27.3553

     occupation numbers 
     1.0000   1.0000   1.0000   1.0000   1.0000   1.0000   1.0000   1.0000
     1.0000   1.0000   1.0000   1.0000   1.0000   1.0000   0.0000   0.0000
     0.0000   0.0000   0.0000   0.0000   0.0000

          k = 0.2500 0.4330 0.0000 (  2838 PWs)   bands (ev):

   -74.9951 -74.9729 -38.4227 -38.3971 -38.3785 -38.3188 -38.2639 -38.2525
    14.9419  15.9087  16.1876  16.2021  17.5179  17.9929  18.3842  19.4741
    20.1809  20.2157  21.4627  26.9971  27.7641

     occupation numbers 
     1.0000   1.0000   1.0000   1.0000   1.0000   1.0000   1.0000   1.0000
     1.0000   1.0000   1.0000   1.0000   1.0000   1.0000   1.0000   0.0000
     0.0000   0.0000   0.0000   0.0000   0.0000

          k = 0.2500 0.4330 0.1040 (  2827 PWs)   bands (ev):

   -74.9936 -74.9744 -38.4361 -38.4270 -38.3341 -38.3329 -38.2673 -38.2358
    15.0243  15.8273  16.2589  16.3972  17.5701  17.8159  18.3754  19.5000
    19.9225  20.2976  21.5749  25.5939  28.0614

     occupation numbers 
     1.0000   1.0000   1.0000   1.0000   1.0000   1.0000   1.0000   1.0000
     1.0000   1.0000   1.0000   1.0000   1.0000   1.0000   1.0000   0.0000
     0.0000   0.0000   0.0000   0.0000   0.0000

          k = 0.2500 0.4330 0.2080 (  2820 PWs)   bands (ev):

   -74.9895 -74.9785 -38.4627 -38.4452 -38.3391 -38.3080 -38.2571 -38.2208
    15.2339  15.6901  16.4908  16.7769  17.4252  17.5563  18.4367  19.2409
    19.8683  20.3971  21.8202  23.7076  28.8636

     occupation numbers 
     1.0000   1.0000   1.0000   1.0000   1.0000   1.0000   1.0000   1.0000
     1.0000   1.0000   1.0000   1.0000   1.0000   1.0000   1.0000   0.0000
     0.0000   0.0000   0.0000   0.0000   0.0000

          k = 0.2500 0.4330-0.3120 (  2820 PWs)   bands (ev):

   -74.9840 -74.9840 -38.4638 -38.4638 -38.3235 -38.3235 -38.2291 -38.2291
    15.4842  15.4842  16.8482  16.8482  17.3171  17.3171  18.7274  18.7274
    20.2588  20.2588  22.4003  22.4003  29.8986

     occupation numbers 
     1.0000   1.0000   1.0000   1.0000   1.0000   1.0000   1.0000   1.0000
     1.0000   1.0000   1.0000   1.0000   1.0000   1.0000   1.0000   1.0000
     0.0000   0.0000   0.0000   0.0000   0.0000

          k = 0.2500 0.5292 0.0000 (  2843 PWs)   bands (ev):

   -74.9862 -74.9748 -38.4374 -38.3864 -38.3515 -38.3447 -38.2860 -38.2799
    15.6590  15.8633  16.0218  16.2892  17.5220  17.7546  18.5874  19.7791
    20.1538  20.1684  22.7399  24.9936  27.0766

     occupation numbers 
     1.0000   1.0000   1.0000   1.0000   1.0000   1.0000   1.0000   1.0000
     1.0000   1.0000   1.0000   1.0000   1.0000   1.0000   1.0000   0.0000
     0.0000   0.0000   0.0000   0.0000   0.0000

          k = 0.2500 0.5292 0.1040 (  2833 PWs)   bands (ev):

   -74.9855 -74.9756 -38.4445 -38.4138 -38.3728 -38.3102 -38.2899 -38.2544
    15.6198  15.9892  16.1120  16.3559  17.5041  17.6563  18.5866  19.7873
    19.8911  20.2216  22.9107  24.9770  27.1623

     occupation numbers 
     1.0000   1.0000   1.0000   1.0000   1.0000   1.0000   1.0000   1.0000
     1.0000   1.0000   1.0000   1.0000   1.0000   1.0000   1.0000   0.0000
     0.0000   0.0000   0.0000   0.0000   0.0000

          k = 0.2500 0.5292 0.2080 (  2824 PWs)   bands (ev):

   -74.9834 -74.9777 -38.4634 -38.4465 -38.3714 -38.3223 -38.2526 -38.2290
    15.6616  15.9588  16.3988  16.7118  17.2646  17.5115  18.6384  19.2871
    19.9527  20.2645  23.3051  24.6313  27.2754

     occupation numbers 
     1.0000   1.0000   1.0000   1.0000   1.0000   1.0000   1.0000   1.0000
     1.0000   1.0000   1.0000   1.0000   1.0000   1.0000   1.0000   0.0000
     0.0000   0.0000   0.0000   0.0000   0.0000

          k = 0.2500 0.5292-0.3120 (  2822 PWs)   bands (ev):

   -74.9805 -74.9805 -38.4668 -38.4668 -38.3484 -38.3484 -38.2273 -38.2273
    15.7999  15.7999  16.8051  16.8051  17.2202  17.2202  18.8407  18.8407
    20.1544  20.1544  23.9045  23.9045  27.8343

     occupation numbers 
     1.0000   1.0000   1.0000   1.0000   1.0000   1.0000   1.0000   1.0000
     1.0000   1.0000   1.0000   1.0000   1.0000   1.0000   1.0000   1.0000
     0.0000   0.0000   0.0000   0.0000   0.0000

          k = 0.3333 0.5774 0.0000 (  2826 PWs)   bands (ev):

   -74.9793 -74.9793 -38.4284 -38.3716 -38.3716 -38.3114 -38.3111 -38.3111
    15.8892  16.0092  16.0092  16.2207  17.5755  17.5755  18.6964  19.9477
    19.9477  20.1250  24.1735  24.9832  24.9832

     occupation numbers 
     1.0000   1.0000   1.0000   1.0000   1.0000   1.0000   1.0000   1.0000
     1.0000   1.0000   1.0000   1.0000   1.0000   1.0000   1.0000   0.0000
     0.0000   0.0000   0.0000   0.0000   0.0000

          k = 0.3333 0.5774 0.1040 (  2820 PWs)   bands (ev):

   -74.9793 -74.9793 -38.4206 -38.4045 -38.4045 -38.3193 -38.2780 -38.2780
    15.9676  16.0873  16.0873  16.2549  17.4908  17.4908  18.6701  19.8336
    19.9897  19.9897  24.6052  25.0358  25.0358

     occupation numbers 
     1.0000   1.0000   1.0000   1.0000   1.0000   1.0000   1.0000   1.0000
     1.0000   1.0000   1.0000   1.0000   1.0000   1.0000   1.0000   0.0000
     0.0000   0.0000   0.0000   0.0000   0.0000

          k = 0.3333 0.5774 0.2080 (  2823 PWs)   bands (ev):

   -74.9793 -74.9793 -38.4419 -38.4419 -38.3993 -38.3408 -38.2402 -38.2402
    16.1522  16.2724  16.2724  16.3177  17.3007  17.3007  18.6551  19.2626
    20.0647  20.0647  25.1657  25.1657  25.6420

     occupation numbers 
     1.0000   1.0000   1.0000   1.0000   1.0000   1.0000   1.0000   1.0000
     1.0000   1.0000   1.0000   1.0000   1.0000   1.0000   1.0000   0.0000
     0.0000   0.0000   0.0000   0.0000   0.0000

          k = 0.3333 0.5774-0.3120 (  2814 PWs)   bands (ev):

   -74.9793 -74.9793 -38.4561 -38.4561 -38.3701 -38.3701 -38.2259 -38.2259
    16.3037  16.3037  16.3920  16.3920  17.1824  17.1824  18.8172  18.8172
    20.0981  20.0981  25.2480  25.2480  26.9976

     occupation numbers 
     1.0000   1.0000   1.0000   1.0000   1.0000   1.0000   1.0000   1.0000
     1.0000   1.0000   1.0000   1.0000   1.0000   1.0000   1.0000   1.0000
     0.0000   0.0000   0.0000   0.0000   0.0000

     the Fermi energy is    18.9082 ev

!    total energy              =    -753.45505425 Ry
     total all-electron energy =     -5573.811745 Ry
     estimated scf accuracy    <       0.00000024 Ry
     smearing contrib. (-TS)   =      -0.00001965 Ry
     internal energy E=F+TS    =    -753.45503461 Ry

     The total energy is F=E-TS. E is the sum of the following terms:
     one-electron contribution =    -280.23013835 Ry
     hartree contribution      =     164.08295605 Ry
     xc contribution           =     -61.41799136 Ry
     ewald contribution        =    -400.71500432 Ry
     one-center paw contrib.   =    -175.17485663 Ry
      -> PAW hartree energy AE =     222.08912704 Ry
      -> PAW hartree energy PS =    -221.03310600 Ry
      -> PAW xc energy AE      =    -117.67522366 Ry
      -> PAW xc energy PS      =      29.03177431 Ry
      -> total E_H with PAW    =     165.13897708 Ry
      -> total E_XC with PAW   =    -150.06144071 Ry

     total magnetization       =     3.30 Bohr mag/cell
     absolute magnetization    =     3.62 Bohr mag/cell

     convergence has been achieved in   7 iterations

     Writing all to output data dir ./out2/Co.save/
 
     init_run     :      0.31s CPU      0.40s WALL (       1 calls)
     electrons    :      8.64s CPU      9.29s WALL (       1 calls)

     Called by init_run:
     wfcinit      :      0.13s CPU      0.19s WALL (       1 calls)
     potinit      :      0.10s CPU      0.12s WALL (       1 calls)
     hinit0       :      0.07s CPU      0.07s WALL (       1 calls)

     Called by electrons:
     c_bands      :      7.24s CPU      7.70s WALL (       7 calls)
     sum_band     :      0.74s CPU      0.79s WALL (       7 calls)
     v_of_rho     :      0.03s CPU      0.03s WALL (       8 calls)
     v_h          :      0.00s CPU      0.00s WALL (       8 calls)
     v_xc         :      0.03s CPU      0.03s WALL (       8 calls)
     newd         :      0.02s CPU      0.02s WALL (       8 calls)
     PAW_pot      :      0.70s CPU      0.84s WALL (       8 calls)
     mix_rho      :      0.01s CPU      0.01s WALL (       7 calls)

     Called by c_bands:
     init_us_2    :      0.05s CPU      0.06s WALL (    1064 calls)
     init_us_2:cp :      0.05s CPU      0.05s WALL (    1064 calls)
     cegterg      :      6.85s CPU      7.22s WALL (     532 calls)

     Called by sum_band:
     sum_band:wei :      0.01s CPU      0.01s WALL (       7 calls)
     sum_band:loo :      0.69s CPU      0.73s WALL (       7 calls)
     sum_band:buf :      0.01s CPU      0.01s WALL (     532 calls)
     sum_band:ini :      0.03s CPU      0.03s WALL (     532 calls)
     sum_band:cal :      0.06s CPU      0.06s WALL (     532 calls)
     sum_band:bec :      0.01s CPU      0.01s WALL (     532 calls)
     addusdens    :      0.03s CPU      0.04s WALL (       7 calls)
                                        0.00s GPU  (       7 calls)
     addusd:skk   :      0.00s CPU      0.00s WALL (       7 calls)
                                        0.00s GPU  (       7 calls)

     Called by *egterg:
     cdiaghg      :      1.50s CPU      1.57s WALL (    3034 calls)
     cegterg:over :      0.22s CPU      0.24s WALL (    2578 calls)
     cegterg:upda :      0.07s CPU      0.07s WALL (    2578 calls)
     cegterg:last :      0.13s CPU      0.13s WALL (    1884 calls)
     h_psi        :      4.61s CPU      4.87s WALL (    3110 calls)
     s_psi        :      0.08s CPU      0.09s WALL (    3110 calls)
     g_psi        :      0.02s CPU      0.02s WALL (    2578 calls)

     Called by h_psi:
     h_psi:calbec :      0.24s CPU      0.26s WALL (    3110 calls)
     vloc_psi     :      4.23s CPU      4.47s WALL (    3110 calls)
     add_vuspsi   :      0.10s CPU      0.11s WALL (    3110 calls)

     General routines
     calbec       :      0.29s CPU      0.31s WALL (    3642 calls)
     fft          :      0.02s CPU      0.02s WALL (     194 calls)
     ffts         :      0.00s CPU      0.00s WALL (      30 calls)
     fftw         :      4.35s CPU      4.60s WALL (   96354 calls)
     interpolate  :      0.00s CPU      0.00s WALL (      16 calls)
 
     Parallel routines

     PAW routines
     PAW_pot      :      0.70s CPU      0.84s WALL (       8 calls)
     PAW_symme    :      0.01s CPU      0.01s WALL (      14 calls)
 
     PWSCF        :      9.21s CPU     10.27s WALL

 
   This run was terminated on:  10:50:33  22Mar2024            

=------------------------------------------------------------------------------=
   JOB DONE.
=------------------------------------------------------------------------------=
