
     Program PWSCF v.7.2 starts on 29Jun2024 at 12: 6:49 

     This program is part of the open-source Quantum ESPRESSO suite
     for quantum simulation of materials; please cite
         "P. Giannozzi et al., J. Phys.:Condens. Matter 21 395502 (2009);
         "P. Giannozzi et al., J. Phys.:Condens. Matter 29 465901 (2017);
         "P. Giannozzi et al., J. Chem. Phys. 152 154105 (2020);
          URL http://www.quantum-espresso.org", 
     in publications or presentations arising from this work. More details at
     http://www.quantum-espresso.org/quote

     Parallel version (MPI), running on   560 processors

     MPI processes distributed on     5 nodes
     235354 MiB available memory on the printing compute node when the environment starts
 
     Reading input from 1.Fe_vac_in_ZnS.relax.qp1.in

     Current dimensions of program PWSCF are:
     Max number of different atomic species (ntypx) = 10
     Max number of k-points (npk) =  40000
     Max angular momentum in pseudopotentials (lmaxx) =  4
     file S.pbe-n-kjpaw_psl.1.0.0.UPF: wavefunction(s)  3S 3P renormalized
     file Zn.pbe-dnl-kjpaw_psl.1.0.0.UPF: wavefunction(s)  4S 3D renormalized
     file Fe.pbe-spn-kjpaw_psl.1.0.0.UPF: wavefunction(s)  3P 3D renormalized
 
     K-points division:     npool     =       5
     R & G space division:  proc/nbgrp/npool/nimage =     112
     Subspace diagonalization in iterative solution of the eigenvalue problem:
     one sub-group per band group will be used
     scalapack distributed-memory algorithm (size of sub-group:  3*  3 procs)

 
     Parallelization info
     --------------------
     sticks:   dense  smooth     PW     G-vecs:    dense   smooth      PW
     Min         180     180     46                19282    19282    2562
     Max         181     181     47                19291    19291    2573
     Sum       20217   20217   5249              2160009  2160009  287777
 
     Using Slab Decomposition
 


     bravais-lattice index     =            1
     lattice parameter (alat)  =      20.5686  a.u.
     unit-cell volume          =    8701.8437 (a.u.)^3
     number of atoms/cell      =           63
     number of atomic types    =            3
     number of electrons       =       573.00
     number of Kohn-Sham states=          344
     kinetic-energy cutoff     =     150.0000  Ry
     charge density cutoff     =     600.0000  Ry
     scf convergence threshold =      1.0E-08
     mixing beta               =       0.7000
     number of iterations used =            8  plain     mixing
     energy convergence thresh.=      1.0E-05
     force convergence thresh. =      1.0E-04
     Exchange-correlation= SLA  PW   PBX  PBC
                           (   1   4   3   4   0   0   0)
     nstep                     =           50


     celldm(1)=  20.568554  celldm(2)=   0.000000  celldm(3)=   0.000000
     celldm(4)=   0.000000  celldm(5)=   0.000000  celldm(6)=   0.000000

     crystal axes: (cart. coord. in units of alat)
               a(1) = (   1.000000   0.000000   0.000000 )  
               a(2) = (   0.000000   1.000000   0.000000 )  
               a(3) = (   0.000000   0.000000   1.000000 )  

     reciprocal axes: (cart. coord. in units 2 pi/alat)
               b(1) = (  1.000000  0.000000  0.000000 )  
               b(2) = (  0.000000  1.000000  0.000000 )  
               b(3) = (  0.000000  0.000000  1.000000 )  


     PseudoPot. # 1 for S  read from file:
     /arf/home/amuhaymin/pseudo/S.pbe-n-kjpaw_psl.1.0.0.UPF
     MD5 check sum: fb45dfebcf3e72a4e1bd4a866ec2e262
     Pseudo is Projector augmented-wave + core cor, Zval =  6.0
     Generated using &quot;atomic&quot; code by A. Dal Corso  v.6.3
     Shape of augmentation charge: PSQ
     Using radial grid of 1151 points,  6 beta functions with: 
                l(1) =   0
                l(2) =   0
                l(3) =   1
                l(4) =   1
                l(5) =   2
                l(6) =   2
     Q(r) pseudized with 0 coefficients 


     PseudoPot. # 2 for Zn read from file:
     /arf/home/amuhaymin/pseudo/Zn.pbe-dnl-kjpaw_psl.1.0.0.UPF
     MD5 check sum: c608214d9520ac179f507641260889e3
     Pseudo is Projector augmented-wave + core cor, Zval = 12.0
     Generated using &quot;atomic&quot; code by A. Dal Corso  v.6.2.2
     Shape of augmentation charge: PSQ
     Using radial grid of 1201 points,  6 beta functions with: 
                l(1) =   0
                l(2) =   0
                l(3) =   1
                l(4) =   1
                l(5) =   2
                l(6) =   2
     Q(r) pseudized with 0 coefficients 


     PseudoPot. # 3 for Fe read from file:
     /arf/home/amuhaymin/pseudo/Fe.pbe-spn-kjpaw_psl.1.0.0.UPF
     MD5 check sum: fc81f059e5c5069939230b1155715ae8
     Pseudo is Projector augmented-wave + core cor, Zval = 16.0
     Generated using &quot;atomic&quot; code by A. Dal Corso  v.6.3
     Shape of augmentation charge: PSQ
     Using radial grid of 1191 points,  6 beta functions with: 
                l(1) =   0
                l(2) =   0
                l(3) =   1
                l(4) =   1
                l(5) =   2
                l(6) =   2
     Q(r) pseudized with 0 coefficients 


     atomic species   valence    mass     pseudopotential
        S              6.00    32.06500     S ( 1.00)
        Zn            12.00    65.38000     Zn( 1.00)
        Fe            16.00    63.54600     Fe( 1.00)

     Starting magnetic structure 
     atomic species   magnetization
        S            0.000
        Zn           0.000
        Fe           0.312

      6 Sym. Ops. (no inversion) found


                                    s                        frac. trans.

      isym =  1     identity                                     

 cryst.   s( 1) = (     1          0          0      )
                  (     0          1          0      )
                  (     0          0          1      )

 cart.    s( 1) = (  1.0000000  0.0000000  0.0000000 )
                  (  0.0000000  1.0000000  0.0000000 )
                  (  0.0000000  0.0000000  1.0000000 )


      isym =  2     120 deg rotation - cart. axis [-1,-1,-1]     

 cryst.   s( 2) = (     0          0          1      )
                  (     1          0          0      )
                  (     0          1          0      )

 cart.    s( 2) = (  0.0000000  1.0000000  0.0000000 )
                  (  0.0000000  0.0000000  1.0000000 )
                  (  1.0000000  0.0000000  0.0000000 )


      isym =  3     120 deg rotation - cart. axis [1,1,1]        

 cryst.   s( 3) = (     0          1          0      )
                  (     0          0          1      )
                  (     1          0          0      )

 cart.    s( 3) = (  0.0000000  0.0000000  1.0000000 )
                  (  1.0000000  0.0000000  0.0000000 )
                  (  0.0000000  1.0000000  0.0000000 )


      isym =  4     inv. 180 deg rotation - cart. axis [1,-1,0]  

 cryst.   s( 4) = (     0          1          0      )
                  (     1          0          0      )
                  (     0          0          1      )

 cart.    s( 4) = (  0.0000000  1.0000000  0.0000000 )
                  (  1.0000000  0.0000000  0.0000000 )
                  (  0.0000000  0.0000000  1.0000000 )


      isym =  5     inv. 180 deg rotation - cart. axis [-1,0,1]  

 cryst.   s( 5) = (     0          0          1      )
                  (     0          1          0      )
                  (     1          0          0      )

 cart.    s( 5) = (  0.0000000  0.0000000  1.0000000 )
                  (  0.0000000  1.0000000  0.0000000 )
                  (  1.0000000  0.0000000  0.0000000 )


      isym =  6     inv. 180 deg rotation - cart. axis [0,1,-1]  

 cryst.   s( 6) = (     1          0          0      )
                  (     0          0          1      )
                  (     0          1          0      )

 cart.    s( 6) = (  1.0000000  0.0000000  0.0000000 )
                  (  0.0000000  0.0000000  1.0000000 )
                  (  0.0000000  1.0000000  0.0000000 )


     point group C_3v (3m)  
     there are  3 classes
     the character table:

       E     2C3   3s_v 
A_1    1.00  1.00  1.00
A_2    1.00  1.00 -1.00
E      2.00 -1.00  0.00

     the symmetry operations in each class and the name of the first element:

     E        1
          identity                                               
     2C3      2    3
          120 deg rotation - cart. axis [-1,-1,-1]               
     3s_v     4    5    6
          inv. 180 deg rotation - cart. axis [1,-1,0]            

   Cartesian axes

     site n.     atom                  positions (alat units)
         1           Zn  tau(   1) = (   0.0000000   0.0000000   0.0000000  )
         2           Zn  tau(   2) = (   0.0000000   0.2500000   0.2500000  )
         3           Zn  tau(   3) = (   0.2500000   0.0000000   0.2500000  )
         4           Zn  tau(   4) = (   0.2500000   0.2500000   0.0000000  )
         5           S   tau(   5) = (   0.1250000   0.3750000   0.3750000  )
         6           S   tau(   6) = (   0.1250000   0.1250000   0.1250000  )
         7           S   tau(   7) = (   0.3750000   0.3750000   0.1250000  )
         8           S   tau(   8) = (   0.3750000   0.1250000   0.3750000  )
         9           Zn  tau(   9) = (   0.0000000   0.0000000   0.5000000  )
        10           Zn  tau(  10) = (   0.0000000   0.2500000   0.7500000  )
        11           Zn  tau(  11) = (   0.2500000   0.0000000   0.7500000  )
        12           Zn  tau(  12) = (   0.2500000   0.2500000   0.5000000  )
        13           S   tau(  13) = (   0.1250000   0.3750000   0.8750000  )
        14           S   tau(  14) = (   0.1250000   0.1250000   0.6250000  )
        15           S   tau(  15) = (   0.3750000   0.3750000   0.6250000  )
        16           S   tau(  16) = (   0.3750000   0.1250000   0.8750000  )
        17           Zn  tau(  17) = (   0.0000000   0.5000000   0.0000000  )
        18           Zn  tau(  18) = (   0.0000000   0.7500000   0.2500000  )
        19           Zn  tau(  19) = (   0.2500000   0.5000000   0.2500000  )
        20           Zn  tau(  20) = (   0.2500000   0.7500000   0.0000000  )
        21           S   tau(  21) = (   0.1250000   0.8750000   0.3750000  )
        22           S   tau(  22) = (   0.1250000   0.6250000   0.1250000  )
        23           S   tau(  23) = (   0.3750000   0.8750000   0.1250000  )
        24           S   tau(  24) = (   0.3750000   0.6250000   0.3750000  )
        25           Zn  tau(  25) = (   0.0000000   0.5000000   0.5000000  )
        26           Zn  tau(  26) = (   0.0000000   0.7500000   0.7500000  )
        27           Zn  tau(  27) = (   0.2500000   0.5000000   0.7500000  )
        28           Zn  tau(  28) = (   0.2500000   0.7500000   0.5000000  )
        29           S   tau(  29) = (   0.1250000   0.8750000   0.8750000  )
        30           S   tau(  30) = (   0.1250000   0.6250000   0.6250000  )
        31           S   tau(  31) = (   0.3750000   0.8750000   0.6250000  )
        32           S   tau(  32) = (   0.3750000   0.6250000   0.8750000  )
        33           Zn  tau(  33) = (   0.5000000   0.0000000   0.0000000  )
        34           Zn  tau(  34) = (   0.5000000   0.2500000   0.2500000  )
        35           Zn  tau(  35) = (   0.7500000   0.0000000   0.2500000  )
        36           Zn  tau(  36) = (   0.7500000   0.2500000   0.0000000  )
        37           S   tau(  37) = (   0.6250000   0.3750000   0.3750000  )
        38           S   tau(  38) = (   0.6250000   0.1250000   0.1250000  )
        39           S   tau(  39) = (   0.8750000   0.3750000   0.1250000  )
        40           S   tau(  40) = (   0.8750000   0.1250000   0.3750000  )
        41           Zn  tau(  41) = (   0.5000000   0.0000000   0.5000000  )
        42           Zn  tau(  42) = (   0.5000000   0.2500000   0.7500000  )
        43           Zn  tau(  43) = (   0.7500000   0.0000000   0.7500000  )
        44           Zn  tau(  44) = (   0.7500000   0.2500000   0.5000000  )
        45           S   tau(  45) = (   0.6250000   0.3750000   0.8750000  )
        46           S   tau(  46) = (   0.6250000   0.1250000   0.6250000  )
        47           S   tau(  47) = (   0.8750000   0.3750000   0.6250000  )
        48           S   tau(  48) = (   0.8750000   0.1250000   0.8750000  )
        49           Zn  tau(  49) = (   0.5000000   0.5000000   0.0000000  )
        50           Zn  tau(  50) = (   0.5000000   0.7500000   0.2500000  )
        51           Zn  tau(  51) = (   0.7500000   0.5000000   0.2500000  )
        52           Zn  tau(  52) = (   0.7500000   0.7500000   0.0000000  )
        53           S   tau(  53) = (   0.6250000   0.8750000   0.3750000  )
        54           S   tau(  54) = (   0.6250000   0.6250000   0.1250000  )
        55           S   tau(  55) = (   0.8750000   0.8750000   0.1250000  )
        56           S   tau(  56) = (   0.8750000   0.6250000   0.3750000  )
        57           Fe  tau(  57) = (   0.5000000   0.5000000   0.5000000  )
        58           Zn  tau(  58) = (   0.5000000   0.7500000   0.7500000  )
        59           Zn  tau(  59) = (   0.7500000   0.5000000   0.7500000  )
        60           Zn  tau(  60) = (   0.7500000   0.7500000   0.5000000  )
        61           S   tau(  61) = (   0.6250000   0.8750000   0.8750000  )
        62           S   tau(  62) = (   0.8750000   0.8750000   0.6250000  )
        63           S   tau(  63) = (   0.8750000   0.6250000   0.8750000  )

   Crystallographic axes

     site n.     atom                  positions (cryst. coord.)
         1           Zn  tau(   1) = (  0.0000000  0.0000000  0.0000000  )
         2           Zn  tau(   2) = (  0.0000000  0.2500000  0.2500000  )
         3           Zn  tau(   3) = (  0.2500000  0.0000000  0.2500000  )
         4           Zn  tau(   4) = (  0.2500000  0.2500000  0.0000000  )
         5           S   tau(   5) = (  0.1250000  0.3750000  0.3750000  )
         6           S   tau(   6) = (  0.1250000  0.1250000  0.1250000  )
         7           S   tau(   7) = (  0.3750000  0.3750000  0.1250000  )
         8           S   tau(   8) = (  0.3750000  0.1250000  0.3750000  )
         9           Zn  tau(   9) = (  0.0000000  0.0000000  0.5000000  )
        10           Zn  tau(  10) = (  0.0000000  0.2500000  0.7500000  )
        11           Zn  tau(  11) = (  0.2500000  0.0000000  0.7500000  )
        12           Zn  tau(  12) = (  0.2500000  0.2500000  0.5000000  )
        13           S   tau(  13) = (  0.1250000  0.3750000  0.8750000  )
        14           S   tau(  14) = (  0.1250000  0.1250000  0.6250000  )
        15           S   tau(  15) = (  0.3750000  0.3750000  0.6250000  )
        16           S   tau(  16) = (  0.3750000  0.1250000  0.8750000  )
        17           Zn  tau(  17) = (  0.0000000  0.5000000  0.0000000  )
        18           Zn  tau(  18) = (  0.0000000  0.7500000  0.2500000  )
        19           Zn  tau(  19) = (  0.2500000  0.5000000  0.2500000  )
        20           Zn  tau(  20) = (  0.2500000  0.7500000  0.0000000  )
        21           S   tau(  21) = (  0.1250000  0.8750000  0.3750000  )
        22           S   tau(  22) = (  0.1250000  0.6250000  0.1250000  )
        23           S   tau(  23) = (  0.3750000  0.8750000  0.1250000  )
        24           S   tau(  24) = (  0.3750000  0.6250000  0.3750000  )
        25           Zn  tau(  25) = (  0.0000000  0.5000000  0.5000000  )
        26           Zn  tau(  26) = (  0.0000000  0.7500000  0.7500000  )
        27           Zn  tau(  27) = (  0.2500000  0.5000000  0.7500000  )
        28           Zn  tau(  28) = (  0.2500000  0.7500000  0.5000000  )
        29           S   tau(  29) = (  0.1250000  0.8750000  0.8750000  )
        30           S   tau(  30) = (  0.1250000  0.6250000  0.6250000  )
        31           S   tau(  31) = (  0.3750000  0.8750000  0.6250000  )
        32           S   tau(  32) = (  0.3750000  0.6250000  0.8750000  )
        33           Zn  tau(  33) = (  0.5000000  0.0000000  0.0000000  )
        34           Zn  tau(  34) = (  0.5000000  0.2500000  0.2500000  )
        35           Zn  tau(  35) = (  0.7500000  0.0000000  0.2500000  )
        36           Zn  tau(  36) = (  0.7500000  0.2500000  0.0000000  )
        37           S   tau(  37) = (  0.6250000  0.3750000  0.3750000  )
        38           S   tau(  38) = (  0.6250000  0.1250000  0.1250000  )
        39           S   tau(  39) = (  0.8750000  0.3750000  0.1250000  )
        40           S   tau(  40) = (  0.8750000  0.1250000  0.3750000  )
        41           Zn  tau(  41) = (  0.5000000  0.0000000  0.5000000  )
        42           Zn  tau(  42) = (  0.5000000  0.2500000  0.7500000  )
        43           Zn  tau(  43) = (  0.7500000  0.0000000  0.7500000  )
        44           Zn  tau(  44) = (  0.7500000  0.2500000  0.5000000  )
        45           S   tau(  45) = (  0.6250000  0.3750000  0.8750000  )
        46           S   tau(  46) = (  0.6250000  0.1250000  0.6250000  )
        47           S   tau(  47) = (  0.8750000  0.3750000  0.6250000  )
        48           S   tau(  48) = (  0.8750000  0.1250000  0.8750000  )
        49           Zn  tau(  49) = (  0.5000000  0.5000000  0.0000000  )
        50           Zn  tau(  50) = (  0.5000000  0.7500000  0.2500000  )
        51           Zn  tau(  51) = (  0.7500000  0.5000000  0.2500000  )
        52           Zn  tau(  52) = (  0.7500000  0.7500000  0.0000000  )
        53           S   tau(  53) = (  0.6250000  0.8750000  0.3750000  )
        54           S   tau(  54) = (  0.6250000  0.6250000  0.1250000  )
        55           S   tau(  55) = (  0.8750000  0.8750000  0.1250000  )
        56           S   tau(  56) = (  0.8750000  0.6250000  0.3750000  )
        57           Fe  tau(  57) = (  0.5000000  0.5000000  0.5000000  )
        58           Zn  tau(  58) = (  0.5000000  0.7500000  0.7500000  )
        59           Zn  tau(  59) = (  0.7500000  0.5000000  0.7500000  )
        60           Zn  tau(  60) = (  0.7500000  0.7500000  0.5000000  )
        61           S   tau(  61) = (  0.6250000  0.8750000  0.8750000  )
        62           S   tau(  62) = (  0.8750000  0.8750000  0.6250000  )
        63           S   tau(  63) = (  0.8750000  0.6250000  0.8750000  )

     number of k points=    13  Gaussian smearing, width (Ry)=  0.0010
                       cart. coord. in units 2pi/alat
        k(    1) = (   0.0000000   0.0000000   0.0000000), wk =   0.0156250
        k(    2) = (   0.0000000   0.0000000   0.2500000), wk =   0.0937500
        k(    3) = (   0.0000000   0.0000000  -0.5000000), wk =   0.0468750
        k(    4) = (   0.0000000   0.2500000   0.2500000), wk =   0.0937500
        k(    5) = (   0.0000000   0.2500000  -0.5000000), wk =   0.1875000
        k(    6) = (   0.0000000  -0.5000000  -0.5000000), wk =   0.0468750
        k(    7) = (   0.2500000   0.2500000   0.2500000), wk =   0.0312500
        k(    8) = (   0.2500000   0.2500000  -0.5000000), wk =   0.0937500
        k(    9) = (   0.2500000  -0.5000000  -0.5000000), wk =   0.0937500
        k(   10) = (  -0.5000000  -0.5000000  -0.5000000), wk =   0.0156250
        k(   11) = (  -0.2500000   0.0000000   0.2500000), wk =   0.0937500
        k(   12) = (   0.2500000  -0.2500000   0.2500000), wk =   0.0937500
        k(   13) = (   0.2500000  -0.2500000  -0.5000000), wk =   0.0937500

                       cryst. coord.
        k(    1) = (   0.0000000   0.0000000   0.0000000), wk =   0.0156250
        k(    2) = (   0.0000000   0.0000000   0.2500000), wk =   0.0937500
        k(    3) = (   0.0000000   0.0000000  -0.5000000), wk =   0.0468750
        k(    4) = (   0.0000000   0.2500000   0.2500000), wk =   0.0937500
        k(    5) = (   0.0000000   0.2500000  -0.5000000), wk =   0.1875000
        k(    6) = (   0.0000000  -0.5000000  -0.5000000), wk =   0.0468750
        k(    7) = (   0.2500000   0.2500000   0.2500000), wk =   0.0312500
        k(    8) = (   0.2500000   0.2500000  -0.5000000), wk =   0.0937500
        k(    9) = (   0.2500000  -0.5000000  -0.5000000), wk =   0.0937500
        k(   10) = (  -0.5000000  -0.5000000  -0.5000000), wk =   0.0156250
        k(   11) = (  -0.2500000   0.0000000   0.2500000), wk =   0.0937500
        k(   12) = (   0.2500000  -0.2500000   0.2500000), wk =   0.0937500
        k(   13) = (   0.2500000  -0.2500000  -0.5000000), wk =   0.0937500

     Dense  grid:  2160009 G-vectors     FFT dimensions: ( 162, 162, 162)

     Dynamical RAM for                 wfc:      12.65 MB

     Dynamical RAM for     wfc (w. buffer):      88.55 MB

     Dynamical RAM for           str. fact:       0.88 MB

     Dynamical RAM for           local pot:       0.00 MB

     Dynamical RAM for          nlocal pot:      41.70 MB

     Dynamical RAM for                qrad:       5.90 MB

     Dynamical RAM for          rho,v,vnew:       4.17 MB

     Dynamical RAM for               rhoin:       1.39 MB

     Dynamical RAM for            rho*nmix:       9.42 MB

     Dynamical RAM for           G-vectors:       1.25 MB

     Dynamical RAM for          h,s,v(r/c):       2.40 MB

     Dynamical RAM for          <psi|beta>:       5.95 MB

     Dynamical RAM for                 psi:      25.30 MB

     Dynamical RAM for                hpsi:      25.30 MB

     Dynamical RAM for                spsi:      25.30 MB

     Dynamical RAM for      wfcinit/wfcrot:      34.28 MB

     Dynamical RAM for           addusdens:      13.30 MB

     Dynamical RAM for          addusforce:      16.84 MB

     Dynamical RAM for         addusstress:      12.15 MB

     Estimated static dynamical RAM per process >     147.42 MB

     Estimated max dynamical RAM per process >     241.09 MB

     Estimated total dynamical RAM >     127.73 GB
     Generating pointlists ...
     new r_m :   0.0893 (alat units)  1.8370 (a.u.) for type    1
     new r_m :   0.0893 (alat units)  1.8370 (a.u.) for type    2
     new r_m :   0.0893 (alat units)  1.8370 (a.u.) for type    3

     Initial potential from superposition of free atoms

     starting charge     573.8831, renormalised to     573.0000
     Starting wfcs are  413 randomized atomic wfcs
     Checking if some PAW data can be deallocated... 
       PAW data deallocated on  284 nodes for type:  1
       PAW data deallocated on  284 nodes for type:  2
       PAW data deallocated on  552 nodes for type:  3

     total cpu time spent up to now is       15.5 secs

     Self-consistent Calculation

     iteration #  1     ecut=   150.00 Ry     beta= 0.70
     Davidson diagonalization with overlap

---- Real-time Memory Report at c_bands before calling an iterative solver
          1359 MiB given to the printing process from OS
             0 MiB allocation reported by mallinfo(arena+hblkhd)
        205180 MiB available memory on the node where the printing process lives
------------------
     ethr =  1.00E-02,  avg # of iterations =  4.1

     Threshold (ethr) on eigenvalues was too large:
     Diagonalizing with lowered threshold

     Davidson diagonalization with overlap

---- Real-time Memory Report at c_bands before calling an iterative solver
          1469 MiB given to the printing process from OS
             0 MiB allocation reported by mallinfo(arena+hblkhd)
        202086 MiB available memory on the node where the printing process lives
------------------
     ethr =  5.10E-04,  avg # of iterations =  2.0

     total cpu time spent up to now is       64.7 secs

     total energy              =   -9942.54581896 Ry
     estimated scf accuracy    <       2.84175069 Ry

     total magnetization       =     3.00 Bohr mag/cell
     absolute magnetization    =     3.44 Bohr mag/cell

     iteration #  2     ecut=   150.00 Ry     beta= 0.70
     Davidson diagonalization with overlap

---- Real-time Memory Report at c_bands before calling an iterative solver
          1480 MiB given to the printing process from OS
             0 MiB allocation reported by mallinfo(arena+hblkhd)
        202057 MiB available memory on the node where the printing process lives
------------------
     ethr =  4.96E-04,  avg # of iterations = 10.2

     negative rho (up, down):  0.000E+00 2.159E-06

     total cpu time spent up to now is      102.9 secs

     total energy              =   -9939.58350047 Ry
     estimated scf accuracy    <      34.82837166 Ry

     total magnetization       =     0.16 Bohr mag/cell
     absolute magnetization    =     0.42 Bohr mag/cell

     iteration #  3     ecut=   150.00 Ry     beta= 0.70
     Davidson diagonalization with overlap

---- Real-time Memory Report at c_bands before calling an iterative solver
          1502 MiB given to the printing process from OS
             0 MiB allocation reported by mallinfo(arena+hblkhd)
        201505 MiB available memory on the node where the printing process lives
------------------
     ethr =  4.96E-04,  avg # of iterations =  6.1

     total cpu time spent up to now is      140.0 secs

     total energy              =   -9942.70096973 Ry
     estimated scf accuracy    <      16.17650608 Ry

     total magnetization       =     0.03 Bohr mag/cell
     absolute magnetization    =     0.61 Bohr mag/cell

     iteration #  4     ecut=   150.00 Ry     beta= 0.70
     Davidson diagonalization with overlap

---- Real-time Memory Report at c_bands before calling an iterative solver
          1519 MiB given to the printing process from OS
             0 MiB allocation reported by mallinfo(arena+hblkhd)
        201274 MiB available memory on the node where the printing process lives
------------------
     ethr =  4.96E-04,  avg # of iterations =  3.0

     total cpu time spent up to now is      164.5 secs

     total energy              =   -9943.50871607 Ry
     estimated scf accuracy    <       0.99824405 Ry

     total magnetization       =     3.00 Bohr mag/cell
     absolute magnetization    =     3.26 Bohr mag/cell

     iteration #  5     ecut=   150.00 Ry     beta= 0.70
     Davidson diagonalization with overlap

---- Real-time Memory Report at c_bands before calling an iterative solver
          1528 MiB given to the printing process from OS
             0 MiB allocation reported by mallinfo(arena+hblkhd)
        201123 MiB available memory on the node where the printing process lives
------------------
     ethr =  1.74E-04,  avg # of iterations =  2.4

     negative rho (up, down):  0.000E+00 3.799E-05

     total cpu time spent up to now is      189.0 secs

     total energy              =   -9943.67923237 Ry
     estimated scf accuracy    <       0.07726195 Ry

     total magnetization       =     3.38 Bohr mag/cell
     absolute magnetization    =     3.83 Bohr mag/cell

     iteration #  6     ecut=   150.00 Ry     beta= 0.70
     Davidson diagonalization with overlap

---- Real-time Memory Report at c_bands before calling an iterative solver
          1538 MiB given to the printing process from OS
             0 MiB allocation reported by mallinfo(arena+hblkhd)
        200917 MiB available memory on the node where the printing process lives
------------------
     c_bands:  2 eigenvalues not converged
     c_bands:  2 eigenvalues not converged
     ethr =  1.35E-05,  avg # of iterations = 16.3

     negative rho (up, down):  0.000E+00 9.139E-05

     total cpu time spent up to now is      231.7 secs

     total energy              =   -9943.69775062 Ry
     estimated scf accuracy    <       0.31740020 Ry

     total magnetization       =     4.70 Bohr mag/cell
     absolute magnetization    =     4.72 Bohr mag/cell

     iteration #  7     ecut=   150.00 Ry     beta= 0.70
     Davidson diagonalization with overlap

---- Real-time Memory Report at c_bands before calling an iterative solver
          1567 MiB given to the printing process from OS
             0 MiB allocation reported by mallinfo(arena+hblkhd)
        200629 MiB available memory on the node where the printing process lives
------------------
     ethr =  1.35E-05,  avg # of iterations =  2.7

     negative rho (up, down):  0.000E+00 1.684E-04

     total cpu time spent up to now is      254.5 secs

     total energy              =   -9943.70469021 Ry
     estimated scf accuracy    <       0.01509153 Ry

     total magnetization       =     3.64 Bohr mag/cell
     absolute magnetization    =     3.92 Bohr mag/cell

     iteration #  8     ecut=   150.00 Ry     beta= 0.70
     Davidson diagonalization with overlap

---- Real-time Memory Report at c_bands before calling an iterative solver
          1575 MiB given to the printing process from OS
             0 MiB allocation reported by mallinfo(arena+hblkhd)
        200448 MiB available memory on the node where the printing process lives
------------------
     c_bands:  1 eigenvalues not converged
     ethr =  2.63E-06,  avg # of iterations =  8.2

     negative rho (up, down):  0.000E+00 2.324E-04

     total cpu time spent up to now is      286.9 secs

     total energy              =   -9943.70576193 Ry
     estimated scf accuracy    <       0.26293821 Ry

     total magnetization       =     4.94 Bohr mag/cell
     absolute magnetization    =     4.96 Bohr mag/cell

     iteration #  9     ecut=   150.00 Ry     beta= 0.70
     Davidson diagonalization with overlap

---- Real-time Memory Report at c_bands before calling an iterative solver
          1588 MiB given to the printing process from OS
             0 MiB allocation reported by mallinfo(arena+hblkhd)
        200250 MiB available memory on the node where the printing process lives
------------------
     ethr =  2.63E-06,  avg # of iterations =  2.9

     negative rho (up, down):  0.000E+00 2.557E-04

     total cpu time spent up to now is      309.8 secs

     total energy              =   -9943.70909528 Ry
     estimated scf accuracy    <       0.01884651 Ry

     total magnetization       =     4.37 Bohr mag/cell
     absolute magnetization    =     4.40 Bohr mag/cell

     iteration # 10     ecut=   150.00 Ry     beta= 0.70
     Davidson diagonalization with overlap

---- Real-time Memory Report at c_bands before calling an iterative solver
          1595 MiB given to the printing process from OS
             0 MiB allocation reported by mallinfo(arena+hblkhd)
        200063 MiB available memory on the node where the printing process lives
------------------
     ethr =  2.63E-06,  avg # of iterations =  2.0

     negative rho (up, down):  0.000E+00 2.641E-04

     total cpu time spent up to now is      331.4 secs

     total energy              =   -9943.70983116 Ry
     estimated scf accuracy    <       0.01110160 Ry

     total magnetization       =     4.43 Bohr mag/cell
     absolute magnetization    =     4.46 Bohr mag/cell

     iteration # 11     ecut=   150.00 Ry     beta= 0.70
     Davidson diagonalization with overlap

---- Real-time Memory Report at c_bands before calling an iterative solver
          1602 MiB given to the printing process from OS
             0 MiB allocation reported by mallinfo(arena+hblkhd)
        199870 MiB available memory on the node where the printing process lives
------------------
     ethr =  1.94E-06,  avg # of iterations =  1.8

     negative rho (up, down):  0.000E+00 2.731E-04

     total cpu time spent up to now is      351.9 secs

     total energy              =   -9943.71060350 Ry
     estimated scf accuracy    <       0.00809262 Ry

     total magnetization       =     4.45 Bohr mag/cell
     absolute magnetization    =     4.49 Bohr mag/cell

     iteration # 12     ecut=   150.00 Ry     beta= 0.70
     Davidson diagonalization with overlap

---- Real-time Memory Report at c_bands before calling an iterative solver
          1606 MiB given to the printing process from OS
             0 MiB allocation reported by mallinfo(arena+hblkhd)
        199897 MiB available memory on the node where the printing process lives
------------------
     ethr =  1.41E-06,  avg # of iterations =  2.0

     negative rho (up, down):  0.000E+00 2.727E-04

     total cpu time spent up to now is      373.6 secs

     total energy              =   -9943.71062392 Ry
     estimated scf accuracy    <       0.05112385 Ry

     total magnetization       =     4.96 Bohr mag/cell
     absolute magnetization    =     4.98 Bohr mag/cell

     iteration # 13     ecut=   150.00 Ry     beta= 0.70
     Davidson diagonalization with overlap

---- Real-time Memory Report at c_bands before calling an iterative solver
          1610 MiB given to the printing process from OS
             0 MiB allocation reported by mallinfo(arena+hblkhd)
        199892 MiB available memory on the node where the printing process lives
------------------
     ethr =  1.41E-06,  avg # of iterations =  1.9

     negative rho (up, down):  0.000E+00 2.711E-04

     total cpu time spent up to now is      394.6 secs

     total energy              =   -9943.71061988 Ry
     estimated scf accuracy    <       0.04485891 Ry

     total magnetization       =     4.85 Bohr mag/cell
     absolute magnetization    =     4.88 Bohr mag/cell

     iteration # 14     ecut=   150.00 Ry     beta= 0.70
     Davidson diagonalization with overlap

---- Real-time Memory Report at c_bands before calling an iterative solver
          1614 MiB given to the printing process from OS
             0 MiB allocation reported by mallinfo(arena+hblkhd)
        199867 MiB available memory on the node where the printing process lives
------------------
     ethr =  1.41E-06,  avg # of iterations =  2.0

     negative rho (up, down):  0.000E+00 2.634E-04

     total cpu time spent up to now is      415.7 secs

     total energy              =   -9943.70147604 Ry
     estimated scf accuracy    <       0.06848876 Ry

     total magnetization       =     4.91 Bohr mag/cell
     absolute magnetization    =     4.93 Bohr mag/cell

     iteration # 15     ecut=   150.00 Ry     beta= 0.70
     Davidson diagonalization with overlap

---- Real-time Memory Report at c_bands before calling an iterative solver
          1618 MiB given to the printing process from OS
             0 MiB allocation reported by mallinfo(arena+hblkhd)
        199890 MiB available memory on the node where the printing process lives
------------------
     ethr =  1.41E-06,  avg # of iterations =  4.8

     negative rho (up, down):  0.000E+00 2.603E-04

     total cpu time spent up to now is      439.3 secs

     total energy              =   -9943.70810389 Ry
     estimated scf accuracy    <       0.00568450 Ry

     total magnetization       =     3.42 Bohr mag/cell
     absolute magnetization    =     4.14 Bohr mag/cell

     iteration # 16     ecut=   150.00 Ry     beta= 0.70
     Davidson diagonalization with overlap

---- Real-time Memory Report at c_bands before calling an iterative solver
          1624 MiB given to the printing process from OS
             0 MiB allocation reported by mallinfo(arena+hblkhd)
        199843 MiB available memory on the node where the printing process lives
------------------
     ethr =  9.92E-07,  avg # of iterations =  3.3

     negative rho (up, down):  0.000E+00 2.612E-04

     total cpu time spent up to now is      461.5 secs

     total energy              =   -9943.70788656 Ry
     estimated scf accuracy    <       0.00311320 Ry

     total magnetization       =     3.25 Bohr mag/cell
     absolute magnetization    =     4.27 Bohr mag/cell

     iteration # 17     ecut=   150.00 Ry     beta= 0.70
     Davidson diagonalization with overlap

---- Real-time Memory Report at c_bands before calling an iterative solver
          1628 MiB given to the printing process from OS
             0 MiB allocation reported by mallinfo(arena+hblkhd)
        199865 MiB available memory on the node where the printing process lives
------------------
     ethr =  5.43E-07,  avg # of iterations =  2.3

     negative rho (up, down):  0.000E+00 2.626E-04

     total cpu time spent up to now is      483.4 secs

     total energy              =   -9943.70847704 Ry
     estimated scf accuracy    <       0.00082205 Ry

     total magnetization       =     3.61 Bohr mag/cell
     absolute magnetization    =     4.22 Bohr mag/cell

     iteration # 18     ecut=   150.00 Ry     beta= 0.70
     Davidson diagonalization with overlap

---- Real-time Memory Report at c_bands before calling an iterative solver
          1633 MiB given to the printing process from OS
             0 MiB allocation reported by mallinfo(arena+hblkhd)
        199844 MiB available memory on the node where the printing process lives
------------------
     ethr =  1.43E-07,  avg # of iterations =  3.3

     negative rho (up, down):  0.000E+00 2.674E-04

     total cpu time spent up to now is      505.7 secs

     total energy              =   -9943.70767548 Ry
     estimated scf accuracy    <       0.00129419 Ry

     total magnetization       =     3.45 Bohr mag/cell
     absolute magnetization    =     4.19 Bohr mag/cell

     iteration # 19     ecut=   150.00 Ry     beta= 0.70
     Davidson diagonalization with overlap

---- Real-time Memory Report at c_bands before calling an iterative solver
          1637 MiB given to the printing process from OS
             0 MiB allocation reported by mallinfo(arena+hblkhd)
        199805 MiB available memory on the node where the printing process lives
------------------
     ethr =  1.43E-07,  avg # of iterations =  5.1

     negative rho (up, down):  0.000E+00 2.653E-04

     total cpu time spent up to now is      529.4 secs

     total energy              =   -9943.70812014 Ry
     estimated scf accuracy    <       0.00730822 Ry

     total magnetization       =     3.99 Bohr mag/cell
     absolute magnetization    =     4.19 Bohr mag/cell

     iteration # 20     ecut=   150.00 Ry     beta= 0.70
     Davidson diagonalization with overlap

---- Real-time Memory Report at c_bands before calling an iterative solver
          1642 MiB given to the printing process from OS
             0 MiB allocation reported by mallinfo(arena+hblkhd)
        199811 MiB available memory on the node where the printing process lives
------------------
     ethr =  1.43E-07,  avg # of iterations =  3.8

     negative rho (up, down):  0.000E+00 2.672E-04

     total cpu time spent up to now is      551.4 secs

     total energy              =   -9943.70836193 Ry
     estimated scf accuracy    <       0.00090884 Ry

     total magnetization       =     3.57 Bohr mag/cell
     absolute magnetization    =     4.14 Bohr mag/cell

     iteration # 21     ecut=   150.00 Ry     beta= 0.70
     Davidson diagonalization with overlap

---- Real-time Memory Report at c_bands before calling an iterative solver
          1646 MiB given to the printing process from OS
             0 MiB allocation reported by mallinfo(arena+hblkhd)
        199815 MiB available memory on the node where the printing process lives
------------------
     ethr =  1.43E-07,  avg # of iterations =  2.0

     negative rho (up, down):  0.000E+00 2.674E-04

     total cpu time spent up to now is      573.4 secs

     total energy              =   -9943.70841849 Ry
     estimated scf accuracy    <       0.00026161 Ry

     total magnetization       =     3.75 Bohr mag/cell
     absolute magnetization    =     4.15 Bohr mag/cell

     iteration # 22     ecut=   150.00 Ry     beta= 0.70
     Davidson diagonalization with overlap

---- Real-time Memory Report at c_bands before calling an iterative solver
          1649 MiB given to the printing process from OS
             0 MiB allocation reported by mallinfo(arena+hblkhd)
        199808 MiB available memory on the node where the printing process lives
------------------
     ethr =  4.57E-08,  avg # of iterations =  1.9

     negative rho (up, down):  0.000E+00 2.679E-04

     total cpu time spent up to now is      593.9 secs

     total energy              =   -9943.70842393 Ry
     estimated scf accuracy    <       0.00002943 Ry

     total magnetization       =     3.67 Bohr mag/cell
     absolute magnetization    =     4.14 Bohr mag/cell

     iteration # 23     ecut=   150.00 Ry     beta= 0.70
     Davidson diagonalization with overlap

---- Real-time Memory Report at c_bands before calling an iterative solver
          1652 MiB given to the printing process from OS
             0 MiB allocation reported by mallinfo(arena+hblkhd)
        199776 MiB available memory on the node where the printing process lives
------------------
     ethr =  5.14E-09,  avg # of iterations =  3.8

     negative rho (up, down):  0.000E+00 2.679E-04

     total cpu time spent up to now is      616.1 secs

     total energy              =   -9943.70842595 Ry
     estimated scf accuracy    <       0.00000185 Ry

     total magnetization       =     3.70 Bohr mag/cell
     absolute magnetization    =     4.14 Bohr mag/cell

     iteration # 24     ecut=   150.00 Ry     beta= 0.70
     Davidson diagonalization with overlap

---- Real-time Memory Report at c_bands before calling an iterative solver
          1656 MiB given to the printing process from OS
             0 MiB allocation reported by mallinfo(arena+hblkhd)
        199792 MiB available memory on the node where the printing process lives
------------------
     ethr =  3.24E-10,  avg # of iterations =  5.2

     negative rho (up, down):  0.000E+00 2.681E-04

     total cpu time spent up to now is      640.5 secs

     total energy              =   -9943.70842583 Ry
     estimated scf accuracy    <       0.00006486 Ry

     total magnetization       =     3.67 Bohr mag/cell
     absolute magnetization    =     4.14 Bohr mag/cell

     iteration # 25     ecut=   150.00 Ry     beta= 0.70
     Davidson diagonalization with overlap

---- Real-time Memory Report at c_bands before calling an iterative solver
          1661 MiB given to the printing process from OS
             0 MiB allocation reported by mallinfo(arena+hblkhd)
        199760 MiB available memory on the node where the printing process lives
------------------
     ethr =  3.24E-10,  avg # of iterations =  2.4

     negative rho (up, down):  0.000E+00 2.682E-04

     total cpu time spent up to now is      662.3 secs

     total energy              =   -9943.70842628 Ry
     estimated scf accuracy    <       0.00000962 Ry

     total magnetization       =     3.69 Bohr mag/cell
     absolute magnetization    =     4.14 Bohr mag/cell

     iteration # 26     ecut=   150.00 Ry     beta= 0.70
     Davidson diagonalization with overlap

---- Real-time Memory Report at c_bands before calling an iterative solver
          1664 MiB given to the printing process from OS
             0 MiB allocation reported by mallinfo(arena+hblkhd)
        199759 MiB available memory on the node where the printing process lives
------------------
     ethr =  3.24E-10,  avg # of iterations =  1.9

     negative rho (up, down):  0.000E+00 2.682E-04

     total cpu time spent up to now is      683.0 secs

     total energy              =   -9943.70842624 Ry
     estimated scf accuracy    <       0.00000634 Ry

     total magnetization       =     3.69 Bohr mag/cell
     absolute magnetization    =     4.14 Bohr mag/cell

     iteration # 27     ecut=   150.00 Ry     beta= 0.70
     Davidson diagonalization with overlap

---- Real-time Memory Report at c_bands before calling an iterative solver
          1666 MiB given to the printing process from OS
             0 MiB allocation reported by mallinfo(arena+hblkhd)
        199753 MiB available memory on the node where the printing process lives
------------------
     ethr =  3.24E-10,  avg # of iterations =  1.8

     negative rho (up, down):  0.000E+00 2.682E-04

     total cpu time spent up to now is      703.6 secs

     total energy              =   -9943.70842628 Ry
     estimated scf accuracy    <       0.00000083 Ry

     total magnetization       =     3.70 Bohr mag/cell
     absolute magnetization    =     4.14 Bohr mag/cell

     iteration # 28     ecut=   150.00 Ry     beta= 0.70
     Davidson diagonalization with overlap

---- Real-time Memory Report at c_bands before calling an iterative solver
          1669 MiB given to the printing process from OS
             0 MiB allocation reported by mallinfo(arena+hblkhd)
        199781 MiB available memory on the node where the printing process lives
------------------
     ethr =  1.45E-10,  avg # of iterations =  2.6

     negative rho (up, down):  0.000E+00 2.682E-04

     total cpu time spent up to now is      724.8 secs

     total energy              =   -9943.70842630 Ry
     estimated scf accuracy    <       0.00000016 Ry

     total magnetization       =     3.70 Bohr mag/cell
     absolute magnetization    =     4.14 Bohr mag/cell

     iteration # 29     ecut=   150.00 Ry     beta= 0.70
     Davidson diagonalization with overlap

---- Real-time Memory Report at c_bands before calling an iterative solver
          1672 MiB given to the printing process from OS
             0 MiB allocation reported by mallinfo(arena+hblkhd)
        199759 MiB available memory on the node where the printing process lives
------------------
     ethr =  2.81E-11,  avg # of iterations =  3.0

     negative rho (up, down):  0.000E+00 2.682E-04

     total cpu time spent up to now is      747.3 secs

     total energy              =   -9943.70842630 Ry
     estimated scf accuracy    <       0.00000016 Ry

     total magnetization       =     3.70 Bohr mag/cell
     absolute magnetization    =     4.14 Bohr mag/cell

     iteration # 30     ecut=   150.00 Ry     beta= 0.70
     Davidson diagonalization with overlap

---- Real-time Memory Report at c_bands before calling an iterative solver
          1675 MiB given to the printing process from OS
             0 MiB allocation reported by mallinfo(arena+hblkhd)
        199717 MiB available memory on the node where the printing process lives
------------------
     ethr =  2.74E-11,  avg # of iterations =  1.0

     negative rho (up, down):  0.000E+00 2.682E-04

     total cpu time spent up to now is      766.0 secs

     total energy              =   -9943.70842630 Ry
     estimated scf accuracy    <       0.00000017 Ry

     total magnetization       =     3.70 Bohr mag/cell
     absolute magnetization    =     4.14 Bohr mag/cell

     iteration # 31     ecut=   150.00 Ry     beta= 0.70
     Davidson diagonalization with overlap

---- Real-time Memory Report at c_bands before calling an iterative solver
          1677 MiB given to the printing process from OS
             0 MiB allocation reported by mallinfo(arena+hblkhd)
        199733 MiB available memory on the node where the printing process lives
------------------
     ethr =  2.74E-11,  avg # of iterations =  1.0

     negative rho (up, down):  0.000E+00 2.682E-04

     total cpu time spent up to now is      784.5 secs

     total energy              =   -9943.70842630 Ry
     estimated scf accuracy    <       0.00000004 Ry

     total magnetization       =     3.70 Bohr mag/cell
     absolute magnetization    =     4.14 Bohr mag/cell

     iteration # 32     ecut=   150.00 Ry     beta= 0.70
     Davidson diagonalization with overlap

---- Real-time Memory Report at c_bands before calling an iterative solver
          1678 MiB given to the printing process from OS
             0 MiB allocation reported by mallinfo(arena+hblkhd)
        199738 MiB available memory on the node where the printing process lives
------------------
     ethr =  6.20E-12,  avg # of iterations =  1.8

     negative rho (up, down):  0.000E+00 2.682E-04
 
     Magnetic moment per site  (integrated on atomic sphere of radius R)
     atom   1 (R=0.089)  charge= 10.1562  magn= -0.0001
     atom   2 (R=0.089)  charge= 10.1558  magn=  0.0001
     atom   3 (R=0.089)  charge= 10.1558  magn=  0.0001
     atom   4 (R=0.089)  charge= 10.1558  magn=  0.0001
     atom   5 (R=0.089)  charge=  3.9876  magn=  0.0009
     atom   6 (R=0.089)  charge=  3.9879  magn=  0.0002
     atom   7 (R=0.089)  charge=  3.9876  magn=  0.0009
     atom   8 (R=0.089)  charge=  3.9876  magn=  0.0009
     atom   9 (R=0.089)  charge= 10.1555  magn=  0.0007
     atom  10 (R=0.089)  charge= 10.1554  magn= -0.0006
     atom  11 (R=0.089)  charge= 10.1554  magn= -0.0006
     atom  12 (R=0.089)  charge= 10.1550  magn=  0.0034
     atom  13 (R=0.089)  charge=  3.9874  magn=  0.0043
     atom  14 (R=0.089)  charge=  3.9852  magn=  0.0006
     atom  15 (R=0.089)  charge=  3.9890  magn=  0.0532
     atom  16 (R=0.089)  charge=  3.9874  magn=  0.0043
     atom  17 (R=0.089)  charge= 10.1555  magn=  0.0007
     atom  18 (R=0.089)  charge= 10.1554  magn= -0.0006
     atom  19 (R=0.089)  charge= 10.1550  magn=  0.0034
     atom  20 (R=0.089)  charge= 10.1554  magn= -0.0006
     atom  21 (R=0.089)  charge=  3.9874  magn=  0.0043
     atom  22 (R=0.089)  charge=  3.9852  magn=  0.0006
     atom  23 (R=0.089)  charge=  3.9874  magn=  0.0043
     atom  24 (R=0.089)  charge=  3.9890  magn=  0.0532
     atom  25 (R=0.089)  charge= 10.1566  magn=  0.0000
     atom  26 (R=0.089)  charge= 10.1562  magn=  0.0001
     atom  27 (R=0.089)  charge= 10.1559  magn=  0.0051
     atom  28 (R=0.089)  charge= 10.1559  magn=  0.0051
     atom  29 (R=0.089)  charge=  3.9878  magn= -0.0001
     atom  30 (R=0.089)  charge=  3.9880  magn=  0.0013
     atom  31 (R=0.089)  charge=  3.9826  magn= -0.0032
     atom  32 (R=0.089)  charge=  3.9826  magn= -0.0032
     atom  33 (R=0.089)  charge= 10.1555  magn=  0.0007
     atom  34 (R=0.089)  charge= 10.1550  magn=  0.0034
     atom  35 (R=0.089)  charge= 10.1554  magn= -0.0006
     atom  36 (R=0.089)  charge= 10.1554  magn= -0.0006
     atom  37 (R=0.089)  charge=  3.9890  magn=  0.0532
     atom  38 (R=0.089)  charge=  3.9852  magn=  0.0006
     atom  39 (R=0.089)  charge=  3.9874  magn=  0.0043
     atom  40 (R=0.089)  charge=  3.9874  magn=  0.0043
     atom  41 (R=0.089)  charge= 10.1566  magn=  0.0000
     atom  42 (R=0.089)  charge= 10.1559  magn=  0.0051
     atom  43 (R=0.089)  charge= 10.1562  magn=  0.0001
     atom  44 (R=0.089)  charge= 10.1559  magn=  0.0051
     atom  45 (R=0.089)  charge=  3.9826  magn= -0.0032
     atom  46 (R=0.089)  charge=  3.9880  magn=  0.0013
     atom  47 (R=0.089)  charge=  3.9826  magn= -0.0032
     atom  48 (R=0.089)  charge=  3.9878  magn= -0.0001
     atom  49 (R=0.089)  charge= 10.1566  magn=  0.0000
     atom  50 (R=0.089)  charge= 10.1559  magn=  0.0051
     atom  51 (R=0.089)  charge= 10.1559  magn=  0.0051
     atom  52 (R=0.089)  charge= 10.1562  magn=  0.0001
     atom  53 (R=0.089)  charge=  3.9826  magn= -0.0032
     atom  54 (R=0.089)  charge=  3.9880  magn=  0.0013
     atom  55 (R=0.089)  charge=  3.9878  magn= -0.0001
     atom  56 (R=0.089)  charge=  3.9826  magn= -0.0032
     atom  57 (R=0.089)  charge= 13.9345  magn=  3.2120
     atom  58 (R=0.089)  charge= 10.1186  magn= -0.0041
     atom  59 (R=0.089)  charge= 10.1186  magn= -0.0041
     atom  60 (R=0.089)  charge= 10.1186  magn= -0.0041
     atom  61 (R=0.089)  charge=  3.9826  magn= -0.0029
     atom  62 (R=0.089)  charge=  3.9826  magn= -0.0029
     atom  63 (R=0.089)  charge=  3.9826  magn= -0.0029

     total cpu time spent up to now is      805.4 secs

     End of self-consistent calculation

 ------ SPIN UP ------------


          k = 0.0000 0.0000 0.0000 (269825 PWs)   bands (ev):

   -83.0823 -49.2168 -49.2168 -48.9739  -7.5473  -7.0619  -7.0619  -7.0593
    -7.0287  -7.0287  -6.9309  -6.8002  -6.8002  -6.7868  -6.7451  -6.7451
    -6.7356  -6.7010  -6.7010  -6.6967  -6.6757  -6.6757  -6.6265  -6.6247
    -6.6247  -6.6244  -6.4756  -6.4417  -6.4417  -6.3743  -6.3739  -6.3739
    -6.3223  -6.3223  -6.3066  -0.8973  -0.8973  -0.8896  -0.8777  -0.8599
    -0.8599  -0.8331  -0.8331  -0.8324  -0.8288  -0.7922  -0.7922  -0.7761
    -0.7761  -0.7729  -0.7659  -0.7659  -0.7369  -0.7261  -0.7162  -0.7162
    -0.6916  -0.6916  -0.6776  -0.6629  -0.6616  -0.6600  -0.6600  -0.6553
    -0.6525  -0.6525  -0.6434  -0.6434  -0.6376  -0.6375  -0.6375  -0.6337
    -0.6317  -0.6317  -0.6299  -0.6276  -0.6276  -0.6266  -0.6261  -0.6261
    -0.6224  -0.6224  -0.6209  -0.6182  -0.6127  -0.6127  -0.6091  -0.6077
    -0.6077  -0.5914  -0.5874  -0.5874  -0.5775  -0.5775  -0.5764  -0.5594
    -0.5539  -0.5539  -0.5395  -0.5395  -0.5299  -0.5141  -0.5141  -0.4996
    -0.4966  -0.4966  -0.4859  -0.4859  -0.4814  -0.4752  -0.4752  -0.4693
    -0.4626  -0.4603  -0.4603  -0.4555  -0.4555  -0.4543  -0.4517  -0.4455
    -0.4455  -0.4251  -0.4226  -0.4226  -0.3789  -0.3471  -0.3471  -0.3338
    -0.3338  -0.3329  -0.3305  -0.3264  -0.3264  -0.3255  -0.3192  -0.3178
    -0.3178  -0.3075  -0.3064  -0.3064  -0.3005  -0.3005  -0.2968  -0.2945
    -0.2945  -0.2923  -0.2891  -0.2891  -0.2871  -0.2811  -0.2811  -0.2805
    -0.2703  -0.2703  -0.2700  -0.2608  -0.2608  -0.2580  -0.2542  -0.2542
    -0.2522  -0.2500  -0.2500  -0.2307  -0.2287  -0.2287  -0.2227  -0.2227
    -0.2219  -0.1985  -0.1985  -0.1977  -0.1873  -0.1836  -0.1836  -0.1775
    -0.1749  -0.1749  -0.1302  -0.1302  -0.1010  -0.0944  -0.0944  -0.0671
     0.0462   0.0520   0.0520   0.0783   0.0879   0.0879   0.2726   0.3584
     0.3584   0.3625   0.9228   0.9228   0.9454   0.9831   0.9831   0.9980
     1.0521   1.0521   1.1141   1.2267   1.3640   1.3640   1.5393   1.5578
     1.5590   1.5590   1.5606   1.5606   1.7193   1.7193   1.8732   2.2094
     2.2094   2.5203   2.5203   2.6308   2.7799   2.7815   2.7872   2.7872
     2.8037   2.8037   2.8049   2.8591   2.8729   2.8729   2.9425   2.9425
     2.9434   2.9671   2.9671   2.9946   2.9946   2.9958   3.0101   3.0114
     3.0114   3.0616   3.1590   3.1590   3.1840   3.2219   3.2219   3.2731
     3.4036   3.4084   3.4084   3.5562   3.5562   3.7029   3.7029   3.8734
     4.2315   4.2347   4.2347   4.2525   4.2525   4.2528   4.2962   4.3461
     4.3461   4.3970   4.4052   4.4052   4.5112   4.5407   4.5407   4.5598
     4.5619   4.5836   4.5836   4.6293   4.6293   4.6332   4.6424   4.6424
     4.6482   4.6564   4.6564   4.9292   4.9292   5.3809   5.4299   5.4299
     6.1148   7.7789   8.3968   8.3968   8.7904   8.8054   8.8054   8.8629
     8.9597   8.9597   9.0217   9.2350   9.5838   9.5838   9.5896   9.8953
     9.8953  10.0213  10.0213  10.0335  10.0503  10.0503  10.0596  10.0803
    10.0836  10.0836  10.1872  10.2007  10.2069  10.2069  10.2233  10.2233
    10.2391  10.2391  10.2748  10.6404  10.6404  10.7102  11.1495  11.2310
    11.2310  11.2423  11.2423  11.3462  11.3584  11.3696  11.3696  11.7149
    11.7149  11.7488  11.8784  11.9083  11.9083  11.9165  12.0846  12.1001

     occupation numbers 
     1.0000   1.0000   1.0000   1.0000   1.0000   1.0000   1.0000   1.0000
     1.0000   1.0000   1.0000   1.0000   1.0000   1.0000   1.0000   1.0000
     1.0000   1.0000   1.0000   1.0000   1.0000   1.0000   1.0000   1.0000
     1.0000   1.0000   1.0000   1.0000   1.0000   1.0000   1.0000   1.0000
     1.0000   1.0000   1.0000   1.0000   1.0000   1.0000   1.0000   1.0000
     1.0000   1.0000   1.0000   1.0000   1.0000   1.0000   1.0000   1.0000
     1.0000   1.0000   1.0000   1.0000   1.0000   1.0000   1.0000   1.0000
     1.0000   1.0000   1.0000   1.0000   1.0000   1.0000   1.0000   1.0000
     1.0000   1.0000   1.0000   1.0000   1.0000   1.0000   1.0000   1.0000
     1.0000   1.0000   1.0000   1.0000   1.0000   1.0000   1.0000   1.0000
     1.0000   1.0000   1.0000   1.0000   1.0000   1.0000   1.0000   1.0000
     1.0000   1.0000   1.0000   1.0000   1.0000   1.0000   1.0000   1.0000
     1.0000   1.0000   1.0000   1.0000   1.0000   1.0000   1.0000   1.0000
     1.0000   1.0000   1.0000   1.0000   1.0000   1.0000   1.0000   1.0000
     1.0000   1.0000   1.0000   1.0000   1.0000   1.0000   1.0000   1.0000
     1.0000   1.0000   1.0000   1.0000   1.0000   1.0000   1.0000   1.0000
     1.0000   1.0000   1.0000   1.0000   1.0000   1.0000   1.0000   1.0000
     1.0000   1.0000   1.0000   1.0000   1.0000   1.0000   1.0000   1.0000
     1.0000   1.0000   1.0000   1.0000   1.0000   1.0000   1.0000   1.0000
     1.0000   1.0000   1.0000   1.0000   1.0000   1.0000   1.0000   1.0000
     1.0000   1.0000   1.0000   1.0000   1.0000   1.0000   1.0000   1.0000
     1.0000   1.0000   1.0000   1.0000   1.0000   1.0000   1.0000   1.0000
     1.0000   1.0000   1.0000   1.0000   1.0000   1.0000   1.0000   1.0000
     1.0000   1.0000   1.0000   1.0000   1.0000   1.0000   1.0000   1.0000
     1.0000   1.0000   1.0000   1.0000   1.0000   1.0000   1.0000   1.0000
     1.0000   1.0000   1.0000   1.0000   1.0000   1.0000   1.0000   1.0000
     1.0000   1.0000   1.0000   1.0000   1.0000   1.0000   1.0000   1.0000
     1.0000   1.0000   1.0000   1.0000   1.0000   1.0000   1.0000   1.0000
     1.0000   1.0000   1.0000   1.0000   1.0000   1.0000   1.0000   1.0000
     1.0000   1.0000   1.0000   1.0000   1.0000   1.0000   1.0000   1.0000
     1.0000   1.0000   1.0000   1.0000   1.0000   1.0000   1.0000   1.0000
     1.0000   1.0000   1.0000   1.0000   1.0000   1.0000   1.0000   1.0000
     1.0000   1.0000   1.0000   1.0000   1.0000   1.0000   1.0000   1.0000
     1.0000   1.0000   1.0000   1.0000   1.0000   1.0000   1.0000   1.0000
     1.0000   1.0000   1.0000   1.0000   1.0000   1.0000   1.0000   1.0000
     1.0000   1.0000   1.0000   1.0000   1.0000   1.0000   1.0000   1.0000
     1.0000   0.0000   0.0000   0.0000   0.0000   0.0000   0.0000   0.0000
     0.0000   0.0000   0.0000   0.0000   0.0000   0.0000   0.0000   0.0000
     0.0000   0.0000   0.0000   0.0000   0.0000   0.0000   0.0000   0.0000
     0.0000   0.0000   0.0000   0.0000   0.0000   0.0000   0.0000   0.0000
     0.0000   0.0000   0.0000   0.0000   0.0000   0.0000   0.0000   0.0000
     0.0000   0.0000   0.0000   0.0000   0.0000   0.0000   0.0000   0.0000
     0.0000   0.0000   0.0000   0.0000   0.0000   0.0000   0.0000   0.0000

          k = 0.0000 0.0000 0.2500 (269876 PWs)   bands (ev):

   -83.0823 -49.2168 -49.2168 -48.9739  -7.5105  -7.2395  -7.0407  -7.0395
    -7.0052  -6.9444  -6.8679  -6.8643  -6.8462  -6.8347  -6.7937  -6.7386
    -6.7277  -6.7269  -6.6994  -6.6970  -6.6476  -6.6252  -6.5904  -6.5864
    -6.5716  -6.5692  -6.4838  -6.4536  -6.4517  -6.3960  -6.3946  -6.3715
    -6.3497  -6.3357  -6.3121  -0.8938  -0.8904  -0.8860  -0.8711  -0.8601
    -0.8578  -0.8371  -0.8346  -0.8209  -0.8182  -0.7934  -0.7869  -0.7729
    -0.7687  -0.7659  -0.7588  -0.7577  -0.7409  -0.7277  -0.7187  -0.7136
    -0.6981  -0.6952  -0.6789  -0.6786  -0.6741  -0.6682  -0.6658  -0.6588
    -0.6562  -0.6527  -0.6500  -0.6474  -0.6468  -0.6444  -0.6415  -0.6407
    -0.6381  -0.6381  -0.6353  -0.6334  -0.6312  -0.6300  -0.6271  -0.6264
    -0.6239  -0.6226  -0.6209  -0.6184  -0.6152  -0.6089  -0.6073  -0.6042
    -0.6035  -0.5912  -0.5896  -0.5859  -0.5823  -0.5814  -0.5740  -0.5724
    -0.5601  -0.5592  -0.5529  -0.5385  -0.5362  -0.5301  -0.5250  -0.5163
    -0.5135  -0.5060  -0.5019  -0.4938  -0.4846  -0.4819  -0.4771  -0.4756
    -0.4749  -0.4639  -0.4490  -0.4432  -0.4417  -0.4371  -0.4316  -0.4280
    -0.4117  -0.3964  -0.3785  -0.3779  -0.3684  -0.3663  -0.3562  -0.3422
    -0.3335  -0.3275  -0.3261  -0.3217  -0.3176  -0.3149  -0.3135  -0.3096
    -0.3043  -0.3041  -0.3010  -0.2995  -0.2978  -0.2943  -0.2921  -0.2917
    -0.2901  -0.2900  -0.2873  -0.2866  -0.2846  -0.2764  -0.2762  -0.2748
    -0.2747  -0.2699  -0.2660  -0.2645  -0.2619  -0.2591  -0.2584  -0.2562
    -0.2550  -0.2490  -0.2416  -0.2371  -0.2300  -0.2276  -0.2252  -0.2226
    -0.2183  -0.2074  -0.1960  -0.1955  -0.1871  -0.1850  -0.1822  -0.1820
    -0.1761  -0.1734  -0.1579  -0.1519  -0.1515  -0.1444  -0.1104  -0.0900
     0.0180   0.0290   0.0339   0.0477   0.0541   0.0601   0.4616   0.5247
     0.5248   0.5363   0.9241   0.9287   0.9584   0.9602   0.9867   0.9915
     1.0441   1.0767   1.1270   1.2099   1.2146   1.2633   1.2683   1.2884
     1.3726   1.3964   1.4856   1.8068   1.8303   1.9096   1.9598   2.1701
     2.2206   2.3611   2.4366   2.4784   2.5900   2.6069   2.6322   2.6632
     2.7104   2.7358   2.7435   2.7696   2.8348   2.8592   2.8855   2.9297
     2.9667   3.0019   3.0361   3.1782   3.1945   3.2227   3.2447   3.2557
     3.2741   3.2908   3.3002   3.3155   3.3242   3.3356   3.3748   3.4405
     3.4583   3.4794   3.5749   3.5975   3.6678   3.7399   3.7605   3.8599
     3.9669   3.9671   4.1552   4.1655   4.1982   4.2287   4.2477   4.3167
     4.3389   4.3446   4.3714   4.3721   4.3822   4.3909   4.4187   4.4355
     4.5653   4.5750   4.5827   4.6072   4.6344   4.6396   4.6432   4.6462
     4.6805   4.6828   4.7044   4.8609   4.9289   5.0810   5.3020   5.3456
     6.3239   7.9679   8.3650   8.3672   8.8287   8.9829   9.0098   9.0128
     9.0896   9.1258   9.1857   9.4294   9.5648   9.6427   9.6760   9.7747
     9.7855   9.9593   9.9707   9.9841  10.0075  10.0217  10.0916  10.1042
    10.1183  10.1807  10.1932  10.2589  10.2661  10.2845  10.3080  10.3129
    10.3533  10.3616  10.5056  10.6059  10.6373  10.6671  10.7268  10.8437
    10.9601  10.9892  11.0017  11.2029  11.2521  11.3153  11.4905  11.6150
    11.6378  11.6550  11.7009  11.7765  11.8052  11.8070  11.8246  11.9498

     occupation numbers 
     1.0000   1.0000   1.0000   1.0000   1.0000   1.0000   1.0000   1.0000
     1.0000   1.0000   1.0000   1.0000   1.0000   1.0000   1.0000   1.0000
     1.0000   1.0000   1.0000   1.0000   1.0000   1.0000   1.0000   1.0000
     1.0000   1.0000   1.0000   1.0000   1.0000   1.0000   1.0000   1.0000
     1.0000   1.0000   1.0000   1.0000   1.0000   1.0000   1.0000   1.0000
     1.0000   1.0000   1.0000   1.0000   1.0000   1.0000   1.0000   1.0000
     1.0000   1.0000   1.0000   1.0000   1.0000   1.0000   1.0000   1.0000
     1.0000   1.0000   1.0000   1.0000   1.0000   1.0000   1.0000   1.0000
     1.0000   1.0000   1.0000   1.0000   1.0000   1.0000   1.0000   1.0000
     1.0000   1.0000   1.0000   1.0000   1.0000   1.0000   1.0000   1.0000
     1.0000   1.0000   1.0000   1.0000   1.0000   1.0000   1.0000   1.0000
     1.0000   1.0000   1.0000   1.0000   1.0000   1.0000   1.0000   1.0000
     1.0000   1.0000   1.0000   1.0000   1.0000   1.0000   1.0000   1.0000
     1.0000   1.0000   1.0000   1.0000   1.0000   1.0000   1.0000   1.0000
     1.0000   1.0000   1.0000   1.0000   1.0000   1.0000   1.0000   1.0000
     1.0000   1.0000   1.0000   1.0000   1.0000   1.0000   1.0000   1.0000
     1.0000   1.0000   1.0000   1.0000   1.0000   1.0000   1.0000   1.0000
     1.0000   1.0000   1.0000   1.0000   1.0000   1.0000   1.0000   1.0000
     1.0000   1.0000   1.0000   1.0000   1.0000   1.0000   1.0000   1.0000
     1.0000   1.0000   1.0000   1.0000   1.0000   1.0000   1.0000   1.0000
     1.0000   1.0000   1.0000   1.0000   1.0000   1.0000   1.0000   1.0000
     1.0000   1.0000   1.0000   1.0000   1.0000   1.0000   1.0000   1.0000
     1.0000   1.0000   1.0000   1.0000   1.0000   1.0000   1.0000   1.0000
     1.0000   1.0000   1.0000   1.0000   1.0000   1.0000   1.0000   1.0000
     1.0000   1.0000   1.0000   1.0000   1.0000   1.0000   1.0000   1.0000
     1.0000   1.0000   1.0000   1.0000   1.0000   1.0000   1.0000   1.0000
     1.0000   1.0000   1.0000   1.0000   1.0000   1.0000   1.0000   1.0000
     1.0000   1.0000   1.0000   1.0000   1.0000   1.0000   1.0000   1.0000
     1.0000   1.0000   1.0000   1.0000   1.0000   1.0000   1.0000   1.0000
     1.0000   1.0000   1.0000   1.0000   1.0000   1.0000   1.0000   1.0000
     1.0000   1.0000   1.0000   1.0000   1.0000   1.0000   1.0000   1.0000
     1.0000   1.0000   1.0000   1.0000   1.0000   1.0000   1.0000   1.0000
     1.0000   1.0000   1.0000   1.0000   1.0000   1.0000   1.0000   1.0000
     1.0000   1.0000   1.0000   1.0000   1.0000   1.0000   1.0000   1.0000
     1.0000   1.0000   1.0000   1.0000   1.0000   1.0000   1.0000   1.0000
     1.0000   1.0000   1.0000   1.0000   1.0000   1.0000   1.0000   1.0000
     1.0000   0.0000   0.0000   0.0000   0.0000   0.0000   0.0000   0.0000
     0.0000   0.0000   0.0000   0.0000   0.0000   0.0000   0.0000   0.0000
     0.0000   0.0000   0.0000   0.0000   0.0000   0.0000   0.0000   0.0000
     0.0000   0.0000   0.0000   0.0000   0.0000   0.0000   0.0000   0.0000
     0.0000   0.0000   0.0000   0.0000   0.0000   0.0000   0.0000   0.0000
     0.0000   0.0000   0.0000   0.0000   0.0000   0.0000   0.0000   0.0000
     0.0000   0.0000   0.0000   0.0000   0.0000   0.0000   0.0000   0.0000

          k = 0.0000 0.0000-0.5000 (270152 PWs)   bands (ev):

   -83.0823 -49.2168 -49.2168 -48.9739  -7.4050  -7.4024  -7.0033  -7.0014
    -6.9486  -6.9347  -6.9282  -6.9247  -6.8996  -6.8729  -6.7940  -6.7231
    -6.7222  -6.7010  -6.6988  -6.6459  -6.6338  -6.6257  -6.5720  -6.5428
    -6.5107  -6.5094  -6.5018  -6.4861  -6.4359  -6.4309  -6.4168  -6.4112
    -6.3629  -6.3563  -6.3131  -0.8903  -0.8819  -0.8816  -0.8630  -0.8603
    -0.8561  -0.8419  -0.8361  -0.8084  -0.8073  -0.7893  -0.7789  -0.7757
    -0.7674  -0.7555  -0.7529  -0.7331  -0.7247  -0.7235  -0.7198  -0.7146
    -0.7129  -0.7120  -0.7022  -0.7003  -0.6895  -0.6821  -0.6783  -0.6735
    -0.6705  -0.6677  -0.6570  -0.6504  -0.6492  -0.6445  -0.6443  -0.6416
    -0.6411  -0.6382  -0.6356  -0.6356  -0.6340  -0.6329  -0.6282  -0.6253
    -0.6207  -0.6193  -0.6168  -0.6153  -0.6129  -0.6112  -0.6105  -0.6076
    -0.6062  -0.5989  -0.5967  -0.5851  -0.5824  -0.5755  -0.5717  -0.5670
    -0.5633  -0.5604  -0.5542  -0.5518  -0.5366  -0.5349  -0.5307  -0.5194
    -0.5111  -0.5019  -0.4941  -0.4899  -0.4874  -0.4857  -0.4839  -0.4795
    -0.4736  -0.4733  -0.4500  -0.4407  -0.4398  -0.4171  -0.4005  -0.3953
    -0.3899  -0.3846  -0.3765  -0.3704  -0.3550  -0.3514  -0.3469  -0.3431
    -0.3428  -0.3400  -0.3336  -0.3327  -0.3255  -0.3211  -0.3172  -0.3168
    -0.3111  -0.3054  -0.2996  -0.2985  -0.2969  -0.2948  -0.2938  -0.2889
    -0.2883  -0.2856  -0.2835  -0.2827  -0.2814  -0.2807  -0.2786  -0.2748
    -0.2736  -0.2680  -0.2661  -0.2650  -0.2642  -0.2581  -0.2578  -0.2559
    -0.2523  -0.2458  -0.2450  -0.2405  -0.2383  -0.2374  -0.2364  -0.2305
    -0.2279  -0.2250  -0.2024  -0.2019  -0.2000  -0.1904  -0.1816  -0.1783
    -0.1780  -0.1740  -0.1634  -0.1136  -0.1023  -0.0741  -0.0738  -0.0480
    -0.0460  -0.0380  -0.0207  -0.0082   0.0096   0.0431   0.7232   0.8226
     0.8245   0.8611   0.8764   0.8941   0.9012   0.9397   0.9464   0.9661
     0.9876   0.9908   0.9999   1.0456   1.0529   1.0558   1.0703   1.2404
     1.2531   1.3632   1.5530   1.7092   1.8797   1.9309   2.1309   2.2761
     2.3477   2.3539   2.3893   2.4417   2.4709   2.4867   2.5205   2.5521
     2.5663   2.5778   2.6238   2.6636   2.7984   2.8216   2.9165   3.0248
     3.0538   3.0649   3.0792   3.0811   3.1080   3.1220   3.2712   3.4508
     3.4671   3.5881   3.5908   3.6140   3.6324   3.7147   3.7329   3.7434
     3.7558   3.7666   3.7846   3.7968   3.8019   3.8077   3.8277   3.8333
     3.8558   3.8678   3.8723   3.8808   3.8901   3.9244   3.9424   4.0083
     4.0578   4.0899   4.2486   4.2641   4.2875   4.3699   4.4760   4.5428
     4.5482   4.5748   4.5757   4.5777   4.5977   4.6057   4.6115   4.6304
     4.6406   4.6424   4.7884   4.8517   5.0067   5.0258   5.0780   5.1994
     6.4895   7.9732   8.3347   8.7003   8.8154   9.0305   9.2417   9.2687
     9.4648   9.4753   9.4805   9.5409   9.5488   9.5633   9.6116   9.6865
     9.7855   9.7857   9.8186   9.8405   9.9096  10.0622  10.0870  10.0983
    10.1169  10.1177  10.2217  10.2287  10.3047  10.3073  10.3304  10.4642
    10.4946  10.5743  10.6170  10.6309  10.6633  10.6688  10.7913  10.8234
    10.8348  10.8815  10.9154  10.9260  10.9835  11.0624  11.1708  11.2244
    11.2341  11.2766  11.3441  11.6981  11.7000  11.7068  11.7089  11.7450

     occupation numbers 
     1.0000   1.0000   1.0000   1.0000   1.0000   1.0000   1.0000   1.0000
     1.0000   1.0000   1.0000   1.0000   1.0000   1.0000   1.0000   1.0000
     1.0000   1.0000   1.0000   1.0000   1.0000   1.0000   1.0000   1.0000
     1.0000   1.0000   1.0000   1.0000   1.0000   1.0000   1.0000   1.0000
     1.0000   1.0000   1.0000   1.0000   1.0000   1.0000   1.0000   1.0000
     1.0000   1.0000   1.0000   1.0000   1.0000   1.0000   1.0000   1.0000
     1.0000   1.0000   1.0000   1.0000   1.0000   1.0000   1.0000   1.0000
     1.0000   1.0000   1.0000   1.0000   1.0000   1.0000   1.0000   1.0000
     1.0000   1.0000   1.0000   1.0000   1.0000   1.0000   1.0000   1.0000
     1.0000   1.0000   1.0000   1.0000   1.0000   1.0000   1.0000   1.0000
     1.0000   1.0000   1.0000   1.0000   1.0000   1.0000   1.0000   1.0000
     1.0000   1.0000   1.0000   1.0000   1.0000   1.0000   1.0000   1.0000
     1.0000   1.0000   1.0000   1.0000   1.0000   1.0000   1.0000   1.0000
     1.0000   1.0000   1.0000   1.0000   1.0000   1.0000   1.0000   1.0000
     1.0000   1.0000   1.0000   1.0000   1.0000   1.0000   1.0000   1.0000
     1.0000   1.0000   1.0000   1.0000   1.0000   1.0000   1.0000   1.0000
     1.0000   1.0000   1.0000   1.0000   1.0000   1.0000   1.0000   1.0000
     1.0000   1.0000   1.0000   1.0000   1.0000   1.0000   1.0000   1.0000
     1.0000   1.0000   1.0000   1.0000   1.0000   1.0000   1.0000   1.0000
     1.0000   1.0000   1.0000   1.0000   1.0000   1.0000   1.0000   1.0000
     1.0000   1.0000   1.0000   1.0000   1.0000   1.0000   1.0000   1.0000
     1.0000   1.0000   1.0000   1.0000   1.0000   1.0000   1.0000   1.0000
     1.0000   1.0000   1.0000   1.0000   1.0000   1.0000   1.0000   1.0000
     1.0000   1.0000   1.0000   1.0000   1.0000   1.0000   1.0000   1.0000
     1.0000   1.0000   1.0000   1.0000   1.0000   1.0000   1.0000   1.0000
     1.0000   1.0000   1.0000   1.0000   1.0000   1.0000   1.0000   1.0000
     1.0000   1.0000   1.0000   1.0000   1.0000   1.0000   1.0000   1.0000
     1.0000   1.0000   1.0000   1.0000   1.0000   1.0000   1.0000   1.0000
     1.0000   1.0000   1.0000   1.0000   1.0000   1.0000   1.0000   1.0000
     1.0000   1.0000   1.0000   1.0000   1.0000   1.0000   1.0000   1.0000
     1.0000   1.0000   1.0000   1.0000   1.0000   1.0000   1.0000   1.0000
     1.0000   1.0000   1.0000   1.0000   1.0000   1.0000   1.0000   1.0000
     1.0000   1.0000   1.0000   1.0000   1.0000   1.0000   1.0000   1.0000
     1.0000   1.0000   1.0000   1.0000   1.0000   1.0000   1.0000   1.0000
     1.0000   1.0000   1.0000   1.0000   1.0000   1.0000   1.0000   1.0000
     1.0000   1.0000   1.0000   1.0000   1.0000   1.0000   1.0000   1.0000
     0.0000   0.0000   0.0000   0.0000   0.0000   0.0000   0.0000   0.0000
     0.0000   0.0000   0.0000   0.0000   0.0000   0.0000   0.0000   0.0000
     0.0000   0.0000   0.0000   0.0000   0.0000   0.0000   0.0000   0.0000
     0.0000   0.0000   0.0000   0.0000   0.0000   0.0000   0.0000   0.0000
     0.0000   0.0000   0.0000   0.0000   0.0000   0.0000   0.0000   0.0000
     0.0000   0.0000   0.0000   0.0000   0.0000   0.0000   0.0000   0.0000
     0.0000   0.0000   0.0000   0.0000   0.0000   0.0000   0.0000   0.0000

          k = 0.0000 0.2500 0.2500 (269929 PWs)   bands (ev):

   -83.0823 -49.2168 -49.2168 -48.9739  -7.4744  -7.2274  -7.1917  -7.0211
    -6.9980  -6.9535  -6.8649  -6.8538  -6.8391  -6.8215  -6.7824  -6.7560
    -6.7307  -6.7284  -6.6932  -6.6714  -6.6100  -6.5848  -6.5781  -6.5733
    -6.5705  -6.5372  -6.4811  -6.4749  -6.4545  -6.4141  -6.3970  -6.3891
    -6.3622  -6.3547  -6.3258  -0.8882  -0.8874  -0.8838  -0.8645  -0.8581
    -0.8578  -0.8391  -0.8238  -0.8208  -0.8109  -0.7903  -0.7873  -0.7669
    -0.7635  -0.7602  -0.7536  -0.7463  -0.7441  -0.7308  -0.7168  -0.7151
    -0.6968  -0.6964  -0.6866  -0.6820  -0.6796  -0.6764  -0.6730  -0.6684
    -0.6629  -0.6623  -0.6575  -0.6541  -0.6521  -0.6480  -0.6459  -0.6459
    -0.6430  -0.6408  -0.6401  -0.6377  -0.6354  -0.6335  -0.6278  -0.6267
    -0.6221  -0.6219  -0.6189  -0.6172  -0.6156  -0.6154  -0.6062  -0.6053
    -0.5941  -0.5928  -0.5877  -0.5876  -0.5785  -0.5732  -0.5693  -0.5670
    -0.5579  -0.5504  -0.5458  -0.5401  -0.5338  -0.5337  -0.5276  -0.5212
    -0.5172  -0.5132  -0.5043  -0.4959  -0.4925  -0.4910  -0.4881  -0.4812
    -0.4739  -0.4709  -0.4649  -0.4560  -0.4496  -0.4459  -0.4455  -0.4256
    -0.3979  -0.3832  -0.3820  -0.3710  -0.3692  -0.3572  -0.3543  -0.3534
    -0.3497  -0.3397  -0.3330  -0.3272  -0.3184  -0.3168  -0.3096  -0.3071
    -0.3047  -0.3012  -0.2999  -0.2952  -0.2935  -0.2920  -0.2901  -0.2899
    -0.2874  -0.2849  -0.2848  -0.2818  -0.2809  -0.2776  -0.2754  -0.2726
    -0.2688  -0.2678  -0.2643  -0.2629  -0.2609  -0.2599  -0.2588  -0.2553
    -0.2540  -0.2527  -0.2489  -0.2424  -0.2374  -0.2280  -0.2219  -0.2168
    -0.2159  -0.2070  -0.2048  -0.1925  -0.1864  -0.1801  -0.1800  -0.1735
    -0.1673  -0.1590  -0.1549  -0.1445  -0.1087  -0.0978  -0.0832  -0.0542
    -0.0099   0.0027   0.0171   0.0244   0.0485   0.0492   0.4346   0.4628
     0.7714   0.7981   0.8808   0.9245   0.9376   0.9745   0.9768   1.0117
     1.0151   1.0276   1.0435   1.0773   1.1120   1.1607   1.1811   1.3416
     1.4622   1.4689   1.5866   1.6321   1.8033   1.8101   1.9756   2.0507
     2.2251   2.3226   2.3743   2.4199   2.5091   2.5158   2.5421   2.6248
     2.6751   2.7410   2.7499   2.8131   2.9268   2.9407   2.9648   3.0518
     3.0520   3.0924   3.1000   3.1599   3.1709   3.2411   3.2697   3.3090
     3.3224   3.3325   3.3563   3.3691   3.4058   3.4571   3.4981   3.5347
     3.5614   3.5876   3.6606   3.7186   3.7465   3.7603   3.8657   3.8803
     3.9059   3.9730   4.0271   4.0473   4.0883   4.1645   4.1768   4.2249
     4.2427   4.2692   4.2693   4.3021   4.3181   4.3678   4.4057   4.4294
     4.4820   4.4961   4.5154   4.5388   4.5751   4.6312   4.6320   4.6661
     4.6747   4.7530   4.7710   4.8453   4.9226   5.0147   5.2355   5.3985
     6.4015   8.0845   8.3476   8.3995   8.7978   9.0427   9.0794   9.2612
     9.2656   9.2988   9.3041   9.5575   9.6043   9.6063   9.8105   9.8174
     9.8353   9.8437   9.8655   9.8776   9.8872   9.9449   9.9565  10.0339
    10.0651  10.1204  10.1524  10.1877  10.2141  10.2546  10.2628  10.3549
    10.4316  10.5891  10.6251  10.6387  10.6588  10.6900  10.7929  10.8118
    10.8812  10.9270  10.9526  11.0295  11.0784  11.2906  11.3594  11.4233
    11.4327  11.5551  11.6005  11.6360  11.7077  11.7430  11.7528  11.8080

     occupation numbers 
     1.0000   1.0000   1.0000   1.0000   1.0000   1.0000   1.0000   1.0000
     1.0000   1.0000   1.0000   1.0000   1.0000   1.0000   1.0000   1.0000
     1.0000   1.0000   1.0000   1.0000   1.0000   1.0000   1.0000   1.0000
     1.0000   1.0000   1.0000   1.0000   1.0000   1.0000   1.0000   1.0000
     1.0000   1.0000   1.0000   1.0000   1.0000   1.0000   1.0000   1.0000
     1.0000   1.0000   1.0000   1.0000   1.0000   1.0000   1.0000   1.0000
     1.0000   1.0000   1.0000   1.0000   1.0000   1.0000   1.0000   1.0000
     1.0000   1.0000   1.0000   1.0000   1.0000   1.0000   1.0000   1.0000
     1.0000   1.0000   1.0000   1.0000   1.0000   1.0000   1.0000   1.0000
     1.0000   1.0000   1.0000   1.0000   1.0000   1.0000   1.0000   1.0000
     1.0000   1.0000   1.0000   1.0000   1.0000   1.0000   1.0000   1.0000
     1.0000   1.0000   1.0000   1.0000   1.0000   1.0000   1.0000   1.0000
     1.0000   1.0000   1.0000   1.0000   1.0000   1.0000   1.0000   1.0000
     1.0000   1.0000   1.0000   1.0000   1.0000   1.0000   1.0000   1.0000
     1.0000   1.0000   1.0000   1.0000   1.0000   1.0000   1.0000   1.0000
     1.0000   1.0000   1.0000   1.0000   1.0000   1.0000   1.0000   1.0000
     1.0000   1.0000   1.0000   1.0000   1.0000   1.0000   1.0000   1.0000
     1.0000   1.0000   1.0000   1.0000   1.0000   1.0000   1.0000   1.0000
     1.0000   1.0000   1.0000   1.0000   1.0000   1.0000   1.0000   1.0000
     1.0000   1.0000   1.0000   1.0000   1.0000   1.0000   1.0000   1.0000
     1.0000   1.0000   1.0000   1.0000   1.0000   1.0000   1.0000   1.0000
     1.0000   1.0000   1.0000   1.0000   1.0000   1.0000   1.0000   1.0000
     1.0000   1.0000   1.0000   1.0000   1.0000   1.0000   1.0000   1.0000
     1.0000   1.0000   1.0000   1.0000   1.0000   1.0000   1.0000   1.0000
     1.0000   1.0000   1.0000   1.0000   1.0000   1.0000   1.0000   1.0000
     1.0000   1.0000   1.0000   1.0000   1.0000   1.0000   1.0000   1.0000
     1.0000   1.0000   1.0000   1.0000   1.0000   1.0000   1.0000   1.0000
     1.0000   1.0000   1.0000   1.0000   1.0000   1.0000   1.0000   1.0000
     1.0000   1.0000   1.0000   1.0000   1.0000   1.0000   1.0000   1.0000
     1.0000   1.0000   1.0000   1.0000   1.0000   1.0000   1.0000   1.0000
     1.0000   1.0000   1.0000   1.0000   1.0000   1.0000   1.0000   1.0000
     1.0000   1.0000   1.0000   1.0000   1.0000   1.0000   1.0000   1.0000
     1.0000   1.0000   1.0000   1.0000   1.0000   1.0000   1.0000   1.0000
     1.0000   1.0000   1.0000   1.0000   1.0000   1.0000   1.0000   1.0000
     1.0000   1.0000   1.0000   1.0000   1.0000   1.0000   1.0000   1.0000
     1.0000   1.0000   1.0000   1.0000   1.0000   1.0000   1.0000   1.0000
     0.6842   0.0000   0.0000   0.0000   0.0000   0.0000   0.0000   0.0000
     0.0000   0.0000   0.0000   0.0000   0.0000   0.0000   0.0000   0.0000
     0.0000   0.0000   0.0000   0.0000   0.0000   0.0000   0.0000   0.0000
     0.0000   0.0000   0.0000   0.0000   0.0000   0.0000   0.0000   0.0000
     0.0000   0.0000   0.0000   0.0000   0.0000   0.0000   0.0000   0.0000
     0.0000   0.0000   0.0000   0.0000   0.0000   0.0000   0.0000   0.0000
     0.0000   0.0000   0.0000   0.0000   0.0000   0.0000   0.0000   0.0000

          k = 0.0000 0.2500-0.5000 (269962 PWs)   bands (ev):

   -83.0823 -49.2168 -49.2168 -48.9739  -7.3723  -7.3695  -7.1349  -7.1129
    -6.9858  -6.9186  -6.9051  -6.8852  -6.8488  -6.8022  -6.7859  -6.7535
    -6.7252  -6.7121  -6.6723  -6.6096  -6.5855  -6.5743  -6.5648  -6.5385
    -6.5250  -6.5201  -6.5159  -6.4825  -6.4488  -6.4447  -6.4348  -6.3999
    -6.3838  -6.3718  -6.3309  -0.8854  -0.8813  -0.8794  -0.8595  -0.8568
    -0.8558  -0.8437  -0.8247  -0.8101  -0.8017  -0.7845  -0.7760  -0.7746
    -0.7589  -0.7557  -0.7533  -0.7336  -0.7241  -0.7195  -0.7145  -0.7137
    -0.7089  -0.7051  -0.6982  -0.6968  -0.6939  -0.6869  -0.6815  -0.6782
    -0.6739  -0.6704  -0.6695  -0.6593  -0.6559  -0.6550  -0.6526  -0.6471
    -0.6456  -0.6425  -0.6401  -0.6380  -0.6347  -0.6321  -0.6309  -0.6266
    -0.6234  -0.6211  -0.6191  -0.6154  -0.6125  -0.6090  -0.6068  -0.6001
    -0.5972  -0.5867  -0.5851  -0.5799  -0.5757  -0.5709  -0.5677  -0.5645
    -0.5614  -0.5570  -0.5515  -0.5441  -0.5381  -0.5305  -0.5224  -0.5153
    -0.5115  -0.5066  -0.5042  -0.4994  -0.4970  -0.4929  -0.4879  -0.4835
    -0.4816  -0.4748  -0.4705  -0.4676  -0.4613  -0.4583  -0.4433  -0.4310
    -0.4244  -0.4105  -0.3946  -0.3855  -0.3830  -0.3665  -0.3532  -0.3456
    -0.3401  -0.3379  -0.3304  -0.3266  -0.3200  -0.3151  -0.3131  -0.3066
    -0.3034  -0.2976  -0.2929  -0.2925  -0.2895  -0.2876  -0.2866  -0.2844
    -0.2832  -0.2820  -0.2793  -0.2774  -0.2753  -0.2742  -0.2708  -0.2683
    -0.2671  -0.2661  -0.2647  -0.2608  -0.2582  -0.2570  -0.2560  -0.2526
    -0.2506  -0.2479  -0.2443  -0.2416  -0.2396  -0.2341  -0.2237  -0.2199
    -0.2071  -0.2026  -0.1962  -0.1907  -0.1873  -0.1830  -0.1783  -0.1695
    -0.1399  -0.1306  -0.1221  -0.1057  -0.0977  -0.0858  -0.0708  -0.0553
    -0.0416  -0.0268  -0.0137   0.0101   0.0119   0.0472   0.6308   0.6695
     0.6819   0.7080   0.8369   0.8877   0.9106   0.9186   0.9425   0.9843
     1.0102   1.0371   1.1128   1.1241   1.1930   1.2079   1.2386   1.2629
     1.3105   1.3780   1.5273   1.6458   1.7993   1.8423   1.9152   2.0458
     2.0979   2.1685   2.3231   2.3929   2.4151   2.5024   2.5776   2.6773
     2.7105   2.7671   2.8041   2.8240   2.8465   2.9035   2.9310   2.9966
     3.0345   3.0871   3.1321   3.1757   3.2839   3.3414   3.4056   3.4149
[...]

     total cpu time spent up to now is     8503.3 secs

     total energy              =   -9943.72367887 Ry
     estimated scf accuracy    <       0.00068450 Ry

     total magnetization       =     4.39 Bohr mag/cell
     absolute magnetization    =     4.46 Bohr mag/cell

     iteration # 81     ecut=   150.00 Ry     beta= 0.70
     Davidson diagonalization with overlap

---- Real-time Memory Report at c_bands before calling an iterative solver
          2042 MiB given to the printing process from OS
             0 MiB allocation reported by mallinfo(arena+hblkhd)
        198872 MiB available memory on the node where the printing process lives
------------------
     ethr =  2.07E-11,  avg # of iterations = 15.2

     negative rho (up, down):  0.000E+00 2.501E-04

     total cpu time spent up to now is     8588.0 secs

     total energy              =   -9943.72507213 Ry
     estimated scf accuracy    <       0.00000190 Ry

     total magnetization       =     4.19 Bohr mag/cell
     absolute magnetization    =     4.25 Bohr mag/cell

     iteration # 82     ecut=   150.00 Ry     beta= 0.70
     Davidson diagonalization with overlap

---- Real-time Memory Report at c_bands before calling an iterative solver
          2046 MiB given to the printing process from OS
             0 MiB allocation reported by mallinfo(arena+hblkhd)
        198841 MiB available memory on the node where the printing process lives
------------------
     ethr =  2.07E-11,  avg # of iterations = 10.8

     negative rho (up, down):  0.000E+00 2.495E-04

     total cpu time spent up to now is     8643.0 secs

     total energy              =   -9943.72516686 Ry
     estimated scf accuracy    <       0.00000041 Ry

     total magnetization       =     4.11 Bohr mag/cell
     absolute magnetization    =     4.17 Bohr mag/cell

     iteration # 83     ecut=   150.00 Ry     beta= 0.70
     Davidson diagonalization with overlap

---- Real-time Memory Report at c_bands before calling an iterative solver
          2048 MiB given to the printing process from OS
             0 MiB allocation reported by mallinfo(arena+hblkhd)
        198833 MiB available memory on the node where the printing process lives
------------------
     ethr =  2.07E-11,  avg # of iterations =  7.5

     negative rho (up, down):  0.000E+00 2.487E-04

     total cpu time spent up to now is     8685.0 secs

     total energy              =   -9943.72516620 Ry
     estimated scf accuracy    <       0.00000125 Ry

     total magnetization       =     4.08 Bohr mag/cell
     absolute magnetization    =     4.14 Bohr mag/cell

     iteration # 84     ecut=   150.00 Ry     beta= 0.70
     Davidson diagonalization with overlap

---- Real-time Memory Report at c_bands before calling an iterative solver
          2050 MiB given to the printing process from OS
             0 MiB allocation reported by mallinfo(arena+hblkhd)
        198839 MiB available memory on the node where the printing process lives
------------------
     ethr =  2.07E-11,  avg # of iterations = 10.1

     negative rho (up, down):  0.000E+00 2.489E-04

     total cpu time spent up to now is     8730.2 secs

     total energy              =   -9943.72518266 Ry
     estimated scf accuracy    <       0.00000434 Ry

     total magnetization       =     4.05 Bohr mag/cell
     absolute magnetization    =     4.11 Bohr mag/cell

     iteration # 85     ecut=   150.00 Ry     beta= 0.70
     Davidson diagonalization with overlap

---- Real-time Memory Report at c_bands before calling an iterative solver
          2050 MiB given to the printing process from OS
             0 MiB allocation reported by mallinfo(arena+hblkhd)
        198843 MiB available memory on the node where the printing process lives
------------------
     ethr =  2.07E-11,  avg # of iterations =  5.9

     negative rho (up, down):  0.000E+00 2.494E-04

     total cpu time spent up to now is     8761.0 secs

     total energy              =   -9943.72517245 Ry
     estimated scf accuracy    <       0.00000344 Ry

     total magnetization       =     4.06 Bohr mag/cell
     absolute magnetization    =     4.12 Bohr mag/cell

     iteration # 86     ecut=   150.00 Ry     beta= 0.70
     Davidson diagonalization with overlap

---- Real-time Memory Report at c_bands before calling an iterative solver
          2050 MiB given to the printing process from OS
             0 MiB allocation reported by mallinfo(arena+hblkhd)
        198860 MiB available memory on the node where the printing process lives
------------------
     ethr =  2.07E-11,  avg # of iterations =  7.5

     negative rho (up, down):  0.000E+00 2.488E-04

     total cpu time spent up to now is     8799.7 secs

     total energy              =   -9943.72517139 Ry
     estimated scf accuracy    <       0.00000152 Ry

     total magnetization       =     4.08 Bohr mag/cell
     absolute magnetization    =     4.14 Bohr mag/cell

     iteration # 87     ecut=   150.00 Ry     beta= 0.70
     Davidson diagonalization with overlap

---- Real-time Memory Report at c_bands before calling an iterative solver
          2052 MiB given to the printing process from OS
             0 MiB allocation reported by mallinfo(arena+hblkhd)
        198833 MiB available memory on the node where the printing process lives
------------------
     ethr =  2.07E-11,  avg # of iterations =  7.8

     negative rho (up, down):  0.000E+00 2.501E-04

     total cpu time spent up to now is     8841.0 secs

     total energy              =   -9943.72512025 Ry
     estimated scf accuracy    <       0.00000418 Ry

     total magnetization       =     4.05 Bohr mag/cell
     absolute magnetization    =     4.12 Bohr mag/cell

     iteration # 88     ecut=   150.00 Ry     beta= 0.70
     Davidson diagonalization with overlap

---- Real-time Memory Report at c_bands before calling an iterative solver
          2054 MiB given to the printing process from OS
             0 MiB allocation reported by mallinfo(arena+hblkhd)
        198840 MiB available memory on the node where the printing process lives
------------------
     ethr =  2.07E-11,  avg # of iterations =  9.7

     negative rho (up, down):  0.000E+00 2.524E-04

     total cpu time spent up to now is     8892.4 secs

     total energy              =   -9943.72501324 Ry
     estimated scf accuracy    <       0.00000085 Ry

     total magnetization       =     4.11 Bohr mag/cell
     absolute magnetization    =     4.17 Bohr mag/cell

     iteration # 89     ecut=   150.00 Ry     beta= 0.70
     Davidson diagonalization with overlap

---- Real-time Memory Report at c_bands before calling an iterative solver
          2056 MiB given to the printing process from OS
             0 MiB allocation reported by mallinfo(arena+hblkhd)
        198879 MiB available memory on the node where the printing process lives
------------------
     ethr =  2.07E-11,  avg # of iterations = 11.5

     negative rho (up, down):  0.000E+00 2.530E-04

     total cpu time spent up to now is     8953.5 secs

     total energy              =   -9943.72515383 Ry
     estimated scf accuracy    <       0.00000211 Ry

     total magnetization       =     4.20 Bohr mag/cell
     absolute magnetization    =     4.26 Bohr mag/cell

     iteration # 90     ecut=   150.00 Ry     beta= 0.70
     Davidson diagonalization with overlap

---- Real-time Memory Report at c_bands before calling an iterative solver
          2060 MiB given to the printing process from OS
             0 MiB allocation reported by mallinfo(arena+hblkhd)
        198858 MiB available memory on the node where the printing process lives
------------------
     ethr =  2.07E-11,  avg # of iterations =  7.1

     negative rho (up, down):  0.000E+00 2.511E-04

     total cpu time spent up to now is     8994.7 secs

     total energy              =   -9943.72506765 Ry
     estimated scf accuracy    <       0.00000276 Ry

     total magnetization       =     4.23 Bohr mag/cell
     absolute magnetization    =     4.29 Bohr mag/cell

     iteration # 91     ecut=   150.00 Ry     beta= 0.70
     Davidson diagonalization with overlap

---- Real-time Memory Report at c_bands before calling an iterative solver
          2060 MiB given to the printing process from OS
             0 MiB allocation reported by mallinfo(arena+hblkhd)
        198822 MiB available memory on the node where the printing process lives
------------------
     ethr =  2.07E-11,  avg # of iterations = 11.0

     negative rho (up, down):  0.000E+00 2.508E-04

     total cpu time spent up to now is     9051.5 secs

     total energy              =   -9943.72517235 Ry
     estimated scf accuracy    <       0.00000067 Ry

     total magnetization       =     4.15 Bohr mag/cell
     absolute magnetization    =     4.21 Bohr mag/cell

     iteration # 92     ecut=   150.00 Ry     beta= 0.70
     Davidson diagonalization with overlap

---- Real-time Memory Report at c_bands before calling an iterative solver
          2064 MiB given to the printing process from OS
             0 MiB allocation reported by mallinfo(arena+hblkhd)
        198826 MiB available memory on the node where the printing process lives
------------------
     ethr =  2.07E-11,  avg # of iterations =  7.5

     negative rho (up, down):  0.000E+00 2.493E-04

     total cpu time spent up to now is     9086.5 secs

     total energy              =   -9943.72510656 Ry
     estimated scf accuracy    <       0.00000061 Ry

     total magnetization       =     4.14 Bohr mag/cell
     absolute magnetization    =     4.20 Bohr mag/cell

     iteration # 93     ecut=   150.00 Ry     beta= 0.70
     Davidson diagonalization with overlap

---- Real-time Memory Report at c_bands before calling an iterative solver
          2064 MiB given to the printing process from OS
             0 MiB allocation reported by mallinfo(arena+hblkhd)
        198812 MiB available memory on the node where the printing process lives
------------------
     ethr =  2.07E-11,  avg # of iterations = 10.8

     negative rho (up, down):  0.000E+00 2.486E-04

     total cpu time spent up to now is     9140.3 secs

     total energy              =   -9943.72517364 Ry
     estimated scf accuracy    <       0.00000202 Ry

     total magnetization       =     4.07 Bohr mag/cell
     absolute magnetization    =     4.13 Bohr mag/cell

     iteration # 94     ecut=   150.00 Ry     beta= 0.70
     Davidson diagonalization with overlap

---- Real-time Memory Report at c_bands before calling an iterative solver
          2068 MiB given to the printing process from OS
             0 MiB allocation reported by mallinfo(arena+hblkhd)
        198817 MiB available memory on the node where the printing process lives
------------------
     ethr =  2.07E-11,  avg # of iterations =  7.5

     negative rho (up, down):  0.000E+00 2.464E-04

     total cpu time spent up to now is     9181.6 secs

     total energy              =   -9943.72505722 Ry
     estimated scf accuracy    <       0.00000505 Ry

     total magnetization       =     4.04 Bohr mag/cell
     absolute magnetization    =     4.11 Bohr mag/cell

     iteration # 95     ecut=   150.00 Ry     beta= 0.70
     Davidson diagonalization with overlap

---- Real-time Memory Report at c_bands before calling an iterative solver
          2069 MiB given to the printing process from OS
             0 MiB allocation reported by mallinfo(arena+hblkhd)
        198814 MiB available memory on the node where the printing process lives
------------------
     ethr =  2.07E-11,  avg # of iterations = 11.7

     negative rho (up, down):  0.000E+00 2.465E-04

     total cpu time spent up to now is     9243.4 secs

     total energy              =   -9943.72521579 Ry
     estimated scf accuracy    <       0.00005359 Ry

     total magnetization       =     3.96 Bohr mag/cell
     absolute magnetization    =     4.03 Bohr mag/cell

     iteration # 96     ecut=   150.00 Ry     beta= 0.70
     Davidson diagonalization with overlap

---- Real-time Memory Report at c_bands before calling an iterative solver
          2073 MiB given to the printing process from OS
             0 MiB allocation reported by mallinfo(arena+hblkhd)
        198838 MiB available memory on the node where the printing process lives
------------------
     ethr =  2.07E-11,  avg # of iterations =  5.8

     negative rho (up, down):  0.000E+00 2.468E-04

     total cpu time spent up to now is     9271.1 secs

     total energy              =   -9943.72520803 Ry
     estimated scf accuracy    <       0.00004829 Ry

     total magnetization       =     3.96 Bohr mag/cell
     absolute magnetization    =     4.03 Bohr mag/cell

     iteration # 97     ecut=   150.00 Ry     beta= 0.70
     Davidson diagonalization with overlap

---- Real-time Memory Report at c_bands before calling an iterative solver
          2073 MiB given to the printing process from OS
             0 MiB allocation reported by mallinfo(arena+hblkhd)
        198801 MiB available memory on the node where the printing process lives
------------------
     ethr =  2.07E-11,  avg # of iterations =  7.6

     negative rho (up, down):  0.000E+00 2.493E-04

     total cpu time spent up to now is     9306.1 secs

     total energy              =   -9943.72498379 Ry
     estimated scf accuracy    <       0.00003799 Ry

     total magnetization       =     3.97 Bohr mag/cell
     absolute magnetization    =     4.04 Bohr mag/cell

     iteration # 98     ecut=   150.00 Ry     beta= 0.70
     Davidson diagonalization with overlap

---- Real-time Memory Report at c_bands before calling an iterative solver
          2074 MiB given to the printing process from OS
             0 MiB allocation reported by mallinfo(arena+hblkhd)
        198808 MiB available memory on the node where the printing process lives
------------------
     ethr =  2.07E-11,  avg # of iterations = 12.7

     negative rho (up, down):  0.000E+00 2.498E-04

     total cpu time spent up to now is     9368.9 secs

     total energy              =   -9943.72517029 Ry
     estimated scf accuracy    <       0.00000217 Ry

     total magnetization       =     4.07 Bohr mag/cell
     absolute magnetization    =     4.14 Bohr mag/cell

     iteration # 99     ecut=   150.00 Ry     beta= 0.70
     Davidson diagonalization with overlap

---- Real-time Memory Report at c_bands before calling an iterative solver
          2079 MiB given to the printing process from OS
             0 MiB allocation reported by mallinfo(arena+hblkhd)
        198822 MiB available memory on the node where the printing process lives
------------------
     ethr =  2.07E-11,  avg # of iterations =  7.4

     negative rho (up, down):  0.000E+00 2.520E-04

     total cpu time spent up to now is     9408.1 secs

     total energy              =   -9943.72501917 Ry
     estimated scf accuracy    <       0.00000105 Ry

     total magnetization       =     4.09 Bohr mag/cell
     absolute magnetization    =     4.16 Bohr mag/cell

     iteration #100     ecut=   150.00 Ry     beta= 0.70
     Davidson diagonalization with overlap

---- Real-time Memory Report at c_bands before calling an iterative solver
          2079 MiB given to the printing process from OS
             0 MiB allocation reported by mallinfo(arena+hblkhd)
        198801 MiB available memory on the node where the printing process lives
------------------
     ethr =  2.07E-11,  avg # of iterations = 11.6

     negative rho (up, down):  0.000E+00 2.522E-04

     total cpu time spent up to now is     9469.1 secs

     total energy              =   -9943.72516980 Ry
     estimated scf accuracy    <       0.00000170 Ry

     total magnetization       =     4.19 Bohr mag/cell
     absolute magnetization    =     4.25 Bohr mag/cell

     End of self-consistent calculation

     convergence NOT achieved after 100 iterations: stopping

     Writing config to output data dir ./out/Fe_qp1.save/
 
     init_run     :     11.03s CPU     12.20s WALL (       1 calls)
     electrons    :   7875.43s CPU   8048.22s WALL (       9 calls)
     update_pot   :     18.18s CPU     18.52s WALL (       8 calls)
     forces       :     39.72s CPU     40.41s WALL (       8 calls)
     stress       :   1326.01s CPU   1341.77s WALL (       8 calls)

     Called by init_run:
     wfcinit      :      8.78s CPU      9.42s WALL (       1 calls)
     wfcinit:atom :      0.06s CPU      0.09s WALL (       6 calls)
     wfcinit:wfcr :      8.41s CPU      8.82s WALL (       6 calls)
     potinit      :      0.56s CPU      0.72s WALL (       1 calls)
     hinit0       :      0.44s CPU      0.59s WALL (       1 calls)

     Called by electrons:
     c_bands      :   7153.73s CPU   7289.83s WALL (     266 calls)
     sum_band     :    654.15s CPU    663.72s WALL (     266 calls)
     v_of_rho     :     17.38s CPU     17.96s WALL (     274 calls)
     v_h          :      0.82s CPU      0.84s WALL (     274 calls)
     v_xc         :     17.48s CPU     18.07s WALL (     290 calls)
     newd         :     12.90s CPU     13.06s WALL (     274 calls)
     PAW_pot      :     25.64s CPU     26.38s WALL (     282 calls)
     mix_rho      :      7.86s CPU      8.28s WALL (     266 calls)

     Called by c_bands:
     init_us_2    :     89.81s CPU     90.96s WALL (    3342 calls)
     init_us_2:cp :     89.79s CPU     90.95s WALL (    3342 calls)
     cegterg      :   6535.11s CPU   6640.67s WALL (    1596 calls)

     Called by sum_band:
     sum_band:wei :      1.45s CPU      1.50s WALL (     266 calls)
     sum_band:loo :    624.12s CPU    633.14s WALL (     266 calls)
     sum_band:buf :     13.24s CPU     15.54s WALL (    1596 calls)
     sum_band:ini :     43.24s CPU     43.56s WALL (    1596 calls)
     sum_band:cal :    237.96s CPU    240.50s WALL (    1644 calls)
     sum_band:bec :      4.77s CPU      4.86s WALL (    1644 calls)
     addusdens    :     20.60s CPU     20.85s WALL (     266 calls)
                                        0.00s GPU  (     266 calls)
     addusd:skk   :      0.38s CPU      0.39s WALL (     798 calls)
                                        0.00s GPU  (     798 calls)

     Called by *egterg:
     cdiaghg      :    606.35s CPU    612.23s WALL (    9114 calls)
     cegterg:over :    532.93s CPU    538.23s WALL (    7572 calls)
     cegterg:upda :    489.75s CPU    494.70s WALL (    7572 calls)
     cegterg:last :    877.95s CPU    885.13s WALL (    3829 calls)
     cdiaghg:chol :     39.40s CPU     39.79s WALL (    9114 calls)
     cdiaghg:inve :     59.27s CPU     59.64s WALL (    9114 calls)
     cdiaghg:para :     92.41s CPU     93.14s WALL (   18228 calls)
     h_psi        :   3138.08s CPU   3189.36s WALL (    9174 calls)
     s_psi        :    680.21s CPU    687.06s WALL (    9174 calls)
     g_psi        :     18.57s CPU     18.78s WALL (    7572 calls)

     Called by h_psi:
     h_psi:calbec :    680.66s CPU    687.71s WALL (    9174 calls)
     vloc_psi     :   1743.61s CPU   1761.33s WALL (    9174 calls)
     add_vuspsi   :    684.43s CPU    693.19s WALL (    9174 calls)

     General routines
     calbec       :    957.43s CPU    967.28s WALL (   11058 calls)
     fft          :     25.49s CPU     25.92s WALL (    6100 calls)
     ffts         :      1.01s CPU      1.02s WALL (     532 calls)
     fftw         :   1921.62s CPU   1941.69s WALL ( 3548994 calls)
     davcio       :      0.00s CPU      0.04s WALL (      24 calls)
 
     Parallel routines

     PAW routines
     PAW_pot      :     25.64s CPU     26.38s WALL (     282 calls)
     PAW_symme    :      0.48s CPU      0.51s WALL (     548 calls)
 
     PWSCF        :      2h34m CPU      2h38m WALL

 
   This run was terminated on:  14:45: 8  29Jun2024            

=------------------------------------------------------------------------------=
   JOB DONE.
=------------------------------------------------------------------------------=
