### Running on host: unam-asus

     Program PWSCF v.7.2 starts on 16Feb2024 at 10:58: 2 

     This program is part of the open-source Quantum ESPRESSO suite
     for quantum simulation of materials; please cite
         "P. Giannozzi et al., J. Phys.:Condens. Matter 21 395502 (2009);
         "P. Giannozzi et al., J. Phys.:Condens. Matter 29 465901 (2017);
         "P. Giannozzi et al., J. Chem. Phys. 152 154105 (2020);
          URL http://www.quantum-espresso.org", 
     in publications or presentations arising from this work. More details at
     http://www.quantum-espresso.org/quote

     Parallel version (MPI), running on    10 processors

     MPI processes distributed on     1 nodes
     770 MiB available memory on the printing compute node when the environment starts

     Reading input from scf.50.in

     Current dimensions of program PWSCF are:
     Max number of different atomic species (ntypx) = 10
     Max number of k-points (npk) =  40000
     Max angular momentum in pseudopotentials (lmaxx) =  4
     file S.pbe-n-kjpaw_psl.1.0.0.UPF: wavefunction(s)  3S 3P renormalized

     gamma-point specific algorithms are used

     R & G space division:  proc/nbgrp/npool/nimage =      10
     Subspace diagonalization in iterative solution of the eigenvalue problem:
     a serial algorithm will be used


     Parallelization info
     --------------------
     sticks:   dense  smooth     PW     G-vecs:    dense   smooth      PW
     Min         567     567    142                32243    32243    4032
     Max         570     570    144                32250    32250    4036
     Sum        5689    5689   1433               322453   322453   40339

     Using Slab Decomposition



     bravais-lattice index     =            1
     lattice parameter (alat)  =      18.8973  a.u.
     unit-cell volume          =    6748.3345 (a.u.)^3
     number of atoms/cell      =            2
     number of atomic types    =            1
     number of electrons       =        12.00
     number of Kohn-Sham states=            6
     kinetic-energy cutoff     =      50.0000  Ry
     charge density cutoff     =     200.0000  Ry
     scf convergence threshold =      4.0E-07
     mixing beta               =       0.7000
     number of iterations used =            8  plain     mixing
     Exchange-correlation= SLA  PW   PBX  PBC
                           (   1   4   3   4   0   0   0)

     celldm(1)=  18.897261  celldm(2)=   0.000000  celldm(3)=   0.000000
     celldm(4)=   0.000000  celldm(5)=   0.000000  celldm(6)=   0.000000

     crystal axes: (cart. coord. in units of alat)
               a(1) = (   1.000000   0.000000   0.000000 )  
               a(2) = (   0.000000   1.000000   0.000000 )  
               a(3) = (   0.000000   0.000000   1.000000 )  

     reciprocal axes: (cart. coord. in units 2 pi/alat)
               b(1) = (  1.000000  0.000000  0.000000 )  
               b(2) = (  0.000000  1.000000  0.000000 )  
               b(3) = (  0.000000  0.000000  1.000000 )  


     PseudoPot. # 1 for S  read from file:
     /home/abdul/git_repo/ZnS_Cu-Vacancy/pseudo/QE/S.pbe-n-kjpaw_psl.1.0.0.UPF
     MD5 check sum: fb45dfebcf3e72a4e1bd4a866ec2e262
     Pseudo is Projector augmented-wave + core cor, Zval =  6.0
     Generated using &quot;atomic&quot; code by A. Dal Corso  v.6.3
     Shape of augmentation charge: PSQ
     Using radial grid of 1151 points,  6 beta functions with: 
                l(1) =   0
                l(2) =   0
                l(3) =   1
                l(4) =   1
                l(5) =   2
                l(6) =   2
     Q(r) pseudized with 0 coefficients 


     atomic species   valence    mass     pseudopotential
        S              6.00    65.38000     S ( 1.00)

      8 Sym. Ops. (no inversion) found


                                    s                        frac. trans.

      isym =  1     identity                                     

 cryst.   s( 1) = (     1          0          0      )
                  (     0          1          0      )
                  (     0          0          1      )

 cart.    s( 1) = (  1.0000000  0.0000000  0.0000000 )
                  (  0.0000000  1.0000000  0.0000000 )
                  (  0.0000000  0.0000000  1.0000000 )


      isym =  2     180 deg rotation - cart. axis [1,0,0]        

 cryst.   s( 2) = (     1          0          0      )
                  (     0         -1          0      )
                  (     0          0         -1      )

 cart.    s( 2) = (  1.0000000  0.0000000  0.0000000 )
                  (  0.0000000 -1.0000000  0.0000000 )
                  (  0.0000000  0.0000000 -1.0000000 )


      isym =  3      90 deg rotation - cart. axis [-1,0,0]       

 cryst.   s( 3) = (     1          0          0      )
                  (     0          0         -1      )
                  (     0          1          0      )

 cart.    s( 3) = (  1.0000000  0.0000000  0.0000000 )
                  (  0.0000000  0.0000000  1.0000000 )
                  (  0.0000000 -1.0000000  0.0000000 )


      isym =  4      90 deg rotation - cart. axis [1,0,0]        

 cryst.   s( 4) = (     1          0          0      )
                  (     0          0          1      )
                  (     0         -1          0      )

 cart.    s( 4) = (  1.0000000  0.0000000  0.0000000 )
                  (  0.0000000  0.0000000 -1.0000000 )
                  (  0.0000000  1.0000000  0.0000000 )


      isym =  5     inv. 180 deg rotation - cart. axis [0,0,1]   

 cryst.   s( 5) = (     1          0          0      )
                  (     0          1          0      )
                  (     0          0         -1      )

 cart.    s( 5) = (  1.0000000  0.0000000  0.0000000 )
                  (  0.0000000  1.0000000  0.0000000 )
                  (  0.0000000  0.0000000 -1.0000000 )


      isym =  6     inv. 180 deg rotation - cart. axis [0,1,0]   

 cryst.   s( 6) = (     1          0          0      )
                  (     0         -1          0      )
                  (     0          0          1      )

 cart.    s( 6) = (  1.0000000  0.0000000  0.0000000 )
                  (  0.0000000 -1.0000000  0.0000000 )
                  (  0.0000000  0.0000000  1.0000000 )


      isym =  7     inv. 180 deg rotation - cart. axis [0,1,1]   

 cryst.   s( 7) = (     1          0          0      )
                  (     0          0         -1      )
                  (     0         -1          0      )

 cart.    s( 7) = (  1.0000000  0.0000000  0.0000000 )
                  (  0.0000000  0.0000000 -1.0000000 )
                  (  0.0000000 -1.0000000  0.0000000 )


      isym =  8     inv. 180 deg rotation - cart. axis [0,1,-1]  

 cryst.   s( 8) = (     1          0          0      )
                  (     0          0          1      )
                  (     0          1          0      )

 cart.    s( 8) = (  1.0000000  0.0000000  0.0000000 )
                  (  0.0000000  0.0000000  1.0000000 )
                  (  0.0000000  1.0000000  0.0000000 )


     point group C_4v (4mm) 
     there are  5 classes
     the character table:

       E     2C4   C2    2s_v  2s_d 
A_1    1.00  1.00  1.00  1.00  1.00
A_2    1.00  1.00  1.00 -1.00 -1.00
B_1    1.00 -1.00  1.00  1.00 -1.00
B_2    1.00 -1.00  1.00 -1.00  1.00
E      2.00  0.00 -2.00  0.00  0.00

     the symmetry operations in each class and the name of the first element:

     E        1
          identity                                               
     2C4      3    4
           90 deg rotation - cart. axis [-1,0,0]                 
     C2       2
          180 deg rotation - cart. axis [1,0,0]                  
     2s_v     5    6
          inv. 180 deg rotation - cart. axis [0,0,1]             
     2s_d     7    8
          inv. 180 deg rotation - cart. axis [0,1,1]             

   Cartesian axes

     site n.     atom                  positions (alat units)
         1           S   tau(   1) = (   0.0000000   0.0000000   0.0000000  )
         2           S   tau(   2) = (   0.1890000   0.0000000   0.0000000  )

   Crystallographic axes

     site n.     atom                  positions (cryst. coord.)
         1           S   tau(   1) = (  0.0000000  0.0000000  0.0000000  )
         2           S   tau(   2) = (  0.1890000  0.0000000  0.0000000  )

     number of k points=     1
                       cart. coord. in units 2pi/alat
        k(    1) = (   0.0000000   0.0000000   0.0000000), wk =   2.0000000

                       cryst. coord.
        k(    1) = (   0.0000000   0.0000000   0.0000000), wk =   2.0000000

     Dense  grid:   161227 G-vectors     FFT dimensions: (  90,  90,  90)

     Dynamical RAM for                 wfc:       0.18 MB

     Dynamical RAM for     wfc (w. buffer):       0.18 MB

     Dynamical RAM for           str. fact:       0.25 MB

     Dynamical RAM for           local pot:       0.00 MB

     Dynamical RAM for          nlocal pot:       1.11 MB

     Dynamical RAM for                qrad:       1.14 MB

     Dynamical RAM for          rho,v,vnew:       2.41 MB

     Dynamical RAM for               rhoin:       0.80 MB

     Dynamical RAM for            rho*nmix:       3.94 MB

     Dynamical RAM for           G-vectors:       1.05 MB

     Dynamical RAM for          h,s,v(r/c):       0.00 MB

     Dynamical RAM for          <psi|beta>:       0.00 MB

     Dynamical RAM for                 psi:       0.37 MB

     Dynamical RAM for                hpsi:       0.37 MB

     Dynamical RAM for                spsi:       0.37 MB

     Dynamical RAM for      wfcinit/wfcrot:       0.37 MB

     Dynamical RAM for           addusdens:      46.25 MB

     Estimated static dynamical RAM per process >      10.20 MB

     Estimated max dynamical RAM per process >      60.38 MB

     Estimated total dynamical RAM >     603.84 MB
     Cannot read rho : file not found

     Initial potential from superposition of free atoms

     starting charge      11.9999, renormalised to      12.0000

     negative rho (up, down):  2.360E-04 0.000E+00
     Message from routine qexsd_readschema :
     xml data file ./out/S.save/data-file-schema.xml not found
     Cannot read wfcs: file not found
     Starting wfcs are    8 randomized atomic wfcs
     Checking if some PAW data can be deallocated... 

     total cpu time spent up to now is        1.0 secs

     Self-consistent Calculation

     iteration #  1     ecut=    50.00 Ry     beta= 0.70
     Davidson diagonalization with overlap

---- Real-time Memory Report at c_bands before calling an iterative solver
            88 MiB given to the printing process from OS
             0 MiB allocation reported by mallinfo(arena+hblkhd)
           839 MiB available memory on the node where the printing process lives
------------------
     ethr =  1.00E-05,  avg # of iterations =  9.0

     negative rho (up, down):  9.132E-05 0.000E+00

     total cpu time spent up to now is        2.0 secs

     total energy              =    -132.41902752 Ry
     estimated scf accuracy    <       0.08349135 Ry

     iteration #  2     ecut=    50.00 Ry     beta= 0.70
     Davidson diagonalization with overlap

---- Real-time Memory Report at c_bands before calling an iterative solver
            96 MiB given to the printing process from OS
             0 MiB allocation reported by mallinfo(arena+hblkhd)
           852 MiB available memory on the node where the printing process lives
------------------
     ethr =  6.96E-04,  avg # of iterations =  2.0

     negative rho (up, down):  6.506E-05 0.000E+00

     total cpu time spent up to now is        2.9 secs

     total energy              =    -132.42757642 Ry
     estimated scf accuracy    <       0.00614207 Ry

     iteration #  3     ecut=    50.00 Ry     beta= 0.70
     Davidson diagonalization with overlap

---- Real-time Memory Report at c_bands before calling an iterative solver
            97 MiB given to the printing process from OS
             0 MiB allocation reported by mallinfo(arena+hblkhd)
           823 MiB available memory on the node where the printing process lives
------------------
     ethr =  5.12E-05,  avg # of iterations =  2.0

     negative rho (up, down):  5.984E-05 0.000E+00

     total cpu time spent up to now is        3.7 secs

     total energy              =    -132.42881525 Ry
     estimated scf accuracy    <       0.00028586 Ry

     iteration #  4     ecut=    50.00 Ry     beta= 0.70
     Davidson diagonalization with overlap

---- Real-time Memory Report at c_bands before calling an iterative solver
            97 MiB given to the printing process from OS
             0 MiB allocation reported by mallinfo(arena+hblkhd)
           814 MiB available memory on the node where the printing process lives
------------------
     ethr =  2.38E-06,  avg # of iterations =  2.0

     negative rho (up, down):  5.948E-05 0.000E+00

     total cpu time spent up to now is        4.5 secs

     total energy              =    -132.42884428 Ry
     estimated scf accuracy    <       0.00002531 Ry

     iteration #  5     ecut=    50.00 Ry     beta= 0.70
     Davidson diagonalization with overlap

---- Real-time Memory Report at c_bands before calling an iterative solver
            98 MiB given to the printing process from OS
             0 MiB allocation reported by mallinfo(arena+hblkhd)
           801 MiB available memory on the node where the printing process lives
------------------
     ethr =  2.11E-07,  avg # of iterations =  2.0

     negative rho (up, down):  5.907E-05 0.000E+00

     total cpu time spent up to now is        5.3 secs

     total energy              =    -132.42885119 Ry
     estimated scf accuracy    <       0.00000104 Ry

     iteration #  6     ecut=    50.00 Ry     beta= 0.70
     Davidson diagonalization with overlap

---- Real-time Memory Report at c_bands before calling an iterative solver
            98 MiB given to the printing process from OS
             0 MiB allocation reported by mallinfo(arena+hblkhd)
           801 MiB available memory on the node where the printing process lives
------------------
     ethr =  8.69E-09,  avg # of iterations =  3.0

     negative rho (up, down):  5.898E-05 0.000E+00

     total cpu time spent up to now is        6.0 secs

     End of self-consistent calculation

          k = 0.0000 0.0000 0.0000 ( 20170 PWs)   bands (ev):

   -20.4472 -14.8117  -9.3306  -8.7883  -8.0861  -4.4890

     occupation numbers 
     1.0000   1.0000   1.0000   1.0000   1.0000   1.0000

     highest occupied level (ev):    -4.4890

!    total energy              =    -132.42885127 Ry
     total all-electron energy =     -1596.631092 Ry
     estimated scf accuracy    <       0.00000036 Ry

     The total energy is the sum of the following terms:
     one-electron contribution =     -61.58424583 Ry
     hartree contribution      =      32.51809649 Ry
     xc contribution           =      -9.94474761 Ry
     ewald contribution        =      -1.16122816 Ry
     one-center paw contrib.   =     -92.25672617 Ry
      -> PAW hartree energy AE =      11.00630455 Ry
      -> PAW hartree energy PS =     -10.95166750 Ry
      -> PAW xc energy AE      =     -50.32629429 Ry
      -> PAW xc energy PS      =       4.14329768 Ry
      -> total E_H with PAW    =      32.57273353 Ry
      -> total E_XC with PAW   =     -56.12774422 Ry

     convergence has been achieved in   6 iterations

     Writing all to output data dir ./out/S.save/

     init_run     :      0.77s CPU      0.89s WALL (       1 calls)
     electrons    :      4.14s CPU      5.02s WALL (       1 calls)

     Called by init_run:
     wfcinit      :      0.04s CPU      0.04s WALL (       1 calls)
     wfcinit:atom :      0.00s CPU      0.00s WALL (       1 calls)
     wfcinit:wfcr :      0.03s CPU      0.04s WALL (       1 calls)
     potinit      :      0.21s CPU      0.26s WALL (       1 calls)
     hinit0       :      0.31s CPU      0.31s WALL (       1 calls)

     Called by electrons:
     c_bands      :      0.74s CPU      0.77s WALL (       6 calls)
     sum_band     :      0.90s CPU      1.26s WALL (       6 calls)
     v_of_rho     :      0.83s CPU      0.96s WALL (       7 calls)
     v_h          :      0.12s CPU      0.13s WALL (       7 calls)
     v_xc         :      0.71s CPU      0.83s WALL (       7 calls)
     newd         :      1.01s CPU      1.34s WALL (       7 calls)
     PAW_pot      :      0.81s CPU      0.92s WALL (       7 calls)
     mix_rho      :      0.13s CPU      0.13s WALL (       6 calls)

     Called by c_bands:
     init_us_2    :      0.02s CPU      0.02s WALL (      13 calls)
     init_us_2:cp :      0.02s CPU      0.02s WALL (      13 calls)
     regterg      :      0.71s CPU      0.74s WALL (       6 calls)

     Called by sum_band:
     sum_band:wei :      0.00s CPU      0.00s WALL (       6 calls)
     sum_band:loo :      0.12s CPU      0.12s WALL (       6 calls)
     sum_band:buf :      0.00s CPU      0.00s WALL (       6 calls)
     sum_band:ini :      0.01s CPU      0.01s WALL (       6 calls)
     sum_band:cal :      0.02s CPU      0.02s WALL (       6 calls)
     sum_band:bec :      0.00s CPU      0.00s WALL (       6 calls)
     addusdens    :      0.64s CPU      0.98s WALL (       6 calls)
                                        0.00s GPU  (       6 calls)
     addusd:skk   :      0.00s CPU      0.00s WALL (       6 calls)
                                        0.00s GPU  (       6 calls)

     Called by *egterg:
     rdiaghg      :      0.00s CPU      0.01s WALL (      26 calls)
     regterg:over :      0.03s CPU      0.03s WALL (      20 calls)
     regterg:upda :      0.01s CPU      0.01s WALL (      20 calls)
     regterg:last :      0.02s CPU      0.02s WALL (      19 calls)
     h_psi        :      0.62s CPU      0.63s WALL (      27 calls)
     s_psi        :      0.03s CPU      0.03s WALL (      27 calls)
     g_psi        :      0.00s CPU      0.00s WALL (      20 calls)

     Called by h_psi:
     h_psi:calbec :      0.09s CPU      0.09s WALL (      27 calls)
     vloc_psi     :      0.49s CPU      0.51s WALL (      27 calls)
     add_vuspsi   :      0.03s CPU      0.03s WALL (      27 calls)

     General routines
     calbec       :      0.11s CPU      0.11s WALL (      33 calls)
     fft          :      0.69s CPU      0.74s WALL (      63 calls)
     ffts         :      0.03s CPU      0.03s WALL (       6 calls)
     fftw         :      0.43s CPU      0.45s WALL (     166 calls)

     Parallel routines

     PAW routines
     PAW_pot      :      0.81s CPU      0.92s WALL (       7 calls)
     PAW_symme    :      0.01s CPU      0.01s WALL (      13 calls)

     PWSCF        :      5.05s CPU      6.07s WALL


   This run was terminated on:  10:58: 8  16Feb2024            

=------------------------------------------------------------------------------=
   JOB DONE.
=------------------------------------------------------------------------------=
