
     Program PWSCF v.7.2 starts on 22Mar2024 at  5:53:39 

     This program is part of the open-source Quantum ESPRESSO suite
     for quantum simulation of materials; please cite
         "P. Giannozzi et al., J. Phys.:Condens. Matter 21 395502 (2009);
         "P. Giannozzi et al., J. Phys.:Condens. Matter 29 465901 (2017);
         "P. Giannozzi et al., J. Chem. Phys. 152 154105 (2020);
          URL http://www.quantum-espresso.org", 
     in publications or presentations arising from this work. More details at
     http://www.quantum-espresso.org/quote

     Parallel version (MPI), running on    20 processors

     MPI processes distributed on     1 nodes
     356081 MiB available memory on the printing compute node when the environment starts
 
     Waiting for input...
     Reading input from standard input

     Current dimensions of program PWSCF are:
     Max number of different atomic species (ntypx) = 10
     Max number of k-points (npk) = 120000
     Max angular momentum in pseudopotentials (lmaxx) =  4
     file Ni.pbe-spn-kjpaw_psl.1.0.0.UPF: wavefunction(s)  3P 3D renormalized
     Found identity + (  0.0000 -0.5000 -0.5000) symmetry
     This is a supercell, fractional translations are disabled
 
     R & G space division:  proc/nbgrp/npool/nimage =      20
     Subspace diagonalization in iterative solution of the eigenvalue problem:
     a serial algorithm will be used

 
     Parallelization info
     --------------------
     sticks:   dense  smooth     PW     G-vecs:    dense   smooth      PW
     Min         139     104     29                 5576     3620     551
     Max         141     105     30                 5579     3625     556
     Sum        2801    2093    593               111539    72455   11067
 
     Using Slab Decomposition
 


     bravais-lattice index     =            1
     lattice parameter (alat)  =       6.6329  a.u.
     unit-cell volume          =     291.8219 (a.u.)^3
     number of atoms/cell      =            4
     number of atomic types    =            1
     number of electrons       =        72.00
     number of Kohn-Sham states=           43
     kinetic-energy cutoff     =     150.0000  Ry
     charge density cutoff     =     800.0000  Ry
     scf convergence threshold =      8.0E-08
     mixing beta               =       0.7000
     number of iterations used =            8  plain     mixing
     Exchange-correlation= SLA  PW   PBX  PBC
                           (   1   4   3   4   0   0   0)

     celldm(1)=   6.632939  celldm(2)=   0.000000  celldm(3)=   0.000000
     celldm(4)=   0.000000  celldm(5)=   0.000000  celldm(6)=   0.000000

     crystal axes: (cart. coord. in units of alat)
               a(1) = (   1.000000   0.000000   0.000000 )  
               a(2) = (   0.000000   1.000000   0.000000 )  
               a(3) = (   0.000000   0.000000   1.000000 )  

     reciprocal axes: (cart. coord. in units 2 pi/alat)
               b(1) = (  1.000000  0.000000  0.000000 )  
               b(2) = (  0.000000  1.000000  0.000000 )  
               b(3) = (  0.000000  0.000000  1.000000 )  


     PseudoPot. # 1 for Ni read from file:
     /truba/home/amuhaymin/ZnS/pseudo/QE/Ni.pbe-spn-kjpaw_psl.1.0.0.UPF
     MD5 check sum: 6e86b733589c3ad8389697b807d86aa7
     Pseudo is Projector augmented-wave + core cor, Zval = 18.0
     Generated using &quot;atomic&quot; code by A. Dal Corso  v.6.3
     Shape of augmentation charge: PSQ
     Using radial grid of 1195 points,  6 beta functions with: 
                l(1) =   0
                l(2) =   0
                l(3) =   1
                l(4) =   1
                l(5) =   2
                l(6) =   2
     Q(r) pseudized with 0 coefficients 


     atomic species   valence    mass     pseudopotential
        Ni            18.00    58.69340     Ni( 1.00)

     Starting magnetic structure 
     atomic species   magnetization
        Ni           0.278

     48 Sym. Ops., with inversion, found


                                    s                        frac. trans.

      isym =  1     identity                                     

 cryst.   s( 1) = (     1          0          0      )
                  (     0          1          0      )
                  (     0          0          1      )

 cart.    s( 1) = (  1.0000000  0.0000000  0.0000000 )
                  (  0.0000000  1.0000000  0.0000000 )
                  (  0.0000000  0.0000000  1.0000000 )


      isym =  2     180 deg rotation - cart. axis [0,0,1]        

 cryst.   s( 2) = (    -1          0          0      )
                  (     0         -1          0      )
                  (     0          0          1      )

 cart.    s( 2) = ( -1.0000000  0.0000000  0.0000000 )
                  (  0.0000000 -1.0000000  0.0000000 )
                  (  0.0000000  0.0000000  1.0000000 )


      isym =  3     180 deg rotation - cart. axis [0,1,0]        

 cryst.   s( 3) = (    -1          0          0      )
                  (     0          1          0      )
                  (     0          0         -1      )

 cart.    s( 3) = ( -1.0000000  0.0000000  0.0000000 )
                  (  0.0000000  1.0000000  0.0000000 )
                  (  0.0000000  0.0000000 -1.0000000 )


      isym =  4     180 deg rotation - cart. axis [1,0,0]        

 cryst.   s( 4) = (     1          0          0      )
                  (     0         -1          0      )
                  (     0          0         -1      )

 cart.    s( 4) = (  1.0000000  0.0000000  0.0000000 )
                  (  0.0000000 -1.0000000  0.0000000 )
                  (  0.0000000  0.0000000 -1.0000000 )


      isym =  5     180 deg rotation - cart. axis [1,1,0]        

 cryst.   s( 5) = (     0          1          0      )
                  (     1          0          0      )
                  (     0          0         -1      )

 cart.    s( 5) = (  0.0000000  1.0000000  0.0000000 )
                  (  1.0000000  0.0000000  0.0000000 )
                  (  0.0000000  0.0000000 -1.0000000 )


      isym =  6     180 deg rotation - cart. axis [1,-1,0]       

 cryst.   s( 6) = (     0         -1          0      )
                  (    -1          0          0      )
                  (     0          0         -1      )

 cart.    s( 6) = (  0.0000000 -1.0000000  0.0000000 )
                  ( -1.0000000  0.0000000  0.0000000 )
                  (  0.0000000  0.0000000 -1.0000000 )


      isym =  7      90 deg rotation - cart. axis [0,0,-1]       

 cryst.   s( 7) = (     0         -1          0      )
                  (     1          0          0      )
                  (     0          0          1      )

 cart.    s( 7) = (  0.0000000  1.0000000  0.0000000 )
                  ( -1.0000000  0.0000000  0.0000000 )
                  (  0.0000000  0.0000000  1.0000000 )


      isym =  8      90 deg rotation - cart. axis [0,0,1]        

 cryst.   s( 8) = (     0          1          0      )
                  (    -1          0          0      )
                  (     0          0          1      )

 cart.    s( 8) = (  0.0000000 -1.0000000  0.0000000 )
                  (  1.0000000  0.0000000  0.0000000 )
                  (  0.0000000  0.0000000  1.0000000 )


      isym =  9     180 deg rotation - cart. axis [1,0,1]        

 cryst.   s( 9) = (     0          0          1      )
                  (     0         -1          0      )
                  (     1          0          0      )

 cart.    s( 9) = (  0.0000000  0.0000000  1.0000000 )
                  (  0.0000000 -1.0000000  0.0000000 )
                  (  1.0000000  0.0000000  0.0000000 )


      isym = 10     180 deg rotation - cart. axis [-1,0,1]       

 cryst.   s(10) = (     0          0         -1      )
                  (     0         -1          0      )
                  (    -1          0          0      )

 cart.    s(10) = (  0.0000000  0.0000000 -1.0000000 )
                  (  0.0000000 -1.0000000  0.0000000 )
                  ( -1.0000000  0.0000000  0.0000000 )


      isym = 11      90 deg rotation - cart. axis [0,1,0]        

 cryst.   s(11) = (     0          0         -1      )
                  (     0          1          0      )
                  (     1          0          0      )

 cart.    s(11) = (  0.0000000  0.0000000  1.0000000 )
                  (  0.0000000  1.0000000  0.0000000 )
                  ( -1.0000000  0.0000000  0.0000000 )


      isym = 12      90 deg rotation - cart. axis [0,-1,0]       

 cryst.   s(12) = (     0          0          1      )
                  (     0          1          0      )
                  (    -1          0          0      )

 cart.    s(12) = (  0.0000000  0.0000000 -1.0000000 )
                  (  0.0000000  1.0000000  0.0000000 )
                  (  1.0000000  0.0000000  0.0000000 )


      isym = 13     180 deg rotation - cart. axis [0,1,1]        

 cryst.   s(13) = (    -1          0          0      )
                  (     0          0          1      )
                  (     0          1          0      )

 cart.    s(13) = ( -1.0000000  0.0000000  0.0000000 )
                  (  0.0000000  0.0000000  1.0000000 )
                  (  0.0000000  1.0000000  0.0000000 )


      isym = 14     180 deg rotation - cart. axis [0,1,-1]       

 cryst.   s(14) = (    -1          0          0      )
                  (     0          0         -1      )
                  (     0         -1          0      )

 cart.    s(14) = ( -1.0000000  0.0000000  0.0000000 )
                  (  0.0000000  0.0000000 -1.0000000 )
                  (  0.0000000 -1.0000000  0.0000000 )


      isym = 15      90 deg rotation - cart. axis [-1,0,0]       

 cryst.   s(15) = (     1          0          0      )
                  (     0          0         -1      )
                  (     0          1          0      )

 cart.    s(15) = (  1.0000000  0.0000000  0.0000000 )
                  (  0.0000000  0.0000000  1.0000000 )
                  (  0.0000000 -1.0000000  0.0000000 )


      isym = 16      90 deg rotation - cart. axis [1,0,0]        

 cryst.   s(16) = (     1          0          0      )
                  (     0          0          1      )
                  (     0         -1          0      )

 cart.    s(16) = (  1.0000000  0.0000000  0.0000000 )
                  (  0.0000000  0.0000000 -1.0000000 )
                  (  0.0000000  1.0000000  0.0000000 )


      isym = 17     120 deg rotation - cart. axis [-1,-1,-1]     

 cryst.   s(17) = (     0          0          1      )
                  (     1          0          0      )
                  (     0          1          0      )

 cart.    s(17) = (  0.0000000  1.0000000  0.0000000 )
                  (  0.0000000  0.0000000  1.0000000 )
                  (  1.0000000  0.0000000  0.0000000 )


      isym = 18     120 deg rotation - cart. axis [-1,1,1]       

 cryst.   s(18) = (     0          0         -1      )
                  (    -1          0          0      )
                  (     0          1          0      )

 cart.    s(18) = (  0.0000000 -1.0000000  0.0000000 )
                  (  0.0000000  0.0000000  1.0000000 )
                  ( -1.0000000  0.0000000  0.0000000 )


      isym = 19     120 deg rotation - cart. axis [1,1,-1]       

 cryst.   s(19) = (     0          0         -1      )
                  (     1          0          0      )
                  (     0         -1          0      )

 cart.    s(19) = (  0.0000000  1.0000000  0.0000000 )
                  (  0.0000000  0.0000000 -1.0000000 )
                  ( -1.0000000  0.0000000  0.0000000 )


      isym = 20     120 deg rotation - cart. axis [1,-1,1]       

 cryst.   s(20) = (     0          0          1      )
                  (    -1          0          0      )
                  (     0         -1          0      )

 cart.    s(20) = (  0.0000000 -1.0000000  0.0000000 )
                  (  0.0000000  0.0000000 -1.0000000 )
                  (  1.0000000  0.0000000  0.0000000 )


      isym = 21     120 deg rotation - cart. axis [1,1,1]        

 cryst.   s(21) = (     0          1          0      )
                  (     0          0          1      )
                  (     1          0          0      )

 cart.    s(21) = (  0.0000000  0.0000000  1.0000000 )
                  (  1.0000000  0.0000000  0.0000000 )
                  (  0.0000000  1.0000000  0.0000000 )


      isym = 22     120 deg rotation - cart. axis [-1,1,-1]      

 cryst.   s(22) = (     0         -1          0      )
                  (     0          0         -1      )
                  (     1          0          0      )

 cart.    s(22) = (  0.0000000  0.0000000  1.0000000 )
                  ( -1.0000000  0.0000000  0.0000000 )
                  (  0.0000000 -1.0000000  0.0000000 )


      isym = 23     120 deg rotation - cart. axis [1,-1,-1]      

 cryst.   s(23) = (     0         -1          0      )
                  (     0          0          1      )
                  (    -1          0          0      )

 cart.    s(23) = (  0.0000000  0.0000000 -1.0000000 )
                  ( -1.0000000  0.0000000  0.0000000 )
                  (  0.0000000  1.0000000  0.0000000 )


      isym = 24     120 deg rotation - cart. axis [-1,-1,1]      

 cryst.   s(24) = (     0          1          0      )
                  (     0          0         -1      )
                  (    -1          0          0      )

 cart.    s(24) = (  0.0000000  0.0000000 -1.0000000 )
                  (  1.0000000  0.0000000  0.0000000 )
                  (  0.0000000 -1.0000000  0.0000000 )


      isym = 25     inversion                                    

 cryst.   s(25) = (    -1          0          0      )
                  (     0         -1          0      )
                  (     0          0         -1      )

 cart.    s(25) = ( -1.0000000  0.0000000  0.0000000 )
                  (  0.0000000 -1.0000000  0.0000000 )
                  (  0.0000000  0.0000000 -1.0000000 )


      isym = 26     inv. 180 deg rotation - cart. axis [0,0,1]   

 cryst.   s(26) = (     1          0          0      )
                  (     0          1          0      )
                  (     0          0         -1      )

 cart.    s(26) = (  1.0000000  0.0000000  0.0000000 )
                  (  0.0000000  1.0000000  0.0000000 )
                  (  0.0000000  0.0000000 -1.0000000 )


      isym = 27     inv. 180 deg rotation - cart. axis [0,1,0]   

 cryst.   s(27) = (     1          0          0      )
                  (     0         -1          0      )
                  (     0          0          1      )

 cart.    s(27) = (  1.0000000  0.0000000  0.0000000 )
                  (  0.0000000 -1.0000000  0.0000000 )
                  (  0.0000000  0.0000000  1.0000000 )


      isym = 28     inv. 180 deg rotation - cart. axis [1,0,0]   

 cryst.   s(28) = (    -1          0          0      )
                  (     0          1          0      )
                  (     0          0          1      )

 cart.    s(28) = ( -1.0000000  0.0000000  0.0000000 )
                  (  0.0000000  1.0000000  0.0000000 )
                  (  0.0000000  0.0000000  1.0000000 )


      isym = 29     inv. 180 deg rotation - cart. axis [1,1,0]   

 cryst.   s(29) = (     0         -1          0      )
                  (    -1          0          0      )
                  (     0          0          1      )

 cart.    s(29) = (  0.0000000 -1.0000000  0.0000000 )
                  ( -1.0000000  0.0000000  0.0000000 )
                  (  0.0000000  0.0000000  1.0000000 )


      isym = 30     inv. 180 deg rotation - cart. axis [1,-1,0]  

 cryst.   s(30) = (     0          1          0      )
                  (     1          0          0      )
                  (     0          0          1      )

 cart.    s(30) = (  0.0000000  1.0000000  0.0000000 )
                  (  1.0000000  0.0000000  0.0000000 )
                  (  0.0000000  0.0000000  1.0000000 )


      isym = 31     inv.  90 deg rotation - cart. axis [0,0,-1]  

 cryst.   s(31) = (     0          1          0      )
                  (    -1          0          0      )
                  (     0          0         -1      )

 cart.    s(31) = (  0.0000000 -1.0000000  0.0000000 )
                  (  1.0000000  0.0000000  0.0000000 )
                  (  0.0000000  0.0000000 -1.0000000 )


      isym = 32     inv.  90 deg rotation - cart. axis [0,0,1]   

 cryst.   s(32) = (     0         -1          0      )
                  (     1          0          0      )
                  (     0          0         -1      )

 cart.    s(32) = (  0.0000000  1.0000000  0.0000000 )
                  ( -1.0000000  0.0000000  0.0000000 )
                  (  0.0000000  0.0000000 -1.0000000 )


      isym = 33     inv. 180 deg rotation - cart. axis [1,0,1]   

 cryst.   s(33) = (     0          0         -1      )
                  (     0          1          0      )
                  (    -1          0          0      )

 cart.    s(33) = (  0.0000000  0.0000000 -1.0000000 )
                  (  0.0000000  1.0000000  0.0000000 )
                  ( -1.0000000  0.0000000  0.0000000 )


      isym = 34     inv. 180 deg rotation - cart. axis [-1,0,1]  

 cryst.   s(34) = (     0          0          1      )
                  (     0          1          0      )
                  (     1          0          0      )

 cart.    s(34) = (  0.0000000  0.0000000  1.0000000 )
                  (  0.0000000  1.0000000  0.0000000 )
                  (  1.0000000  0.0000000  0.0000000 )


      isym = 35     inv.  90 deg rotation - cart. axis [0,1,0]   

 cryst.   s(35) = (     0          0          1      )
                  (     0         -1          0      )
                  (    -1          0          0      )

 cart.    s(35) = (  0.0000000  0.0000000 -1.0000000 )
                  (  0.0000000 -1.0000000  0.0000000 )
                  (  1.0000000  0.0000000  0.0000000 )


      isym = 36     inv.  90 deg rotation - cart. axis [0,-1,0]  

 cryst.   s(36) = (     0          0         -1      )
                  (     0         -1          0      )
                  (     1          0          0      )

 cart.    s(36) = (  0.0000000  0.0000000  1.0000000 )
                  (  0.0000000 -1.0000000  0.0000000 )
                  ( -1.0000000  0.0000000  0.0000000 )


      isym = 37     inv. 180 deg rotation - cart. axis [0,1,1]   

 cryst.   s(37) = (     1          0          0      )
                  (     0          0         -1      )
                  (     0         -1          0      )

 cart.    s(37) = (  1.0000000  0.0000000  0.0000000 )
                  (  0.0000000  0.0000000 -1.0000000 )
                  (  0.0000000 -1.0000000  0.0000000 )


      isym = 38     inv. 180 deg rotation - cart. axis [0,1,-1]  

 cryst.   s(38) = (     1          0          0      )
                  (     0          0          1      )
                  (     0          1          0      )

 cart.    s(38) = (  1.0000000  0.0000000  0.0000000 )
                  (  0.0000000  0.0000000  1.0000000 )
                  (  0.0000000  1.0000000  0.0000000 )


      isym = 39     inv.  90 deg rotation - cart. axis [-1,0,0]  

 cryst.   s(39) = (    -1          0          0      )
                  (     0          0          1      )
                  (     0         -1          0      )

 cart.    s(39) = ( -1.0000000  0.0000000  0.0000000 )
                  (  0.0000000  0.0000000 -1.0000000 )
                  (  0.0000000  1.0000000  0.0000000 )


      isym = 40     inv.  90 deg rotation - cart. axis [1,0,0]   

 cryst.   s(40) = (    -1          0          0      )
                  (     0          0         -1      )
                  (     0          1          0      )

 cart.    s(40) = ( -1.0000000  0.0000000  0.0000000 )
                  (  0.0000000  0.0000000  1.0000000 )
                  (  0.0000000 -1.0000000  0.0000000 )


      isym = 41     inv. 120 deg rotation - cart. axis [-1,-1,-1]

 cryst.   s(41) = (     0          0         -1      )
                  (    -1          0          0      )
                  (     0         -1          0      )

 cart.    s(41) = (  0.0000000 -1.0000000  0.0000000 )
                  (  0.0000000  0.0000000 -1.0000000 )
                  ( -1.0000000  0.0000000  0.0000000 )


      isym = 42     inv. 120 deg rotation - cart. axis [-1,1,1]  

 cryst.   s(42) = (     0          0          1      )
                  (     1          0          0      )
                  (     0         -1          0      )

 cart.    s(42) = (  0.0000000  1.0000000  0.0000000 )
                  (  0.0000000  0.0000000 -1.0000000 )
                  (  1.0000000  0.0000000  0.0000000 )


      isym = 43     inv. 120 deg rotation - cart. axis [1,1,-1]  

 cryst.   s(43) = (     0          0          1      )
                  (    -1          0          0      )
                  (     0          1          0      )

 cart.    s(43) = (  0.0000000 -1.0000000  0.0000000 )
                  (  0.0000000  0.0000000  1.0000000 )
                  (  1.0000000  0.0000000  0.0000000 )


      isym = 44     inv. 120 deg rotation - cart. axis [1,-1,1]  

 cryst.   s(44) = (     0          0         -1      )
                  (     1          0          0      )
                  (     0          1          0      )

 cart.    s(44) = (  0.0000000  1.0000000  0.0000000 )
                  (  0.0000000  0.0000000  1.0000000 )
                  ( -1.0000000  0.0000000  0.0000000 )


      isym = 45     inv. 120 deg rotation - cart. axis [1,1,1]   

 cryst.   s(45) = (     0         -1          0      )
                  (     0          0         -1      )
                  (    -1          0          0      )

 cart.    s(45) = (  0.0000000  0.0000000 -1.0000000 )
                  ( -1.0000000  0.0000000  0.0000000 )
                  (  0.0000000 -1.0000000  0.0000000 )


      isym = 46     inv. 120 deg rotation - cart. axis [-1,1,-1] 

 cryst.   s(46) = (     0          1          0      )
                  (     0          0          1      )
                  (    -1          0          0      )

 cart.    s(46) = (  0.0000000  0.0000000 -1.0000000 )
                  (  1.0000000  0.0000000  0.0000000 )
                  (  0.0000000  1.0000000  0.0000000 )


      isym = 47     inv. 120 deg rotation - cart. axis [1,-1,-1] 

 cryst.   s(47) = (     0          1          0      )
                  (     0          0         -1      )
                  (     1          0          0      )

 cart.    s(47) = (  0.0000000  0.0000000  1.0000000 )
                  (  1.0000000  0.0000000  0.0000000 )
                  (  0.0000000 -1.0000000  0.0000000 )


      isym = 48     inv. 120 deg rotation - cart. axis [-1,-1,1] 

 cryst.   s(48) = (     0         -1          0      )
                  (     0          0          1      )
                  (     1          0          0      )

 cart.    s(48) = (  0.0000000  0.0000000  1.0000000 )
                  ( -1.0000000  0.0000000  0.0000000 )
                  (  0.0000000  1.0000000  0.0000000 )


     point group O_h (m-3m) 
     there are 10 classes
     the character table:

       E     8C3   3C2   6C4   6C2'  i     8S6   3s_h  6S4   6s_d 
A_1g   1.00  1.00  1.00  1.00  1.00  1.00  1.00  1.00  1.00  1.00
A_2g   1.00  1.00  1.00 -1.00 -1.00  1.00  1.00  1.00 -1.00 -1.00
E_g    2.00 -1.00  2.00  0.00  0.00  2.00 -1.00  2.00  0.00  0.00
T_1g   3.00  0.00 -1.00  1.00 -1.00  3.00  0.00 -1.00  1.00 -1.00
T_2g   3.00  0.00 -1.00 -1.00  1.00  3.00  0.00 -1.00 -1.00  1.00
A_1u   1.00  1.00  1.00  1.00  1.00 -1.00 -1.00 -1.00 -1.00 -1.00
A_2u   1.00  1.00  1.00 -1.00 -1.00 -1.00 -1.00 -1.00  1.00  1.00
E_u    2.00 -1.00  2.00  0.00  0.00 -2.00  1.00 -2.00  0.00  0.00
T_1u   3.00  0.00 -1.00  1.00 -1.00 -3.00  0.00  1.00 -1.00  1.00
T_2u   3.00  0.00 -1.00 -1.00  1.00 -3.00  0.00  1.00  1.00 -1.00

     the symmetry operations in each class and the name of the first element:

     E        1
          identity                                               
     8C3     17   19   20   18   24   21   22   23
          120 deg rotation - cart. axis [-1,-1,-1]               
     3C2      2    4    3
          180 deg rotation - cart. axis [0,0,1]                  
     6C4      7    8   15   16   12   11
           90 deg rotation - cart. axis [0,0,-1]                 
     6C2'     5    6   14   13   10    9
          180 deg rotation - cart. axis [1,1,0]                  
     i       25
          inversion                                              
     8S6     41   43   44   42   48   45   46   47
          inv. 120 deg rotation - cart. axis [-1,-1,-1]          
     3s_h    26   28   27
          inv. 180 deg rotation - cart. axis [0,0,1]             
     6S4     31   32   39   40   36   35
          inv.  90 deg rotation - cart. axis [0,0,-1]            
     6s_d    29   30   38   37   34   33
          inv. 180 deg rotation - cart. axis [1,1,0]             

   Cartesian axes

     site n.     atom                  positions (alat units)
         1           Ni  tau(   1) = (   0.0000000   0.0000000   0.0000000  )
         2           Ni  tau(   2) = (   0.0000000   0.5000000   0.5000000  )
         3           Ni  tau(   3) = (   0.5000000   0.0000000   0.5000000  )
         4           Ni  tau(   4) = (   0.5000000   0.5000000   0.0000000  )

   Crystallographic axes

     site n.     atom                  positions (cryst. coord.)
         1           Ni  tau(   1) = (  0.0000000  0.0000000  0.0000000  )
         2           Ni  tau(   2) = (  0.0000000  0.5000000  0.5000000  )
         3           Ni  tau(   3) = (  0.5000000  0.0000000  0.5000000  )
         4           Ni  tau(   4) = (  0.5000000  0.5000000  0.0000000  )

     number of k points=    84  Methfessel-Paxton smearing, width (Ry)=  0.0010
                       cart. coord. in units 2pi/alat
        k(    1) = (   0.0000000   0.0000000   0.0000000), wk =   0.0005787
        k(    2) = (   0.0000000   0.0000000   0.0833333), wk =   0.0034722
        k(    3) = (   0.0000000   0.0000000   0.1666667), wk =   0.0034722
        k(    4) = (   0.0000000   0.0000000   0.2500000), wk =   0.0034722
        k(    5) = (   0.0000000   0.0000000   0.3333333), wk =   0.0034722
        k(    6) = (   0.0000000   0.0000000   0.4166667), wk =   0.0034722
        k(    7) = (   0.0000000   0.0000000  -0.5000000), wk =   0.0017361
        k(    8) = (   0.0000000   0.0833333   0.0833333), wk =   0.0069444
        k(    9) = (   0.0000000   0.0833333   0.1666667), wk =   0.0138889
        k(   10) = (   0.0000000   0.0833333   0.2500000), wk =   0.0138889
        k(   11) = (   0.0000000   0.0833333   0.3333333), wk =   0.0138889
        k(   12) = (   0.0000000   0.0833333   0.4166667), wk =   0.0138889
        k(   13) = (   0.0000000   0.0833333  -0.5000000), wk =   0.0069444
        k(   14) = (   0.0000000   0.1666667   0.1666667), wk =   0.0069444
        k(   15) = (   0.0000000   0.1666667   0.2500000), wk =   0.0138889
        k(   16) = (   0.0000000   0.1666667   0.3333333), wk =   0.0138889
        k(   17) = (   0.0000000   0.1666667   0.4166667), wk =   0.0138889
        k(   18) = (   0.0000000   0.1666667  -0.5000000), wk =   0.0069444
        k(   19) = (   0.0000000   0.2500000   0.2500000), wk =   0.0069444
        k(   20) = (   0.0000000   0.2500000   0.3333333), wk =   0.0138889
        k(   21) = (   0.0000000   0.2500000   0.4166667), wk =   0.0138889
        k(   22) = (   0.0000000   0.2500000  -0.5000000), wk =   0.0069444
        k(   23) = (   0.0000000   0.3333333   0.3333333), wk =   0.0069444
        k(   24) = (   0.0000000   0.3333333   0.4166667), wk =   0.0138889
        k(   25) = (   0.0000000   0.3333333  -0.5000000), wk =   0.0069444
        k(   26) = (   0.0000000   0.4166667   0.4166667), wk =   0.0069444
        k(   27) = (   0.0000000   0.4166667  -0.5000000), wk =   0.0069444
        k(   28) = (   0.0000000  -0.5000000  -0.5000000), wk =   0.0017361
        k(   29) = (   0.0833333   0.0833333   0.0833333), wk =   0.0046296
        k(   30) = (   0.0833333   0.0833333   0.1666667), wk =   0.0138889
        k(   31) = (   0.0833333   0.0833333   0.2500000), wk =   0.0138889
        k(   32) = (   0.0833333   0.0833333   0.3333333), wk =   0.0138889
        k(   33) = (   0.0833333   0.0833333   0.4166667), wk =   0.0138889
        k(   34) = (   0.0833333   0.0833333  -0.5000000), wk =   0.0069444
        k(   35) = (   0.0833333   0.1666667   0.1666667), wk =   0.0138889
        k(   36) = (   0.0833333   0.1666667   0.2500000), wk =   0.0277778
        k(   37) = (   0.0833333   0.1666667   0.3333333), wk =   0.0277778
        k(   38) = (   0.0833333   0.1666667   0.4166667), wk =   0.0277778
        k(   39) = (   0.0833333   0.1666667  -0.5000000), wk =   0.0138889
        k(   40) = (   0.0833333   0.2500000   0.2500000), wk =   0.0138889
        k(   41) = (   0.0833333   0.2500000   0.3333333), wk =   0.0277778
        k(   42) = (   0.0833333   0.2500000   0.4166667), wk =   0.0277778
        k(   43) = (   0.0833333   0.2500000  -0.5000000), wk =   0.0138889
        k(   44) = (   0.0833333   0.3333333   0.3333333), wk =   0.0138889
        k(   45) = (   0.0833333   0.3333333   0.4166667), wk =   0.0277778
        k(   46) = (   0.0833333   0.3333333  -0.5000000), wk =   0.0138889
        k(   47) = (   0.0833333   0.4166667   0.4166667), wk =   0.0138889
        k(   48) = (   0.0833333   0.4166667  -0.5000000), wk =   0.0138889
        k(   49) = (   0.0833333  -0.5000000  -0.5000000), wk =   0.0034722
        k(   50) = (   0.1666667   0.1666667   0.1666667), wk =   0.0046296
        k(   51) = (   0.1666667   0.1666667   0.2500000), wk =   0.0138889
        k(   52) = (   0.1666667   0.1666667   0.3333333), wk =   0.0138889
        k(   53) = (   0.1666667   0.1666667   0.4166667), wk =   0.0138889
        k(   54) = (   0.1666667   0.1666667  -0.5000000), wk =   0.0069444
        k(   55) = (   0.1666667   0.2500000   0.2500000), wk =   0.0138889
        k(   56) = (   0.1666667   0.2500000   0.3333333), wk =   0.0277778
        k(   57) = (   0.1666667   0.2500000   0.4166667), wk =   0.0277778
        k(   58) = (   0.1666667   0.2500000  -0.5000000), wk =   0.0138889
        k(   59) = (   0.1666667   0.3333333   0.3333333), wk =   0.0138889
        k(   60) = (   0.1666667   0.3333333   0.4166667), wk =   0.0277778
        k(   61) = (   0.1666667   0.3333333  -0.5000000), wk =   0.0138889
        k(   62) = (   0.1666667   0.4166667   0.4166667), wk =   0.0138889
        k(   63) = (   0.1666667   0.4166667  -0.5000000), wk =   0.0138889
        k(   64) = (   0.1666667  -0.5000000  -0.5000000), wk =   0.0034722
        k(   65) = (   0.2500000   0.2500000   0.2500000), wk =   0.0046296
        k(   66) = (   0.2500000   0.2500000   0.3333333), wk =   0.0138889
        k(   67) = (   0.2500000   0.2500000   0.4166667), wk =   0.0138889
        k(   68) = (   0.2500000   0.2500000  -0.5000000), wk =   0.0069444
        k(   69) = (   0.2500000   0.3333333   0.3333333), wk =   0.0138889
        k(   70) = (   0.2500000   0.3333333   0.4166667), wk =   0.0277778
        k(   71) = (   0.2500000   0.3333333  -0.5000000), wk =   0.0138889
        k(   72) = (   0.2500000   0.4166667   0.4166667), wk =   0.0138889
        k(   73) = (   0.2500000   0.4166667  -0.5000000), wk =   0.0138889
        k(   74) = (   0.2500000  -0.5000000  -0.5000000), wk =   0.0034722
        k(   75) = (   0.3333333   0.3333333   0.3333333), wk =   0.0046296
        k(   76) = (   0.3333333   0.3333333   0.4166667), wk =   0.0138889
        k(   77) = (   0.3333333   0.3333333  -0.5000000), wk =   0.0069444
        k(   78) = (   0.3333333   0.4166667   0.4166667), wk =   0.0138889
        k(   79) = (   0.3333333   0.4166667  -0.5000000), wk =   0.0138889
        k(   80) = (   0.3333333  -0.5000000  -0.5000000), wk =   0.0034722
        k(   81) = (   0.4166667   0.4166667   0.4166667), wk =   0.0046296
        k(   82) = (   0.4166667   0.4166667  -0.5000000), wk =   0.0069444
        k(   83) = (   0.4166667  -0.5000000  -0.5000000), wk =   0.0034722
        k(   84) = (  -0.5000000  -0.5000000  -0.5000000), wk =   0.0005787

                       cryst. coord.
        k(    1) = (   0.0000000   0.0000000   0.0000000), wk =   0.0005787
        k(    2) = (   0.0000000   0.0000000   0.0833333), wk =   0.0034722
        k(    3) = (   0.0000000   0.0000000   0.1666667), wk =   0.0034722
        k(    4) = (   0.0000000   0.0000000   0.2500000), wk =   0.0034722
        k(    5) = (   0.0000000   0.0000000   0.3333333), wk =   0.0034722
        k(    6) = (   0.0000000   0.0000000   0.4166667), wk =   0.0034722
        k(    7) = (   0.0000000   0.0000000  -0.5000000), wk =   0.0017361
        k(    8) = (   0.0000000   0.0833333   0.0833333), wk =   0.0069444
        k(    9) = (   0.0000000   0.0833333   0.1666667), wk =   0.0138889
        k(   10) = (   0.0000000   0.0833333   0.2500000), wk =   0.0138889
        k(   11) = (   0.0000000   0.0833333   0.3333333), wk =   0.0138889
        k(   12) = (   0.0000000   0.0833333   0.4166667), wk =   0.0138889
        k(   13) = (   0.0000000   0.0833333  -0.5000000), wk =   0.0069444
        k(   14) = (   0.0000000   0.1666667   0.1666667), wk =   0.0069444
        k(   15) = (   0.0000000   0.1666667   0.2500000), wk =   0.0138889
        k(   16) = (   0.0000000   0.1666667   0.3333333), wk =   0.0138889
        k(   17) = (   0.0000000   0.1666667   0.4166667), wk =   0.0138889
        k(   18) = (   0.0000000   0.1666667  -0.5000000), wk =   0.0069444
        k(   19) = (   0.0000000   0.2500000   0.2500000), wk =   0.0069444
        k(   20) = (   0.0000000   0.2500000   0.3333333), wk =   0.0138889
        k(   21) = (   0.0000000   0.2500000   0.4166667), wk =   0.0138889
        k(   22) = (   0.0000000   0.2500000  -0.5000000), wk =   0.0069444
        k(   23) = (   0.0000000   0.3333333   0.3333333), wk =   0.0069444
        k(   24) = (   0.0000000   0.3333333   0.4166667), wk =   0.0138889
        k(   25) = (   0.0000000   0.3333333  -0.5000000), wk =   0.0069444
        k(   26) = (   0.0000000   0.4166667   0.4166667), wk =   0.0069444
        k(   27) = (   0.0000000   0.4166667  -0.5000000), wk =   0.0069444
        k(   28) = (   0.0000000  -0.5000000  -0.5000000), wk =   0.0017361
        k(   29) = (   0.0833333   0.0833333   0.0833333), wk =   0.0046296
        k(   30) = (   0.0833333   0.0833333   0.1666667), wk =   0.0138889
        k(   31) = (   0.0833333   0.0833333   0.2500000), wk =   0.0138889
        k(   32) = (   0.0833333   0.0833333   0.3333333), wk =   0.0138889
        k(   33) = (   0.0833333   0.0833333   0.4166667), wk =   0.0138889
        k(   34) = (   0.0833333   0.0833333  -0.5000000), wk =   0.0069444
        k(   35) = (   0.0833333   0.1666667   0.1666667), wk =   0.0138889
        k(   36) = (   0.0833333   0.1666667   0.2500000), wk =   0.0277778
        k(   37) = (   0.0833333   0.1666667   0.3333333), wk =   0.0277778
        k(   38) = (   0.0833333   0.1666667   0.4166667), wk =   0.0277778
        k(   39) = (   0.0833333   0.1666667  -0.5000000), wk =   0.0138889
        k(   40) = (   0.0833333   0.2500000   0.2500000), wk =   0.0138889
        k(   41) = (   0.0833333   0.2500000   0.3333333), wk =   0.0277778
        k(   42) = (   0.0833333   0.2500000   0.4166667), wk =   0.0277778
        k(   43) = (   0.0833333   0.2500000  -0.5000000), wk =   0.0138889
        k(   44) = (   0.0833333   0.3333333   0.3333333), wk =   0.0138889
        k(   45) = (   0.0833333   0.3333333   0.4166667), wk =   0.0277778
        k(   46) = (   0.0833333   0.3333333  -0.5000000), wk =   0.0138889
        k(   47) = (   0.0833333   0.4166667   0.4166667), wk =   0.0138889
        k(   48) = (   0.0833333   0.4166667  -0.5000000), wk =   0.0138889
        k(   49) = (   0.0833333  -0.5000000  -0.5000000), wk =   0.0034722
        k(   50) = (   0.1666667   0.1666667   0.1666667), wk =   0.0046296
        k(   51) = (   0.1666667   0.1666667   0.2500000), wk =   0.0138889
        k(   52) = (   0.1666667   0.1666667   0.3333333), wk =   0.0138889
        k(   53) = (   0.1666667   0.1666667   0.4166667), wk =   0.0138889
        k(   54) = (   0.1666667   0.1666667  -0.5000000), wk =   0.0069444
        k(   55) = (   0.1666667   0.2500000   0.2500000), wk =   0.0138889
        k(   56) = (   0.1666667   0.2500000   0.3333333), wk =   0.0277778
        k(   57) = (   0.1666667   0.2500000   0.4166667), wk =   0.0277778
        k(   58) = (   0.1666667   0.2500000  -0.5000000), wk =   0.0138889
        k(   59) = (   0.1666667   0.3333333   0.3333333), wk =   0.0138889
        k(   60) = (   0.1666667   0.3333333   0.4166667), wk =   0.0277778
        k(   61) = (   0.1666667   0.3333333  -0.5000000), wk =   0.0138889
        k(   62) = (   0.1666667   0.4166667   0.4166667), wk =   0.0138889
        k(   63) = (   0.1666667   0.4166667  -0.5000000), wk =   0.0138889
        k(   64) = (   0.1666667  -0.5000000  -0.5000000), wk =   0.0034722
        k(   65) = (   0.2500000   0.2500000   0.2500000), wk =   0.0046296
        k(   66) = (   0.2500000   0.2500000   0.3333333), wk =   0.0138889
        k(   67) = (   0.2500000   0.2500000   0.4166667), wk =   0.0138889
        k(   68) = (   0.2500000   0.2500000  -0.5000000), wk =   0.0069444
        k(   69) = (   0.2500000   0.3333333   0.3333333), wk =   0.0138889
        k(   70) = (   0.2500000   0.3333333   0.4166667), wk =   0.0277778
        k(   71) = (   0.2500000   0.3333333  -0.5000000), wk =   0.0138889
        k(   72) = (   0.2500000   0.4166667   0.4166667), wk =   0.0138889
        k(   73) = (   0.2500000   0.4166667  -0.5000000), wk =   0.0138889
        k(   74) = (   0.2500000  -0.5000000  -0.5000000), wk =   0.0034722
        k(   75) = (   0.3333333   0.3333333   0.3333333), wk =   0.0046296
        k(   76) = (   0.3333333   0.3333333   0.4166667), wk =   0.0138889
        k(   77) = (   0.3333333   0.3333333  -0.5000000), wk =   0.0069444
        k(   78) = (   0.3333333   0.4166667   0.4166667), wk =   0.0138889
        k(   79) = (   0.3333333   0.4166667  -0.5000000), wk =   0.0138889
        k(   80) = (   0.3333333  -0.5000000  -0.5000000), wk =   0.0034722
        k(   81) = (   0.4166667   0.4166667   0.4166667), wk =   0.0046296
        k(   82) = (   0.4166667   0.4166667  -0.5000000), wk =   0.0069444
        k(   83) = (   0.4166667  -0.5000000  -0.5000000), wk =   0.0034722
        k(   84) = (  -0.5000000  -0.5000000  -0.5000000), wk =   0.0005787

     Dense  grid:   111539 G-vectors     FFT dimensions: (  60,  60,  60)

     Smooth grid:    72455 G-vectors     FFT dimensions: (  54,  54,  54)

     Dynamical RAM for                 wfc:       0.30 MB

     Dynamical RAM for     wfc (w. buffer):      50.12 MB

     Dynamical RAM for           str. fact:       0.09 MB

     Dynamical RAM for           local pot:       0.00 MB

     Dynamical RAM for          nlocal pot:       0.50 MB

     Dynamical RAM for                qrad:       2.27 MB

     Dynamical RAM for          rho,v,vnew:       1.01 MB

     Dynamical RAM for               rhoin:       0.34 MB

     Dynamical RAM for            rho*nmix:       2.72 MB

     Dynamical RAM for           G-vectors:       0.35 MB

     Dynamical RAM for          h,s,v(r/c):       0.34 MB

     Dynamical RAM for          <psi|beta>:       0.05 MB

     Dynamical RAM for                 psi:       0.59 MB

     Dynamical RAM for                hpsi:       0.59 MB

     Dynamical RAM for                spsi:       0.59 MB

     Dynamical RAM for      wfcinit/wfcrot:       0.64 MB

     Dynamical RAM for           addusdens:      16.26 MB

     Estimated static dynamical RAM per process >      55.32 MB

     Estimated max dynamical RAM per process >      74.30 MB

     Estimated total dynamical RAM >       1.45 GB
     Generating pointlists ...
     new r_m :   0.2917 (alat units)  1.9347 (a.u.) for type    1

     The initial density is read from file :
     out/Ni.save/charge-density


     starting charge      72.6189, renormalised to      72.0000
     Starting wfcs from file
     Checking if some PAW data can be deallocated... 

     total cpu time spent up to now is        1.3 secs

     Self-consistent Calculation

     iteration #  1     ecut=   150.00 Ry     beta= 0.70
     Davidson diagonalization with overlap

---- Real-time Memory Report at c_bands before calling an iterative solver
            97 MiB given to the printing process from OS
             0 MiB allocation reported by mallinfo(arena+hblkhd)
        354581 MiB available memory on the node where the printing process lives
------------------
     ethr =  1.00E-05,  avg # of iterations =  4.1

     total cpu time spent up to now is       14.8 secs

     total energy              =   -1716.57223913 Ry
     estimated scf accuracy    <       0.13435944 Ry

     total magnetization       =     2.45 Bohr mag/cell
     absolute magnetization    =     2.84 Bohr mag/cell

     iteration #  2     ecut=   150.00 Ry     beta= 0.70
     Davidson diagonalization with overlap

---- Real-time Memory Report at c_bands before calling an iterative solver
           133 MiB given to the printing process from OS
             0 MiB allocation reported by mallinfo(arena+hblkhd)
        354071 MiB available memory on the node where the printing process lives
------------------
     ethr =  1.87E-04,  avg # of iterations =  3.5

     total cpu time spent up to now is       26.1 secs

     total energy              =   -1716.55657597 Ry
     estimated scf accuracy    <       0.70192992 Ry

     total magnetization       =     2.86 Bohr mag/cell
     absolute magnetization    =     3.21 Bohr mag/cell

     iteration #  3     ecut=   150.00 Ry     beta= 0.70
     Davidson diagonalization with overlap

---- Real-time Memory Report at c_bands before calling an iterative solver
           134 MiB given to the printing process from OS
             0 MiB allocation reported by mallinfo(arena+hblkhd)
        354068 MiB available memory on the node where the printing process lives
------------------
     ethr =  1.87E-04,  avg # of iterations =  3.1

     total cpu time spent up to now is       36.2 secs

     total energy              =   -1716.65612645 Ry
     estimated scf accuracy    <       0.00155759 Ry

     total magnetization       =     2.63 Bohr mag/cell
     absolute magnetization    =     3.00 Bohr mag/cell

     iteration #  4     ecut=   150.00 Ry     beta= 0.70
     Davidson diagonalization with overlap

---- Real-time Memory Report at c_bands before calling an iterative solver
           134 MiB given to the printing process from OS
             0 MiB allocation reported by mallinfo(arena+hblkhd)
        354059 MiB available memory on the node where the printing process lives
------------------
     ethr =  2.16E-06,  avg # of iterations =  3.1

     total cpu time spent up to now is       46.9 secs

     total energy              =   -1716.65647749 Ry
     estimated scf accuracy    <       0.01832633 Ry

     total magnetization       =     2.61 Bohr mag/cell
     absolute magnetization    =     2.98 Bohr mag/cell

     iteration #  5     ecut=   150.00 Ry     beta= 0.70
     Davidson diagonalization with overlap

---- Real-time Memory Report at c_bands before calling an iterative solver
           135 MiB given to the printing process from OS
             0 MiB allocation reported by mallinfo(arena+hblkhd)
        354054 MiB available memory on the node where the printing process lives
------------------
     ethr =  2.16E-06,  avg # of iterations =  2.0

     total cpu time spent up to now is       54.6 secs

     total energy              =   -1716.65711835 Ry
     estimated scf accuracy    <       0.00055043 Ry

     total magnetization       =     2.61 Bohr mag/cell
     absolute magnetization    =     2.98 Bohr mag/cell

     iteration #  6     ecut=   150.00 Ry     beta= 0.70
     Davidson diagonalization with overlap

---- Real-time Memory Report at c_bands before calling an iterative solver
           135 MiB given to the printing process from OS
             0 MiB allocation reported by mallinfo(arena+hblkhd)
        354049 MiB available memory on the node where the printing process lives
------------------
     ethr =  7.64E-07,  avg # of iterations =  2.0

     total cpu time spent up to now is       62.8 secs

     total energy              =   -1716.65721044 Ry
     estimated scf accuracy    <       0.00000932 Ry

     total magnetization       =     2.64 Bohr mag/cell
     absolute magnetization    =     3.01 Bohr mag/cell

     iteration #  7     ecut=   150.00 Ry     beta= 0.70
     Davidson diagonalization with overlap

---- Real-time Memory Report at c_bands before calling an iterative solver
           136 MiB given to the printing process from OS
             0 MiB allocation reported by mallinfo(arena+hblkhd)
        354044 MiB available memory on the node where the printing process lives
------------------
     ethr =  1.29E-08,  avg # of iterations =  2.9

     total cpu time spent up to now is       71.4 secs

     total energy              =   -1716.65720732 Ry
     estimated scf accuracy    <       0.00001241 Ry

     total magnetization       =     2.64 Bohr mag/cell
     absolute magnetization    =     3.00 Bohr mag/cell

     iteration #  8     ecut=   150.00 Ry     beta= 0.70
     Davidson diagonalization with overlap

---- Real-time Memory Report at c_bands before calling an iterative solver
           136 MiB given to the printing process from OS
             0 MiB allocation reported by mallinfo(arena+hblkhd)
        354039 MiB available memory on the node where the printing process lives
------------------
     ethr =  1.29E-08,  avg # of iterations =  2.4

     total cpu time spent up to now is       80.1 secs

     total energy              =   -1716.65716170 Ry
     estimated scf accuracy    <       0.00003714 Ry

     total magnetization       =     2.62 Bohr mag/cell
     absolute magnetization    =     2.99 Bohr mag/cell

     iteration #  9     ecut=   150.00 Ry     beta= 0.70
     Davidson diagonalization with overlap

---- Real-time Memory Report at c_bands before calling an iterative solver
           137 MiB given to the printing process from OS
             0 MiB allocation reported by mallinfo(arena+hblkhd)
        354036 MiB available memory on the node where the printing process lives
------------------
     ethr =  1.29E-08,  avg # of iterations =  3.2

     total cpu time spent up to now is       90.8 secs

     total energy              =   -1716.65720170 Ry
     estimated scf accuracy    <       0.00009719 Ry

     total magnetization       =     2.68 Bohr mag/cell
     absolute magnetization    =     3.05 Bohr mag/cell

     iteration # 10     ecut=   150.00 Ry     beta= 0.70
     Davidson diagonalization with overlap

---- Real-time Memory Report at c_bands before calling an iterative solver
           137 MiB given to the printing process from OS
             0 MiB allocation reported by mallinfo(arena+hblkhd)
        354028 MiB available memory on the node where the printing process lives
------------------
     ethr =  1.29E-08,  avg # of iterations =  2.8

     total cpu time spent up to now is      100.9 secs

     total energy              =   -1716.65721710 Ry
     estimated scf accuracy    <       0.00000156 Ry

     total magnetization       =     2.66 Bohr mag/cell
     absolute magnetization    =     3.02 Bohr mag/cell

     iteration # 11     ecut=   150.00 Ry     beta= 0.70
     Davidson diagonalization with overlap

---- Real-time Memory Report at c_bands before calling an iterative solver
           138 MiB given to the printing process from OS
             0 MiB allocation reported by mallinfo(arena+hblkhd)
        354023 MiB available memory on the node where the printing process lives
------------------
     ethr =  2.17E-09,  avg # of iterations =  1.5

     total cpu time spent up to now is      108.2 secs

     total energy              =   -1716.65721714 Ry
     estimated scf accuracy    <       0.00000087 Ry

     total magnetization       =     2.66 Bohr mag/cell
     absolute magnetization    =     3.03 Bohr mag/cell

     iteration # 12     ecut=   150.00 Ry     beta= 0.70
     Davidson diagonalization with overlap

---- Real-time Memory Report at c_bands before calling an iterative solver
           138 MiB given to the printing process from OS
             0 MiB allocation reported by mallinfo(arena+hblkhd)
        354022 MiB available memory on the node where the printing process lives
------------------
     ethr =  1.20E-09,  avg # of iterations =  1.6
 
     Magnetic moment per site  (integrated on atomic sphere of radius R)
     atom   1 (R=0.292)  charge= 16.6943  magn=  0.7044
     atom   2 (R=0.292)  charge= 16.6945  magn=  0.7043
     atom   3 (R=0.292)  charge= 16.6945  magn=  0.7043
     atom   4 (R=0.292)  charge= 16.6945  magn=  0.7043

     total cpu time spent up to now is      115.7 secs

     End of self-consistent calculation

 ------ SPIN UP ------------


          k = 0.0000 0.0000 0.0000 (  9045 PWs)   bands (ev):

   -85.6076 -85.5619 -85.5619 -85.5616 -46.0706 -46.0706 -46.0706 -45.9433
   -45.9433 -45.9433 -45.9431 -45.9431 -45.9431 -45.8596 -45.8596 -45.8596
     8.9577  13.3833  13.3833  13.3833  13.8347  13.8347  13.8347  15.6278
    15.6278  15.6278  16.8417  16.8417  17.5642  17.5643  17.5643  17.6239
    17.6239  17.6239  17.6240  17.6240  17.6240  20.4900  20.4900  20.4900
    27.3369  27.3369  27.3369

     occupation numbers 
     1.0000   1.0000   1.0000   1.0000   1.0000   1.0000   1.0000   1.0000
     1.0000   1.0000   1.0000   1.0000   1.0000   1.0000   1.0000   1.0000
     1.0000   1.0000   1.0000   1.0000   1.0000   1.0000   1.0000   1.0000
     1.0000   1.0000   1.0000   1.0000   1.0000   1.0000   1.0000   1.0000
     1.0000   1.0000   1.0000   1.0000   1.0000  -0.0000  -0.0000  -0.0000
    -0.0000  -0.0000  -0.0000

          k = 0.0000 0.0000 0.0833 (  9042 PWs)   bands (ev):

   -85.6068 -85.5626 -85.5619 -85.5617 -46.0684 -46.0684 -46.0671 -45.9454
   -45.9454 -45.9434 -45.9432 -45.9418 -45.9418 -45.8634 -45.8611 -45.8611
     9.0491  13.3893  13.4311  13.4311  13.8629  13.8657  13.8657  15.5945
    15.6534  15.6534  16.8110  16.8536  17.4125  17.4125  17.5242  17.5243
    17.5515  17.5777  17.5777  17.6240  17.6241  20.0110  20.7779  20.7779
    27.3589  27.3589  27.9753

     occupation numbers 
     1.0000   1.0000   1.0000   1.0000   1.0000   1.0000   1.0000   1.0000
     1.0000   1.0000   1.0000   1.0000   1.0000   1.0000   1.0000   1.0000
     1.0000   1.0000   1.0000   1.0000   1.0000   1.0000   1.0000   1.0000
     1.0000   1.0000   1.0000   1.0000   1.0000   1.0000   1.0000   1.0000
     1.0000   1.0000   1.0000   1.0000   1.0000  -0.0000  -0.0000  -0.0000
    -0.0000  -0.0000  -0.0000

          k = 0.0000 0.0000 0.1667 (  9010 PWs)   bands (ev):

   -85.6045 -85.5649 -85.5619 -85.5617 -46.0621 -46.0621 -46.0569 -45.9518
   -45.9518 -45.9437 -45.9435 -45.9376 -45.9376 -45.8742 -45.8652 -45.8652
     9.3208  13.3908  13.5680  13.5681  13.9458  13.9588  13.9588  15.4977
    15.7299  15.7299  16.7224  16.8887  16.9381  16.9381  17.4083  17.4084
    17.4458  17.4458  17.5144  17.6242  17.6243  18.9479  21.4808  21.4808
    27.4273  27.4273  29.5269

     occupation numbers 
     1.0000   1.0000   1.0000   1.0000   1.0000   1.0000   1.0000   1.0000
     1.0000   1.0000   1.0000   1.0000   1.0000   1.0000   1.0000   1.0000
     1.0000   1.0000   1.0000   1.0000   1.0000   1.0000   1.0000   1.0000
     1.0000   1.0000   1.0000   1.0000   1.0000   1.0000   1.0000   1.0000
     1.0000   1.0000   1.0000   1.0000   1.0000  -0.0000  -0.0000  -0.0000
    -0.0000  -0.0000  -0.0000

          k = 0.0000 0.0000 0.2500 (  9038 PWs)   bands (ev):

   -85.6009 -85.5685 -85.5619 -85.5617 -46.0520 -46.0520 -46.0407 -45.9619
   -45.9619 -45.9440 -45.9439 -45.9310 -45.9310 -45.8915 -45.8719 -45.8719
     9.7644  13.3301  13.7731  13.7732  14.0792  14.1152  14.1152  15.3455
    15.8554  15.8554  16.3959  16.3959  16.5874  16.9447  17.2308  17.2310
    17.2462  17.2462  17.4555  17.6244  17.6246  17.8056  22.4018  22.4018
    27.5486  27.5486  29.8379

     occupation numbers 
     1.0000   1.0000   1.0000   1.0000   1.0000   1.0000   1.0000   1.0000
     1.0000   1.0000   1.0000   1.0000   1.0000   1.0000   1.0000   1.0000
     1.0000   1.0000   1.0000   1.0000   1.0000   1.0000   1.0000   1.0000
     1.0000   1.0000   1.0000   1.0000   1.0000   1.0000   1.0000   1.0000
     1.0000   1.0000   1.0000   1.0000   1.0000   1.0000  -0.0000  -0.0000
    -0.0000  -0.0000  -0.0000

          k = 0.0000 0.0000 0.3333 (  9050 PWs)   bands (ev):

   -85.5961 -85.5732 -85.5618 -85.5617 -46.0388 -46.0388 -46.0193 -45.9751
   -45.9751 -45.9444 -45.9442 -45.9223 -45.9223 -45.9138 -45.8806 -45.8806
    10.3630  13.0972  14.0065  14.0066  14.2554  14.3359  14.3359  15.1503
    15.8702  15.8702  16.0264  16.0264  16.4282  16.8906  17.0029  17.0029
    17.0180  17.0239  17.0240  17.3792  17.6247  17.6249  23.4539  23.4539
    27.7281  27.7281  28.4621

     occupation numbers 
     1.0000   1.0000   1.0000   1.0000   1.0000   1.0000   1.0000   1.0000
     1.0000   1.0000   1.0000   1.0000   1.0000   1.0000   1.0000   1.0000
     1.0000   1.0000   1.0000   1.0000   1.0000   1.0000   1.0000   1.0000
     1.0000   1.0000   1.0000   1.0000   1.0000   1.0000   1.0000   1.0000
     1.0000   1.0000   1.0000   1.0000   1.0000   1.0000  -0.0000  -0.0000
    -0.0000  -0.0000  -0.0000

          k = 0.0000 0.0000 0.4167 (  9034 PWs)   bands (ev):

   -85.5906 -85.5787 -85.5618 -85.5617 -46.0234 -46.0234 -45.9942 -45.9905
   -45.9905 -45.9447 -45.9445 -45.9396 -45.9123 -45.9123 -45.8906 -45.8906
    11.0848  12.5912  14.2036  14.2037  14.4645  14.6223  14.6223  14.9275
    15.3924  15.3924  16.2372  16.2372  16.2839  16.3745  16.7402  16.7402
    16.8452  16.8454  17.1041  17.2910  17.6249  17.6251  24.6016  24.6016
    27.1182  27.1182  27.9489

     occupation numbers 
     1.0000   1.0000   1.0000   1.0000   1.0000   1.0000   1.0000   1.0000
     1.0000   1.0000   1.0000   1.0000   1.0000   1.0000   1.0000   1.0000
     1.0000   1.0000   1.0000   1.0000   1.0000   1.0000   1.0000   1.0000
     1.0000   1.0000   1.0000   1.0000   1.0000   1.0000   1.0000   1.0000
     1.0000   1.0000   1.0000   1.0000   1.0000   1.0000  -0.0000  -0.0000
    -0.0000  -0.0000  -0.0000

          k = 0.0000 0.0000-0.5000 (  9026 PWs)   bands (ev):

   -85.5848 -85.5846 -85.5618 -85.5617 -46.0070 -46.0070 -46.0069 -46.0069
   -45.9672 -45.9670 -45.9448 -45.9446 -45.9015 -45.9015 -45.9014 -45.9014
    11.8671  11.8671  14.2836  14.2837  14.6934  14.6935  14.9748  14.9748
    14.9749  14.9749  16.2246  16.2248  16.4792  16.4792  16.4794  16.4794
    16.7719  16.7720  17.1971  17.1972  17.6250  17.6251  25.8271  25.8271
    25.8271  25.8271  28.0825

     occupation numbers 
     1.0000   1.0000   1.0000   1.0000   1.0000   1.0000   1.0000   1.0000
     1.0000   1.0000   1.0000   1.0000   1.0000   1.0000   1.0000   1.0000
     1.0000   1.0000   1.0000   1.0000   1.0000   1.0000   1.0000   1.0000
     1.0000   1.0000   1.0000   1.0000   1.0000   1.0000   1.0000   1.0000
     1.0000   1.0000   1.0000   1.0000   1.0000   1.0000  -0.0000  -0.0000
    -0.0000  -0.0000  -0.0000

          k = 0.0000 0.0833 0.0833 (  9033 PWs)   bands (ev):

   -85.6060 -85.5626 -85.5625 -85.5618 -46.0662 -46.0651 -46.0651 -45.9497
   -45.9440 -45.9439 -45.9418 -45.9418 -45.9412 -45.8690 -45.8625 -45.8604
     9.1400  13.4381  13.4381  13.4776  13.8933  13.8933  13.8959  15.5757
    15.6655  15.6768  16.8024  16.8459  17.2601  17.3403  17.3405  17.4861
    17.5269  17.5270  17.5777  17.5777  17.5946  20.2991  20.2991  21.0363
    27.3793  28.0079  28.0079

     occupation numbers 
     1.0000   1.0000   1.0000   1.0000   1.0000   1.0000   1.0000   1.0000
     1.0000   1.0000   1.0000   1.0000   1.0000   1.0000   1.0000   1.0000
     1.0000   1.0000   1.0000   1.0000   1.0000   1.0000   1.0000   1.0000
     1.0000   1.0000   1.0000   1.0000   1.0000   1.0000   1.0000   1.0000
     1.0000   1.0000   1.0000   1.0000   1.0000  -0.0000  -0.0000  -0.0000
    -0.0000  -0.0000  -0.0000

          k = 0.0000 0.0833 0.1667 (  9034 PWs)   bands (ev):

   -85.6038 -85.5648 -85.5625 -85.5618 -46.0599 -46.0594 -46.0556 -45.9574
   -45.9503 -45.9418 -45.9398 -45.9397 -45.9374 -45.8810 -45.8667 -45.8631
     9.4101  13.4423  13.5778  13.6108  13.9746  13.9847  13.9867  15.4884
    15.7346  15.7458  16.7254  16.8492  16.8580  16.8771  17.1557  17.3751
    17.4123  17.4455  17.5028  17.5775  17.5787  19.2630  20.9771  21.6922
    27.4384  28.1085  29.5721

     occupation numbers 
     1.0000   1.0000   1.0000   1.0000   1.0000   1.0000   1.0000   1.0000
     1.0000   1.0000   1.0000   1.0000   1.0000   1.0000   1.0000   1.0000
     1.0000   1.0000   1.0000   1.0000   1.0000   1.0000   1.0000   1.0000
     1.0000   1.0000   1.0000   1.0000   1.0000   1.0000   1.0000   1.0000
     1.0000   1.0000   1.0000   1.0000   1.0000  -0.0000  -0.0000  -0.0000
    -0.0000  -0.0000  -0.0000

          k = 0.0000 0.0833 0.2500 (  9037 PWs)   bands (ev):

   -85.6002 -85.5684 -85.5624 -85.5619 -46.0503 -46.0499 -46.0402 -45.9676
   -45.9604 -45.9418 -45.9394 -45.9331 -45.9304 -45.8983 -45.8734 -45.8692
     9.8511  13.3859  13.7876  13.8109  14.1052  14.1377  14.1381  15.3418
    15.8562  15.8578  16.3193  16.3466  16.6004  16.8615  16.9386  17.2048
    17.2371  17.2456  17.4363  17.5749  17.5773  18.2170  21.8365  22.5786
    27.4998  28.2839  28.6608

     occupation numbers 
     1.0000   1.0000   1.0000   1.0000   1.0000   1.0000   1.0000   1.0000
     1.0000   1.0000   1.0000   1.0000   1.0000   1.0000   1.0000   1.0000
     1.0000   1.0000   1.0000   1.0000   1.0000   1.0000   1.0000   1.0000
     1.0000   1.0000   1.0000   1.0000   1.0000   1.0000   1.0000   1.0000
     1.0000   1.0000   1.0000   1.0000   1.0000  -0.0000  -0.0000  -0.0000
    -0.0000  -0.0000  -0.0000

          k = 0.0000 0.0833 0.3333 (  9044 PWs)   bands (ev):

   -85.5955 -85.5730 -85.5624 -85.5619 -46.0384 -46.0368 -46.0201 -45.9802
   -45.9735 -45.9417 -45.9397 -45.9243 -45.9212 -45.9200 -45.8822 -45.8777
    10.4459  13.1581  14.0280  14.0425  14.2778  14.3458  14.3545  15.1521
    15.8034  15.8459  15.9907  16.0276  16.4695  16.4703  17.0022  17.0058
    17.0204  17.0313  17.2675  17.5413  17.5742  17.5768  22.7930  23.6077
    27.0700  28.0316  28.5304

     occupation numbers 
     1.0000   1.0000   1.0000   1.0000   1.0000   1.0000   1.0000   1.0000
     1.0000   1.0000   1.0000   1.0000   1.0000   1.0000   1.0000   1.0000
     1.0000   1.0000   1.0000   1.0000   1.0000   1.0000   1.0000   1.0000
     1.0000   1.0000   1.0000   1.0000   1.0000   1.0000   1.0000   1.0000
     1.0000   1.0000   1.0000   1.0000   1.0000   1.0000  -0.0000  -0.0000
    -0.0000  -0.0000  -0.0000

          k = 0.0000 0.0833 0.4167 (  9027 PWs)   bands (ev):

   -85.5901 -85.5784 -85.5623 -85.5620 -46.0244 -46.0216 -45.9964 -45.9944
   -45.9888 -45.9446 -45.9413 -45.9402 -45.9142 -45.9106 -45.8923 -45.8880
    11.1626  12.6571  14.2342  14.2436  14.4824  14.6089  14.6348  14.9348
    15.3387  15.3848  16.0755  16.1616  16.2376  16.4411  16.7396  16.8356
    16.8506  16.9122  17.1169  17.3396  17.5747  17.5762  23.8126  24.7398
    25.9869  27.2389  28.2160

     occupation numbers 
     1.0000   1.0000   1.0000   1.0000   1.0000   1.0000   1.0000   1.0000
     1.0000   1.0000   1.0000   1.0000   1.0000   1.0000   1.0000   1.0000
     1.0000   1.0000   1.0000   1.0000   1.0000   1.0000   1.0000   1.0000
     1.0000   1.0000   1.0000   1.0000   1.0000   1.0000   1.0000   1.0000
     1.0000   1.0000   1.0000   1.0000   1.0000   1.0000  -0.0000  -0.0000
    -0.0000  -0.0000  -0.0000

          k = 0.0000 0.0833-0.5000 (  9032 PWs)   bands (ev):

   -85.5844 -85.5842 -85.5622 -85.5620 -46.0095 -46.0094 -46.0053 -46.0051
   -45.9708 -45.9706 -45.9409 -45.9408 -45.9033 -45.9032 -45.8994 -45.8992
    11.9389  11.9389  14.3226  14.3227  14.7062  14.7063  14.9381  14.9382
    14.9789  14.9791  16.0687  16.0688  16.4790  16.4792  16.6175  16.6176
    16.7707  16.7709  17.2231  17.2232  17.5753  17.5755  24.8802  24.8802
    25.9547  25.9547  28.5531

     occupation numbers 
     1.0000   1.0000   1.0000   1.0000   1.0000   1.0000   1.0000   1.0000
     1.0000   1.0000   1.0000   1.0000   1.0000   1.0000   1.0000   1.0000
     1.0000   1.0000   1.0000   1.0000   1.0000   1.0000   1.0000   1.0000
     1.0000   1.0000   1.0000   1.0000   1.0000   1.0000   1.0000   1.0000
     1.0000   1.0000   1.0000   1.0000   1.0000   1.0000  -0.0000  -0.0000
    -0.0000  -0.0000  -0.0000

          k = 0.0000 0.1667 0.1667 (  9062 PWs)   bands (ev):

   -85.6016 -85.5647 -85.5646 -85.5620 -46.0537 -46.0516 -46.0516 -45.9671
   -45.9461 -45.9459 -45.9367 -45.9367 -45.9353 -45.8949 -45.8711 -45.8629
     9.6756  13.5903  13.5903  13.7328  14.0610  14.0610  14.0704  15.4355
    15.7757  15.7923  16.5824  16.6445  16.6446  16.6976  16.8823  17.2779
    17.3994  17.3995  17.4445  17.4446  17.5075  19.9205  19.9205  22.2608
    27.4092  28.5346  29.7071

     occupation numbers 
     1.0000   1.0000   1.0000   1.0000   1.0000   1.0000   1.0000   1.0000
     1.0000   1.0000   1.0000   1.0000   1.0000   1.0000   1.0000   1.0000
     1.0000   1.0000   1.0000   1.0000   1.0000   1.0000   1.0000   1.0000
     1.0000   1.0000   1.0000   1.0000   1.0000   1.0000   1.0000   1.0000
     1.0000   1.0000   1.0000   1.0000   1.0000  -0.0000  -0.0000  -0.0000
    -0.0000  -0.0000  -0.0000

          k = 0.0000 0.1667 0.2500 (  9042 PWs)   bands (ev):

   -85.5982 -85.5680 -85.5644 -85.5622 -46.0451 -46.0439 -46.0389 -45.9783
   -45.9559 -45.9391 -45.9356 -45.9323 -45.9286 -45.9129 -45.8779 -45.8664
    10.1084  13.5471  13.8144  13.9168  14.1833  14.2056  14.2073  15.3182
    15.8618  15.8794  16.1183  16.1948  16.3424  16.6084  16.9498  17.1271
    17.2329  17.2440  17.3376  17.4431  17.4663  18.8611  20.6973  23.0719
    26.7365  27.9577  29.9136

     occupation numbers 
     1.0000   1.0000   1.0000   1.0000   1.0000   1.0000   1.0000   1.0000
     1.0000   1.0000   1.0000   1.0000   1.0000   1.0000   1.0000   1.0000
     1.0000   1.0000   1.0000   1.0000   1.0000   1.0000   1.0000   1.0000
     1.0000   1.0000   1.0000   1.0000   1.0000   1.0000   1.0000   1.0000
     1.0000   1.0000   1.0000   1.0000   1.0000  -0.0000  -0.0000  -0.0000
    -0.0000  -0.0000  -0.0000

          k = 0.0000 0.1667 0.3333 (  9054 PWs)   bands (ev):

   -85.5938 -85.5724 -85.5641 -85.5625 -46.0366 -46.0310 -46.0221 -45.9904
   -45.9688 -45.9342 -45.9339 -45.9308 -45.9301 -45.9183 -45.8869 -45.8735
    10.6912  13.3340  14.0759  14.1394  14.3447  14.3819  14.4090  15.1510
    15.6311  15.7702  15.9254  16.0351  16.0389  16.5227  16.9498  17.0005
    17.0328  17.0586  17.2009  17.4414  17.4480  18.0671  21.5379  24.0457
    25.5554  28.1014  28.9208

     occupation numbers 
     1.0000   1.0000   1.0000   1.0000   1.0000   1.0000   1.0000   1.0000
     1.0000   1.0000   1.0000   1.0000   1.0000   1.0000   1.0000   1.0000
     1.0000   1.0000   1.0000   1.0000   1.0000   1.0000   1.0000   1.0000
     1.0000   1.0000   1.0000   1.0000   1.0000   1.0000   1.0000   1.0000
     1.0000   1.0000   1.0000   1.0000   1.0000   1.0000  -0.0000  -0.0000
    -0.0000  -0.0000  -0.0000

          k = 0.0000 0.1667 0.4167 (  9027 PWs)   bands (ev):

   -85.5887 -85.5776 -85.5637 -85.5629 -46.0264 -46.0160 -46.0028 -46.0021
   -45.9838 -45.9567 -45.9327 -45.9307 -45.9197 -45.9066 -45.8973 -45.8831
    11.3918  12.8482  14.3114  14.3564  14.5353  14.5734  14.6710  14.9535
    15.2005  15.3601  15.8616  15.9201  16.2430  16.5457  16.7389  16.8013
    16.8501  16.9707  17.1952  17.4398  17.4409  17.6087  22.4322  24.4250
    25.1385  27.5911  28.4236

     occupation numbers 
     1.0000   1.0000   1.0000   1.0000   1.0000   1.0000   1.0000   1.0000
     1.0000   1.0000   1.0000   1.0000   1.0000   1.0000   1.0000   1.0000
     1.0000   1.0000   1.0000   1.0000   1.0000   1.0000   1.0000   1.0000
     1.0000   1.0000   1.0000   1.0000   1.0000   1.0000   1.0000   1.0000
     1.0000   1.0000   1.0000   1.0000   1.0000   1.0000  -0.0000  -0.0000
    -0.0000  -0.0000  -0.0000

          k = 0.0000 0.1667-0.5000 (  9030 PWs)   bands (ev):

   -85.5832 -85.5830 -85.5634 -85.5632 -46.0150 -46.0149 -46.0000 -45.9998
   -45.9799 -45.9798 -45.9315 -45.9314 -45.9086 -45.9084 -45.8946 -45.8945
    12.1488  12.1488  14.4319  14.4319  14.7429  14.7430  14.8385  14.8386
    14.9897  14.9898  15.8577  15.8577  16.4806  16.4808  16.7168  16.7169
    16.7569  16.7571  17.3637  17.3637  17.4391  17.4392  23.3886  23.3886
    26.3256  26.3256  28.8805

     occupation numbers 
     1.0000   1.0000   1.0000   1.0000   1.0000   1.0000   1.0000   1.0000
     1.0000   1.0000   1.0000   1.0000   1.0000   1.0000   1.0000   1.0000
     1.0000   1.0000   1.0000   1.0000   1.0000   1.0000   1.0000   1.0000
     1.0000   1.0000   1.0000   1.0000   1.0000   1.0000   1.0000   1.0000
     1.0000   1.0000   1.0000   1.0000   1.0000   1.0000  -0.0000  -0.0000
    -0.0000  -0.0000  -0.0000

          k = 0.0000 0.2500 0.2500 (  9068 PWs)   bands (ev):

   -85.5951 -85.5676 -85.5674 -85.5627 -46.0366 -46.0365 -46.0343 -45.9899
   -45.9488 -45.9486 -45.9311 -45.9263 -45.9262 -45.9261 -45.8851 -45.8671
    10.5269  13.7932  13.7933  14.0717  14.3136  14.3136  14.3241  15.2501
    15.8594  15.8595  15.8733  15.9473  15.9491  16.5623  17.0034  17.0338
    17.1810  17.1810  17.2419  17.2419  17.3656  19.5594  19.5594  23.8061
    25.3776  28.0523  30.8366

     occupation numbers 
     1.0000   1.0000   1.0000   1.0000   1.0000   1.0000   1.0000   1.0000
     1.0000   1.0000   1.0000   1.0000   1.0000   1.0000   1.0000   1.0000
     1.0000   1.0000   1.0000   1.0000   1.0000   1.0000   1.0000   1.0000
     1.0000   1.0000   1.0000   1.0000   1.0000   1.0000   1.0000   1.0000
     1.0000   1.0000   1.0000   1.0000   1.0000  -0.0000  -0.0000  -0.0000
    -0.0000  -0.0000  -0.0000

          k = 0.0000 0.2500 0.3333 (  9037 PWs)   bands (ev):

   -85.5911 -85.5715 -85.5668 -85.5634 -46.0327 -46.0244 -46.0218 -46.0011
   -45.9613 -45.9511 -45.9394 -45.9235 -45.9222 -45.9145 -45.8944 -45.8716
    11.0883  13.6032  14.0863  14.2584  14.4551  14.4673  14.4954  15.1309
    15.4296  15.6388  15.6502  15.8690  16.0800  16.5028  16.8547  16.9907
    16.9995  17.0582  17.1870  17.2404  17.3001  18.6523  20.3024  24.1032
    24.7163  28.3133  29.4645

     occupation numbers 
     1.0000   1.0000   1.0000   1.0000   1.0000   1.0000   1.0000   1.0000
     1.0000   1.0000   1.0000   1.0000   1.0000   1.0000   1.0000   1.0000
     1.0000   1.0000   1.0000   1.0000   1.0000   1.0000   1.0000   1.0000
     1.0000   1.0000   1.0000   1.0000   1.0000   1.0000   1.0000   1.0000
     1.0000   1.0000   1.0000   1.0000   1.0000  -0.0000  -0.0000  -0.0000
    -0.0000  -0.0000  -0.0000

          k = 0.0000 0.2500 0.4167 (  9072 PWs)   bands (ev):

   -85.5864 -85.5762 -85.5660 -85.5642 -46.0273 -46.0114 -46.0092 -46.0072
   -45.9759 -45.9716 -45.9286 -45.9212 -45.9201 -45.9053 -45.9021 -45.8795
    11.7593  13.1429  14.3646  14.4768  14.5719  14.6207  14.7266  14.9742
    15.0574  15.3130  15.5984  15.8026  16.2650  16.5253  16.7321  16.7416
    16.8110  16.8682  17.2413  17.2645  17.3897  18.0389  21.1018  22.9739
    25.7598  28.1496  28.7007

     occupation numbers 
     1.0000   1.0000   1.0000   1.0000   1.0000   1.0000   1.0000   1.0000
     1.0000   1.0000   1.0000   1.0000   1.0000   1.0000   1.0000   1.0000
     1.0000   1.0000   1.0000   1.0000   1.0000   1.0000   1.0000   1.0000
     1.0000   1.0000   1.0000   1.0000   1.0000   1.0000   1.0000   1.0000
     1.0000   1.0000   1.0000   1.0000   1.0000   1.0000  -0.0000  -0.0000
    -0.0000  -0.0000  -0.0000

          k = 0.0000 0.2500-0.5000 (  9070 PWs)   bands (ev):

   -85.5814 -85.5812 -85.5652 -85.5650 -46.0202 -46.0202 -45.9916 -45.9915
   -45.9913 -45.9912 -45.9199 -45.9198 -45.9170 -45.9168 -45.8901 -45.8900
    12.4795  12.4795  14.5451  14.5451  14.7426  14.7427  14.7985  14.7986
    15.0025  15.0026  15.6831  15.6831  16.4906  16.4907  16.6641  16.6642
    16.7082  16.7083  17.2475  17.2477  17.6536  17.6536  21.9822  21.9822
    26.9100  26.9100  29.2244

     occupation numbers 
     1.0000   1.0000   1.0000   1.0000   1.0000   1.0000   1.0000   1.0000
     1.0000   1.0000   1.0000   1.0000   1.0000   1.0000   1.0000   1.0000
     1.0000   1.0000   1.0000   1.0000   1.0000   1.0000   1.0000   1.0000
     1.0000   1.0000   1.0000   1.0000   1.0000   1.0000   1.0000   1.0000
     1.0000   1.0000   1.0000   1.0000   1.0000   1.0000  -0.0000  -0.0000
    -0.0000  -0.0000  -0.0000

          k = 0.0000 0.3333 0.3333 (  9044 PWs)   bands (ev):

   -85.5875 -85.5704 -85.5702 -85.5646 -46.0260 -46.0258 -46.0107 -46.0098
   -45.9692 -45.9516 -45.9514 -45.9153 -45.9111 -45.9110 -45.9042 -45.8734
    11.6164  13.9237  13.9237  14.3556  14.6067  14.6068  14.6112  15.0758
    15.3251  15.3252  15.4554  15.8134  16.1714  16.4414  16.7326  16.8810
    16.8810  17.0019  17.0020  17.1748  17.3992  19.2830  19.2831  22.8153
    25.5680  28.6389  30.1806

     occupation numbers 
     1.0000   1.0000   1.0000   1.0000   1.0000   1.0000   1.0000   1.0000
     1.0000   1.0000   1.0000   1.0000   1.0000   1.0000   1.0000   1.0000
     1.0000   1.0000   1.0000   1.0000   1.0000   1.0000   1.0000   1.0000
     1.0000   1.0000   1.0000   1.0000   1.0000   1.0000   1.0000   1.0000
     1.0000   1.0000   1.0000   1.0000   1.0000  -0.0000  -0.0000  -0.0000
    -0.0000  -0.0000  -0.0000

          k = 0.0000 0.3333 0.4167 (  9072 PWs)   bands (ev):

   -85.5834 -85.5745 -85.5689 -85.5660 -46.0257 -46.0182 -46.0158 -45.9957
   -45.9868 -45.9656 -45.9401 -45.9156 -45.9107 -45.9089 -45.8987 -45.8789
    12.2395  13.5002  14.2247  14.4237  14.7337  14.7583  14.7947  14.9832
    15.0685  15.2376  15.3913  15.7134  16.3205  16.4362  16.6274  16.7109
    16.7124  16.7537  17.0125  17.0888  17.6748  18.5395  19.9789  21.7093
    26.5624  28.8839  29.0901

     occupation numbers 
     1.0000   1.0000   1.0000   1.0000   1.0000   1.0000   1.0000   1.0000
     1.0000   1.0000   1.0000   1.0000   1.0000   1.0000   1.0000   1.0000
     1.0000   1.0000   1.0000   1.0000   1.0000   1.0000   1.0000   1.0000
     1.0000   1.0000   1.0000   1.0000   1.0000   1.0000   1.0000   1.0000
     1.0000   1.0000   1.0000   1.0000   1.0000  -0.0000  -0.0000  -0.0000
    -0.0000  -0.0000  -0.0000

          k = 0.0000 0.3333-0.5000 (  9058 PWs)   bands (ev):

   -85.5790 -85.5788 -85.5675 -85.5674 -46.0232 -46.0232 -46.0026 -46.0026
   -45.9807 -45.9806 -45.9279 -45.9278 -45.9086 -45.9085 -45.8876 -45.8876
    12.8980  12.8981  14.4072  14.4072  14.8640  14.8641  14.8886  14.8886
    15.0100  15.0101  15.5531  15.5531  16.5198  16.5199  16.5392  16.5393
    16.6104  16.6105  17.0382  17.0383  18.0330  18.0330  20.7744  20.7744
    27.6734  27.6734  29.6819

     occupation numbers 
     1.0000   1.0000   1.0000   1.0000   1.0000   1.0000   1.0000   1.0000
     1.0000   1.0000   1.0000   1.0000   1.0000   1.0000   1.0000   1.0000
     1.0000   1.0000   1.0000   1.0000   1.0000   1.0000   1.0000   1.0000
     1.0000   1.0000   1.0000   1.0000   1.0000   1.0000   1.0000   1.0000
     1.0000   1.0000   1.0000   1.0000   1.0000   1.0000  -0.0000  -0.0000
    -0.0000  -0.0000  -0.0000

          k = 0.0000 0.4167 0.4167 (  9066 PWs)   bands (ev):

   -85.5799 -85.5725 -85.5723 -85.5680 -46.0222 -46.0208 -46.0207 -46.0007
   -45.9823 -45.9536 -45.9534 -45.9277 -45.9034 -45.8975 -45.8973 -45.8818
    12.7908  13.8558  13.8558  14.3172  14.8655  14.8656  14.9570  14.9687
    15.1322  15.2397  15.2398  15.6105  16.3768  16.4246  16.5204  16.5619
    16.5620  16.7841  16.7842  16.9447  18.0319  19.1148  19.1149  20.6553
    27.5124  29.6100  29.7657

     occupation numbers 
     1.0000   1.0000   1.0000   1.0000   1.0000   1.0000   1.0000   1.0000
     1.0000   1.0000   1.0000   1.0000   1.0000   1.0000   1.0000   1.0000
     1.0000   1.0000   1.0000   1.0000   1.0000   1.0000   1.0000   1.0000
     1.0000   1.0000   1.0000   1.0000   1.0000   1.0000   1.0000   1.0000
     1.0000   1.0000   1.0000   1.0000   1.0000  -0.0000  -0.0000  -0.0000
    -0.0000  -0.0000  -0.0000

          k = 0.0000 0.4167-0.5000 (  9054 PWs)   bands (ev):

   -85.5762 -85.5760 -85.5703 -85.5701 -46.0230 -46.0230 -46.0123 -46.0123
   -45.9680 -45.9678 -45.9407 -45.9405 -45.8990 -45.8989 -45.8881 -45.8881
    13.3533  13.3533  14.1378  14.1378  14.9273  14.9274  15.0035  15.0036
    15.1131  15.1132  15.4463  15.4464  16.4243  16.4244  16.4840  16.4841
    16.5819  16.5819  16.8442  16.8442  18.4895  18.4895  19.8033  19.8033
    28.5856  28.5856  30.2740

     occupation numbers 
     1.0000   1.0000   1.0000   1.0000   1.0000   1.0000   1.0000   1.0000
     1.0000   1.0000   1.0000   1.0000   1.0000   1.0000   1.0000   1.0000
     1.0000   1.0000   1.0000   1.0000   1.0000   1.0000   1.0000   1.0000
     1.0000   1.0000   1.0000   1.0000   1.0000   1.0000   1.0000   1.0000
     1.0000   1.0000   1.0000   1.0000  -0.0000  -0.0000  -0.0000  -0.0000
    -0.0000  -0.0000  -0.0000

          k = 0.0000-0.5000-0.5000 (  9076 PWs)   bands (ev):

   -85.5733 -85.5733 -85.5733 -85.5729 -46.0194 -46.0194 -46.0192 -46.0192
   -45.9544 -45.9544 -45.9543 -45.9540 -45.8921 -45.8920 -45.8919 -45.8919
    13.7823  13.7823  13.7824  13.7824  14.9762  14.9762  14.9763  14.9763
    15.3101  15.3101  15.3101  15.3102  16.3989  16.3989  16.3989  16.3992
    16.6888  16.6888  16.6889  16.6889  19.0591  19.0591  19.0591  19.0592
    29.6238  29.6239  29.6239

     occupation numbers 
     1.0000   1.0000   1.0000   1.0000   1.0000   1.0000   1.0000   1.0000
     1.0000   1.0000   1.0000   1.0000   1.0000   1.0000   1.0000   1.0000
     1.0000   1.0000   1.0000   1.0000   1.0000   1.0000   1.0000   1.0000
     1.0000   1.0000   1.0000   1.0000   1.0000   1.0000   1.0000   1.0000
     1.0000   1.0000   1.0000   1.0000  -0.0000  -0.0000  -0.0000  -0.0000
    -0.0000  -0.0000  -0.0000

          k = 0.0833 0.0833 0.0833 (  9027 PWs)   bands (ev):

   -85.6053 -85.5626 -85.5626 -85.5624 -46.0632 -46.0632 -46.0632 -45.9481
   -45.9481 -45.9479 -45.9399 -45.9397 -45.9397 -45.8747 -45.8618 -45.8618
     9.2304  13.4853  13.4853  13.4853  13.9230  13.9230  13.9230  15.5581
    15.6874  15.6874  16.8172  16.8172  17.1958  17.1958  17.1959  17.4290
    17.4292  17.4292  17.5959  17.5961  17.5961  20.5509  20.5509  20.5510
    28.0388  28.0388  28.0388

     occupation numbers 
     1.0000   1.0000   1.0000   1.0000   1.0000   1.0000   1.0000   1.0000
     1.0000   1.0000   1.0000   1.0000   1.0000   1.0000   1.0000   1.0000
     1.0000   1.0000   1.0000   1.0000   1.0000   1.0000   1.0000   1.0000
     1.0000   1.0000   1.0000   1.0000   1.0000   1.0000   1.0000   1.0000
     1.0000   1.0000   1.0000   1.0000   1.0000  -0.0000  -0.0000  -0.0000
    -0.0000  -0.0000  -0.0000

          k = 0.0833 0.0833 0.1667 (  9052 PWs)   bands (ev):

   -85.6031 -85.5648 -85.5626 -85.5624 -46.0576 -46.0576 -46.0543 -45.9554
   -45.9553 -45.9431 -45.9384 -45.9383 -45.9358 -45.8873 -45.8658 -45.8637
     9.4988  13.4916  13.6205  13.6206  14.0030  14.0124  14.0124  15.4791
    15.7468  15.7528  16.7357  16.7756  16.7756  16.8606  17.0035  17.2911
    17.3331  17.3332  17.5738  17.5739  17.5744  19.5128  21.1746  21.1746
    28.1273  28.1273  29.6127

     occupation numbers 
     1.0000   1.0000   1.0000   1.0000   1.0000   1.0000   1.0000   1.0000
     1.0000   1.0000   1.0000   1.0000   1.0000   1.0000   1.0000   1.0000
     1.0000   1.0000   1.0000   1.0000   1.0000   1.0000   1.0000   1.0000
     1.0000   1.0000   1.0000   1.0000   1.0000   1.0000   1.0000   1.0000
     1.0000   1.0000   1.0000   1.0000   1.0000  -0.0000  -0.0000  -0.0000
    -0.0000  -0.0000  -0.0000

          k = 0.0833 0.0833 0.2500 (  9038 PWs)   bands (ev):

   -85.5995 -85.5683 -85.5626 -85.5624 -46.0487 -46.0487 -46.0400 -45.9653
   -45.9652 -45.9378 -45.9377 -45.9352 -45.9293 -45.9048 -45.8723 -45.8694
     9.9369  13.4387  13.8241  13.8242  14.1315  14.1609  14.1610  15.3391
    15.8542  15.8608  16.2752  16.2752  16.6188  16.6886  16.9293  17.1004
    17.1856  17.1857  17.5201  17.5529  17.5530  18.4603  21.9943  21.9943
    28.1677  28.1677  28.8622

     occupation numbers 
     1.0000   1.0000   1.0000   1.0000   1.0000   1.0000   1.0000   1.0000
     1.0000   1.0000   1.0000   1.0000   1.0000   1.0000   1.0000   1.0000
     1.0000   1.0000   1.0000   1.0000   1.0000   1.0000   1.0000   1.0000
     1.0000   1.0000   1.0000   1.0000   1.0000   1.0000   1.0000   1.0000
     1.0000   1.0000   1.0000   1.0000   1.0000  -0.0000  -0.0000  -0.0000
    -0.0000  -0.0000  -0.0000

          k = 0.0833 0.0833 0.3333 (  9031 PWs)   bands (ev):

   -85.5950 -85.5728 -85.5626 -85.5624 -46.0372 -46.0371 -46.0212 -45.9773
   -45.9773 -45.9377 -45.9375 -45.9260 -45.9251 -45.9210 -45.8806 -45.8780
    10.5275  13.2150  14.0613  14.0614  14.3012  14.3640  14.3640  15.1554
    15.7855  15.7855  15.9750  16.0090  16.3128  16.5145  16.8766  16.9984
    16.9985  17.0186  17.4395  17.5424  17.5426  17.6604  22.9206  22.9206
    27.3097  27.3097  28.7501

     occupation numbers 
     1.0000   1.0000   1.0000   1.0000   1.0000   1.0000   1.0000   1.0000
     1.0000   1.0000   1.0000   1.0000   1.0000   1.0000   1.0000   1.0000
     1.0000   1.0000   1.0000   1.0000   1.0000   1.0000   1.0000   1.0000
     1.0000   1.0000   1.0000   1.0000   1.0000   1.0000   1.0000   1.0000
     1.0000   1.0000   1.0000   1.0000   1.0000   1.0000  -0.0000  -0.0000
    -0.0000  -0.0000  -0.0000

          k = 0.0833 0.0833 0.4167 (  9028 PWs)   bands (ev):

   -85.5896 -85.5782 -85.5626 -85.5624 -46.0243 -46.0243 -45.9989 -45.9905
   -45.9904 -45.9498 -45.9377 -45.9376 -45.9134 -45.9113 -45.8904 -45.8889
    11.2385  12.7193  14.2728  14.2728  14.5018  14.6132  14.6132  14.9439
    15.3440  15.3440  16.0211  16.0524  16.1935  16.5431  16.6396  16.8305
    16.8306  17.1220  17.1289  17.3406  17.5380  17.5381  23.9037  23.9037
    26.1772  26.1772  29.1053

     occupation numbers 
     1.0000   1.0000   1.0000   1.0000   1.0000   1.0000   1.0000   1.0000
     1.0000   1.0000   1.0000   1.0000   1.0000   1.0000   1.0000   1.0000
     1.0000   1.0000   1.0000   1.0000   1.0000   1.0000   1.0000   1.0000
     1.0000   1.0000   1.0000   1.0000   1.0000   1.0000   1.0000   1.0000
     1.0000   1.0000   1.0000   1.0000   1.0000   1.0000  -0.0000  -0.0000
    -0.0000  -0.0000  -0.0000

          k = 0.0833 0.0833-0.5000 (  9038 PWs)   bands (ev):

   -85.5840 -85.5838 -85.5626 -85.5624 -46.0156 -46.0154 -45.9994 -45.9992
   -45.9747 -45.9746 -45.9377 -45.9376 -45.9011 -45.9009 -45.9009 -45.9007
    12.0079  12.0079  14.3624  14.3625  14.7208  14.7210  14.8465  14.8466
    15.0406  15.0407  15.9915  15.9916  16.4070  16.4072  16.7603  16.7605
    16.7666  16.7667  17.2319  17.2320  17.5367  17.5369  24.6879  24.6879
    25.3407  25.3407  29.4027

     occupation numbers 
     1.0000   1.0000   1.0000   1.0000   1.0000   1.0000   1.0000   1.0000
     1.0000   1.0000   1.0000   1.0000   1.0000   1.0000   1.0000   1.0000
     1.0000   1.0000   1.0000   1.0000   1.0000   1.0000   1.0000   1.0000
     1.0000   1.0000   1.0000   1.0000   1.0000   1.0000   1.0000   1.0000
[...]
    -0.0000  -0.0000  -0.0000

          k = 0.2500 0.2500-0.5000 (  9050 PWs)   bands (ev):

   -84.6948 -84.6947 -84.6830 -84.6829 -45.1953 -45.1953 -45.1663 -45.1663
   -45.0885 -45.0884 -45.0480 -45.0479 -45.0340 -45.0340 -45.0336 -45.0335
    12.9494  12.9495  14.5947  14.5947  15.3651  15.3651  15.7210  15.7210
    16.1733  16.1733  16.3106  16.3106  16.7295  16.7295  16.9363  16.9364
    18.1486  18.1486  18.2122  18.2122  18.2479  18.2479  21.7245  21.7245
    24.5501  24.5501  29.1856

     occupation numbers 
     1.0000   1.0000   1.0000   1.0000   1.0000   1.0000   1.0000   1.0000
     1.0000   1.0000   1.0000   1.0000   1.0000   1.0000   1.0000   1.0000
     1.0000   1.0000   1.0000   1.0000   1.0000   1.0000   1.0000   1.0000
     1.0000   1.0000   1.0000   1.0000   1.0000   1.0000   1.0000   1.0000
     0.5001   0.4998  -0.0000  -0.0000  -0.0000  -0.0000  -0.0000  -0.0000
    -0.0000  -0.0000  -0.0000

          k = 0.2500 0.3333 0.3333 (  9068 PWs)   bands (ev):

   -84.7001 -84.6859 -84.6858 -84.6834 -45.1979 -45.1936 -45.1935 -45.1507
   -45.0832 -45.0686 -45.0685 -45.0464 -45.0451 -45.0451 -45.0226 -45.0157
    12.1611  14.1651  14.1651  14.4569  15.3736  15.4582  15.4582  15.9851
    16.2110  16.2110  16.2833  16.5120  16.5454  16.8993  16.8993  16.9163
    17.7078  17.9550  18.3042  18.3162  18.3163  20.0139  20.0140  21.2954
    24.7840  26.2856  26.2856

     occupation numbers 
     1.0000   1.0000   1.0000   1.0000   1.0000   1.0000   1.0000   1.0000
     1.0000   1.0000   1.0000   1.0000   1.0000   1.0000   1.0000   1.0000
     1.0000   1.0000   1.0000   1.0000   1.0000   1.0000   1.0000   1.0000
     1.0000   1.0000   1.0000   1.0000   1.0000   1.0000   1.0000   1.0000
     1.0000   1.0000  -0.0000  -0.0000  -0.0000  -0.0000  -0.0000  -0.0000
    -0.0000  -0.0000  -0.0000

          k = 0.2500 0.3333 0.4167 (  9061 PWs)   bands (ev):

   -84.6967 -84.6893 -84.6853 -84.6840 -45.2017 -45.1995 -45.1901 -45.1678
   -45.0784 -45.0707 -45.0516 -45.0426 -45.0420 -45.0372 -45.0298 -45.0201
    12.6844  13.7363  14.2581  14.4001  15.5216  15.5781  15.7031  15.9872
    16.2349  16.2493  16.3229  16.4119  16.5567  16.7437  16.8104  16.8119
    17.8349  18.1866  18.2334  18.2486  18.2507  19.1147  20.4351  21.2053
    24.4536  25.3474  27.0476

     occupation numbers 
     1.0000   1.0000   1.0000   1.0000   1.0000   1.0000   1.0000   1.0000
     1.0000   1.0000   1.0000   1.0000   1.0000   1.0000   1.0000   1.0000
     1.0000   1.0000   1.0000   1.0000   1.0000   1.0000   1.0000   1.0000
     1.0000   1.0000   1.0000   1.0000   1.0000   1.0000   1.0000   1.0000
     1.0000  -0.0003  -0.0000  -0.0000  -0.0000  -0.0000  -0.0000  -0.0000
    -0.0000  -0.0000  -0.0000

          k = 0.2500 0.3333-0.5000 (  9062 PWs)   bands (ev):

   -84.6930 -84.6929 -84.6847 -84.6846 -45.2024 -45.2023 -45.1813 -45.1813
   -45.0742 -45.0741 -45.0411 -45.0410 -45.0391 -45.0390 -45.0281 -45.0281
    13.2275  13.2275  14.3334  14.3335  15.6014  15.6015  15.9003  15.9003
    16.2995  16.2995  16.3121  16.3122  16.6259  16.6259  16.7724  16.7725
    18.0589  18.0589  18.2194  18.2195  18.5169  18.5169  20.8683  20.8683
    24.6953  24.6953  27.9397

     occupation numbers 
     1.0000   1.0000   1.0000   1.0000   1.0000   1.0000   1.0000   1.0000
     1.0000   1.0000   1.0000   1.0000   1.0000   1.0000   1.0000   1.0000
     1.0000   1.0000   1.0000   1.0000   1.0000   1.0000   1.0000   1.0000
     1.0000   1.0000   1.0000   1.0000   1.0000   1.0000   1.0000   1.0000
     1.0000   1.0000  -0.0000  -0.0000  -0.0000  -0.0000  -0.0000  -0.0000
    -0.0000  -0.0000  -0.0000

          k = 0.2500 0.4167 0.4167 (  9055 PWs)   bands (ev):

   -84.6939 -84.6881 -84.6880 -84.6853 -45.2053 -45.1992 -45.1992 -45.1826
   -45.0699 -45.0565 -45.0565 -45.0371 -45.0369 -45.0340 -45.0340 -45.0213
    13.1007  13.9072  13.9072  14.2313  15.7173  15.8422  15.8422  16.1032
    16.2944  16.2944  16.3556  16.4059  16.5143  16.6665  16.6665  16.6891
    17.8602  18.1546  18.1546  18.1826  18.4816  19.5199  19.5199  20.6160
    24.6446  26.0265  26.0265

     occupation numbers 
     1.0000   1.0000   1.0000   1.0000   1.0000   1.0000   1.0000   1.0000
     1.0000   1.0000   1.0000   1.0000   1.0000   1.0000   1.0000   1.0000
     1.0000   1.0000   1.0000   1.0000   1.0000   1.0000   1.0000   1.0000
     1.0000   1.0000   1.0000   1.0000   1.0000   1.0000   1.0000   1.0000
     1.0000   0.1637   0.1627  -0.0012  -0.0000  -0.0000  -0.0000  -0.0000
    -0.0000  -0.0000  -0.0000

          k = 0.2500 0.4167-0.5000 (  9062 PWs)   bands (ev):

   -84.6910 -84.6909 -84.6867 -84.6866 -45.2045 -45.2044 -45.1934 -45.1934
   -45.0627 -45.0626 -45.0456 -45.0455 -45.0340 -45.0340 -45.0264 -45.0263
    13.5175  13.5175  14.0691  14.0691  15.8433  15.8433  16.0620  16.0621
    16.3077  16.3077  16.3902  16.3903  16.5583  16.5583  16.6379  16.6379
    17.9942  17.9942  18.1318  18.1319  18.8847  18.8847  20.0196  20.0196
    25.2114  25.2114  26.8593

     occupation numbers 
     1.0000   1.0000   1.0000   1.0000   1.0000   1.0000   1.0000   1.0000
     1.0000   1.0000   1.0000   1.0000   1.0000   1.0000   1.0000   1.0000
     1.0000   1.0000   1.0000   1.0000   1.0000   1.0000   1.0000   1.0000
     1.0000   1.0000   1.0000   1.0000   1.0000   1.0000   1.0000   1.0000
     1.0000   1.0000   1.0355   1.0355  -0.0000  -0.0000  -0.0000  -0.0000
    -0.0000  -0.0000  -0.0000

          k = 0.2500-0.5000-0.5000 (  9064 PWs)   bands (ev):

   -84.6888 -84.6888 -84.6888 -84.6887 -45.2014 -45.2014 -45.2013 -45.2013
   -45.0534 -45.0534 -45.0534 -45.0533 -45.0286 -45.0286 -45.0285 -45.0285
    13.7990  13.7990  13.7990  13.7990  16.0294  16.0294  16.0294  16.0295
    16.3805  16.3805  16.3805  16.3805  16.5549  16.5549  16.5549  16.5550
    18.0273  18.0274  18.0274  18.0274  19.3586  19.3586  19.3586  19.3586
    25.9468  25.9468  25.9468

     occupation numbers 
     1.0000   1.0000   1.0000   1.0000   1.0000   1.0000   1.0000   1.0000
     1.0000   1.0000   1.0000   1.0000   1.0000   1.0000   1.0000   1.0000
     1.0000   1.0000   1.0000   1.0000   1.0000   1.0000   1.0000   1.0000
     1.0000   1.0000   1.0000   1.0000   1.0000   1.0000   1.0000   1.0000
     1.0000   1.0000   1.0000   1.0000  -0.0000  -0.0000  -0.0000  -0.0000
    -0.0000  -0.0000  -0.0000

          k = 0.3333 0.3333 0.3333 (  9030 PWs)   bands (ev):

   -84.6977 -84.6859 -84.6859 -84.6858 -45.2033 -45.2032 -45.2032 -45.1692
   -45.0623 -45.0623 -45.0622 -45.0419 -45.0418 -45.0418 -45.0202 -45.0202
    12.5382  14.1431  14.1432  14.1432  15.6266  15.6267  15.6267  16.1243
    16.3540  16.3540  16.3540  16.4788  16.4788  16.7444  16.7445  16.7445
    17.9204  17.9204  18.3399  18.3400  18.3400  20.1485  20.1485  20.1485
    25.2565  25.2565  25.2565

     occupation numbers 
     1.0000   1.0000   1.0000   1.0000   1.0000   1.0000   1.0000   1.0000
     1.0000   1.0000   1.0000   1.0000   1.0000   1.0000   1.0000   1.0000
     1.0000   1.0000   1.0000   1.0000   1.0000   1.0000   1.0000   1.0000
     1.0000   1.0000   1.0000   1.0000   1.0000   1.0000   1.0000   1.0000
     1.0000   1.0000  -0.0000  -0.0000  -0.0000  -0.0000  -0.0000  -0.0000
    -0.0000  -0.0000  -0.0000

          k = 0.3333 0.3333 0.4167 (  9058 PWs)   bands (ev):

   -84.6948 -84.6887 -84.6859 -84.6858 -45.2097 -45.2096 -45.2028 -45.1849
   -45.0594 -45.0593 -45.0446 -45.0386 -45.0386 -45.0366 -45.0254 -45.0230
    12.9582  13.7825  14.1195  14.1195  15.7682  15.7683  15.8965  16.2331
    16.3999  16.4105  16.4668  16.4829  16.4829  16.6048  16.6486  16.6487
    18.0423  18.1009  18.2998  18.2998  18.3181  19.1673  20.2735  20.2735
    24.5828  24.5828  25.9250

     occupation numbers 
     1.0000   1.0000   1.0000   1.0000   1.0000   1.0000   1.0000   1.0000
     1.0000   1.0000   1.0000   1.0000   1.0000   1.0000   1.0000   1.0000
     1.0000   1.0000   1.0000   1.0000   1.0000   1.0000   1.0000   1.0000
     1.0000   1.0000   1.0000   1.0000   1.0000   1.0000   1.0000   1.0000
     1.0000   1.0000  -0.0000  -0.0000  -0.0000  -0.0000  -0.0000  -0.0000
    -0.0000  -0.0000  -0.0000

          k = 0.3333 0.3333-0.5000 (  9084 PWs)   bands (ev):

   -84.6918 -84.6917 -84.6859 -84.6858 -45.2119 -45.2119 -45.1965 -45.1965
   -45.0585 -45.0585 -45.0373 -45.0373 -45.0313 -45.0313 -45.0311 -45.0310
    13.3826  13.3826  14.1097  14.1098  15.8211  15.8211  16.1347  16.1347
    16.4052  16.4052  16.5099  16.5099  16.5463  16.5464  16.6108  16.6108
    18.2368  18.2368  18.2708  18.2709  18.4470  18.4470  20.3261  20.3261
    24.3453  24.3453  26.7498

     occupation numbers 
     1.0000   1.0000   1.0000   1.0000   1.0000   1.0000   1.0000   1.0000
     1.0000   1.0000   1.0000   1.0000   1.0000   1.0000   1.0000   1.0000
     1.0000   1.0000   1.0000   1.0000   1.0000   1.0000   1.0000   1.0000
     1.0000   1.0000   1.0000   1.0000   1.0000   1.0000   1.0000   1.0000
    -0.0000  -0.0000  -0.0000  -0.0000  -0.0000  -0.0000  -0.0000  -0.0000
    -0.0000  -0.0000  -0.0000

          k = 0.3333 0.4167 0.4167 (  9065 PWs)   bands (ev):

   -84.6926 -84.6880 -84.6880 -84.6865 -45.2155 -45.2118 -45.2118 -45.1988
   -45.0518 -45.0446 -45.0445 -45.0348 -45.0336 -45.0335 -45.0290 -45.0236
    13.2511  13.8337  13.8337  13.9974  15.9384  16.0197  16.0197  16.3553
    16.4088  16.5129  16.5129  16.5205  16.5354  16.6127  16.6128  16.6749
    18.0531  18.2793  18.2825  18.2826  18.3057  19.3511  19.3512  19.9790
    24.3120  25.0623  25.0623

     occupation numbers 
     1.0000   1.0000   1.0000   1.0000   1.0000   1.0000   1.0000   1.0000
     1.0000   1.0000   1.0000   1.0000   1.0000   1.0000   1.0000   1.0000
     1.0000   1.0000   1.0000   1.0000   1.0000   1.0000   1.0000   1.0000
     1.0000   1.0000   1.0000   1.0000   1.0000   1.0000   1.0000   1.0000
     1.0000  -0.0000  -0.0000  -0.0000  -0.0000  -0.0000  -0.0000  -0.0000
    -0.0000  -0.0000  -0.0000

          k = 0.3333 0.4167-0.5000 (  9072 PWs)   bands (ev):

   -84.6904 -84.6903 -84.6873 -84.6872 -45.2162 -45.2162 -45.2081 -45.2081
   -45.0473 -45.0472 -45.0350 -45.0350 -45.0326 -45.0326 -45.0276 -45.0276
    13.5447  13.5447  13.9024  13.9024  16.0319  16.0319  16.2282  16.2282
    16.4342  16.4342  16.4888  16.4889  16.6474  16.6474  16.7379  16.7379
    18.1791  18.1791  18.2487  18.2488  18.6660  18.6661  19.6383  19.6383
    24.5021  24.5021  25.7663

     occupation numbers 
     1.0000   1.0000   1.0000   1.0000   1.0000   1.0000   1.0000   1.0000
     1.0000   1.0000   1.0000   1.0000   1.0000   1.0000   1.0000   1.0000
     1.0000   1.0000   1.0000   1.0000   1.0000   1.0000   1.0000   1.0000
     1.0000   1.0000   1.0000   1.0000   1.0000   1.0000   1.0000   1.0000
    -0.0034  -0.0034  -0.0000  -0.0000  -0.0000  -0.0000  -0.0000  -0.0000
    -0.0000  -0.0000  -0.0000

          k = 0.3333-0.5000-0.5000 (  9080 PWs)   bands (ev):

   -84.6888 -84.6888 -84.6888 -84.6886 -45.2149 -45.2149 -45.2149 -45.2149
   -45.0401 -45.0400 -45.0400 -45.0400 -45.0286 -45.0286 -45.0285 -45.0285
    13.7155  13.7155  13.7155  13.7155  16.1822  16.1822  16.1822  16.1823
    16.4224  16.4225  16.4225  16.4225  16.8059  16.8059  16.8060  16.8060
    18.1786  18.1786  18.1786  18.1787  19.0515  19.0515  19.0515  19.0515
    25.0056  25.0056  25.0056

     occupation numbers 
     1.0000   1.0000   1.0000   1.0000   1.0000   1.0000   1.0000   1.0000
     1.0000   1.0000   1.0000   1.0000   1.0000   1.0000   1.0000   1.0000
     1.0000   1.0000   1.0000   1.0000   1.0000   1.0000   1.0000   1.0000
     1.0000   1.0000   1.0000   1.0000   1.0000   1.0000   1.0000   1.0000
    -0.0039  -0.0039  -0.0039  -0.0039  -0.0000  -0.0000  -0.0000  -0.0000
    -0.0000  -0.0000  -0.0000

          k = 0.4167 0.4167 0.4167 (  9075 PWs)   bands (ev):

   -84.6912 -84.6880 -84.6880 -84.6879 -45.2200 -45.2200 -45.2200 -45.2112
   -45.0380 -45.0380 -45.0379 -45.0321 -45.0321 -45.0321 -45.0263 -45.0263
    13.4127  13.7812  13.7812  13.7812  16.1414  16.1414  16.1414  16.3569
    16.3569  16.4229  16.4230  16.4230  16.9338  16.9338  16.9338  16.9366
    18.2010  18.2010  18.3179  18.3180  18.3180  19.1798  19.1798  19.1799
    24.4596  24.4596  24.4596

     occupation numbers 
     1.0000   1.0000   1.0000   1.0000   1.0000   1.0000   1.0000   1.0000
     1.0000   1.0000   1.0000   1.0000   1.0000   1.0000   1.0000   1.0000
     1.0000   1.0000   1.0000   1.0000   1.0000   1.0000   1.0000   1.0000
     1.0000   1.0000   1.0000   1.0000   1.0000   1.0000   1.0000   1.0000
    -0.0000  -0.0000  -0.0000  -0.0000  -0.0000  -0.0000  -0.0000  -0.0000
    -0.0000  -0.0000  -0.0000

          k = 0.4167 0.4167-0.5000 (  9084 PWs)   bands (ev):

   -84.6896 -84.6895 -84.6880 -84.6879 -45.2228 -45.2228 -45.2185 -45.2185
   -45.0366 -45.0365 -45.0307 -45.0307 -45.0293 -45.0292 -45.0292 -45.0291
    13.5874  13.5874  13.7623  13.7623  16.1858  16.1859  16.2849  16.2850
    16.3618  16.3618  16.3872  16.3873  17.0945  17.0945  17.1010  17.1011
    18.2916  18.2916  18.2993  18.2993  18.4774  18.4775  19.1069  19.1069
    24.2554  24.2554  24.9440

     occupation numbers 
     1.0000   1.0000   1.0000   1.0000   1.0000   1.0000   1.0000   1.0000
     1.0000   1.0000   1.0000   1.0000   1.0000   1.0000   1.0000   1.0000
     1.0000   1.0000   1.0000   1.0000   1.0000   1.0000   1.0000   1.0000
     1.0000   1.0000   1.0000   1.0000   1.0000   1.0000   1.0000   1.0000
    -0.0000  -0.0000  -0.0000  -0.0000  -0.0000  -0.0000  -0.0000  -0.0000
    -0.0000  -0.0000  -0.0000

          k = 0.4167-0.5000-0.5000 (  9092 PWs)   bands (ev):

   -84.6888 -84.6888 -84.6888 -84.6886 -45.2236 -45.2236 -45.2236 -45.2236
   -45.0315 -45.0315 -45.0315 -45.0314 -45.0286 -45.0285 -45.0285 -45.0285
    13.6574  13.6574  13.6574  13.6574  16.2773  16.2773  16.2773  16.2774
    16.3384  16.3384  16.3384  16.3385  17.3170  17.3170  17.3170  17.3170
    18.2765  18.2765  18.2765  18.2765  18.6326  18.6326  18.6326  18.6326
    24.4254  24.4254  24.4254

     occupation numbers 
     1.0000   1.0000   1.0000   1.0000   1.0000   1.0000   1.0000   1.0000
     1.0000   1.0000   1.0000   1.0000   1.0000   1.0000   1.0000   1.0000
     1.0000   1.0000   1.0000   1.0000   1.0000   1.0000   1.0000   1.0000
     1.0000   1.0000   1.0000   1.0000   1.0000   1.0000   1.0000   1.0000
    -0.0000  -0.0000  -0.0000  -0.0000  -0.0000  -0.0000  -0.0000  -0.0000
    -0.0000  -0.0000  -0.0000

          k =-0.5000-0.5000-0.5000 (  9104 PWs)   bands (ev):

   -84.6888 -84.6888 -84.6888 -84.6886 -45.2266 -45.2266 -45.2266 -45.2266
   -45.0286 -45.0286 -45.0286 -45.0285 -45.0285 -45.0284 -45.0284 -45.0284
    13.6368  13.6368  13.6368  13.6368  16.3096  16.3096  16.3096  16.3097
    16.3097  16.3097  16.3097  16.3097  17.6721  17.6722  17.6722  17.6722
    18.3102  18.3102  18.3102  18.3103  18.3103  18.3103  18.3103  18.3103
    24.2308  24.2308  24.2308

     occupation numbers 
     1.0000   1.0000   1.0000   1.0000   1.0000   1.0000   1.0000   1.0000
     1.0000   1.0000   1.0000   1.0000   1.0000   1.0000   1.0000   1.0000
     1.0000   1.0000   1.0000   1.0000   1.0000   1.0000   1.0000   1.0000
     1.0000   1.0000   1.0000   1.0000   1.0000   1.0000   1.0000   1.0000
    -0.0000  -0.0000  -0.0000  -0.0000  -0.0000  -0.0000  -0.0000  -0.0000
    -0.0000  -0.0000  -0.0000

     the Fermi energy is    18.1486 ev

!    total energy              =   -1716.65721724 Ry
     total all-electron energy =    -12166.385647 Ry
     estimated scf accuracy    <       0.00000007 Ry
     smearing contrib. (-TS)   =      -0.00001277 Ry
     internal energy E=F+TS    =   -1716.65720447 Ry

     The total energy is F=E-TS. E is the sum of the following terms:
     one-electron contribution =    -736.62596753 Ry
     hartree contribution      =     417.53752773 Ry
     xc contribution           =    -137.36721479 Ry
     ewald contribution        =    -895.82936299 Ry
     one-center paw contrib.   =    -364.37218689 Ry
      -> PAW hartree energy AE =     267.90197542 Ry
      -> PAW hartree energy PS =    -266.20770007 Ry
      -> PAW xc energy AE      =    -125.60420417 Ry
      -> PAW xc energy PS      =      32.81689088 Ry
      -> total E_H with PAW    =     419.23180307 Ry
      -> total E_XC with PAW   =    -230.15452808 Ry

     total magnetization       =     2.66 Bohr mag/cell
     absolute magnetization    =     3.03 Bohr mag/cell

     convergence has been achieved in  12 iterations

     Writing all to output data dir out/Ni.save/
 
     init_run     :      0.91s CPU      1.23s WALL (       1 calls)
     electrons    :    112.15s CPU    114.34s WALL (       1 calls)

     Called by init_run:
     wfcinit      :      0.65s CPU      0.93s WALL (       1 calls)
     potinit      :      0.14s CPU      0.16s WALL (       1 calls)
     hinit0       :      0.05s CPU      0.05s WALL (       1 calls)

     Called by electrons:
     c_bands      :     96.71s CPU     98.56s WALL (      12 calls)
     sum_band     :     13.49s CPU     13.77s WALL (      12 calls)
     v_of_rho     :      0.15s CPU      0.16s WALL (      13 calls)
     v_h          :      0.01s CPU      0.01s WALL (      13 calls)
     v_xc         :      0.15s CPU      0.15s WALL (      13 calls)
     newd         :      0.26s CPU      0.27s WALL (      13 calls)
     PAW_pot      :      1.60s CPU      1.67s WALL (      13 calls)
     mix_rho      :      0.04s CPU      0.04s WALL (      12 calls)

     Called by c_bands:
     init_us_2    :      0.81s CPU      0.88s WALL (    4032 calls)
     init_us_2:cp :      0.81s CPU      0.87s WALL (    4032 calls)
     cegterg      :     91.91s CPU     93.46s WALL (    2016 calls)

     Called by sum_band:
     sum_band:wei :      0.08s CPU      0.08s WALL (      12 calls)
     sum_band:loo :     12.88s CPU     13.14s WALL (      12 calls)
     sum_band:buf :      0.17s CPU      0.18s WALL (    2016 calls)
     sum_band:ini :      0.33s CPU      0.34s WALL (    2016 calls)
     sum_band:cal :      0.79s CPU      0.80s WALL (    2016 calls)
     sum_band:bec :      0.07s CPU      0.07s WALL (    2016 calls)
     addusdens    :      0.46s CPU      0.48s WALL (      12 calls)
                                        0.00s GPU  (      12 calls)
     addusd:skk   :      0.00s CPU      0.00s WALL (      12 calls)
                                        0.00s GPU  (      12 calls)

     Called by *egterg:
     cdiaghg      :     14.77s CPU     14.83s WALL (    7261 calls)
     cegterg:over :      3.86s CPU      3.94s WALL (    5413 calls)
     cegterg:upda :      1.67s CPU      1.67s WALL (    5413 calls)
     cegterg:last :      3.38s CPU      3.39s WALL (    4629 calls)
     h_psi        :     64.31s CPU     65.59s WALL (    7429 calls)
     s_psi        :      1.53s CPU      1.55s WALL (    7429 calls)
     g_psi        :      0.25s CPU      0.25s WALL (    5413 calls)

     Called by h_psi:
     h_psi:calbec :      2.88s CPU      2.91s WALL (    7429 calls)
     vloc_psi     :     59.24s CPU     60.43s WALL (    7429 calls)
     add_vuspsi   :      1.76s CPU      1.78s WALL (    7429 calls)

     General routines
     calbec       :      3.66s CPU      3.69s WALL (    9445 calls)
     fft          :      0.09s CPU      0.09s WALL (     319 calls)
     ffts         :      0.01s CPU      0.01s WALL (      50 calls)
     fftw         :     66.40s CPU     66.80s WALL (  558040 calls)
     interpolate  :      0.01s CPU      0.01s WALL (      26 calls)
 
     Parallel routines

     PAW routines
     PAW_pot      :      1.60s CPU      1.67s WALL (      13 calls)
     PAW_symme    :      0.02s CPU      0.02s WALL (      24 calls)
 
     PWSCF        :   1m53.89s CPU   1m59.18s WALL

 
   This run was terminated on:   5:55:38  22Mar2024            

=------------------------------------------------------------------------------=
   JOB DONE.
=------------------------------------------------------------------------------=
