
     Program PWSCF v.7.2 starts on 22Mar2024 at  6: 6:38 

     This program is part of the open-source Quantum ESPRESSO suite
     for quantum simulation of materials; please cite
         "P. Giannozzi et al., J. Phys.:Condens. Matter 21 395502 (2009);
         "P. Giannozzi et al., J. Phys.:Condens. Matter 29 465901 (2017);
         "P. Giannozzi et al., J. Chem. Phys. 152 154105 (2020);
          URL http://www.quantum-espresso.org", 
     in publications or presentations arising from this work. More details at
     http://www.quantum-espresso.org/quote

     Parallel version (MPI), running on    20 processors

     MPI processes distributed on     1 nodes
     355931 MiB available memory on the printing compute node when the environment starts
 
     Waiting for input...
     Reading input from standard input

     Current dimensions of program PWSCF are:
     Max number of different atomic species (ntypx) = 10
     Max number of k-points (npk) = 120000
     Max angular momentum in pseudopotentials (lmaxx) =  4
     file Ni.pbe-spn-kjpaw_psl.1.0.0.UPF: wavefunction(s)  3P 3D renormalized
     Found identity + (  0.0000 -0.5000 -0.5000) symmetry
     This is a supercell, fractional translations are disabled
 
     R & G space division:  proc/nbgrp/npool/nimage =      20
     Subspace diagonalization in iterative solution of the eigenvalue problem:
     a serial algorithm will be used

 
     Parallelization info
     --------------------
     sticks:   dense  smooth     PW     G-vecs:    dense   smooth      PW
     Min         147     110     31                 5965     3878     587
     Max         148     111     32                 5967     3881     590
     Sum        2941    2209    621               119321    77605   11753
 
     Using Slab Decomposition
 


     bravais-lattice index     =            1
     lattice parameter (alat)  =       6.7841  a.u.
     unit-cell volume          =     312.2338 (a.u.)^3
     number of atoms/cell      =            4
     number of atomic types    =            1
     number of electrons       =        72.00
     number of Kohn-Sham states=           43
     kinetic-energy cutoff     =     150.0000  Ry
     charge density cutoff     =     800.0000  Ry
     scf convergence threshold =      8.0E-08
     mixing beta               =       0.7000
     number of iterations used =            8  plain     mixing
     Exchange-correlation= SLA  PW   PBX  PBC
                           (   1   4   3   4   0   0   0)

     celldm(1)=   6.784117  celldm(2)=   0.000000  celldm(3)=   0.000000
     celldm(4)=   0.000000  celldm(5)=   0.000000  celldm(6)=   0.000000

     crystal axes: (cart. coord. in units of alat)
               a(1) = (   1.000000   0.000000   0.000000 )  
               a(2) = (   0.000000   1.000000   0.000000 )  
               a(3) = (   0.000000   0.000000   1.000000 )  

     reciprocal axes: (cart. coord. in units 2 pi/alat)
               b(1) = (  1.000000  0.000000  0.000000 )  
               b(2) = (  0.000000  1.000000  0.000000 )  
               b(3) = (  0.000000  0.000000  1.000000 )  


     PseudoPot. # 1 for Ni read from file:
     /truba/home/amuhaymin/ZnS/pseudo/QE/Ni.pbe-spn-kjpaw_psl.1.0.0.UPF
     MD5 check sum: 6e86b733589c3ad8389697b807d86aa7
     Pseudo is Projector augmented-wave + core cor, Zval = 18.0
     Generated using &quot;atomic&quot; code by A. Dal Corso  v.6.3
     Shape of augmentation charge: PSQ
     Using radial grid of 1195 points,  6 beta functions with: 
                l(1) =   0
                l(2) =   0
                l(3) =   1
                l(4) =   1
                l(5) =   2
                l(6) =   2
     Q(r) pseudized with 0 coefficients 


     atomic species   valence    mass     pseudopotential
        Ni            18.00    58.69340     Ni( 1.00)

     Starting magnetic structure 
     atomic species   magnetization
        Ni           0.278

     48 Sym. Ops., with inversion, found


                                    s                        frac. trans.

      isym =  1     identity                                     

 cryst.   s( 1) = (     1          0          0      )
                  (     0          1          0      )
                  (     0          0          1      )

 cart.    s( 1) = (  1.0000000  0.0000000  0.0000000 )
                  (  0.0000000  1.0000000  0.0000000 )
                  (  0.0000000  0.0000000  1.0000000 )


      isym =  2     180 deg rotation - cart. axis [0,0,1]        

 cryst.   s( 2) = (    -1          0          0      )
                  (     0         -1          0      )
                  (     0          0          1      )

 cart.    s( 2) = ( -1.0000000  0.0000000  0.0000000 )
                  (  0.0000000 -1.0000000  0.0000000 )
                  (  0.0000000  0.0000000  1.0000000 )


      isym =  3     180 deg rotation - cart. axis [0,1,0]        

 cryst.   s( 3) = (    -1          0          0      )
                  (     0          1          0      )
                  (     0          0         -1      )

 cart.    s( 3) = ( -1.0000000  0.0000000  0.0000000 )
                  (  0.0000000  1.0000000  0.0000000 )
                  (  0.0000000  0.0000000 -1.0000000 )


      isym =  4     180 deg rotation - cart. axis [1,0,0]        

 cryst.   s( 4) = (     1          0          0      )
                  (     0         -1          0      )
                  (     0          0         -1      )

 cart.    s( 4) = (  1.0000000  0.0000000  0.0000000 )
                  (  0.0000000 -1.0000000  0.0000000 )
                  (  0.0000000  0.0000000 -1.0000000 )


      isym =  5     180 deg rotation - cart. axis [1,1,0]        

 cryst.   s( 5) = (     0          1          0      )
                  (     1          0          0      )
                  (     0          0         -1      )

 cart.    s( 5) = (  0.0000000  1.0000000  0.0000000 )
                  (  1.0000000  0.0000000  0.0000000 )
                  (  0.0000000  0.0000000 -1.0000000 )


      isym =  6     180 deg rotation - cart. axis [1,-1,0]       

 cryst.   s( 6) = (     0         -1          0      )
                  (    -1          0          0      )
                  (     0          0         -1      )

 cart.    s( 6) = (  0.0000000 -1.0000000  0.0000000 )
                  ( -1.0000000  0.0000000  0.0000000 )
                  (  0.0000000  0.0000000 -1.0000000 )


      isym =  7      90 deg rotation - cart. axis [0,0,-1]       

 cryst.   s( 7) = (     0         -1          0      )
                  (     1          0          0      )
                  (     0          0          1      )

 cart.    s( 7) = (  0.0000000  1.0000000  0.0000000 )
                  ( -1.0000000  0.0000000  0.0000000 )
                  (  0.0000000  0.0000000  1.0000000 )


      isym =  8      90 deg rotation - cart. axis [0,0,1]        

 cryst.   s( 8) = (     0          1          0      )
                  (    -1          0          0      )
                  (     0          0          1      )

 cart.    s( 8) = (  0.0000000 -1.0000000  0.0000000 )
                  (  1.0000000  0.0000000  0.0000000 )
                  (  0.0000000  0.0000000  1.0000000 )


      isym =  9     180 deg rotation - cart. axis [1,0,1]        

 cryst.   s( 9) = (     0          0          1      )
                  (     0         -1          0      )
                  (     1          0          0      )

 cart.    s( 9) = (  0.0000000  0.0000000  1.0000000 )
                  (  0.0000000 -1.0000000  0.0000000 )
                  (  1.0000000  0.0000000  0.0000000 )


      isym = 10     180 deg rotation - cart. axis [-1,0,1]       

 cryst.   s(10) = (     0          0         -1      )
                  (     0         -1          0      )
                  (    -1          0          0      )

 cart.    s(10) = (  0.0000000  0.0000000 -1.0000000 )
                  (  0.0000000 -1.0000000  0.0000000 )
                  ( -1.0000000  0.0000000  0.0000000 )


      isym = 11      90 deg rotation - cart. axis [0,1,0]        

 cryst.   s(11) = (     0          0         -1      )
                  (     0          1          0      )
                  (     1          0          0      )

 cart.    s(11) = (  0.0000000  0.0000000  1.0000000 )
                  (  0.0000000  1.0000000  0.0000000 )
                  ( -1.0000000  0.0000000  0.0000000 )


      isym = 12      90 deg rotation - cart. axis [0,-1,0]       

 cryst.   s(12) = (     0          0          1      )
                  (     0          1          0      )
                  (    -1          0          0      )

 cart.    s(12) = (  0.0000000  0.0000000 -1.0000000 )
                  (  0.0000000  1.0000000  0.0000000 )
                  (  1.0000000  0.0000000  0.0000000 )


      isym = 13     180 deg rotation - cart. axis [0,1,1]        

 cryst.   s(13) = (    -1          0          0      )
                  (     0          0          1      )
                  (     0          1          0      )

 cart.    s(13) = ( -1.0000000  0.0000000  0.0000000 )
                  (  0.0000000  0.0000000  1.0000000 )
                  (  0.0000000  1.0000000  0.0000000 )


      isym = 14     180 deg rotation - cart. axis [0,1,-1]       

 cryst.   s(14) = (    -1          0          0      )
                  (     0          0         -1      )
                  (     0         -1          0      )

 cart.    s(14) = ( -1.0000000  0.0000000  0.0000000 )
                  (  0.0000000  0.0000000 -1.0000000 )
                  (  0.0000000 -1.0000000  0.0000000 )


      isym = 15      90 deg rotation - cart. axis [-1,0,0]       

 cryst.   s(15) = (     1          0          0      )
                  (     0          0         -1      )
                  (     0          1          0      )

 cart.    s(15) = (  1.0000000  0.0000000  0.0000000 )
                  (  0.0000000  0.0000000  1.0000000 )
                  (  0.0000000 -1.0000000  0.0000000 )


      isym = 16      90 deg rotation - cart. axis [1,0,0]        

 cryst.   s(16) = (     1          0          0      )
                  (     0          0          1      )
                  (     0         -1          0      )

 cart.    s(16) = (  1.0000000  0.0000000  0.0000000 )
                  (  0.0000000  0.0000000 -1.0000000 )
                  (  0.0000000  1.0000000  0.0000000 )


      isym = 17     120 deg rotation - cart. axis [-1,-1,-1]     

 cryst.   s(17) = (     0          0          1      )
                  (     1          0          0      )
                  (     0          1          0      )

 cart.    s(17) = (  0.0000000  1.0000000  0.0000000 )
                  (  0.0000000  0.0000000  1.0000000 )
                  (  1.0000000  0.0000000  0.0000000 )


      isym = 18     120 deg rotation - cart. axis [-1,1,1]       

 cryst.   s(18) = (     0          0         -1      )
                  (    -1          0          0      )
                  (     0          1          0      )

 cart.    s(18) = (  0.0000000 -1.0000000  0.0000000 )
                  (  0.0000000  0.0000000  1.0000000 )
                  ( -1.0000000  0.0000000  0.0000000 )


      isym = 19     120 deg rotation - cart. axis [1,1,-1]       

 cryst.   s(19) = (     0          0         -1      )
                  (     1          0          0      )
                  (     0         -1          0      )

 cart.    s(19) = (  0.0000000  1.0000000  0.0000000 )
                  (  0.0000000  0.0000000 -1.0000000 )
                  ( -1.0000000  0.0000000  0.0000000 )


      isym = 20     120 deg rotation - cart. axis [1,-1,1]       

 cryst.   s(20) = (     0          0          1      )
                  (    -1          0          0      )
                  (     0         -1          0      )

 cart.    s(20) = (  0.0000000 -1.0000000  0.0000000 )
                  (  0.0000000  0.0000000 -1.0000000 )
                  (  1.0000000  0.0000000  0.0000000 )


      isym = 21     120 deg rotation - cart. axis [1,1,1]        

 cryst.   s(21) = (     0          1          0      )
                  (     0          0          1      )
                  (     1          0          0      )

 cart.    s(21) = (  0.0000000  0.0000000  1.0000000 )
                  (  1.0000000  0.0000000  0.0000000 )
                  (  0.0000000  1.0000000  0.0000000 )


      isym = 22     120 deg rotation - cart. axis [-1,1,-1]      

 cryst.   s(22) = (     0         -1          0      )
                  (     0          0         -1      )
                  (     1          0          0      )

 cart.    s(22) = (  0.0000000  0.0000000  1.0000000 )
                  ( -1.0000000  0.0000000  0.0000000 )
                  (  0.0000000 -1.0000000  0.0000000 )


      isym = 23     120 deg rotation - cart. axis [1,-1,-1]      

 cryst.   s(23) = (     0         -1          0      )
                  (     0          0          1      )
                  (    -1          0          0      )

 cart.    s(23) = (  0.0000000  0.0000000 -1.0000000 )
                  ( -1.0000000  0.0000000  0.0000000 )
                  (  0.0000000  1.0000000  0.0000000 )


      isym = 24     120 deg rotation - cart. axis [-1,-1,1]      

 cryst.   s(24) = (     0          1          0      )
                  (     0          0         -1      )
                  (    -1          0          0      )

 cart.    s(24) = (  0.0000000  0.0000000 -1.0000000 )
                  (  1.0000000  0.0000000  0.0000000 )
                  (  0.0000000 -1.0000000  0.0000000 )


      isym = 25     inversion                                    

 cryst.   s(25) = (    -1          0          0      )
                  (     0         -1          0      )
                  (     0          0         -1      )

 cart.    s(25) = ( -1.0000000  0.0000000  0.0000000 )
                  (  0.0000000 -1.0000000  0.0000000 )
                  (  0.0000000  0.0000000 -1.0000000 )


      isym = 26     inv. 180 deg rotation - cart. axis [0,0,1]   

 cryst.   s(26) = (     1          0          0      )
                  (     0          1          0      )
                  (     0          0         -1      )

 cart.    s(26) = (  1.0000000  0.0000000  0.0000000 )
                  (  0.0000000  1.0000000  0.0000000 )
                  (  0.0000000  0.0000000 -1.0000000 )


      isym = 27     inv. 180 deg rotation - cart. axis [0,1,0]   

 cryst.   s(27) = (     1          0          0      )
                  (     0         -1          0      )
                  (     0          0          1      )

 cart.    s(27) = (  1.0000000  0.0000000  0.0000000 )
                  (  0.0000000 -1.0000000  0.0000000 )
                  (  0.0000000  0.0000000  1.0000000 )


      isym = 28     inv. 180 deg rotation - cart. axis [1,0,0]   

 cryst.   s(28) = (    -1          0          0      )
                  (     0          1          0      )
                  (     0          0          1      )

 cart.    s(28) = ( -1.0000000  0.0000000  0.0000000 )
                  (  0.0000000  1.0000000  0.0000000 )
                  (  0.0000000  0.0000000  1.0000000 )


      isym = 29     inv. 180 deg rotation - cart. axis [1,1,0]   

 cryst.   s(29) = (     0         -1          0      )
                  (    -1          0          0      )
                  (     0          0          1      )

 cart.    s(29) = (  0.0000000 -1.0000000  0.0000000 )
                  ( -1.0000000  0.0000000  0.0000000 )
                  (  0.0000000  0.0000000  1.0000000 )


      isym = 30     inv. 180 deg rotation - cart. axis [1,-1,0]  

 cryst.   s(30) = (     0          1          0      )
                  (     1          0          0      )
                  (     0          0          1      )

 cart.    s(30) = (  0.0000000  1.0000000  0.0000000 )
                  (  1.0000000  0.0000000  0.0000000 )
                  (  0.0000000  0.0000000  1.0000000 )


      isym = 31     inv.  90 deg rotation - cart. axis [0,0,-1]  

 cryst.   s(31) = (     0          1          0      )
                  (    -1          0          0      )
                  (     0          0         -1      )

 cart.    s(31) = (  0.0000000 -1.0000000  0.0000000 )
                  (  1.0000000  0.0000000  0.0000000 )
                  (  0.0000000  0.0000000 -1.0000000 )


      isym = 32     inv.  90 deg rotation - cart. axis [0,0,1]   

 cryst.   s(32) = (     0         -1          0      )
                  (     1          0          0      )
                  (     0          0         -1      )

 cart.    s(32) = (  0.0000000  1.0000000  0.0000000 )
                  ( -1.0000000  0.0000000  0.0000000 )
                  (  0.0000000  0.0000000 -1.0000000 )


      isym = 33     inv. 180 deg rotation - cart. axis [1,0,1]   

 cryst.   s(33) = (     0          0         -1      )
                  (     0          1          0      )
                  (    -1          0          0      )

 cart.    s(33) = (  0.0000000  0.0000000 -1.0000000 )
                  (  0.0000000  1.0000000  0.0000000 )
                  ( -1.0000000  0.0000000  0.0000000 )


      isym = 34     inv. 180 deg rotation - cart. axis [-1,0,1]  

 cryst.   s(34) = (     0          0          1      )
                  (     0          1          0      )
                  (     1          0          0      )

 cart.    s(34) = (  0.0000000  0.0000000  1.0000000 )
                  (  0.0000000  1.0000000  0.0000000 )
                  (  1.0000000  0.0000000  0.0000000 )


      isym = 35     inv.  90 deg rotation - cart. axis [0,1,0]   

 cryst.   s(35) = (     0          0          1      )
                  (     0         -1          0      )
                  (    -1          0          0      )

 cart.    s(35) = (  0.0000000  0.0000000 -1.0000000 )
                  (  0.0000000 -1.0000000  0.0000000 )
                  (  1.0000000  0.0000000  0.0000000 )


      isym = 36     inv.  90 deg rotation - cart. axis [0,-1,0]  

 cryst.   s(36) = (     0          0         -1      )
                  (     0         -1          0      )
                  (     1          0          0      )

 cart.    s(36) = (  0.0000000  0.0000000  1.0000000 )
                  (  0.0000000 -1.0000000  0.0000000 )
                  ( -1.0000000  0.0000000  0.0000000 )


      isym = 37     inv. 180 deg rotation - cart. axis [0,1,1]   

 cryst.   s(37) = (     1          0          0      )
                  (     0          0         -1      )
                  (     0         -1          0      )

 cart.    s(37) = (  1.0000000  0.0000000  0.0000000 )
                  (  0.0000000  0.0000000 -1.0000000 )
                  (  0.0000000 -1.0000000  0.0000000 )


      isym = 38     inv. 180 deg rotation - cart. axis [0,1,-1]  

 cryst.   s(38) = (     1          0          0      )
                  (     0          0          1      )
                  (     0          1          0      )

 cart.    s(38) = (  1.0000000  0.0000000  0.0000000 )
                  (  0.0000000  0.0000000  1.0000000 )
                  (  0.0000000  1.0000000  0.0000000 )


      isym = 39     inv.  90 deg rotation - cart. axis [-1,0,0]  

 cryst.   s(39) = (    -1          0          0      )
                  (     0          0          1      )
                  (     0         -1          0      )

 cart.    s(39) = ( -1.0000000  0.0000000  0.0000000 )
                  (  0.0000000  0.0000000 -1.0000000 )
                  (  0.0000000  1.0000000  0.0000000 )


      isym = 40     inv.  90 deg rotation - cart. axis [1,0,0]   

 cryst.   s(40) = (    -1          0          0      )
                  (     0          0         -1      )
                  (     0          1          0      )

 cart.    s(40) = ( -1.0000000  0.0000000  0.0000000 )
                  (  0.0000000  0.0000000  1.0000000 )
                  (  0.0000000 -1.0000000  0.0000000 )


      isym = 41     inv. 120 deg rotation - cart. axis [-1,-1,-1]

 cryst.   s(41) = (     0          0         -1      )
                  (    -1          0          0      )
                  (     0         -1          0      )

 cart.    s(41) = (  0.0000000 -1.0000000  0.0000000 )
                  (  0.0000000  0.0000000 -1.0000000 )
                  ( -1.0000000  0.0000000  0.0000000 )


      isym = 42     inv. 120 deg rotation - cart. axis [-1,1,1]  

 cryst.   s(42) = (     0          0          1      )
                  (     1          0          0      )
                  (     0         -1          0      )

 cart.    s(42) = (  0.0000000  1.0000000  0.0000000 )
                  (  0.0000000  0.0000000 -1.0000000 )
                  (  1.0000000  0.0000000  0.0000000 )


      isym = 43     inv. 120 deg rotation - cart. axis [1,1,-1]  

 cryst.   s(43) = (     0          0          1      )
                  (    -1          0          0      )
                  (     0          1          0      )

 cart.    s(43) = (  0.0000000 -1.0000000  0.0000000 )
                  (  0.0000000  0.0000000  1.0000000 )
                  (  1.0000000  0.0000000  0.0000000 )


      isym = 44     inv. 120 deg rotation - cart. axis [1,-1,1]  

 cryst.   s(44) = (     0          0         -1      )
                  (     1          0          0      )
                  (     0          1          0      )

 cart.    s(44) = (  0.0000000  1.0000000  0.0000000 )
                  (  0.0000000  0.0000000  1.0000000 )
                  ( -1.0000000  0.0000000  0.0000000 )


      isym = 45     inv. 120 deg rotation - cart. axis [1,1,1]   

 cryst.   s(45) = (     0         -1          0      )
                  (     0          0         -1      )
                  (    -1          0          0      )

 cart.    s(45) = (  0.0000000  0.0000000 -1.0000000 )
                  ( -1.0000000  0.0000000  0.0000000 )
                  (  0.0000000 -1.0000000  0.0000000 )


      isym = 46     inv. 120 deg rotation - cart. axis [-1,1,-1] 

 cryst.   s(46) = (     0          1          0      )
                  (     0          0          1      )
                  (    -1          0          0      )

 cart.    s(46) = (  0.0000000  0.0000000 -1.0000000 )
                  (  1.0000000  0.0000000  0.0000000 )
                  (  0.0000000  1.0000000  0.0000000 )


      isym = 47     inv. 120 deg rotation - cart. axis [1,-1,-1] 

 cryst.   s(47) = (     0          1          0      )
                  (     0          0         -1      )
                  (     1          0          0      )

 cart.    s(47) = (  0.0000000  0.0000000  1.0000000 )
                  (  1.0000000  0.0000000  0.0000000 )
                  (  0.0000000 -1.0000000  0.0000000 )


      isym = 48     inv. 120 deg rotation - cart. axis [-1,-1,1] 

 cryst.   s(48) = (     0         -1          0      )
                  (     0          0          1      )
                  (     1          0          0      )

 cart.    s(48) = (  0.0000000  0.0000000  1.0000000 )
                  ( -1.0000000  0.0000000  0.0000000 )
                  (  0.0000000  1.0000000  0.0000000 )


     point group O_h (m-3m) 
     there are 10 classes
     the character table:

       E     8C3   3C2   6C4   6C2'  i     8S6   3s_h  6S4   6s_d 
A_1g   1.00  1.00  1.00  1.00  1.00  1.00  1.00  1.00  1.00  1.00
A_2g   1.00  1.00  1.00 -1.00 -1.00  1.00  1.00  1.00 -1.00 -1.00
E_g    2.00 -1.00  2.00  0.00  0.00  2.00 -1.00  2.00  0.00  0.00
T_1g   3.00  0.00 -1.00  1.00 -1.00  3.00  0.00 -1.00  1.00 -1.00
T_2g   3.00  0.00 -1.00 -1.00  1.00  3.00  0.00 -1.00 -1.00  1.00
A_1u   1.00  1.00  1.00  1.00  1.00 -1.00 -1.00 -1.00 -1.00 -1.00
A_2u   1.00  1.00  1.00 -1.00 -1.00 -1.00 -1.00 -1.00  1.00  1.00
E_u    2.00 -1.00  2.00  0.00  0.00 -2.00  1.00 -2.00  0.00  0.00
T_1u   3.00  0.00 -1.00  1.00 -1.00 -3.00  0.00  1.00 -1.00  1.00
T_2u   3.00  0.00 -1.00 -1.00  1.00 -3.00  0.00  1.00  1.00 -1.00

     the symmetry operations in each class and the name of the first element:

     E        1
          identity                                               
     8C3     17   19   20   18   24   21   22   23
          120 deg rotation - cart. axis [-1,-1,-1]               
     3C2      2    4    3
          180 deg rotation - cart. axis [0,0,1]                  
     6C4      7    8   15   16   12   11
           90 deg rotation - cart. axis [0,0,-1]                 
     6C2'     5    6   14   13   10    9
          180 deg rotation - cart. axis [1,1,0]                  
     i       25
          inversion                                              
     8S6     41   43   44   42   48   45   46   47
          inv. 120 deg rotation - cart. axis [-1,-1,-1]          
     3s_h    26   28   27
          inv. 180 deg rotation - cart. axis [0,0,1]             
     6S4     31   32   39   40   36   35
          inv.  90 deg rotation - cart. axis [0,0,-1]            
     6s_d    29   30   38   37   34   33
          inv. 180 deg rotation - cart. axis [1,1,0]             

   Cartesian axes

     site n.     atom                  positions (alat units)
         1           Ni  tau(   1) = (   0.0000000   0.0000000   0.0000000  )
         2           Ni  tau(   2) = (   0.0000000   0.5000000   0.5000000  )
         3           Ni  tau(   3) = (   0.5000000   0.0000000   0.5000000  )
         4           Ni  tau(   4) = (   0.5000000   0.5000000   0.0000000  )

   Crystallographic axes

     site n.     atom                  positions (cryst. coord.)
         1           Ni  tau(   1) = (  0.0000000  0.0000000  0.0000000  )
         2           Ni  tau(   2) = (  0.0000000  0.5000000  0.5000000  )
         3           Ni  tau(   3) = (  0.5000000  0.0000000  0.5000000  )
         4           Ni  tau(   4) = (  0.5000000  0.5000000  0.0000000  )

     number of k points=    84  Methfessel-Paxton smearing, width (Ry)=  0.0010
                       cart. coord. in units 2pi/alat
        k(    1) = (   0.0000000   0.0000000   0.0000000), wk =   0.0005787
        k(    2) = (   0.0000000   0.0000000   0.0833333), wk =   0.0034722
        k(    3) = (   0.0000000   0.0000000   0.1666667), wk =   0.0034722
        k(    4) = (   0.0000000   0.0000000   0.2500000), wk =   0.0034722
        k(    5) = (   0.0000000   0.0000000   0.3333333), wk =   0.0034722
        k(    6) = (   0.0000000   0.0000000   0.4166667), wk =   0.0034722
        k(    7) = (   0.0000000   0.0000000  -0.5000000), wk =   0.0017361
        k(    8) = (   0.0000000   0.0833333   0.0833333), wk =   0.0069444
        k(    9) = (   0.0000000   0.0833333   0.1666667), wk =   0.0138889
        k(   10) = (   0.0000000   0.0833333   0.2500000), wk =   0.0138889
        k(   11) = (   0.0000000   0.0833333   0.3333333), wk =   0.0138889
        k(   12) = (   0.0000000   0.0833333   0.4166667), wk =   0.0138889
        k(   13) = (   0.0000000   0.0833333  -0.5000000), wk =   0.0069444
        k(   14) = (   0.0000000   0.1666667   0.1666667), wk =   0.0069444
        k(   15) = (   0.0000000   0.1666667   0.2500000), wk =   0.0138889
        k(   16) = (   0.0000000   0.1666667   0.3333333), wk =   0.0138889
        k(   17) = (   0.0000000   0.1666667   0.4166667), wk =   0.0138889
        k(   18) = (   0.0000000   0.1666667  -0.5000000), wk =   0.0069444
        k(   19) = (   0.0000000   0.2500000   0.2500000), wk =   0.0069444
        k(   20) = (   0.0000000   0.2500000   0.3333333), wk =   0.0138889
        k(   21) = (   0.0000000   0.2500000   0.4166667), wk =   0.0138889
        k(   22) = (   0.0000000   0.2500000  -0.5000000), wk =   0.0069444
        k(   23) = (   0.0000000   0.3333333   0.3333333), wk =   0.0069444
        k(   24) = (   0.0000000   0.3333333   0.4166667), wk =   0.0138889
        k(   25) = (   0.0000000   0.3333333  -0.5000000), wk =   0.0069444
        k(   26) = (   0.0000000   0.4166667   0.4166667), wk =   0.0069444
        k(   27) = (   0.0000000   0.4166667  -0.5000000), wk =   0.0069444
        k(   28) = (   0.0000000  -0.5000000  -0.5000000), wk =   0.0017361
        k(   29) = (   0.0833333   0.0833333   0.0833333), wk =   0.0046296
        k(   30) = (   0.0833333   0.0833333   0.1666667), wk =   0.0138889
        k(   31) = (   0.0833333   0.0833333   0.2500000), wk =   0.0138889
        k(   32) = (   0.0833333   0.0833333   0.3333333), wk =   0.0138889
        k(   33) = (   0.0833333   0.0833333   0.4166667), wk =   0.0138889
        k(   34) = (   0.0833333   0.0833333  -0.5000000), wk =   0.0069444
        k(   35) = (   0.0833333   0.1666667   0.1666667), wk =   0.0138889
        k(   36) = (   0.0833333   0.1666667   0.2500000), wk =   0.0277778
        k(   37) = (   0.0833333   0.1666667   0.3333333), wk =   0.0277778
        k(   38) = (   0.0833333   0.1666667   0.4166667), wk =   0.0277778
        k(   39) = (   0.0833333   0.1666667  -0.5000000), wk =   0.0138889
        k(   40) = (   0.0833333   0.2500000   0.2500000), wk =   0.0138889
        k(   41) = (   0.0833333   0.2500000   0.3333333), wk =   0.0277778
        k(   42) = (   0.0833333   0.2500000   0.4166667), wk =   0.0277778
        k(   43) = (   0.0833333   0.2500000  -0.5000000), wk =   0.0138889
        k(   44) = (   0.0833333   0.3333333   0.3333333), wk =   0.0138889
        k(   45) = (   0.0833333   0.3333333   0.4166667), wk =   0.0277778
        k(   46) = (   0.0833333   0.3333333  -0.5000000), wk =   0.0138889
        k(   47) = (   0.0833333   0.4166667   0.4166667), wk =   0.0138889
        k(   48) = (   0.0833333   0.4166667  -0.5000000), wk =   0.0138889
        k(   49) = (   0.0833333  -0.5000000  -0.5000000), wk =   0.0034722
        k(   50) = (   0.1666667   0.1666667   0.1666667), wk =   0.0046296
        k(   51) = (   0.1666667   0.1666667   0.2500000), wk =   0.0138889
        k(   52) = (   0.1666667   0.1666667   0.3333333), wk =   0.0138889
        k(   53) = (   0.1666667   0.1666667   0.4166667), wk =   0.0138889
        k(   54) = (   0.1666667   0.1666667  -0.5000000), wk =   0.0069444
        k(   55) = (   0.1666667   0.2500000   0.2500000), wk =   0.0138889
        k(   56) = (   0.1666667   0.2500000   0.3333333), wk =   0.0277778
        k(   57) = (   0.1666667   0.2500000   0.4166667), wk =   0.0277778
        k(   58) = (   0.1666667   0.2500000  -0.5000000), wk =   0.0138889
        k(   59) = (   0.1666667   0.3333333   0.3333333), wk =   0.0138889
        k(   60) = (   0.1666667   0.3333333   0.4166667), wk =   0.0277778
        k(   61) = (   0.1666667   0.3333333  -0.5000000), wk =   0.0138889
        k(   62) = (   0.1666667   0.4166667   0.4166667), wk =   0.0138889
        k(   63) = (   0.1666667   0.4166667  -0.5000000), wk =   0.0138889
        k(   64) = (   0.1666667  -0.5000000  -0.5000000), wk =   0.0034722
        k(   65) = (   0.2500000   0.2500000   0.2500000), wk =   0.0046296
        k(   66) = (   0.2500000   0.2500000   0.3333333), wk =   0.0138889
        k(   67) = (   0.2500000   0.2500000   0.4166667), wk =   0.0138889
        k(   68) = (   0.2500000   0.2500000  -0.5000000), wk =   0.0069444
        k(   69) = (   0.2500000   0.3333333   0.3333333), wk =   0.0138889
        k(   70) = (   0.2500000   0.3333333   0.4166667), wk =   0.0277778
        k(   71) = (   0.2500000   0.3333333  -0.5000000), wk =   0.0138889
        k(   72) = (   0.2500000   0.4166667   0.4166667), wk =   0.0138889
        k(   73) = (   0.2500000   0.4166667  -0.5000000), wk =   0.0138889
        k(   74) = (   0.2500000  -0.5000000  -0.5000000), wk =   0.0034722
        k(   75) = (   0.3333333   0.3333333   0.3333333), wk =   0.0046296
        k(   76) = (   0.3333333   0.3333333   0.4166667), wk =   0.0138889
        k(   77) = (   0.3333333   0.3333333  -0.5000000), wk =   0.0069444
        k(   78) = (   0.3333333   0.4166667   0.4166667), wk =   0.0138889
        k(   79) = (   0.3333333   0.4166667  -0.5000000), wk =   0.0138889
        k(   80) = (   0.3333333  -0.5000000  -0.5000000), wk =   0.0034722
        k(   81) = (   0.4166667   0.4166667   0.4166667), wk =   0.0046296
        k(   82) = (   0.4166667   0.4166667  -0.5000000), wk =   0.0069444
        k(   83) = (   0.4166667  -0.5000000  -0.5000000), wk =   0.0034722
        k(   84) = (  -0.5000000  -0.5000000  -0.5000000), wk =   0.0005787

                       cryst. coord.
        k(    1) = (   0.0000000   0.0000000   0.0000000), wk =   0.0005787
        k(    2) = (   0.0000000   0.0000000   0.0833333), wk =   0.0034722
        k(    3) = (   0.0000000   0.0000000   0.1666667), wk =   0.0034722
        k(    4) = (   0.0000000   0.0000000   0.2500000), wk =   0.0034722
        k(    5) = (   0.0000000   0.0000000   0.3333333), wk =   0.0034722
        k(    6) = (   0.0000000   0.0000000   0.4166667), wk =   0.0034722
        k(    7) = (   0.0000000   0.0000000  -0.5000000), wk =   0.0017361
        k(    8) = (   0.0000000   0.0833333   0.0833333), wk =   0.0069444
        k(    9) = (   0.0000000   0.0833333   0.1666667), wk =   0.0138889
        k(   10) = (   0.0000000   0.0833333   0.2500000), wk =   0.0138889
        k(   11) = (   0.0000000   0.0833333   0.3333333), wk =   0.0138889
        k(   12) = (   0.0000000   0.0833333   0.4166667), wk =   0.0138889
        k(   13) = (   0.0000000   0.0833333  -0.5000000), wk =   0.0069444
        k(   14) = (   0.0000000   0.1666667   0.1666667), wk =   0.0069444
        k(   15) = (   0.0000000   0.1666667   0.2500000), wk =   0.0138889
        k(   16) = (   0.0000000   0.1666667   0.3333333), wk =   0.0138889
        k(   17) = (   0.0000000   0.1666667   0.4166667), wk =   0.0138889
        k(   18) = (   0.0000000   0.1666667  -0.5000000), wk =   0.0069444
        k(   19) = (   0.0000000   0.2500000   0.2500000), wk =   0.0069444
        k(   20) = (   0.0000000   0.2500000   0.3333333), wk =   0.0138889
        k(   21) = (   0.0000000   0.2500000   0.4166667), wk =   0.0138889
        k(   22) = (   0.0000000   0.2500000  -0.5000000), wk =   0.0069444
        k(   23) = (   0.0000000   0.3333333   0.3333333), wk =   0.0069444
        k(   24) = (   0.0000000   0.3333333   0.4166667), wk =   0.0138889
        k(   25) = (   0.0000000   0.3333333  -0.5000000), wk =   0.0069444
        k(   26) = (   0.0000000   0.4166667   0.4166667), wk =   0.0069444
        k(   27) = (   0.0000000   0.4166667  -0.5000000), wk =   0.0069444
        k(   28) = (   0.0000000  -0.5000000  -0.5000000), wk =   0.0017361
        k(   29) = (   0.0833333   0.0833333   0.0833333), wk =   0.0046296
        k(   30) = (   0.0833333   0.0833333   0.1666667), wk =   0.0138889
        k(   31) = (   0.0833333   0.0833333   0.2500000), wk =   0.0138889
        k(   32) = (   0.0833333   0.0833333   0.3333333), wk =   0.0138889
        k(   33) = (   0.0833333   0.0833333   0.4166667), wk =   0.0138889
        k(   34) = (   0.0833333   0.0833333  -0.5000000), wk =   0.0069444
        k(   35) = (   0.0833333   0.1666667   0.1666667), wk =   0.0138889
        k(   36) = (   0.0833333   0.1666667   0.2500000), wk =   0.0277778
        k(   37) = (   0.0833333   0.1666667   0.3333333), wk =   0.0277778
        k(   38) = (   0.0833333   0.1666667   0.4166667), wk =   0.0277778
        k(   39) = (   0.0833333   0.1666667  -0.5000000), wk =   0.0138889
        k(   40) = (   0.0833333   0.2500000   0.2500000), wk =   0.0138889
        k(   41) = (   0.0833333   0.2500000   0.3333333), wk =   0.0277778
        k(   42) = (   0.0833333   0.2500000   0.4166667), wk =   0.0277778
        k(   43) = (   0.0833333   0.2500000  -0.5000000), wk =   0.0138889
        k(   44) = (   0.0833333   0.3333333   0.3333333), wk =   0.0138889
        k(   45) = (   0.0833333   0.3333333   0.4166667), wk =   0.0277778
        k(   46) = (   0.0833333   0.3333333  -0.5000000), wk =   0.0138889
        k(   47) = (   0.0833333   0.4166667   0.4166667), wk =   0.0138889
        k(   48) = (   0.0833333   0.4166667  -0.5000000), wk =   0.0138889
        k(   49) = (   0.0833333  -0.5000000  -0.5000000), wk =   0.0034722
        k(   50) = (   0.1666667   0.1666667   0.1666667), wk =   0.0046296
        k(   51) = (   0.1666667   0.1666667   0.2500000), wk =   0.0138889
        k(   52) = (   0.1666667   0.1666667   0.3333333), wk =   0.0138889
        k(   53) = (   0.1666667   0.1666667   0.4166667), wk =   0.0138889
        k(   54) = (   0.1666667   0.1666667  -0.5000000), wk =   0.0069444
        k(   55) = (   0.1666667   0.2500000   0.2500000), wk =   0.0138889
        k(   56) = (   0.1666667   0.2500000   0.3333333), wk =   0.0277778
        k(   57) = (   0.1666667   0.2500000   0.4166667), wk =   0.0277778
        k(   58) = (   0.1666667   0.2500000  -0.5000000), wk =   0.0138889
        k(   59) = (   0.1666667   0.3333333   0.3333333), wk =   0.0138889
        k(   60) = (   0.1666667   0.3333333   0.4166667), wk =   0.0277778
        k(   61) = (   0.1666667   0.3333333  -0.5000000), wk =   0.0138889
        k(   62) = (   0.1666667   0.4166667   0.4166667), wk =   0.0138889
        k(   63) = (   0.1666667   0.4166667  -0.5000000), wk =   0.0138889
        k(   64) = (   0.1666667  -0.5000000  -0.5000000), wk =   0.0034722
        k(   65) = (   0.2500000   0.2500000   0.2500000), wk =   0.0046296
        k(   66) = (   0.2500000   0.2500000   0.3333333), wk =   0.0138889
        k(   67) = (   0.2500000   0.2500000   0.4166667), wk =   0.0138889
        k(   68) = (   0.2500000   0.2500000  -0.5000000), wk =   0.0069444
        k(   69) = (   0.2500000   0.3333333   0.3333333), wk =   0.0138889
        k(   70) = (   0.2500000   0.3333333   0.4166667), wk =   0.0277778
        k(   71) = (   0.2500000   0.3333333  -0.5000000), wk =   0.0138889
        k(   72) = (   0.2500000   0.4166667   0.4166667), wk =   0.0138889
        k(   73) = (   0.2500000   0.4166667  -0.5000000), wk =   0.0138889
        k(   74) = (   0.2500000  -0.5000000  -0.5000000), wk =   0.0034722
        k(   75) = (   0.3333333   0.3333333   0.3333333), wk =   0.0046296
        k(   76) = (   0.3333333   0.3333333   0.4166667), wk =   0.0138889
        k(   77) = (   0.3333333   0.3333333  -0.5000000), wk =   0.0069444
        k(   78) = (   0.3333333   0.4166667   0.4166667), wk =   0.0138889
        k(   79) = (   0.3333333   0.4166667  -0.5000000), wk =   0.0138889
        k(   80) = (   0.3333333  -0.5000000  -0.5000000), wk =   0.0034722
        k(   81) = (   0.4166667   0.4166667   0.4166667), wk =   0.0046296
        k(   82) = (   0.4166667   0.4166667  -0.5000000), wk =   0.0069444
        k(   83) = (   0.4166667  -0.5000000  -0.5000000), wk =   0.0034722
        k(   84) = (  -0.5000000  -0.5000000  -0.5000000), wk =   0.0005787

     Dense  grid:   119321 G-vectors     FFT dimensions: (  64,  64,  64)

     Smooth grid:    77605 G-vectors     FFT dimensions: (  54,  54,  54)

     Dynamical RAM for                 wfc:       0.32 MB

     Dynamical RAM for     wfc (w. buffer):      53.67 MB

     Dynamical RAM for           str. fact:       0.09 MB

     Dynamical RAM for           local pot:       0.00 MB

     Dynamical RAM for          nlocal pot:       0.53 MB

     Dynamical RAM for                qrad:       2.27 MB

     Dynamical RAM for          rho,v,vnew:       1.30 MB

     Dynamical RAM for               rhoin:       0.43 MB

     Dynamical RAM for            rho*nmix:       2.91 MB

     Dynamical RAM for           G-vectors:       0.37 MB

     Dynamical RAM for          h,s,v(r/c):       0.34 MB

     Dynamical RAM for          <psi|beta>:       0.05 MB

     Dynamical RAM for                 psi:       0.64 MB

     Dynamical RAM for                hpsi:       0.64 MB

     Dynamical RAM for                spsi:       0.64 MB

     Dynamical RAM for      wfcinit/wfcrot:       0.68 MB

     Dynamical RAM for           addusdens:      17.39 MB

     Estimated static dynamical RAM per process >      59.59 MB

     Estimated max dynamical RAM per process >      79.90 MB

     Estimated total dynamical RAM >       1.56 GB
     Generating pointlists ...
     new r_m :   0.2917 (alat units)  1.9788 (a.u.) for type    1

     The initial density is read from file :
     out/Ni.save/charge-density


     starting charge      72.6050, renormalised to      72.0000
     Starting wfcs from file
     Checking if some PAW data can be deallocated... 

     total cpu time spent up to now is        1.4 secs

     Self-consistent Calculation

     iteration #  1     ecut=   150.00 Ry     beta= 0.70
     Davidson diagonalization with overlap

---- Real-time Memory Report at c_bands before calling an iterative solver
           100 MiB given to the printing process from OS
             0 MiB allocation reported by mallinfo(arena+hblkhd)
        354361 MiB available memory on the node where the printing process lives
------------------
     ethr =  1.00E-05,  avg # of iterations =  4.1

     total cpu time spent up to now is       15.5 secs

     total energy              =   -1716.56257535 Ry
     estimated scf accuracy    <       0.13866411 Ry

     total magnetization       =     2.49 Bohr mag/cell
     absolute magnetization    =     2.92 Bohr mag/cell

     iteration #  2     ecut=   150.00 Ry     beta= 0.70
     Davidson diagonalization with overlap

---- Real-time Memory Report at c_bands before calling an iterative solver
           134 MiB given to the printing process from OS
             0 MiB allocation reported by mallinfo(arena+hblkhd)
        353812 MiB available memory on the node where the printing process lives
------------------
     ethr =  1.93E-04,  avg # of iterations =  3.6

     total cpu time spent up to now is       27.4 secs

     total energy              =   -1716.53877308 Ry
     estimated scf accuracy    <       0.80581259 Ry

     total magnetization       =     2.87 Bohr mag/cell
     absolute magnetization    =     3.27 Bohr mag/cell

     iteration #  3     ecut=   150.00 Ry     beta= 0.70
     Davidson diagonalization with overlap

---- Real-time Memory Report at c_bands before calling an iterative solver
           135 MiB given to the printing process from OS
             0 MiB allocation reported by mallinfo(arena+hblkhd)
        353831 MiB available memory on the node where the printing process lives
------------------
     ethr =  1.93E-04,  avg # of iterations =  3.2

     total cpu time spent up to now is       38.1 secs

     total energy              =   -1716.64926418 Ry
     estimated scf accuracy    <       0.01080305 Ry

     total magnetization       =     2.66 Bohr mag/cell
     absolute magnetization    =     3.06 Bohr mag/cell

     iteration #  4     ecut=   150.00 Ry     beta= 0.70
     Davidson diagonalization with overlap

---- Real-time Memory Report at c_bands before calling an iterative solver
           135 MiB given to the printing process from OS
             0 MiB allocation reported by mallinfo(arena+hblkhd)
        353821 MiB available memory on the node where the printing process lives
------------------
     ethr =  1.50E-05,  avg # of iterations =  2.0

     total cpu time spent up to now is       46.4 secs

     total energy              =   -1716.65066318 Ry
     estimated scf accuracy    <       0.01585118 Ry

     total magnetization       =     2.66 Bohr mag/cell
     absolute magnetization    =     3.06 Bohr mag/cell

     iteration #  5     ecut=   150.00 Ry     beta= 0.70
     Davidson diagonalization with overlap

---- Real-time Memory Report at c_bands before calling an iterative solver
           136 MiB given to the printing process from OS
             0 MiB allocation reported by mallinfo(arena+hblkhd)
        353817 MiB available memory on the node where the printing process lives
------------------
     ethr =  1.50E-05,  avg # of iterations =  1.0

     total cpu time spent up to now is       53.6 secs

     total energy              =   -1716.65138110 Ry
     estimated scf accuracy    <       0.00023614 Ry

     total magnetization       =     2.66 Bohr mag/cell
     absolute magnetization    =     3.06 Bohr mag/cell

     iteration #  6     ecut=   150.00 Ry     beta= 0.70
     Davidson diagonalization with overlap

---- Real-time Memory Report at c_bands before calling an iterative solver
           137 MiB given to the printing process from OS
             0 MiB allocation reported by mallinfo(arena+hblkhd)
        353814 MiB available memory on the node where the printing process lives
------------------
     ethr =  3.28E-07,  avg # of iterations =  3.0

     total cpu time spent up to now is       63.1 secs

     total energy              =   -1716.65140923 Ry
     estimated scf accuracy    <       0.00002991 Ry

     total magnetization       =     2.66 Bohr mag/cell
     absolute magnetization    =     3.07 Bohr mag/cell

     iteration #  7     ecut=   150.00 Ry     beta= 0.70
     Davidson diagonalization with overlap

---- Real-time Memory Report at c_bands before calling an iterative solver
           137 MiB given to the printing process from OS
             0 MiB allocation reported by mallinfo(arena+hblkhd)
        353792 MiB available memory on the node where the printing process lives
------------------
     ethr =  4.15E-08,  avg # of iterations =  2.5

     total cpu time spent up to now is       72.4 secs

     total energy              =   -1716.65141917 Ry
     estimated scf accuracy    <       0.00000664 Ry

     total magnetization       =     2.67 Bohr mag/cell
     absolute magnetization    =     3.08 Bohr mag/cell

     iteration #  8     ecut=   150.00 Ry     beta= 0.70
     Davidson diagonalization with overlap

---- Real-time Memory Report at c_bands before calling an iterative solver
           138 MiB given to the printing process from OS
             0 MiB allocation reported by mallinfo(arena+hblkhd)
        353803 MiB available memory on the node where the printing process lives
------------------
     ethr =  9.22E-09,  avg # of iterations =  1.9

     total cpu time spent up to now is       80.2 secs

     total energy              =   -1716.65141882 Ry
     estimated scf accuracy    <       0.00000426 Ry

     total magnetization       =     2.67 Bohr mag/cell
     absolute magnetization    =     3.08 Bohr mag/cell

     iteration #  9     ecut=   150.00 Ry     beta= 0.70
     Davidson diagonalization with overlap

---- Real-time Memory Report at c_bands before calling an iterative solver
           138 MiB given to the printing process from OS
             0 MiB allocation reported by mallinfo(arena+hblkhd)
        353798 MiB available memory on the node where the printing process lives
------------------
     ethr =  5.92E-09,  avg # of iterations =  1.8

     total cpu time spent up to now is       87.9 secs

     total energy              =   -1716.65141903 Ry
     estimated scf accuracy    <       0.00000038 Ry

     total magnetization       =     2.67 Bohr mag/cell
     absolute magnetization    =     3.08 Bohr mag/cell

     iteration # 10     ecut=   150.00 Ry     beta= 0.70
     Davidson diagonalization with overlap

---- Real-time Memory Report at c_bands before calling an iterative solver
           139 MiB given to the printing process from OS
             0 MiB allocation reported by mallinfo(arena+hblkhd)
        353791 MiB available memory on the node where the printing process lives
------------------
     ethr =  5.32E-10,  avg # of iterations =  4.0
 
     Magnetic moment per site  (integrated on atomic sphere of radius R)
     atom   1 (R=0.292)  charge= 16.7444  magn=  0.7110
     atom   2 (R=0.292)  charge= 16.7444  magn=  0.7110
     atom   3 (R=0.292)  charge= 16.7444  magn=  0.7110
     atom   4 (R=0.292)  charge= 16.7444  magn=  0.7110

     total cpu time spent up to now is       98.5 secs

     End of self-consistent calculation

 ------ SPIN UP ------------


          k = 0.0000 0.0000 0.0000 (  9771 PWs)   bands (ev):

   -86.9821 -86.9486 -86.9486 -86.9486 -47.4261 -47.4261 -47.4261 -47.3275
   -47.3275 -47.3275 -47.3275 -47.3275 -47.3275 -47.2621 -47.2621 -47.2621
     7.9404  12.2942  12.2942  12.2942  12.6858  12.6858  12.6858  14.3004
    14.3004  14.3004  15.4190  15.4190  16.0708  16.0708  16.0708  16.0978
    16.0978  16.0978  16.0978  16.0978  16.0978  18.9731  18.9731  18.9731
    25.2651  25.2651  25.2651

     occupation numbers 
     1.0000   1.0000   1.0000   1.0000   1.0000   1.0000   1.0000   1.0000
     1.0000   1.0000   1.0000   1.0000   1.0000   1.0000   1.0000   1.0000
     1.0000   1.0000   1.0000   1.0000   1.0000   1.0000   1.0000   1.0000
     1.0000   1.0000   1.0000   1.0000   1.0000   1.0000   1.0000   1.0000
     1.0000   1.0000   1.0000   1.0000   1.0000  -0.0000  -0.0000  -0.0000
    -0.0000  -0.0000  -0.0000

          k = 0.0000 0.0000 0.0833 (  9727 PWs)   bands (ev):

   -86.9815 -86.9492 -86.9486 -86.9486 -47.4244 -47.4244 -47.4234 -47.3292
   -47.3292 -47.3276 -47.3276 -47.3264 -47.3264 -47.2650 -47.2632 -47.2632
     8.0273  12.2974  12.3383  12.3383  12.7114  12.7137  12.7137  14.2708
    14.3237  14.3237  15.3916  15.4298  15.9144  15.9144  16.0352  16.0352
    16.0565  16.0565  16.0594  16.0979  16.0979  18.4952  19.2308  19.2308
    25.2898  25.2898  25.9022

     occupation numbers 
     1.0000   1.0000   1.0000   1.0000   1.0000   1.0000   1.0000   1.0000
     1.0000   1.0000   1.0000   1.0000   1.0000   1.0000   1.0000   1.0000
     1.0000   1.0000   1.0000   1.0000   1.0000   1.0000   1.0000   1.0000
     1.0000   1.0000   1.0000   1.0000   1.0000   1.0000   1.0000   1.0000
     1.0000   1.0000   1.0000   1.0000   1.0000  -0.0000  -0.0000  -0.0000
    -0.0000  -0.0000  -0.0000

          k = 0.0000 0.0000 0.1667 (  9719 PWs)   bands (ev):

   -86.9798 -86.9509 -86.9486 -86.9486 -47.4195 -47.4195 -47.4154 -47.3341
   -47.3341 -47.3277 -47.3277 -47.3232 -47.3232 -47.2734 -47.2665 -47.2665
     8.2858  12.2907  12.4645  12.4645  12.7867  12.7977  12.7977  14.1843
    14.3929  14.3929  15.3125  15.4615  15.4943  15.4943  15.9317  15.9317
    15.9385  15.9385  16.0259  16.0980  16.0980  17.4518  19.8734  19.8734
    25.3666  25.3666  27.4346

     occupation numbers 
     1.0000   1.0000   1.0000   1.0000   1.0000   1.0000   1.0000   1.0000
     1.0000   1.0000   1.0000   1.0000   1.0000   1.0000   1.0000   1.0000
     1.0000   1.0000   1.0000   1.0000   1.0000   1.0000   1.0000   1.0000
     1.0000   1.0000   1.0000   1.0000   1.0000   1.0000   1.0000   1.0000
     1.0000   1.0000   1.0000   1.0000   1.0000  -0.0000  -0.0000  -0.0000
    -0.0000  -0.0000  -0.0000

          k = 0.0000 0.0000 0.2500 (  9654 PWs)   bands (ev):

   -86.9772 -86.9535 -86.9486 -86.9486 -47.4116 -47.4116 -47.4027 -47.3420
   -47.3420 -47.3280 -47.3280 -47.3179 -47.3179 -47.2868 -47.2717 -47.2717
     8.7087  12.2168  12.6535  12.6535  12.9075  12.9388  12.9388  14.0482
    14.5063  14.5063  15.0065  15.0065  15.1920  15.5121  15.7596  15.7596
    15.7730  15.7730  15.9729  16.0983  16.0983  16.3477  20.7301  20.7301
    25.5030  25.5030  27.8237

     occupation numbers 
     1.0000   1.0000   1.0000   1.0000   1.0000   1.0000   1.0000   1.0000
     1.0000   1.0000   1.0000   1.0000   1.0000   1.0000   1.0000   1.0000
     1.0000   1.0000   1.0000   1.0000   1.0000   1.0000   1.0000   1.0000
     1.0000   1.0000   1.0000   1.0000   1.0000   1.0000   1.0000   1.0000
     1.0000   1.0000   1.0000   1.0000   1.0000   1.0000  -0.0000  -0.0000
    -0.0000  -0.0000  -0.0000

          k = 0.0000 0.0000 0.3333 (  9690 PWs)   bands (ev):

   -86.9737 -86.9570 -86.9486 -86.9486 -47.4015 -47.4015 -47.3860 -47.3522
   -47.3522 -47.3283 -47.3283 -47.3111 -47.3111 -47.3041 -47.2785 -47.2785
     9.2811  11.9675  12.8685  12.8685  13.0672  13.1384  13.1384  13.8734
    14.5303  14.5303  14.6609  14.6609  15.0494  15.4783  15.5412  15.5412
    15.5784  15.5873  15.5873  15.9042  16.0985  16.0985  21.7191  21.7191
    25.7080  25.7080  26.4972

     occupation numbers 
     1.0000   1.0000   1.0000   1.0000   1.0000   1.0000   1.0000   1.0000
     1.0000   1.0000   1.0000   1.0000   1.0000   1.0000   1.0000   1.0000
     1.0000   1.0000   1.0000   1.0000   1.0000   1.0000   1.0000   1.0000
     1.0000   1.0000   1.0000   1.0000   1.0000   1.0000   1.0000   1.0000
     1.0000   1.0000   1.0000   1.0000   1.0000   1.0000  -0.0000  -0.0000
    -0.0000  -0.0000  -0.0000

          k = 0.0000 0.0000 0.4167 (  9706 PWs)   bands (ev):

   -86.9697 -86.9610 -86.9486 -86.9486 -47.3896 -47.3896 -47.3666 -47.3641
   -47.3641 -47.3284 -47.3284 -47.3242 -47.3033 -47.3033 -47.2864 -47.2864
     9.9749  11.4508  13.0502  13.0502  13.2561  13.3978  13.3978  13.6733
    14.0965  14.0965  14.8513  14.8513  14.9196  15.0000  15.3048  15.3048
    15.4266  15.4266  15.6561  15.8247  16.0987  16.0987  22.8055  22.8055
    25.2065  25.2065  25.9752

     occupation numbers 
     1.0000   1.0000   1.0000   1.0000   1.0000   1.0000   1.0000   1.0000
     1.0000   1.0000   1.0000   1.0000   1.0000   1.0000   1.0000   1.0000
     1.0000   1.0000   1.0000   1.0000   1.0000   1.0000   1.0000   1.0000
     1.0000   1.0000   1.0000   1.0000   1.0000   1.0000   1.0000   1.0000
     1.0000   1.0000   1.0000   1.0000   1.0000   1.0000  -0.0000  -0.0000
    -0.0000  -0.0000  -0.0000

          k = 0.0000 0.0000-0.5000 (  9658 PWs)   bands (ev):

   -86.9654 -86.9653 -86.9486 -86.9486 -47.3768 -47.3768 -47.3768 -47.3768
   -47.3454 -47.3454 -47.3285 -47.3285 -47.2948 -47.2948 -47.2948 -47.2948
    10.7344  10.7344  13.1239  13.1239  13.4626  13.4627  13.7175  13.7175
    13.7175  13.7175  14.8652  14.8652  15.0697  15.0697  15.0697  15.0697
    15.3604  15.3604  15.7401  15.7401  16.0987  16.0988  23.9719  23.9719
    23.9719  23.9719  26.1622

     occupation numbers 
     1.0000   1.0000   1.0000   1.0000   1.0000   1.0000   1.0000   1.0000
     1.0000   1.0000   1.0000   1.0000   1.0000   1.0000   1.0000   1.0000
     1.0000   1.0000   1.0000   1.0000   1.0000   1.0000   1.0000   1.0000
     1.0000   1.0000   1.0000   1.0000   1.0000   1.0000   1.0000   1.0000
     1.0000   1.0000   1.0000   1.0000   1.0000   1.0000  -0.0000  -0.0000
    -0.0000  -0.0000  -0.0000

          k = 0.0000 0.0833 0.0833 (  9717 PWs)   bands (ev):

   -86.9810 -86.9492 -86.9492 -86.9486 -47.4227 -47.4218 -47.4218 -47.3325
   -47.3281 -47.3281 -47.3264 -47.3264 -47.3259 -47.2694 -47.2644 -47.2628
     8.1138  12.3424  12.3424  12.3811  12.7388  12.7388  12.7410  14.2541
    14.3346  14.3448  15.3840  15.4230  15.7811  15.8517  15.8517  16.0011
    16.0362  16.0362  16.0564  16.0564  16.0715  18.7517  18.7517  19.4650
    25.3139  25.9374  25.9374

     occupation numbers 
     1.0000   1.0000   1.0000   1.0000   1.0000   1.0000   1.0000   1.0000
     1.0000   1.0000   1.0000   1.0000   1.0000   1.0000   1.0000   1.0000
     1.0000   1.0000   1.0000   1.0000   1.0000   1.0000   1.0000   1.0000
     1.0000   1.0000   1.0000   1.0000   1.0000   1.0000   1.0000   1.0000
     1.0000   1.0000   1.0000   1.0000   1.0000  -0.0000  -0.0000  -0.0000
    -0.0000  -0.0000  -0.0000

          k = 0.0000 0.0833 0.1667 (  9697 PWs)   bands (ev):

   -86.9793 -86.9508 -86.9492 -86.9487 -47.4178 -47.4174 -47.4144 -47.3384
   -47.3330 -47.3264 -47.3248 -47.3248 -47.3229 -47.2787 -47.2677 -47.2649
     8.3709  12.3384  12.4714  12.5035  12.8126  12.8212  12.8231  14.1762
    14.3971  14.4075  15.3152  15.4152  15.4227  15.4511  15.6877  15.9020
    15.9351  15.9382  16.0149  16.0563  16.0572  17.7297  19.3696  20.0683
    25.3862  26.0463  27.4825

     occupation numbers 
     1.0000   1.0000   1.0000   1.0000   1.0000   1.0000   1.0000   1.0000
     1.0000   1.0000   1.0000   1.0000   1.0000   1.0000   1.0000   1.0000
     1.0000   1.0000   1.0000   1.0000   1.0000   1.0000   1.0000   1.0000
     1.0000   1.0000   1.0000   1.0000   1.0000   1.0000   1.0000   1.0000
     1.0000   1.0000   1.0000   1.0000   1.0000  -0.0000  -0.0000  -0.0000
    -0.0000  -0.0000  -0.0000

          k = 0.0000 0.0833 0.2500 (  9661 PWs)   bands (ev):

   -86.9767 -86.9534 -86.9491 -86.9487 -47.4103 -47.4100 -47.4024 -47.3464
   -47.3408 -47.3263 -47.3245 -47.3195 -47.3174 -47.2921 -47.2729 -47.2696
     8.7914  12.2689  12.6649  12.6873  12.9310  12.9597  12.9599  14.0451
    14.5078  14.5085  14.9371  14.9621  15.2033  15.4262  15.5064  15.7496
    15.7591  15.7786  15.9570  16.0538  16.0560  16.7073  20.1670  20.8947
    25.4899  26.2376  26.6233

     occupation numbers 
     1.0000   1.0000   1.0000   1.0000   1.0000   1.0000   1.0000   1.0000
     1.0000   1.0000   1.0000   1.0000   1.0000   1.0000   1.0000   1.0000
     1.0000   1.0000   1.0000   1.0000   1.0000   1.0000   1.0000   1.0000
     1.0000   1.0000   1.0000   1.0000   1.0000   1.0000   1.0000   1.0000
     1.0000   1.0000   1.0000   1.0000   1.0000  -0.0003  -0.0000  -0.0000
    -0.0000  -0.0000  -0.0000

          k = 0.0000 0.0833 0.3333 (  9684 PWs)   bands (ev):

   -86.9733 -86.9568 -86.9490 -86.9488 -47.4011 -47.3999 -47.3867 -47.3561
   -47.3509 -47.3262 -47.3247 -47.3127 -47.3103 -47.3089 -47.2797 -47.2763
     9.3603  12.0247  12.8867  12.9003  13.0873  13.1481  13.1553  13.8751
    14.4693  14.5083  14.6314  14.6620  15.0766  15.0848  15.5405  15.5711
    15.5800  15.5941  15.8069  16.0487  16.0533  16.0556  21.0641  21.8629
    25.1755  25.9335  26.5158

     occupation numbers 
     1.0000   1.0000   1.0000   1.0000   1.0000   1.0000   1.0000   1.0000
     1.0000   1.0000   1.0000   1.0000   1.0000   1.0000   1.0000   1.0000
     1.0000   1.0000   1.0000   1.0000   1.0000   1.0000   1.0000   1.0000
     1.0000   1.0000   1.0000   1.0000   1.0000   1.0000   1.0000   1.0000
     1.0000   1.0000   1.0000   1.0000   1.0000   1.0000  -0.0000  -0.0000
    -0.0000  -0.0000  -0.0000

          k = 0.0000 0.0833 0.4167 (  9710 PWs)   bands (ev):

   -86.9693 -86.9608 -86.9490 -86.9488 -47.3903 -47.3881 -47.3683 -47.3671
   -47.3628 -47.3280 -47.3259 -47.3251 -47.3048 -47.3020 -47.2877 -47.2844
    10.0494  11.5135  13.0772  13.0862  13.2722  13.3852  13.4091  13.6799
    14.0472  14.0897  14.7169  14.8000  14.8517  15.0514  15.3042  15.4179
    15.4315  15.4728  15.6667  15.8653  16.0537  16.0550  22.0287  22.9353
    24.1147  25.3203  26.1611

     occupation numbers 
     1.0000   1.0000   1.0000   1.0000   1.0000   1.0000   1.0000   1.0000
     1.0000   1.0000   1.0000   1.0000   1.0000   1.0000   1.0000   1.0000
     1.0000   1.0000   1.0000   1.0000   1.0000   1.0000   1.0000   1.0000
     1.0000   1.0000   1.0000   1.0000   1.0000   1.0000   1.0000   1.0000
     1.0000   1.0000   1.0000   1.0000   1.0000   1.0000  -0.0000  -0.0000
    -0.0000  -0.0000  -0.0000

          k = 0.0000 0.0833-0.5000 (  9708 PWs)   bands (ev):

   -86.9651 -86.9651 -86.9489 -86.9489 -47.3787 -47.3787 -47.3754 -47.3754
   -47.3483 -47.3483 -47.3256 -47.3256 -47.2962 -47.2962 -47.2932 -47.2932
    10.8032  10.8032  13.1592  13.1592  13.4742  13.4742  13.6833  13.6833
    13.7212  13.7212  14.7176  14.7176  15.0695  15.0695  15.2041  15.2041
    15.3594  15.3595  15.7618  15.7618  16.0543  16.0544  23.0474  23.0474
    24.0921  24.0921  26.5520

     occupation numbers 
     1.0000   1.0000   1.0000   1.0000   1.0000   1.0000   1.0000   1.0000
     1.0000   1.0000   1.0000   1.0000   1.0000   1.0000   1.0000   1.0000
     1.0000   1.0000   1.0000   1.0000   1.0000   1.0000   1.0000   1.0000
     1.0000   1.0000   1.0000   1.0000   1.0000   1.0000   1.0000   1.0000
     1.0000   1.0000   1.0000   1.0000   1.0000   1.0000  -0.0000  -0.0000
    -0.0000  -0.0000  -0.0000

          k = 0.0000 0.1667 0.1667 (  9681 PWs)   bands (ev):

   -86.9777 -86.9507 -86.9507 -86.9488 -47.4130 -47.4113 -47.4113 -47.3459
   -47.3296 -47.3296 -47.3224 -47.3224 -47.3213 -47.2895 -47.2710 -47.2647
     8.6239  12.4755  12.4755  12.6145  12.8905  12.8905  12.8998  14.1293
    14.4342  14.4503  15.1757  15.2308  15.2308  15.2906  15.4555  15.8151
    15.9239  15.9239  15.9373  15.9373  15.9933  18.3287  18.3287  20.5960
    25.4100  26.4861  27.6273

     occupation numbers 
     1.0000   1.0000   1.0000   1.0000   1.0000   1.0000   1.0000   1.0000
     1.0000   1.0000   1.0000   1.0000   1.0000   1.0000   1.0000   1.0000
     1.0000   1.0000   1.0000   1.0000   1.0000   1.0000   1.0000   1.0000
     1.0000   1.0000   1.0000   1.0000   1.0000   1.0000   1.0000   1.0000
     1.0000   1.0000   1.0000   1.0000   1.0000  -0.0000  -0.0000  -0.0000
    -0.0000  -0.0000  -0.0000

          k = 0.0000 0.1667 0.2500 (  9676 PWs)   bands (ev):

   -86.9753 -86.9532 -86.9505 -86.9489 -47.4063 -47.4054 -47.4014 -47.3546
   -47.3373 -47.3242 -47.3215 -47.3190 -47.3161 -47.3034 -47.2764 -47.2675
     9.0371  12.4191  12.6830  12.7812  13.0014  13.0210  13.0256  14.0244
    14.5148  14.5280  14.7546  14.8251  14.9577  15.2107  15.5155  15.6800
    15.7576  15.7752  15.8695  15.9360  15.9564  17.2974  19.0499  21.3555
    24.8598  25.8359  27.8625

     occupation numbers 
     1.0000   1.0000   1.0000   1.0000   1.0000   1.0000   1.0000   1.0000
     1.0000   1.0000   1.0000   1.0000   1.0000   1.0000   1.0000   1.0000
     1.0000   1.0000   1.0000   1.0000   1.0000   1.0000   1.0000   1.0000
     1.0000   1.0000   1.0000   1.0000   1.0000   1.0000   1.0000   1.0000
     1.0000   1.0000   1.0000   1.0000   1.0000  -0.0000  -0.0000  -0.0000
    -0.0000  -0.0000  -0.0000

          k = 0.0000 0.1667 0.3333 (  9689 PWs)   bands (ev):

   -86.9720 -86.9564 -86.9503 -86.9492 -47.3997 -47.3954 -47.3883 -47.3639
   -47.3473 -47.3204 -47.3197 -47.3178 -47.3172 -47.3080 -47.2834 -47.2730
     9.5952  12.1901  12.9253  12.9834  13.1476  13.1851  13.2048  13.8745
    14.3120  14.4397  14.5763  14.6721  14.6806  15.1322  15.5209  15.5389
    15.5959  15.6123  15.7475  15.9344  15.9401  16.5340  19.8395  22.2740
    23.7025  26.0037  26.9307

     occupation numbers 
     1.0000   1.0000   1.0000   1.0000   1.0000   1.0000   1.0000   1.0000
     1.0000   1.0000   1.0000   1.0000   1.0000   1.0000   1.0000   1.0000
     1.0000   1.0000   1.0000   1.0000   1.0000   1.0000   1.0000   1.0000
     1.0000   1.0000   1.0000   1.0000   1.0000   1.0000   1.0000   1.0000
     1.0000   1.0000   1.0000   1.0000   1.0000   1.0000  -0.0000  -0.0000
    -0.0000  -0.0000  -0.0000

          k = 0.0000 0.1667 0.4167 (  9707 PWs)   bands (ev):

   -86.9683 -86.9602 -86.9500 -86.9494 -47.3918 -47.3838 -47.3735 -47.3727
   -47.3589 -47.3374 -47.3193 -47.3177 -47.3091 -47.2989 -47.2916 -47.2806
    10.2693  11.6953  13.1437  13.1867  13.3199  13.3531  13.4420  13.6970
    13.9204  14.0672  14.5276  14.5788  14.8564  15.1488  15.3036  15.3873
    15.4315  15.5365  15.7337  15.9329  15.9338  16.1044  20.6879  22.6038
    23.3105  25.6531  26.3422

     occupation numbers 
     1.0000   1.0000   1.0000   1.0000   1.0000   1.0000   1.0000   1.0000
     1.0000   1.0000   1.0000   1.0000   1.0000   1.0000   1.0000   1.0000
     1.0000   1.0000   1.0000   1.0000   1.0000   1.0000   1.0000   1.0000
     1.0000   1.0000   1.0000   1.0000   1.0000   1.0000   1.0000   1.0000
     1.0000   1.0000   1.0000   1.0000   1.0000   1.0000  -0.0000  -0.0000
    -0.0000  -0.0000  -0.0000

          k = 0.0000 0.1667-0.5000 (  9690 PWs)   bands (ev):

   -86.9642 -86.9642 -86.9497 -86.9497 -47.3829 -47.3829 -47.3713 -47.3713
   -47.3554 -47.3554 -47.3183 -47.3183 -47.3003 -47.3003 -47.2895 -47.2895
    11.0044  11.0044  13.2573  13.2573  13.5073  13.5074  13.5907  13.5907
    13.7310  13.7310  14.5261  14.5261  15.0709  15.0709  15.3026  15.3026
    15.3474  15.3474  15.8836  15.8836  15.9323  15.9323  21.6036  21.6036
    24.4419  24.4419  26.8143

     occupation numbers 
     1.0000   1.0000   1.0000   1.0000   1.0000   1.0000   1.0000   1.0000
     1.0000   1.0000   1.0000   1.0000   1.0000   1.0000   1.0000   1.0000
     1.0000   1.0000   1.0000   1.0000   1.0000   1.0000   1.0000   1.0000
     1.0000   1.0000   1.0000   1.0000   1.0000   1.0000   1.0000   1.0000
     1.0000   1.0000   1.0000   1.0000   1.0000   1.0000  -0.0000  -0.0000
    -0.0000  -0.0000  -0.0000

          k = 0.0000 0.2500 0.2500 (  9685 PWs)   bands (ev):

   -86.9730 -86.9528 -86.9528 -86.9493 -47.3995 -47.3995 -47.3980 -47.3635
   -47.3317 -47.3317 -47.3175 -47.3143 -47.3141 -47.3141 -47.2820 -47.2681
     9.4374  12.6483  12.6483  12.9161  13.1189  13.1189  13.1374  13.9638
    14.5195  14.5195  14.5281  14.5909  14.6008  15.1700  15.5691  15.5889
    15.7295  15.7295  15.7556  15.7556  15.8659  17.9468  17.9468  22.0457
    23.5338  25.9474  28.7695

     occupation numbers 
     1.0000   1.0000   1.0000   1.0000   1.0000   1.0000   1.0000   1.0000
     1.0000   1.0000   1.0000   1.0000   1.0000   1.0000   1.0000   1.0000
     1.0000   1.0000   1.0000   1.0000   1.0000   1.0000   1.0000   1.0000
     1.0000   1.0000   1.0000   1.0000   1.0000   1.0000   1.0000   1.0000
     1.0000   1.0000   1.0000   1.0000   1.0000  -0.0000  -0.0000  -0.0000
    -0.0000  -0.0000  -0.0000

          k = 0.0000 0.2500 0.3333 (  9672 PWs)   bands (ev):

   -86.9700 -86.9558 -86.9523 -86.9498 -47.3966 -47.3901 -47.3883 -47.3722
   -47.3414 -47.3331 -47.3244 -47.3121 -47.3111 -47.3051 -47.2893 -47.2716
     9.9759  12.4428  12.9208  13.0775  13.2471  13.2751  13.2831  13.8568
    14.1300  14.3204  14.3329  14.5287  14.7091  15.1161  15.4356  15.5379
    15.5588  15.6197  15.7247  15.7542  15.8072  17.0766  18.6451  22.2965
    22.9062  26.2171  27.4466

     occupation numbers 
     1.0000   1.0000   1.0000   1.0000   1.0000   1.0000   1.0000   1.0000
     1.0000   1.0000   1.0000   1.0000   1.0000   1.0000   1.0000   1.0000
     1.0000   1.0000   1.0000   1.0000   1.0000   1.0000   1.0000   1.0000
     1.0000   1.0000   1.0000   1.0000   1.0000   1.0000   1.0000   1.0000
     1.0000   1.0000   1.0000   1.0000   1.0000  -0.0000  -0.0000  -0.0000
    -0.0000  -0.0000  -0.0000

          k = 0.0000 0.2500 0.4167 (  9675 PWs)   bands (ev):

   -86.9666 -86.9592 -86.9517 -86.9504 -47.3924 -47.3801 -47.3782 -47.3769
   -47.3527 -47.3489 -47.3159 -47.3103 -47.3095 -47.2977 -47.2954 -47.2778
    10.6224  11.9758  13.1787  13.2657  13.3786  13.3970  13.4925  13.7159
    13.7943  14.0244  14.2915  14.4745  14.8762  15.1349  15.3059  15.3253
    15.3970  15.4472  15.7549  15.7754  15.9056  16.4981  19.4040  21.2034
    23.8976  26.1827  26.6097

     occupation numbers 
     1.0000   1.0000   1.0000   1.0000   1.0000   1.0000   1.0000   1.0000
     1.0000   1.0000   1.0000   1.0000   1.0000   1.0000   1.0000   1.0000
     1.0000   1.0000   1.0000   1.0000   1.0000   1.0000   1.0000   1.0000
     1.0000   1.0000   1.0000   1.0000   1.0000   1.0000   1.0000   1.0000
     1.0000   1.0000   1.0000   1.0000   1.0000   1.0000  -0.0000  -0.0000
    -0.0000  -0.0000  -0.0000

          k = 0.0000 0.2500-0.5000 (  9704 PWs)   bands (ev):

   -86.9629 -86.9629 -86.9511 -86.9510 -47.3869 -47.3869 -47.3648 -47.3648
   -47.3642 -47.3642 -47.3093 -47.3093 -47.3068 -47.3068 -47.2860 -47.2860
    11.3219  11.3219  13.3423  13.3423  13.5151  13.5151  13.5576  13.5576
    13.7426  13.7426  14.3698  14.3698  15.0797  15.0797  15.2607  15.2607
    15.3040  15.3040  15.7604  15.7604  16.1435  16.1435  20.2472  20.2472
    24.9952  24.9952  27.1366

     occupation numbers 
     1.0000   1.0000   1.0000   1.0000   1.0000   1.0000   1.0000   1.0000
     1.0000   1.0000   1.0000   1.0000   1.0000   1.0000   1.0000   1.0000
     1.0000   1.0000   1.0000   1.0000   1.0000   1.0000   1.0000   1.0000
     1.0000   1.0000   1.0000   1.0000   1.0000   1.0000   1.0000   1.0000
     1.0000   1.0000   1.0000   1.0000   1.0000   1.0000  -0.0000  -0.0000
    -0.0000  -0.0000  -0.0000

          k = 0.0000 0.3333 0.3333 (  9653 PWs)   bands (ev):

   -86.9674 -86.9549 -86.9549 -86.9507 -47.3912 -47.3912 -47.3796 -47.3789
   -47.3471 -47.3337 -47.3337 -47.3057 -47.3024 -47.3024 -47.2969 -47.2730
    10.4836  12.7427  12.7427  13.1515  13.3841  13.3841  13.4173  13.8076
    14.0420  14.0420  14.1538  14.4821  14.7915  15.0621  15.3259  15.4606
    15.4606  15.5400  15.5400  15.6946  15.9138  17.6667  17.6667  21.0518
    23.7130  26.5424  28.1292

     occupation numbers 
     1.0000   1.0000   1.0000   1.0000   1.0000   1.0000   1.0000   1.0000
     1.0000   1.0000   1.0000   1.0000   1.0000   1.0000   1.0000   1.0000
     1.0000   1.0000   1.0000   1.0000   1.0000   1.0000   1.0000   1.0000
     1.0000   1.0000   1.0000   1.0000   1.0000   1.0000   1.0000   1.0000
     1.0000   1.0000   1.0000   1.0000   1.0000  -0.0000  -0.0000  -0.0000
    -0.0000  -0.0000  -0.0000

          k = 0.0000 0.3333 0.4167 (  9686 PWs)   bands (ev):

   -86.9644 -86.9579 -86.9539 -86.9517 -47.3911 -47.3853 -47.3834 -47.3680
   -47.3607 -47.3447 -47.3249 -47.3058 -47.3021 -47.3007 -47.2928 -47.2773
    11.0852  12.3163  13.0220  13.2053  13.4990  13.5539  13.5542  13.7244
    13.8170  13.9559  14.1081  14.3964  14.9261  15.0573  15.2312  15.3074
    15.3081  15.3166  15.5493  15.6175  16.1622  16.9613  18.3248  19.9842
    24.6593  26.8818  26.9915

     occupation numbers 
     1.0000   1.0000   1.0000   1.0000   1.0000   1.0000   1.0000   1.0000
     1.0000   1.0000   1.0000   1.0000   1.0000   1.0000   1.0000   1.0000
     1.0000   1.0000   1.0000   1.0000   1.0000   1.0000   1.0000   1.0000
     1.0000   1.0000   1.0000   1.0000   1.0000   1.0000   1.0000   1.0000
     1.0000   1.0000   1.0000   1.0000   1.0000  -0.0000  -0.0000  -0.0000
    -0.0000  -0.0000  -0.0000

          k = 0.0000 0.3333-0.5000 (  9694 PWs)   bands (ev):

   -86.9611 -86.9611 -86.9528 -86.9528 -47.3892 -47.3892 -47.3731 -47.3731
   -47.3564 -47.3563 -47.3153 -47.3153 -47.3005 -47.3005 -47.2841 -47.2841
    11.7250  11.7251  13.1883  13.1883  13.6169  13.6169  13.6654  13.6654
    13.7494  13.7494  14.2550  14.2550  15.1059  15.1059  15.1506  15.1506
    15.2163  15.2163  15.5722  15.5722  16.4895  16.4895  19.0847  19.0847
    25.7210  25.7210  27.5789

     occupation numbers 
     1.0000   1.0000   1.0000   1.0000   1.0000   1.0000   1.0000   1.0000
     1.0000   1.0000   1.0000   1.0000   1.0000   1.0000   1.0000   1.0000
     1.0000   1.0000   1.0000   1.0000   1.0000   1.0000   1.0000   1.0000
     1.0000   1.0000   1.0000   1.0000   1.0000   1.0000   1.0000   1.0000
     1.0000   1.0000   1.0000   1.0000   1.0000   1.0000  -0.0000  -0.0000
    -0.0000  -0.0000  -0.0000

          k = 0.0000 0.4167 0.4167 (  9672 PWs)   bands (ev):

   -86.9618 -86.9564 -86.9564 -86.9532 -47.3884 -47.3872 -47.3872 -47.3716
   -47.3576 -47.3353 -47.3353 -47.3151 -47.2965 -47.2918 -47.2918 -47.2796
    11.6186  12.6558  12.6558  13.1006  13.6183  13.6183  13.7115  13.7319
    13.8602  13.9767  13.9768  14.3071  15.0047  15.0198  15.1349  15.1728
    15.1728  15.3438  15.3438  15.4879  16.4877  17.5002  17.5002  18.9696
    25.5648  27.5026  27.7251

     occupation numbers 
     1.0000   1.0000   1.0000   1.0000   1.0000   1.0000   1.0000   1.0000
     1.0000   1.0000   1.0000   1.0000   1.0000   1.0000   1.0000   1.0000
     1.0000   1.0000   1.0000   1.0000   1.0000   1.0000   1.0000   1.0000
     1.0000   1.0000   1.0000   1.0000   1.0000   1.0000   1.0000   1.0000
     1.0000   1.0000   1.0000   1.0000   1.0000  -0.0000  -0.0000  -0.0000
    -0.0000  -0.0000  -0.0000

          k = 0.0000 0.4167-0.5000 (  9670 PWs)   bands (ev):

   -86.9591 -86.9591 -86.9548 -86.9548 -47.3890 -47.3890 -47.3806 -47.3806
   -47.3465 -47.3464 -47.3252 -47.3252 -47.2930 -47.2930 -47.2846 -47.2846
    12.1652  12.1652  12.9265  12.9265  13.6742  13.6742  13.7434  13.7434
    13.8686  13.8686  14.1624  14.1624  15.0479  15.0479  15.1022  15.1022
    15.1616  15.1616  15.3976  15.3976  16.9113  16.9113  18.1534  18.1534
    26.5919  26.5919  28.1553

     occupation numbers 
     1.0000   1.0000   1.0000   1.0000   1.0000   1.0000   1.0000   1.0000
     1.0000   1.0000   1.0000   1.0000   1.0000   1.0000   1.0000   1.0000
     1.0000   1.0000   1.0000   1.0000   1.0000   1.0000   1.0000   1.0000
     1.0000   1.0000   1.0000   1.0000   1.0000   1.0000   1.0000   1.0000
     1.0000   1.0000   1.0000   1.0000  -0.0000  -0.0000  -0.0000  -0.0000
    -0.0000  -0.0000  -0.0000

          k = 0.0000-0.5000-0.5000 (  9684 PWs)   bands (ev):

   -86.9570 -86.9570 -86.9570 -86.9569 -47.3861 -47.3861 -47.3861 -47.3861
   -47.3359 -47.3358 -47.3358 -47.3358 -47.2876 -47.2876 -47.2876 -47.2876
    12.5815  12.5815  12.5815  12.5815  13.7186  13.7186  13.7186  13.7186
    14.0437  14.0437  14.0437  14.0437  15.0252  15.0252  15.0252  15.0252
    15.2578  15.2578  15.2578  15.2578  17.4456  17.4456  17.4457  17.4457
    27.5872  27.5872  27.5872

     occupation numbers 
     1.0000   1.0000   1.0000   1.0000   1.0000   1.0000   1.0000   1.0000
     1.0000   1.0000   1.0000   1.0000   1.0000   1.0000   1.0000   1.0000
     1.0000   1.0000   1.0000   1.0000   1.0000   1.0000   1.0000   1.0000
     1.0000   1.0000   1.0000   1.0000   1.0000   1.0000   1.0000   1.0000
     1.0000   1.0000   1.0000   1.0000  -0.0000  -0.0000  -0.0000  -0.0000
    -0.0000  -0.0000  -0.0000

          k = 0.0833 0.0833 0.0833 (  9696 PWs)   bands (ev):

   -86.9804 -86.9492 -86.9492 -86.9492 -47.4204 -47.4204 -47.4204 -47.3312
   -47.3312 -47.3312 -47.3248 -47.3248 -47.3248 -47.2738 -47.2638 -47.2638
     8.1998  12.3859  12.3859  12.3859  12.7656  12.7656  12.7656  14.2386
    14.3545  14.3545  15.3973  15.3973  15.7240  15.7240  15.7240  15.9418
    15.9418  15.9418  16.0810  16.0810  16.0810  18.9793  18.9793  18.9793
    25.9721  25.9721  25.9721

     occupation numbers 
     1.0000   1.0000   1.0000   1.0000   1.0000   1.0000   1.0000   1.0000
     1.0000   1.0000   1.0000   1.0000   1.0000   1.0000   1.0000   1.0000
     1.0000   1.0000   1.0000   1.0000   1.0000   1.0000   1.0000   1.0000
     1.0000   1.0000   1.0000   1.0000   1.0000   1.0000   1.0000   1.0000
     1.0000   1.0000   1.0000   1.0000   1.0000  -0.0000  -0.0000  -0.0000
    -0.0000  -0.0000  -0.0000

          k = 0.0833 0.0833 0.1667 (  9675 PWs)   bands (ev):

   -86.9788 -86.9508 -86.9492 -86.9492 -47.4160 -47.4160 -47.4134 -47.3369
   -47.3369 -47.3273 -47.3237 -47.3237 -47.3217 -47.2836 -47.2670 -47.2654
     8.4555  12.3840  12.5104  12.5104  12.8382  12.8466  12.8466  14.1681
    14.4083  14.4139  15.3244  15.3490  15.3490  15.4363  15.5528  15.8116
    15.8596  15.8596  16.0576  16.0576  16.0680  17.9554  19.5514  19.5514
    26.0757  26.0757  27.5284

     occupation numbers 
     1.0000   1.0000   1.0000   1.0000   1.0000   1.0000   1.0000   1.0000
     1.0000   1.0000   1.0000   1.0000   1.0000   1.0000   1.0000   1.0000
     1.0000   1.0000   1.0000   1.0000   1.0000   1.0000   1.0000   1.0000
     1.0000   1.0000   1.0000   1.0000   1.0000   1.0000   1.0000   1.0000
     1.0000   1.0000   1.0000   1.0000   1.0000  -0.0000  -0.0000  -0.0000
    -0.0000  -0.0000  -0.0000

          k = 0.0833 0.0833 0.2500 (  9668 PWs)   bands (ev):

   -86.9762 -86.9534 -86.9492 -86.9492 -47.4091 -47.4091 -47.4022 -47.3445
   -47.3445 -47.3232 -47.3232 -47.3212 -47.3167 -47.2971 -47.2720 -47.2697
     8.8734  12.3179  12.6975  12.6975  12.9548  12.9812  12.9812  14.0429
    14.5061  14.5118  14.8973  14.8973  15.2195  15.2713  15.4980  15.6366
    15.7308  15.7308  16.0231  16.0359  16.0359  16.9302  20.3140  20.3140
    26.1902  26.1903  26.7807

     occupation numbers 
     1.0000   1.0000   1.0000   1.0000   1.0000   1.0000   1.0000   1.0000
     1.0000   1.0000   1.0000   1.0000   1.0000   1.0000   1.0000   1.0000
     1.0000   1.0000   1.0000   1.0000   1.0000   1.0000   1.0000   1.0000
     1.0000   1.0000   1.0000   1.0000   1.0000   1.0000   1.0000   1.0000
     1.0000   1.0000   1.0000   1.0000   1.0000  -0.0000  -0.0000  -0.0000
    -0.0000  -0.0000  -0.0000

          k = 0.0833 0.0833 0.3333 (  9692 PWs)   bands (ev):

   -86.9729 -86.9567 -86.9492 -86.9492 -47.4002 -47.4002 -47.3875 -47.3538
   -47.3538 -47.3231 -47.3231 -47.3136 -47.3133 -47.3101 -47.2785 -47.2765
     9.4385  12.0783  12.9157  12.9157  13.1085  13.1652  13.1652  13.8782
    14.4531  14.4531  14.6185  14.6463  14.9330  15.1236  15.4331  15.5639
    15.5639  15.5781  15.9530  16.0255  16.0255  16.1634  21.1845  21.1845
    25.3877  25.3877  26.6654

     occupation numbers 
     1.0000   1.0000   1.0000   1.0000   1.0000   1.0000   1.0000   1.0000
     1.0000   1.0000   1.0000   1.0000   1.0000   1.0000   1.0000   1.0000
     1.0000   1.0000   1.0000   1.0000   1.0000   1.0000   1.0000   1.0000
     1.0000   1.0000   1.0000   1.0000   1.0000   1.0000   1.0000   1.0000
     1.0000   1.0000   1.0000   1.0000   1.0000   1.0000  -0.0000  -0.0000
    -0.0000  -0.0000  -0.0000

          k = 0.0833 0.0833 0.4167 (  9698 PWs)   bands (ev):

   -86.9690 -86.9606 -86.9492 -86.9492 -47.3902 -47.3902 -47.3702 -47.3640
   -47.3640 -47.3320 -47.3231 -47.3231 -47.3041 -47.3025 -47.2862 -47.2850
    10.1223  11.5728  13.1116  13.1116  13.2898  13.3894  13.3894  13.6883
    14.0520  14.0520  14.6691  14.7004  14.8136  15.1413  15.2181  15.4132
    15.4132  15.6677  15.6706  15.8656  16.0212  16.0212  22.1182  22.1182
    24.2795  24.2795  27.0614

     occupation numbers 
     1.0000   1.0000   1.0000   1.0000   1.0000   1.0000   1.0000   1.0000
     1.0000   1.0000   1.0000   1.0000   1.0000   1.0000   1.0000   1.0000
     1.0000   1.0000   1.0000   1.0000   1.0000   1.0000   1.0000   1.0000
     1.0000   1.0000   1.0000   1.0000   1.0000   1.0000   1.0000   1.0000
     1.0000   1.0000   1.0000   1.0000   1.0000   1.0000  -0.0000  -0.0000
    -0.0000  -0.0000  -0.0000

          k = 0.0833 0.0833-0.5000 (  9702 PWs)   bands (ev):

   -86.9648 -86.9648 -86.9492 -86.9492 -47.3834 -47.3834 -47.3709 -47.3709
   -47.3513 -47.3513 -47.3231 -47.3231 -47.2945 -47.2945 -47.2943 -47.2943
    10.8694  10.8694  13.1952  13.1952  13.4874  13.4875  13.5993  13.5993
    13.7772  13.7772  14.6473  14.6473  15.0073  15.0073  15.3381  15.3381
    15.3500  15.3500  15.7689  15.7689  16.0200  16.0200  22.8863  22.8863
    23.4522  23.4522  27.4302

     occupation numbers 
     1.0000   1.0000   1.0000   1.0000   1.0000   1.0000   1.0000   1.0000
     1.0000   1.0000   1.0000   1.0000   1.0000   1.0000   1.0000   1.0000
     1.0000   1.0000   1.0000   1.0000   1.0000   1.0000   1.0000   1.0000
     1.0000   1.0000   1.0000   1.0000   1.0000   1.0000   1.0000   1.0000
     1.0000   1.0000   1.0000   1.0000   1.0000   1.0000  -0.0000  -0.0000
    -0.0000  -0.0000  -0.0000

          k = 0.0833 0.1667 0.1667 (  9674 PWs)   bands (ev):

   -86.9773 -86.9507 -86.9507 -86.9493 -47.4119 -47.4105 -47.4105 -47.3438
   -47.3324 -47.3324 -47.3204 -47.3204 -47.3203 -47.2944 -47.2696 -47.2657
     8.7066  12.5145  12.5145  12.6211  12.9157  12.9157  12.9230  14.1242
    14.4426  14.4521  15.1161  15.1641  15.1641  15.3129  15.4341  15.7376
    15.7426  15.7426  16.0291  16.0453  16.0453  18.4905  18.4905  20.0369
    26.0699  26.6637  27.6426

     occupation numbers 
     1.0000   1.0000   1.0000   1.0000   1.0000   1.0000   1.0000   1.0000
     1.0000   1.0000   1.0000   1.0000   1.0000   1.0000   1.0000   1.0000
     1.0000   1.0000   1.0000   1.0000   1.0000   1.0000   1.0000   1.0000
     1.0000   1.0000   1.0000   1.0000   1.0000   1.0000   1.0000   1.0000
     1.0000   1.0000   1.0000   1.0000   1.0000  -0.0000  -0.0000  -0.0000
    -0.0000  -0.0000  -0.0000

          k = 0.0833 0.1667 0.2500 (  9680 PWs)   bands (ev):

   -86.9748 -86.9531 -86.9506 -86.9494 -47.4060 -47.4055 -47.4016 -47.3515
   -47.3394 -47.3254 -47.3194 -47.3180 -47.3151 -47.3084 -47.2746 -47.2683
     9.1166  12.4583  12.7108  12.7865  13.0268  13.0450  13.0489  14.0256
    14.5132  14.5244  14.7248  14.7721  14.8966  15.2402  15.4998  15.5715
    15.6158  15.6556  15.9851  15.9927  16.0020  17.4295  19.1711  20.7189
    25.0820  26.5182  26.9420
[...]
    -0.0000  -0.0000  -0.0000

          k = 0.2500 0.2500-0.5000 (  9666 PWs)   bands (ev):

   -86.0689 -86.0689 -86.0603 -86.0603 -46.5458 -46.5458 -46.5231 -46.5231
   -46.4629 -46.4629 -46.4315 -46.4315 -46.4205 -46.4205 -46.4202 -46.4202
    11.7808  11.7808  13.4166  13.4166  14.1412  14.1412  14.4709  14.4709
    14.8834  14.8834  15.0012  15.0012  15.3814  15.3814  15.5647  15.5647
    16.6633  16.6633  16.7277  16.7277  16.7592  16.7592  20.0597  20.0597
    22.6097  22.6097  27.1184

     occupation numbers 
     1.0000   1.0000   1.0000   1.0000   1.0000   1.0000   1.0000   1.0000
     1.0000   1.0000   1.0000   1.0000   1.0000   1.0000   1.0000   1.0000
     1.0000   1.0000   1.0000   1.0000   1.0000   1.0000   1.0000   1.0000
     1.0000   1.0000   1.0000   1.0000   1.0000   1.0000   1.0000   1.0000
     0.8341   0.8340  -0.0000  -0.0000  -0.0000  -0.0000  -0.0000  -0.0000
    -0.0000  -0.0000  -0.0000

          k = 0.2500 0.3333 0.3333 (  9700 PWs)   bands (ev):

   -86.0729 -86.0624 -86.0624 -86.0606 -46.5478 -46.5444 -46.5444 -46.5109
   -46.4588 -46.4474 -46.4474 -46.4303 -46.4293 -46.4293 -46.4116 -46.4063
    11.0097  12.9962  12.9962  13.2886  14.1484  14.2274  14.2274  14.7116
    14.9124  14.9124  14.9818  15.1850  15.2145  15.5329  15.5329  15.5474
    16.2665  16.4884  16.8085  16.8181  16.8181  18.4060  18.4060  19.6432
    22.8459  24.3148  24.3148

     occupation numbers 
     1.0000   1.0000   1.0000   1.0000   1.0000   1.0000   1.0000   1.0000
     1.0000   1.0000   1.0000   1.0000   1.0000   1.0000   1.0000   1.0000
     1.0000   1.0000   1.0000   1.0000   1.0000   1.0000   1.0000   1.0000
     1.0000   1.0000   1.0000   1.0000   1.0000   1.0000   1.0000   1.0000
     1.0000   1.0000  -0.0000  -0.0000  -0.0000  -0.0000  -0.0000  -0.0000
    -0.0000  -0.0000  -0.0000

          k = 0.2500 0.3333 0.4167 (  9695 PWs)   bands (ev):

   -86.0703 -86.0649 -86.0620 -86.0611 -46.5508 -46.5490 -46.5416 -46.5242
   -46.4551 -46.4491 -46.4343 -46.4274 -46.4269 -46.4231 -46.4173 -46.4098
    11.5249  12.5694  13.0918  13.2342  14.2836  14.3355  14.4503  14.7111
    14.9337  14.9503  15.0196  15.0936  15.2243  15.3928  15.4515  15.4534
    16.3829  16.6992  16.7427  16.7587  16.7602  17.5605  18.8125  19.5684
    22.5101  23.3945  25.0470

     occupation numbers 
     1.0000   1.0000   1.0000   1.0000   1.0000   1.0000   1.0000   1.0000
     1.0000   1.0000   1.0000   1.0000   1.0000   1.0000   1.0000   1.0000
     1.0000   1.0000   1.0000   1.0000   1.0000   1.0000   1.0000   1.0000
     1.0000   1.0000   1.0000   1.0000   1.0000   1.0000   1.0000   1.0000
     1.0000  -0.0039  -0.0000  -0.0000  -0.0000  -0.0000  -0.0000  -0.0000
    -0.0000  -0.0000  -0.0000

          k = 0.2500 0.3333-0.5000 (  9682 PWs)   bands (ev):

   -86.0676 -86.0676 -86.0615 -86.0615 -46.5512 -46.5512 -46.5347 -46.5347
   -46.4518 -46.4518 -46.4262 -46.4262 -46.4245 -46.4245 -46.4160 -46.4160
    12.0631  12.0631  13.1682  13.1682  14.3568  14.3568  14.6303  14.6303
    14.9920  14.9920  15.0096  15.0096  15.2866  15.2866  15.4172  15.4172
    16.5857  16.5857  16.7325  16.7325  17.0035  17.0035  19.2375  19.2375
    22.7497  22.7497  25.9075

     occupation numbers 
     1.0000   1.0000   1.0000   1.0000   1.0000   1.0000   1.0000   1.0000
     1.0000   1.0000   1.0000   1.0000   1.0000   1.0000   1.0000   1.0000
     1.0000   1.0000   1.0000   1.0000   1.0000   1.0000   1.0000   1.0000
     1.0000   1.0000   1.0000   1.0000   1.0000   1.0000   1.0000   1.0000
     1.0000   1.0000  -0.0000  -0.0000  -0.0000  -0.0000  -0.0000  -0.0000
    -0.0000  -0.0000  -0.0000

          k = 0.2500 0.4167 0.4167 (  9686 PWs)   bands (ev):

   -86.0683 -86.0640 -86.0640 -86.0620 -46.5535 -46.5487 -46.5487 -46.5357
   -46.4485 -46.4381 -46.4381 -46.4231 -46.4228 -46.4206 -46.4206 -46.4107
    11.9409  12.7467  12.7467  13.0719  14.4623  14.5759  14.5759  14.8141
    14.9902  14.9902  15.0433  15.0956  15.1847  15.3222  15.3222  15.3419
    16.4065  16.6732  16.6732  16.6991  16.9689  17.9416  17.9416  18.9990
    22.6967  24.0509  24.0509

     occupation numbers 
     1.0000   1.0000   1.0000   1.0000   1.0000   1.0000   1.0000   1.0000
     1.0000   1.0000   1.0000   1.0000   1.0000   1.0000   1.0000   1.0000
     1.0000   1.0000   1.0000   1.0000   1.0000   1.0000   1.0000   1.0000
     1.0000   1.0000   1.0000   1.0000   1.0000   1.0000   1.0000   1.0000
     1.0000   0.2637   0.2635  -0.0041  -0.0000  -0.0000  -0.0000  -0.0000
    -0.0000  -0.0000  -0.0000

          k = 0.2500 0.4167-0.5000 (  9684 PWs)   bands (ev):

   -86.0662 -86.0662 -86.0630 -86.0630 -46.5528 -46.5528 -46.5441 -46.5441
   -46.4429 -46.4429 -46.4296 -46.4296 -46.4206 -46.4206 -46.4147 -46.4147
    12.3585  12.3585  12.9115  12.9115  14.5772  14.5772  14.7757  14.7757
    15.0010  15.0010  15.0799  15.0799  15.2244  15.2244  15.2958  15.2958
    16.5282  16.5282  16.6532  16.6532  17.3430  17.3430  18.4204  18.4204
    23.2535  23.2535  24.8570

     occupation numbers 
     1.0000   1.0000   1.0000   1.0000   1.0000   1.0000   1.0000   1.0000
     1.0000   1.0000   1.0000   1.0000   1.0000   1.0000   1.0000   1.0000
     1.0000   1.0000   1.0000   1.0000   1.0000   1.0000   1.0000   1.0000
     1.0000   1.0000   1.0000   1.0000   1.0000   1.0000   1.0000   1.0000
     1.0000   1.0000   1.0351   1.0351  -0.0000  -0.0000  -0.0000  -0.0000
    -0.0000  -0.0000  -0.0000

          k = 0.2500-0.5000-0.5000 (  9680 PWs)   bands (ev):

   -86.0646 -86.0646 -86.0646 -86.0646 -46.5504 -46.5504 -46.5504 -46.5504
   -46.4356 -46.4356 -46.4356 -46.4356 -46.4164 -46.4164 -46.4164 -46.4164
    12.6433  12.6433  12.6433  12.6433  14.7464  14.7464  14.7464  14.7464
    15.0694  15.0694  15.0694  15.0694  15.2208  15.2208  15.2208  15.2208
    16.5586  16.5586  16.5586  16.5586  17.7887  17.7887  17.7887  17.7887
    23.9693  23.9693  23.9693

     occupation numbers 
     1.0000   1.0000   1.0000   1.0000   1.0000   1.0000   1.0000   1.0000
     1.0000   1.0000   1.0000   1.0000   1.0000   1.0000   1.0000   1.0000
     1.0000   1.0000   1.0000   1.0000   1.0000   1.0000   1.0000   1.0000
     1.0000   1.0000   1.0000   1.0000   1.0000   1.0000   1.0000   1.0000
     1.0000   1.0000   1.0000   1.0000  -0.0000  -0.0000  -0.0000  -0.0000
    -0.0000  -0.0000  -0.0000

          k = 0.3333 0.3333 0.3333 (  9708 PWs)   bands (ev):

   -86.0711 -86.0624 -86.0624 -86.0624 -46.5519 -46.5519 -46.5519 -46.5253
   -46.4426 -46.4426 -46.4426 -46.4268 -46.4268 -46.4268 -46.4098 -46.4098
    11.3851  12.9843  12.9843  12.9843  14.3793  14.3793  14.3793  14.8348
    15.0451  15.0451  15.0451  15.1539  15.1539  15.3928  15.3928  15.3928
    16.4585  16.4585  16.8392  16.8392  16.8392  18.5476  18.5476  18.5476
    23.3030  23.3030  23.3030

     occupation numbers 
     1.0000   1.0000   1.0000   1.0000   1.0000   1.0000   1.0000   1.0000
     1.0000   1.0000   1.0000   1.0000   1.0000   1.0000   1.0000   1.0000
     1.0000   1.0000   1.0000   1.0000   1.0000   1.0000   1.0000   1.0000
     1.0000   1.0000   1.0000   1.0000   1.0000   1.0000   1.0000   1.0000
     1.0000   1.0000  -0.0000  -0.0000  -0.0000  -0.0000  -0.0000  -0.0000
    -0.0000  -0.0000  -0.0000

          k = 0.3333 0.3333 0.4167 (  9695 PWs)   bands (ev):

   -86.0690 -86.0645 -86.0624 -86.0624 -46.5569 -46.5569 -46.5515 -46.5375
   -46.4403 -46.4403 -46.4289 -46.4243 -46.4243 -46.4227 -46.4139 -46.4120
    11.8054  12.6294  12.9674  12.9674  14.5085  14.5085  14.6250  14.9320
    15.0857  15.0918  15.1427  15.1653  15.1653  15.2670  15.3060  15.3060
    16.5710  16.6216  16.8035  16.8035  16.8185  17.6192  18.6806  18.6806
    22.6333  22.6333  23.9494

     occupation numbers 
     1.0000   1.0000   1.0000   1.0000   1.0000   1.0000   1.0000   1.0000
     1.0000   1.0000   1.0000   1.0000   1.0000   1.0000   1.0000   1.0000
     1.0000   1.0000   1.0000   1.0000   1.0000   1.0000   1.0000   1.0000
     1.0000   1.0000   1.0000   1.0000   1.0000   1.0000   1.0000   1.0000
     1.0000   1.0000  -0.0000  -0.0000  -0.0000  -0.0000  -0.0000  -0.0000
    -0.0000  -0.0000  -0.0000

          k = 0.3333 0.3333-0.5000 (  9696 PWs)   bands (ev):

   -86.0667 -86.0667 -86.0624 -86.0624 -46.5586 -46.5586 -46.5465 -46.5465
   -46.4397 -46.4397 -46.4232 -46.4232 -46.4185 -46.4185 -46.4183 -46.4183
    12.2308  12.2308  12.9600  12.9600  14.5569  14.5569  14.8415  14.8415
    15.0890  15.0890  15.1814  15.1814  15.2249  15.2249  15.2714  15.2714
    16.7444  16.7445  16.7777  16.7777  16.9453  16.9453  18.7374  18.7374
    22.3949  22.3949  24.7482

     occupation numbers 
     1.0000   1.0000   1.0000   1.0000   1.0000   1.0000   1.0000   1.0000
     1.0000   1.0000   1.0000   1.0000   1.0000   1.0000   1.0000   1.0000
     1.0000   1.0000   1.0000   1.0000   1.0000   1.0000   1.0000   1.0000
     1.0000   1.0000   1.0000   1.0000   1.0000   1.0000   1.0000   1.0000
    -0.0000  -0.0000  -0.0000  -0.0000  -0.0000  -0.0000  -0.0000  -0.0000
    -0.0000  -0.0000  -0.0000

          k = 0.3333 0.4167 0.4167 (  9697 PWs)   bands (ev):

   -86.0674 -86.0640 -86.0640 -86.0629 -46.5613 -46.5585 -46.5585 -46.5483
   -46.4345 -46.4288 -46.4288 -46.4213 -46.4203 -46.4203 -46.4167 -46.4125
    12.1054  12.6901  12.6901  12.8543  14.6636  14.7372  14.7372  15.0416
    15.0894  15.1838  15.1838  15.1959  15.2034  15.2839  15.2839  15.3437
    16.5799  16.7849  16.7874  16.7874  16.8096  17.7998  17.7999  18.4099
    22.3596  23.1013  23.1013

     occupation numbers 
     1.0000   1.0000   1.0000   1.0000   1.0000   1.0000   1.0000   1.0000
     1.0000   1.0000   1.0000   1.0000   1.0000   1.0000   1.0000   1.0000
     1.0000   1.0000   1.0000   1.0000   1.0000   1.0000   1.0000   1.0000
     1.0000   1.0000   1.0000   1.0000   1.0000   1.0000   1.0000   1.0000
     1.0000  -0.0000  -0.0000  -0.0000  -0.0000  -0.0000  -0.0000  -0.0000
    -0.0000  -0.0000  -0.0000

          k = 0.3333 0.4167-0.5000 (  9704 PWs)   bands (ev):

   -86.0657 -86.0657 -86.0635 -86.0635 -46.5619 -46.5619 -46.5556 -46.5556
   -46.4309 -46.4309 -46.4214 -46.4214 -46.4196 -46.4195 -46.4157 -46.4157
    12.4030  12.4030  12.7622  12.7622  14.7485  14.7485  14.9262  14.9262
    15.1123  15.1123  15.1613  15.1613  15.3152  15.3152  15.4021  15.4021
    16.6943  16.6943  16.7574  16.7574  17.1480  17.1480  18.0806  18.0806
    22.5473  22.5473  23.7873

     occupation numbers 
     1.0000   1.0000   1.0000   1.0000   1.0000   1.0000   1.0000   1.0000
     1.0000   1.0000   1.0000   1.0000   1.0000   1.0000   1.0000   1.0000
     1.0000   1.0000   1.0000   1.0000   1.0000   1.0000   1.0000   1.0000
     1.0000   1.0000   1.0000   1.0000   1.0000   1.0000   1.0000   1.0000
    -0.0128  -0.0128  -0.0000  -0.0000  -0.0000  -0.0000  -0.0000  -0.0000
    -0.0000  -0.0000  -0.0000

          k = 0.3333-0.5000-0.5000 (  9692 PWs)   bands (ev):

   -86.0646 -86.0646 -86.0646 -86.0646 -46.5609 -46.5609 -46.5609 -46.5609
   -46.4253 -46.4253 -46.4253 -46.4253 -46.4164 -46.4164 -46.4164 -46.4164
    12.5781  12.5781  12.5781  12.5781  14.8848  14.8848  14.8848  14.8848
    15.1013  15.1013  15.1013  15.1013  15.4649  15.4649  15.4649  15.4649
    16.6940  16.6940  16.6940  16.6940  17.5152  17.5152  17.5152  17.5152
    23.0421  23.0421  23.0421

     occupation numbers 
     1.0000   1.0000   1.0000   1.0000   1.0000   1.0000   1.0000   1.0000
     1.0000   1.0000   1.0000   1.0000   1.0000   1.0000   1.0000   1.0000
     1.0000   1.0000   1.0000   1.0000   1.0000   1.0000   1.0000   1.0000
     1.0000   1.0000   1.0000   1.0000   1.0000   1.0000   1.0000   1.0000
    -0.0136  -0.0136  -0.0136  -0.0136  -0.0000  -0.0000  -0.0000  -0.0000
    -0.0000  -0.0000  -0.0000

          k = 0.4167 0.4167 0.4167 (  9703 PWs)   bands (ev):

   -86.0663 -86.0640 -86.0640 -86.0640 -46.5648 -46.5648 -46.5648 -46.5580
   -46.4237 -46.4237 -46.4237 -46.4192 -46.4192 -46.4192 -46.4146 -46.4146
    12.2780  12.6482  12.6482  12.6482  14.8476  14.8476  14.8476  15.0424
    15.0424  15.1020  15.1020  15.1020  15.5850  15.5850  15.5850  15.5871
    16.7130  16.7130  16.8189  16.8189  16.8189  17.6517  17.6517  17.6517
    22.5027  22.5027  22.5027

     occupation numbers 
     1.0000   1.0000   1.0000   1.0000   1.0000   1.0000   1.0000   1.0000
     1.0000   1.0000   1.0000   1.0000   1.0000   1.0000   1.0000   1.0000
     1.0000   1.0000   1.0000   1.0000   1.0000   1.0000   1.0000   1.0000
     1.0000   1.0000   1.0000   1.0000   1.0000   1.0000   1.0000   1.0000
    -0.0000  -0.0000  -0.0000  -0.0000  -0.0000  -0.0000  -0.0000  -0.0000
    -0.0000  -0.0000  -0.0000

          k = 0.4167 0.4167-0.5000 (  9704 PWs)   bands (ev):

   -86.0651 -86.0651 -86.0640 -86.0640 -46.5670 -46.5670 -46.5637 -46.5637
   -46.4226 -46.4226 -46.4181 -46.4181 -46.4169 -46.4169 -46.4169 -46.4169
    12.4573  12.4573  12.6329  12.6329  14.8878  14.8878  14.9772  14.9772
    15.0468  15.0468  15.0695  15.0695  15.7365  15.7365  15.7435  15.7435
    16.7948  16.7948  16.8023  16.8023  16.9786  16.9786  17.5866  17.5866
    22.2987  22.2987  22.9785

     occupation numbers 
     1.0000   1.0000   1.0000   1.0000   1.0000   1.0000   1.0000   1.0000
     1.0000   1.0000   1.0000   1.0000   1.0000   1.0000   1.0000   1.0000
     1.0000   1.0000   1.0000   1.0000   1.0000   1.0000   1.0000   1.0000
     1.0000   1.0000   1.0000   1.0000   1.0000   1.0000   1.0000   1.0000
    -0.0000  -0.0000  -0.0000  -0.0000  -0.0000  -0.0000  -0.0000  -0.0000
    -0.0000  -0.0000  -0.0000

          k = 0.4167-0.5000-0.5000 (  9712 PWs)   bands (ev):

   -86.0646 -86.0646 -86.0646 -86.0646 -46.5676 -46.5676 -46.5676 -46.5676
   -46.4187 -46.4187 -46.4187 -46.4187 -46.4164 -46.4164 -46.4164 -46.4164
    12.5316  12.5316  12.5316  12.5316  14.9703  14.9703  14.9703  14.9703
    15.0253  15.0253  15.0253  15.0253  15.9492  15.9492  15.9492  15.9492
    16.7816  16.7816  16.7816  16.7816  17.1296  17.1296  17.1296  17.1296
    22.4660  22.4660  22.4660

     occupation numbers 
     1.0000   1.0000   1.0000   1.0000   1.0000   1.0000   1.0000   1.0000
     1.0000   1.0000   1.0000   1.0000   1.0000   1.0000   1.0000   1.0000
     1.0000   1.0000   1.0000   1.0000   1.0000   1.0000   1.0000   1.0000
     1.0000   1.0000   1.0000   1.0000   1.0000   1.0000   1.0000   1.0000
    -0.0000  -0.0000  -0.0000  -0.0000  -0.0000  -0.0000  -0.0000  -0.0000
    -0.0000  -0.0000  -0.0000

          k =-0.5000-0.5000-0.5000 (  9808 PWs)   bands (ev):

   -86.0646 -86.0646 -86.0646 -86.0646 -46.5700 -46.5700 -46.5700 -46.5700
   -46.4164 -46.4164 -46.4164 -46.4164 -46.4164 -46.4164 -46.4164 -46.4164
    12.5148  12.5148  12.5148  12.5148  14.9994  14.9994  14.9994  14.9994
    14.9994  14.9994  14.9994  14.9994  16.3028  16.3028  16.3028  16.3028
    16.8119  16.8119  16.8119  16.8119  16.8119  16.8119  16.8119  16.8119
    22.2719  22.2719  22.2719

     occupation numbers 
     1.0000   1.0000   1.0000   1.0000   1.0000   1.0000   1.0000   1.0000
     1.0000   1.0000   1.0000   1.0000   1.0000   1.0000   1.0000   1.0000
     1.0000   1.0000   1.0000   1.0000   1.0000   1.0000   1.0000   1.0000
     1.0000   1.0000   1.0000   1.0000   1.0000   1.0000   1.0000   1.0000
    -0.0000  -0.0000  -0.0000  -0.0000  -0.0000  -0.0000  -0.0000  -0.0000
    -0.0000  -0.0000  -0.0000

     the Fermi energy is    16.6692 ev

!    total energy              =   -1716.65141915 Ry
     total all-electron energy =    -12166.379849 Ry
     estimated scf accuracy    <       0.00000004 Ry
     smearing contrib. (-TS)   =      -0.00001055 Ry
     internal energy E=F+TS    =   -1716.65140861 Ry

     The total energy is F=E-TS. E is the sum of the following terms:
     one-electron contribution =    -769.55833533 Ry
     hartree contribution      =     430.33256442 Ry
     xc contribution           =    -137.20727364 Ry
     ewald contribution        =    -875.86659167 Ry
     one-center paw contrib.   =    -364.35177239 Ry
      -> PAW hartree energy AE =     267.72287289 Ry
      -> PAW hartree energy PS =    -266.02613051 Ry
      -> PAW xc energy AE      =    -125.59442859 Ry
      -> PAW xc energy PS      =      32.80974295 Ry
      -> total E_H with PAW    =     432.02930681 Ry
      -> total E_XC with PAW   =    -229.99195928 Ry

     total magnetization       =     2.67 Bohr mag/cell
     absolute magnetization    =     3.08 Bohr mag/cell

     convergence has been achieved in  10 iterations

     Writing all to output data dir out/Ni.save/
 
     init_run     :      0.97s CPU      1.26s WALL (       1 calls)
     electrons    :     95.42s CPU     97.13s WALL (       1 calls)

     Called by init_run:
     wfcinit      :      0.68s CPU      0.94s WALL (       1 calls)
     potinit      :      0.15s CPU      0.17s WALL (       1 calls)
     hinit0       :      0.05s CPU      0.05s WALL (       1 calls)

     Called by electrons:
     c_bands      :     81.83s CPU     83.25s WALL (      10 calls)
     sum_band     :     11.89s CPU     12.11s WALL (      10 calls)
     v_of_rho     :      0.19s CPU      0.19s WALL (      11 calls)
     v_h          :      0.01s CPU      0.01s WALL (      11 calls)
     v_xc         :      0.18s CPU      0.19s WALL (      11 calls)
     newd         :      0.24s CPU      0.24s WALL (      11 calls)
     PAW_pot      :      1.37s CPU      1.41s WALL (      11 calls)
     mix_rho      :      0.04s CPU      0.04s WALL (      10 calls)

     Called by c_bands:
     init_us_2    :      0.71s CPU      0.77s WALL (    3360 calls)
     init_us_2:cp :      0.71s CPU      0.76s WALL (    3360 calls)
     cegterg      :     77.65s CPU     78.83s WALL (    1680 calls)

     Called by sum_band:
     sum_band:wei :      0.06s CPU      0.06s WALL (      10 calls)
     sum_band:loo :     11.36s CPU     11.56s WALL (      10 calls)
     sum_band:buf :      0.15s CPU      0.16s WALL (    1680 calls)
     sum_band:ini :      0.29s CPU      0.30s WALL (    1680 calls)
     sum_band:cal :      0.70s CPU      0.71s WALL (    1680 calls)
     sum_band:bec :      0.06s CPU      0.06s WALL (    1680 calls)
     addusdens    :      0.43s CPU      0.44s WALL (      10 calls)
                                        0.00s GPU  (      10 calls)
     addusd:skk   :      0.00s CPU      0.00s WALL (      10 calls)
                                        0.00s GPU  (      10 calls)

     Called by *egterg:
     cdiaghg      :     12.49s CPU     12.54s WALL (    6087 calls)
     cegterg:over :      3.36s CPU      3.42s WALL (    4575 calls)
     cegterg:upda :      1.43s CPU      1.42s WALL (    4575 calls)
     cegterg:last :      2.60s CPU      2.60s WALL (    3605 calls)
     h_psi        :     54.14s CPU     55.12s WALL (    6255 calls)
     s_psi        :      1.34s CPU      1.35s WALL (    6255 calls)
     g_psi        :      0.20s CPU      0.21s WALL (    4575 calls)

     Called by h_psi:
     h_psi:calbec :      2.49s CPU      2.52s WALL (    6255 calls)
     vloc_psi     :     49.76s CPU     50.65s WALL (    6255 calls)
     add_vuspsi   :      1.54s CPU      1.56s WALL (    6255 calls)

     General routines
     calbec       :      3.18s CPU      3.21s WALL (    7935 calls)
     fft          :      0.10s CPU      0.10s WALL (     269 calls)
     ffts         :      0.01s CPU      0.01s WALL (      42 calls)
     fftw         :     55.20s CPU     55.69s WALL (  451298 calls)
     interpolate  :      0.01s CPU      0.01s WALL (      22 calls)
 
     Parallel routines

     PAW routines
     PAW_pot      :      1.37s CPU      1.41s WALL (      11 calls)
     PAW_symme    :      0.02s CPU      0.02s WALL (      20 calls)
 
     PWSCF        :   1m37.26s CPU   1m41.59s WALL

 
   This run was terminated on:   6: 8:20  22Mar2024            

=------------------------------------------------------------------------------=
   JOB DONE.
=------------------------------------------------------------------------------=
