
     Program PWSCF v.7.2 starts on 22Mar2024 at  5:30:23 

     This program is part of the open-source Quantum ESPRESSO suite
     for quantum simulation of materials; please cite
         "P. Giannozzi et al., J. Phys.:Condens. Matter 21 395502 (2009);
         "P. Giannozzi et al., J. Phys.:Condens. Matter 29 465901 (2017);
         "P. Giannozzi et al., J. Chem. Phys. 152 154105 (2020);
          URL http://www.quantum-espresso.org", 
     in publications or presentations arising from this work. More details at
     http://www.quantum-espresso.org/quote

     Parallel version (MPI), running on    20 processors

     MPI processes distributed on     1 nodes
     356213 MiB available memory on the printing compute node when the environment starts
 
     Waiting for input...
     Reading input from standard input

     Current dimensions of program PWSCF are:
     Max number of different atomic species (ntypx) = 10
     Max number of k-points (npk) = 120000
     Max angular momentum in pseudopotentials (lmaxx) =  4
     file Ni.pbe-spn-kjpaw_psl.1.0.0.UPF: wavefunction(s)  3P 3D renormalized
     Found identity + (  0.0000 -0.5000 -0.5000) symmetry
     This is a supercell, fractional translations are disabled
 
     R & G space division:  proc/nbgrp/npool/nimage =      20
     Subspace diagonalization in iterative solution of the eigenvalue problem:
     a serial algorithm will be used

 
     Parallelization info
     --------------------
     sticks:   dense  smooth     PW     G-vecs:    dense   smooth      PW
     Min         134     100     28                 5208     3384     518
     Max         135     101     29                 5211     3387     521
     Sum        2693    2009    577               104199    67691   10395
 
     Using Slab Decomposition
 


     bravais-lattice index     =            1
     lattice parameter (alat)  =       6.4818  a.u.
     unit-cell volume          =     272.3196 (a.u.)^3
     number of atoms/cell      =            4
     number of atomic types    =            1
     number of electrons       =        72.00
     number of Kohn-Sham states=           43
     kinetic-energy cutoff     =     150.0000  Ry
     charge density cutoff     =     800.0000  Ry
     scf convergence threshold =      8.0E-08
     mixing beta               =       0.7000
     number of iterations used =            8  plain     mixing
     Exchange-correlation= SLA  PW   PBX  PBC
                           (   1   4   3   4   0   0   0)

     celldm(1)=   6.481761  celldm(2)=   0.000000  celldm(3)=   0.000000
     celldm(4)=   0.000000  celldm(5)=   0.000000  celldm(6)=   0.000000

     crystal axes: (cart. coord. in units of alat)
               a(1) = (   1.000000   0.000000   0.000000 )  
               a(2) = (   0.000000   1.000000   0.000000 )  
               a(3) = (   0.000000   0.000000   1.000000 )  

     reciprocal axes: (cart. coord. in units 2 pi/alat)
               b(1) = (  1.000000  0.000000  0.000000 )  
               b(2) = (  0.000000  1.000000  0.000000 )  
               b(3) = (  0.000000  0.000000  1.000000 )  


     PseudoPot. # 1 for Ni read from file:
     /truba/home/amuhaymin/ZnS/pseudo/QE/Ni.pbe-spn-kjpaw_psl.1.0.0.UPF
     MD5 check sum: 6e86b733589c3ad8389697b807d86aa7
     Pseudo is Projector augmented-wave + core cor, Zval = 18.0
     Generated using &quot;atomic&quot; code by A. Dal Corso  v.6.3
     Shape of augmentation charge: PSQ
     Using radial grid of 1195 points,  6 beta functions with: 
                l(1) =   0
                l(2) =   0
                l(3) =   1
                l(4) =   1
                l(5) =   2
                l(6) =   2
     Q(r) pseudized with 0 coefficients 


     atomic species   valence    mass     pseudopotential
        Ni            18.00    58.69340     Ni( 1.00)

     Starting magnetic structure 
     atomic species   magnetization
        Ni           0.278

     48 Sym. Ops., with inversion, found


                                    s                        frac. trans.

      isym =  1     identity                                     

 cryst.   s( 1) = (     1          0          0      )
                  (     0          1          0      )
                  (     0          0          1      )

 cart.    s( 1) = (  1.0000000  0.0000000  0.0000000 )
                  (  0.0000000  1.0000000  0.0000000 )
                  (  0.0000000  0.0000000  1.0000000 )


      isym =  2     180 deg rotation - cart. axis [0,0,1]        

 cryst.   s( 2) = (    -1          0          0      )
                  (     0         -1          0      )
                  (     0          0          1      )

 cart.    s( 2) = ( -1.0000000  0.0000000  0.0000000 )
                  (  0.0000000 -1.0000000  0.0000000 )
                  (  0.0000000  0.0000000  1.0000000 )


      isym =  3     180 deg rotation - cart. axis [0,1,0]        

 cryst.   s( 3) = (    -1          0          0      )
                  (     0          1          0      )
                  (     0          0         -1      )

 cart.    s( 3) = ( -1.0000000  0.0000000  0.0000000 )
                  (  0.0000000  1.0000000  0.0000000 )
                  (  0.0000000  0.0000000 -1.0000000 )


      isym =  4     180 deg rotation - cart. axis [1,0,0]        

 cryst.   s( 4) = (     1          0          0      )
                  (     0         -1          0      )
                  (     0          0         -1      )

 cart.    s( 4) = (  1.0000000  0.0000000  0.0000000 )
                  (  0.0000000 -1.0000000  0.0000000 )
                  (  0.0000000  0.0000000 -1.0000000 )


      isym =  5     180 deg rotation - cart. axis [1,1,0]        

 cryst.   s( 5) = (     0          1          0      )
                  (     1          0          0      )
                  (     0          0         -1      )

 cart.    s( 5) = (  0.0000000  1.0000000  0.0000000 )
                  (  1.0000000  0.0000000  0.0000000 )
                  (  0.0000000  0.0000000 -1.0000000 )


      isym =  6     180 deg rotation - cart. axis [1,-1,0]       

 cryst.   s( 6) = (     0         -1          0      )
                  (    -1          0          0      )
                  (     0          0         -1      )

 cart.    s( 6) = (  0.0000000 -1.0000000  0.0000000 )
                  ( -1.0000000  0.0000000  0.0000000 )
                  (  0.0000000  0.0000000 -1.0000000 )


      isym =  7      90 deg rotation - cart. axis [0,0,-1]       

 cryst.   s( 7) = (     0         -1          0      )
                  (     1          0          0      )
                  (     0          0          1      )

 cart.    s( 7) = (  0.0000000  1.0000000  0.0000000 )
                  ( -1.0000000  0.0000000  0.0000000 )
                  (  0.0000000  0.0000000  1.0000000 )


      isym =  8      90 deg rotation - cart. axis [0,0,1]        

 cryst.   s( 8) = (     0          1          0      )
                  (    -1          0          0      )
                  (     0          0          1      )

 cart.    s( 8) = (  0.0000000 -1.0000000  0.0000000 )
                  (  1.0000000  0.0000000  0.0000000 )
                  (  0.0000000  0.0000000  1.0000000 )


      isym =  9     180 deg rotation - cart. axis [1,0,1]        

 cryst.   s( 9) = (     0          0          1      )
                  (     0         -1          0      )
                  (     1          0          0      )

 cart.    s( 9) = (  0.0000000  0.0000000  1.0000000 )
                  (  0.0000000 -1.0000000  0.0000000 )
                  (  1.0000000  0.0000000  0.0000000 )


      isym = 10     180 deg rotation - cart. axis [-1,0,1]       

 cryst.   s(10) = (     0          0         -1      )
                  (     0         -1          0      )
                  (    -1          0          0      )

 cart.    s(10) = (  0.0000000  0.0000000 -1.0000000 )
                  (  0.0000000 -1.0000000  0.0000000 )
                  ( -1.0000000  0.0000000  0.0000000 )


      isym = 11      90 deg rotation - cart. axis [0,1,0]        

 cryst.   s(11) = (     0          0         -1      )
                  (     0          1          0      )
                  (     1          0          0      )

 cart.    s(11) = (  0.0000000  0.0000000  1.0000000 )
                  (  0.0000000  1.0000000  0.0000000 )
                  ( -1.0000000  0.0000000  0.0000000 )


      isym = 12      90 deg rotation - cart. axis [0,-1,0]       

 cryst.   s(12) = (     0          0          1      )
                  (     0          1          0      )
                  (    -1          0          0      )

 cart.    s(12) = (  0.0000000  0.0000000 -1.0000000 )
                  (  0.0000000  1.0000000  0.0000000 )
                  (  1.0000000  0.0000000  0.0000000 )


      isym = 13     180 deg rotation - cart. axis [0,1,1]        

 cryst.   s(13) = (    -1          0          0      )
                  (     0          0          1      )
                  (     0          1          0      )

 cart.    s(13) = ( -1.0000000  0.0000000  0.0000000 )
                  (  0.0000000  0.0000000  1.0000000 )
                  (  0.0000000  1.0000000  0.0000000 )


      isym = 14     180 deg rotation - cart. axis [0,1,-1]       

 cryst.   s(14) = (    -1          0          0      )
                  (     0          0         -1      )
                  (     0         -1          0      )

 cart.    s(14) = ( -1.0000000  0.0000000  0.0000000 )
                  (  0.0000000  0.0000000 -1.0000000 )
                  (  0.0000000 -1.0000000  0.0000000 )


      isym = 15      90 deg rotation - cart. axis [-1,0,0]       

 cryst.   s(15) = (     1          0          0      )
                  (     0          0         -1      )
                  (     0          1          0      )

 cart.    s(15) = (  1.0000000  0.0000000  0.0000000 )
                  (  0.0000000  0.0000000  1.0000000 )
                  (  0.0000000 -1.0000000  0.0000000 )


      isym = 16      90 deg rotation - cart. axis [1,0,0]        

 cryst.   s(16) = (     1          0          0      )
                  (     0          0          1      )
                  (     0         -1          0      )

 cart.    s(16) = (  1.0000000  0.0000000  0.0000000 )
                  (  0.0000000  0.0000000 -1.0000000 )
                  (  0.0000000  1.0000000  0.0000000 )


      isym = 17     120 deg rotation - cart. axis [-1,-1,-1]     

 cryst.   s(17) = (     0          0          1      )
                  (     1          0          0      )
                  (     0          1          0      )

 cart.    s(17) = (  0.0000000  1.0000000  0.0000000 )
                  (  0.0000000  0.0000000  1.0000000 )
                  (  1.0000000  0.0000000  0.0000000 )


      isym = 18     120 deg rotation - cart. axis [-1,1,1]       

 cryst.   s(18) = (     0          0         -1      )
                  (    -1          0          0      )
                  (     0          1          0      )

 cart.    s(18) = (  0.0000000 -1.0000000  0.0000000 )
                  (  0.0000000  0.0000000  1.0000000 )
                  ( -1.0000000  0.0000000  0.0000000 )


      isym = 19     120 deg rotation - cart. axis [1,1,-1]       

 cryst.   s(19) = (     0          0         -1      )
                  (     1          0          0      )
                  (     0         -1          0      )

 cart.    s(19) = (  0.0000000  1.0000000  0.0000000 )
                  (  0.0000000  0.0000000 -1.0000000 )
                  ( -1.0000000  0.0000000  0.0000000 )


      isym = 20     120 deg rotation - cart. axis [1,-1,1]       

 cryst.   s(20) = (     0          0          1      )
                  (    -1          0          0      )
                  (     0         -1          0      )

 cart.    s(20) = (  0.0000000 -1.0000000  0.0000000 )
                  (  0.0000000  0.0000000 -1.0000000 )
                  (  1.0000000  0.0000000  0.0000000 )


      isym = 21     120 deg rotation - cart. axis [1,1,1]        

 cryst.   s(21) = (     0          1          0      )
                  (     0          0          1      )
                  (     1          0          0      )

 cart.    s(21) = (  0.0000000  0.0000000  1.0000000 )
                  (  1.0000000  0.0000000  0.0000000 )
                  (  0.0000000  1.0000000  0.0000000 )


      isym = 22     120 deg rotation - cart. axis [-1,1,-1]      

 cryst.   s(22) = (     0         -1          0      )
                  (     0          0         -1      )
                  (     1          0          0      )

 cart.    s(22) = (  0.0000000  0.0000000  1.0000000 )
                  ( -1.0000000  0.0000000  0.0000000 )
                  (  0.0000000 -1.0000000  0.0000000 )


      isym = 23     120 deg rotation - cart. axis [1,-1,-1]      

 cryst.   s(23) = (     0         -1          0      )
                  (     0          0          1      )
                  (    -1          0          0      )

 cart.    s(23) = (  0.0000000  0.0000000 -1.0000000 )
                  ( -1.0000000  0.0000000  0.0000000 )
                  (  0.0000000  1.0000000  0.0000000 )


      isym = 24     120 deg rotation - cart. axis [-1,-1,1]      

 cryst.   s(24) = (     0          1          0      )
                  (     0          0         -1      )
                  (    -1          0          0      )

 cart.    s(24) = (  0.0000000  0.0000000 -1.0000000 )
                  (  1.0000000  0.0000000  0.0000000 )
                  (  0.0000000 -1.0000000  0.0000000 )


      isym = 25     inversion                                    

 cryst.   s(25) = (    -1          0          0      )
                  (     0         -1          0      )
                  (     0          0         -1      )

 cart.    s(25) = ( -1.0000000  0.0000000  0.0000000 )
                  (  0.0000000 -1.0000000  0.0000000 )
                  (  0.0000000  0.0000000 -1.0000000 )


      isym = 26     inv. 180 deg rotation - cart. axis [0,0,1]   

 cryst.   s(26) = (     1          0          0      )
                  (     0          1          0      )
                  (     0          0         -1      )

 cart.    s(26) = (  1.0000000  0.0000000  0.0000000 )
                  (  0.0000000  1.0000000  0.0000000 )
                  (  0.0000000  0.0000000 -1.0000000 )


      isym = 27     inv. 180 deg rotation - cart. axis [0,1,0]   

 cryst.   s(27) = (     1          0          0      )
                  (     0         -1          0      )
                  (     0          0          1      )

 cart.    s(27) = (  1.0000000  0.0000000  0.0000000 )
                  (  0.0000000 -1.0000000  0.0000000 )
                  (  0.0000000  0.0000000  1.0000000 )


      isym = 28     inv. 180 deg rotation - cart. axis [1,0,0]   

 cryst.   s(28) = (    -1          0          0      )
                  (     0          1          0      )
                  (     0          0          1      )

 cart.    s(28) = ( -1.0000000  0.0000000  0.0000000 )
                  (  0.0000000  1.0000000  0.0000000 )
                  (  0.0000000  0.0000000  1.0000000 )


      isym = 29     inv. 180 deg rotation - cart. axis [1,1,0]   

 cryst.   s(29) = (     0         -1          0      )
                  (    -1          0          0      )
                  (     0          0          1      )

 cart.    s(29) = (  0.0000000 -1.0000000  0.0000000 )
                  ( -1.0000000  0.0000000  0.0000000 )
                  (  0.0000000  0.0000000  1.0000000 )


      isym = 30     inv. 180 deg rotation - cart. axis [1,-1,0]  

 cryst.   s(30) = (     0          1          0      )
                  (     1          0          0      )
                  (     0          0          1      )

 cart.    s(30) = (  0.0000000  1.0000000  0.0000000 )
                  (  1.0000000  0.0000000  0.0000000 )
                  (  0.0000000  0.0000000  1.0000000 )


      isym = 31     inv.  90 deg rotation - cart. axis [0,0,-1]  

 cryst.   s(31) = (     0          1          0      )
                  (    -1          0          0      )
                  (     0          0         -1      )

 cart.    s(31) = (  0.0000000 -1.0000000  0.0000000 )
                  (  1.0000000  0.0000000  0.0000000 )
                  (  0.0000000  0.0000000 -1.0000000 )


      isym = 32     inv.  90 deg rotation - cart. axis [0,0,1]   

 cryst.   s(32) = (     0         -1          0      )
                  (     1          0          0      )
                  (     0          0         -1      )

 cart.    s(32) = (  0.0000000  1.0000000  0.0000000 )
                  ( -1.0000000  0.0000000  0.0000000 )
                  (  0.0000000  0.0000000 -1.0000000 )


      isym = 33     inv. 180 deg rotation - cart. axis [1,0,1]   

 cryst.   s(33) = (     0          0         -1      )
                  (     0          1          0      )
                  (    -1          0          0      )

 cart.    s(33) = (  0.0000000  0.0000000 -1.0000000 )
                  (  0.0000000  1.0000000  0.0000000 )
                  ( -1.0000000  0.0000000  0.0000000 )


      isym = 34     inv. 180 deg rotation - cart. axis [-1,0,1]  

 cryst.   s(34) = (     0          0          1      )
                  (     0          1          0      )
                  (     1          0          0      )

 cart.    s(34) = (  0.0000000  0.0000000  1.0000000 )
                  (  0.0000000  1.0000000  0.0000000 )
                  (  1.0000000  0.0000000  0.0000000 )


      isym = 35     inv.  90 deg rotation - cart. axis [0,1,0]   

 cryst.   s(35) = (     0          0          1      )
                  (     0         -1          0      )
                  (    -1          0          0      )

 cart.    s(35) = (  0.0000000  0.0000000 -1.0000000 )
                  (  0.0000000 -1.0000000  0.0000000 )
                  (  1.0000000  0.0000000  0.0000000 )


      isym = 36     inv.  90 deg rotation - cart. axis [0,-1,0]  

 cryst.   s(36) = (     0          0         -1      )
                  (     0         -1          0      )
                  (     1          0          0      )

 cart.    s(36) = (  0.0000000  0.0000000  1.0000000 )
                  (  0.0000000 -1.0000000  0.0000000 )
                  ( -1.0000000  0.0000000  0.0000000 )


      isym = 37     inv. 180 deg rotation - cart. axis [0,1,1]   

 cryst.   s(37) = (     1          0          0      )
                  (     0          0         -1      )
                  (     0         -1          0      )

 cart.    s(37) = (  1.0000000  0.0000000  0.0000000 )
                  (  0.0000000  0.0000000 -1.0000000 )
                  (  0.0000000 -1.0000000  0.0000000 )


      isym = 38     inv. 180 deg rotation - cart. axis [0,1,-1]  

 cryst.   s(38) = (     1          0          0      )
                  (     0          0          1      )
                  (     0          1          0      )

 cart.    s(38) = (  1.0000000  0.0000000  0.0000000 )
                  (  0.0000000  0.0000000  1.0000000 )
                  (  0.0000000  1.0000000  0.0000000 )


      isym = 39     inv.  90 deg rotation - cart. axis [-1,0,0]  

 cryst.   s(39) = (    -1          0          0      )
                  (     0          0          1      )
                  (     0         -1          0      )

 cart.    s(39) = ( -1.0000000  0.0000000  0.0000000 )
                  (  0.0000000  0.0000000 -1.0000000 )
                  (  0.0000000  1.0000000  0.0000000 )


      isym = 40     inv.  90 deg rotation - cart. axis [1,0,0]   

 cryst.   s(40) = (    -1          0          0      )
                  (     0          0         -1      )
                  (     0          1          0      )

 cart.    s(40) = ( -1.0000000  0.0000000  0.0000000 )
                  (  0.0000000  0.0000000  1.0000000 )
                  (  0.0000000 -1.0000000  0.0000000 )


      isym = 41     inv. 120 deg rotation - cart. axis [-1,-1,-1]

 cryst.   s(41) = (     0          0         -1      )
                  (    -1          0          0      )
                  (     0         -1          0      )

 cart.    s(41) = (  0.0000000 -1.0000000  0.0000000 )
                  (  0.0000000  0.0000000 -1.0000000 )
                  ( -1.0000000  0.0000000  0.0000000 )


      isym = 42     inv. 120 deg rotation - cart. axis [-1,1,1]  

 cryst.   s(42) = (     0          0          1      )
                  (     1          0          0      )
                  (     0         -1          0      )

 cart.    s(42) = (  0.0000000  1.0000000  0.0000000 )
                  (  0.0000000  0.0000000 -1.0000000 )
                  (  1.0000000  0.0000000  0.0000000 )


      isym = 43     inv. 120 deg rotation - cart. axis [1,1,-1]  

 cryst.   s(43) = (     0          0          1      )
                  (    -1          0          0      )
                  (     0          1          0      )

 cart.    s(43) = (  0.0000000 -1.0000000  0.0000000 )
                  (  0.0000000  0.0000000  1.0000000 )
                  (  1.0000000  0.0000000  0.0000000 )


      isym = 44     inv. 120 deg rotation - cart. axis [1,-1,1]  

 cryst.   s(44) = (     0          0         -1      )
                  (     1          0          0      )
                  (     0          1          0      )

 cart.    s(44) = (  0.0000000  1.0000000  0.0000000 )
                  (  0.0000000  0.0000000  1.0000000 )
                  ( -1.0000000  0.0000000  0.0000000 )


      isym = 45     inv. 120 deg rotation - cart. axis [1,1,1]   

 cryst.   s(45) = (     0         -1          0      )
                  (     0          0         -1      )
                  (    -1          0          0      )

 cart.    s(45) = (  0.0000000  0.0000000 -1.0000000 )
                  ( -1.0000000  0.0000000  0.0000000 )
                  (  0.0000000 -1.0000000  0.0000000 )


      isym = 46     inv. 120 deg rotation - cart. axis [-1,1,-1] 

 cryst.   s(46) = (     0          1          0      )
                  (     0          0          1      )
                  (    -1          0          0      )

 cart.    s(46) = (  0.0000000  0.0000000 -1.0000000 )
                  (  1.0000000  0.0000000  0.0000000 )
                  (  0.0000000  1.0000000  0.0000000 )


      isym = 47     inv. 120 deg rotation - cart. axis [1,-1,-1] 

 cryst.   s(47) = (     0          1          0      )
                  (     0          0         -1      )
                  (     1          0          0      )

 cart.    s(47) = (  0.0000000  0.0000000  1.0000000 )
                  (  1.0000000  0.0000000  0.0000000 )
                  (  0.0000000 -1.0000000  0.0000000 )


      isym = 48     inv. 120 deg rotation - cart. axis [-1,-1,1] 

 cryst.   s(48) = (     0         -1          0      )
                  (     0          0          1      )
                  (     1          0          0      )

 cart.    s(48) = (  0.0000000  0.0000000  1.0000000 )
                  ( -1.0000000  0.0000000  0.0000000 )
                  (  0.0000000  1.0000000  0.0000000 )


     point group O_h (m-3m) 
     there are 10 classes
     the character table:

       E     8C3   3C2   6C4   6C2'  i     8S6   3s_h  6S4   6s_d 
A_1g   1.00  1.00  1.00  1.00  1.00  1.00  1.00  1.00  1.00  1.00
A_2g   1.00  1.00  1.00 -1.00 -1.00  1.00  1.00  1.00 -1.00 -1.00
E_g    2.00 -1.00  2.00  0.00  0.00  2.00 -1.00  2.00  0.00  0.00
T_1g   3.00  0.00 -1.00  1.00 -1.00  3.00  0.00 -1.00  1.00 -1.00
T_2g   3.00  0.00 -1.00 -1.00  1.00  3.00  0.00 -1.00 -1.00  1.00
A_1u   1.00  1.00  1.00  1.00  1.00 -1.00 -1.00 -1.00 -1.00 -1.00
A_2u   1.00  1.00  1.00 -1.00 -1.00 -1.00 -1.00 -1.00  1.00  1.00
E_u    2.00 -1.00  2.00  0.00  0.00 -2.00  1.00 -2.00  0.00  0.00
T_1u   3.00  0.00 -1.00  1.00 -1.00 -3.00  0.00  1.00 -1.00  1.00
T_2u   3.00  0.00 -1.00 -1.00  1.00 -3.00  0.00  1.00  1.00 -1.00

     the symmetry operations in each class and the name of the first element:

     E        1
          identity                                               
     8C3     17   19   20   18   24   21   22   23
          120 deg rotation - cart. axis [-1,-1,-1]               
     3C2      2    4    3
          180 deg rotation - cart. axis [0,0,1]                  
     6C4      7    8   15   16   12   11
           90 deg rotation - cart. axis [0,0,-1]                 
     6C2'     5    6   14   13   10    9
          180 deg rotation - cart. axis [1,1,0]                  
     i       25
          inversion                                              
     8S6     41   43   44   42   48   45   46   47
          inv. 120 deg rotation - cart. axis [-1,-1,-1]          
     3s_h    26   28   27
          inv. 180 deg rotation - cart. axis [0,0,1]             
     6S4     31   32   39   40   36   35
          inv.  90 deg rotation - cart. axis [0,0,-1]            
     6s_d    29   30   38   37   34   33
          inv. 180 deg rotation - cart. axis [1,1,0]             

   Cartesian axes

     site n.     atom                  positions (alat units)
         1           Ni  tau(   1) = (   0.0000000   0.0000000   0.0000000  )
         2           Ni  tau(   2) = (   0.0000000   0.5000000   0.5000000  )
         3           Ni  tau(   3) = (   0.5000000   0.0000000   0.5000000  )
         4           Ni  tau(   4) = (   0.5000000   0.5000000   0.0000000  )

   Crystallographic axes

     site n.     atom                  positions (cryst. coord.)
         1           Ni  tau(   1) = (  0.0000000  0.0000000  0.0000000  )
         2           Ni  tau(   2) = (  0.0000000  0.5000000  0.5000000  )
         3           Ni  tau(   3) = (  0.5000000  0.0000000  0.5000000  )
         4           Ni  tau(   4) = (  0.5000000  0.5000000  0.0000000  )

     number of k points=    84  Methfessel-Paxton smearing, width (Ry)=  0.0010
                       cart. coord. in units 2pi/alat
        k(    1) = (   0.0000000   0.0000000   0.0000000), wk =   0.0005787
        k(    2) = (   0.0000000   0.0000000   0.0833333), wk =   0.0034722
        k(    3) = (   0.0000000   0.0000000   0.1666667), wk =   0.0034722
        k(    4) = (   0.0000000   0.0000000   0.2500000), wk =   0.0034722
        k(    5) = (   0.0000000   0.0000000   0.3333333), wk =   0.0034722
        k(    6) = (   0.0000000   0.0000000   0.4166667), wk =   0.0034722
        k(    7) = (   0.0000000   0.0000000  -0.5000000), wk =   0.0017361
        k(    8) = (   0.0000000   0.0833333   0.0833333), wk =   0.0069444
        k(    9) = (   0.0000000   0.0833333   0.1666667), wk =   0.0138889
        k(   10) = (   0.0000000   0.0833333   0.2500000), wk =   0.0138889
        k(   11) = (   0.0000000   0.0833333   0.3333333), wk =   0.0138889
        k(   12) = (   0.0000000   0.0833333   0.4166667), wk =   0.0138889
        k(   13) = (   0.0000000   0.0833333  -0.5000000), wk =   0.0069444
        k(   14) = (   0.0000000   0.1666667   0.1666667), wk =   0.0069444
        k(   15) = (   0.0000000   0.1666667   0.2500000), wk =   0.0138889
        k(   16) = (   0.0000000   0.1666667   0.3333333), wk =   0.0138889
        k(   17) = (   0.0000000   0.1666667   0.4166667), wk =   0.0138889
        k(   18) = (   0.0000000   0.1666667  -0.5000000), wk =   0.0069444
        k(   19) = (   0.0000000   0.2500000   0.2500000), wk =   0.0069444
        k(   20) = (   0.0000000   0.2500000   0.3333333), wk =   0.0138889
        k(   21) = (   0.0000000   0.2500000   0.4166667), wk =   0.0138889
        k(   22) = (   0.0000000   0.2500000  -0.5000000), wk =   0.0069444
        k(   23) = (   0.0000000   0.3333333   0.3333333), wk =   0.0069444
        k(   24) = (   0.0000000   0.3333333   0.4166667), wk =   0.0138889
        k(   25) = (   0.0000000   0.3333333  -0.5000000), wk =   0.0069444
        k(   26) = (   0.0000000   0.4166667   0.4166667), wk =   0.0069444
        k(   27) = (   0.0000000   0.4166667  -0.5000000), wk =   0.0069444
        k(   28) = (   0.0000000  -0.5000000  -0.5000000), wk =   0.0017361
        k(   29) = (   0.0833333   0.0833333   0.0833333), wk =   0.0046296
        k(   30) = (   0.0833333   0.0833333   0.1666667), wk =   0.0138889
        k(   31) = (   0.0833333   0.0833333   0.2500000), wk =   0.0138889
        k(   32) = (   0.0833333   0.0833333   0.3333333), wk =   0.0138889
        k(   33) = (   0.0833333   0.0833333   0.4166667), wk =   0.0138889
        k(   34) = (   0.0833333   0.0833333  -0.5000000), wk =   0.0069444
        k(   35) = (   0.0833333   0.1666667   0.1666667), wk =   0.0138889
        k(   36) = (   0.0833333   0.1666667   0.2500000), wk =   0.0277778
        k(   37) = (   0.0833333   0.1666667   0.3333333), wk =   0.0277778
        k(   38) = (   0.0833333   0.1666667   0.4166667), wk =   0.0277778
        k(   39) = (   0.0833333   0.1666667  -0.5000000), wk =   0.0138889
        k(   40) = (   0.0833333   0.2500000   0.2500000), wk =   0.0138889
        k(   41) = (   0.0833333   0.2500000   0.3333333), wk =   0.0277778
        k(   42) = (   0.0833333   0.2500000   0.4166667), wk =   0.0277778
        k(   43) = (   0.0833333   0.2500000  -0.5000000), wk =   0.0138889
        k(   44) = (   0.0833333   0.3333333   0.3333333), wk =   0.0138889
        k(   45) = (   0.0833333   0.3333333   0.4166667), wk =   0.0277778
        k(   46) = (   0.0833333   0.3333333  -0.5000000), wk =   0.0138889
        k(   47) = (   0.0833333   0.4166667   0.4166667), wk =   0.0138889
        k(   48) = (   0.0833333   0.4166667  -0.5000000), wk =   0.0138889
        k(   49) = (   0.0833333  -0.5000000  -0.5000000), wk =   0.0034722
        k(   50) = (   0.1666667   0.1666667   0.1666667), wk =   0.0046296
        k(   51) = (   0.1666667   0.1666667   0.2500000), wk =   0.0138889
        k(   52) = (   0.1666667   0.1666667   0.3333333), wk =   0.0138889
        k(   53) = (   0.1666667   0.1666667   0.4166667), wk =   0.0138889
        k(   54) = (   0.1666667   0.1666667  -0.5000000), wk =   0.0069444
        k(   55) = (   0.1666667   0.2500000   0.2500000), wk =   0.0138889
        k(   56) = (   0.1666667   0.2500000   0.3333333), wk =   0.0277778
        k(   57) = (   0.1666667   0.2500000   0.4166667), wk =   0.0277778
        k(   58) = (   0.1666667   0.2500000  -0.5000000), wk =   0.0138889
        k(   59) = (   0.1666667   0.3333333   0.3333333), wk =   0.0138889
        k(   60) = (   0.1666667   0.3333333   0.4166667), wk =   0.0277778
        k(   61) = (   0.1666667   0.3333333  -0.5000000), wk =   0.0138889
        k(   62) = (   0.1666667   0.4166667   0.4166667), wk =   0.0138889
        k(   63) = (   0.1666667   0.4166667  -0.5000000), wk =   0.0138889
        k(   64) = (   0.1666667  -0.5000000  -0.5000000), wk =   0.0034722
        k(   65) = (   0.2500000   0.2500000   0.2500000), wk =   0.0046296
        k(   66) = (   0.2500000   0.2500000   0.3333333), wk =   0.0138889
        k(   67) = (   0.2500000   0.2500000   0.4166667), wk =   0.0138889
        k(   68) = (   0.2500000   0.2500000  -0.5000000), wk =   0.0069444
        k(   69) = (   0.2500000   0.3333333   0.3333333), wk =   0.0138889
        k(   70) = (   0.2500000   0.3333333   0.4166667), wk =   0.0277778
        k(   71) = (   0.2500000   0.3333333  -0.5000000), wk =   0.0138889
        k(   72) = (   0.2500000   0.4166667   0.4166667), wk =   0.0138889
        k(   73) = (   0.2500000   0.4166667  -0.5000000), wk =   0.0138889
        k(   74) = (   0.2500000  -0.5000000  -0.5000000), wk =   0.0034722
        k(   75) = (   0.3333333   0.3333333   0.3333333), wk =   0.0046296
        k(   76) = (   0.3333333   0.3333333   0.4166667), wk =   0.0138889
        k(   77) = (   0.3333333   0.3333333  -0.5000000), wk =   0.0069444
        k(   78) = (   0.3333333   0.4166667   0.4166667), wk =   0.0138889
        k(   79) = (   0.3333333   0.4166667  -0.5000000), wk =   0.0138889
        k(   80) = (   0.3333333  -0.5000000  -0.5000000), wk =   0.0034722
        k(   81) = (   0.4166667   0.4166667   0.4166667), wk =   0.0046296
        k(   82) = (   0.4166667   0.4166667  -0.5000000), wk =   0.0069444
        k(   83) = (   0.4166667  -0.5000000  -0.5000000), wk =   0.0034722
        k(   84) = (  -0.5000000  -0.5000000  -0.5000000), wk =   0.0005787

                       cryst. coord.
        k(    1) = (   0.0000000   0.0000000   0.0000000), wk =   0.0005787
        k(    2) = (   0.0000000   0.0000000   0.0833333), wk =   0.0034722
        k(    3) = (   0.0000000   0.0000000   0.1666667), wk =   0.0034722
        k(    4) = (   0.0000000   0.0000000   0.2500000), wk =   0.0034722
        k(    5) = (   0.0000000   0.0000000   0.3333333), wk =   0.0034722
        k(    6) = (   0.0000000   0.0000000   0.4166667), wk =   0.0034722
        k(    7) = (   0.0000000   0.0000000  -0.5000000), wk =   0.0017361
        k(    8) = (   0.0000000   0.0833333   0.0833333), wk =   0.0069444
        k(    9) = (   0.0000000   0.0833333   0.1666667), wk =   0.0138889
        k(   10) = (   0.0000000   0.0833333   0.2500000), wk =   0.0138889
        k(   11) = (   0.0000000   0.0833333   0.3333333), wk =   0.0138889
        k(   12) = (   0.0000000   0.0833333   0.4166667), wk =   0.0138889
        k(   13) = (   0.0000000   0.0833333  -0.5000000), wk =   0.0069444
        k(   14) = (   0.0000000   0.1666667   0.1666667), wk =   0.0069444
        k(   15) = (   0.0000000   0.1666667   0.2500000), wk =   0.0138889
        k(   16) = (   0.0000000   0.1666667   0.3333333), wk =   0.0138889
        k(   17) = (   0.0000000   0.1666667   0.4166667), wk =   0.0138889
        k(   18) = (   0.0000000   0.1666667  -0.5000000), wk =   0.0069444
        k(   19) = (   0.0000000   0.2500000   0.2500000), wk =   0.0069444
        k(   20) = (   0.0000000   0.2500000   0.3333333), wk =   0.0138889
        k(   21) = (   0.0000000   0.2500000   0.4166667), wk =   0.0138889
        k(   22) = (   0.0000000   0.2500000  -0.5000000), wk =   0.0069444
        k(   23) = (   0.0000000   0.3333333   0.3333333), wk =   0.0069444
        k(   24) = (   0.0000000   0.3333333   0.4166667), wk =   0.0138889
        k(   25) = (   0.0000000   0.3333333  -0.5000000), wk =   0.0069444
        k(   26) = (   0.0000000   0.4166667   0.4166667), wk =   0.0069444
        k(   27) = (   0.0000000   0.4166667  -0.5000000), wk =   0.0069444
        k(   28) = (   0.0000000  -0.5000000  -0.5000000), wk =   0.0017361
        k(   29) = (   0.0833333   0.0833333   0.0833333), wk =   0.0046296
        k(   30) = (   0.0833333   0.0833333   0.1666667), wk =   0.0138889
        k(   31) = (   0.0833333   0.0833333   0.2500000), wk =   0.0138889
        k(   32) = (   0.0833333   0.0833333   0.3333333), wk =   0.0138889
        k(   33) = (   0.0833333   0.0833333   0.4166667), wk =   0.0138889
        k(   34) = (   0.0833333   0.0833333  -0.5000000), wk =   0.0069444
        k(   35) = (   0.0833333   0.1666667   0.1666667), wk =   0.0138889
        k(   36) = (   0.0833333   0.1666667   0.2500000), wk =   0.0277778
        k(   37) = (   0.0833333   0.1666667   0.3333333), wk =   0.0277778
        k(   38) = (   0.0833333   0.1666667   0.4166667), wk =   0.0277778
        k(   39) = (   0.0833333   0.1666667  -0.5000000), wk =   0.0138889
        k(   40) = (   0.0833333   0.2500000   0.2500000), wk =   0.0138889
        k(   41) = (   0.0833333   0.2500000   0.3333333), wk =   0.0277778
        k(   42) = (   0.0833333   0.2500000   0.4166667), wk =   0.0277778
        k(   43) = (   0.0833333   0.2500000  -0.5000000), wk =   0.0138889
        k(   44) = (   0.0833333   0.3333333   0.3333333), wk =   0.0138889
        k(   45) = (   0.0833333   0.3333333   0.4166667), wk =   0.0277778
        k(   46) = (   0.0833333   0.3333333  -0.5000000), wk =   0.0138889
        k(   47) = (   0.0833333   0.4166667   0.4166667), wk =   0.0138889
        k(   48) = (   0.0833333   0.4166667  -0.5000000), wk =   0.0138889
        k(   49) = (   0.0833333  -0.5000000  -0.5000000), wk =   0.0034722
        k(   50) = (   0.1666667   0.1666667   0.1666667), wk =   0.0046296
        k(   51) = (   0.1666667   0.1666667   0.2500000), wk =   0.0138889
        k(   52) = (   0.1666667   0.1666667   0.3333333), wk =   0.0138889
        k(   53) = (   0.1666667   0.1666667   0.4166667), wk =   0.0138889
        k(   54) = (   0.1666667   0.1666667  -0.5000000), wk =   0.0069444
        k(   55) = (   0.1666667   0.2500000   0.2500000), wk =   0.0138889
        k(   56) = (   0.1666667   0.2500000   0.3333333), wk =   0.0277778
        k(   57) = (   0.1666667   0.2500000   0.4166667), wk =   0.0277778
        k(   58) = (   0.1666667   0.2500000  -0.5000000), wk =   0.0138889
        k(   59) = (   0.1666667   0.3333333   0.3333333), wk =   0.0138889
        k(   60) = (   0.1666667   0.3333333   0.4166667), wk =   0.0277778
        k(   61) = (   0.1666667   0.3333333  -0.5000000), wk =   0.0138889
        k(   62) = (   0.1666667   0.4166667   0.4166667), wk =   0.0138889
        k(   63) = (   0.1666667   0.4166667  -0.5000000), wk =   0.0138889
        k(   64) = (   0.1666667  -0.5000000  -0.5000000), wk =   0.0034722
        k(   65) = (   0.2500000   0.2500000   0.2500000), wk =   0.0046296
        k(   66) = (   0.2500000   0.2500000   0.3333333), wk =   0.0138889
        k(   67) = (   0.2500000   0.2500000   0.4166667), wk =   0.0138889
        k(   68) = (   0.2500000   0.2500000  -0.5000000), wk =   0.0069444
        k(   69) = (   0.2500000   0.3333333   0.3333333), wk =   0.0138889
        k(   70) = (   0.2500000   0.3333333   0.4166667), wk =   0.0277778
        k(   71) = (   0.2500000   0.3333333  -0.5000000), wk =   0.0138889
        k(   72) = (   0.2500000   0.4166667   0.4166667), wk =   0.0138889
        k(   73) = (   0.2500000   0.4166667  -0.5000000), wk =   0.0138889
        k(   74) = (   0.2500000  -0.5000000  -0.5000000), wk =   0.0034722
        k(   75) = (   0.3333333   0.3333333   0.3333333), wk =   0.0046296
        k(   76) = (   0.3333333   0.3333333   0.4166667), wk =   0.0138889
        k(   77) = (   0.3333333   0.3333333  -0.5000000), wk =   0.0069444
        k(   78) = (   0.3333333   0.4166667   0.4166667), wk =   0.0138889
        k(   79) = (   0.3333333   0.4166667  -0.5000000), wk =   0.0138889
        k(   80) = (   0.3333333  -0.5000000  -0.5000000), wk =   0.0034722
        k(   81) = (   0.4166667   0.4166667   0.4166667), wk =   0.0046296
        k(   82) = (   0.4166667   0.4166667  -0.5000000), wk =   0.0069444
        k(   83) = (   0.4166667  -0.5000000  -0.5000000), wk =   0.0034722
        k(   84) = (  -0.5000000  -0.5000000  -0.5000000), wk =   0.0005787

     Dense  grid:   104199 G-vectors     FFT dimensions: (  60,  60,  60)

     Smooth grid:    67691 G-vectors     FFT dimensions: (  54,  54,  54)

     Dynamical RAM for                 wfc:       0.28 MB

     Dynamical RAM for     wfc (w. buffer):      46.79 MB

     Dynamical RAM for           str. fact:       0.08 MB

     Dynamical RAM for           local pot:       0.00 MB

     Dynamical RAM for          nlocal pot:       0.46 MB

     Dynamical RAM for                qrad:       2.27 MB

     Dynamical RAM for          rho,v,vnew:       0.97 MB

     Dynamical RAM for               rhoin:       0.32 MB

     Dynamical RAM for            rho*nmix:       2.54 MB

     Dynamical RAM for           G-vectors:       0.32 MB

     Dynamical RAM for          h,s,v(r/c):       0.34 MB

     Dynamical RAM for          <psi|beta>:       0.05 MB

     Dynamical RAM for                 psi:       0.55 MB

     Dynamical RAM for                hpsi:       0.55 MB

     Dynamical RAM for                spsi:       0.55 MB

     Dynamical RAM for      wfcinit/wfcrot:       0.60 MB

     Dynamical RAM for           addusdens:      15.19 MB

     Estimated static dynamical RAM per process >      51.88 MB

     Estimated max dynamical RAM per process >      69.61 MB

     Estimated total dynamical RAM >       1.36 GB
     Generating pointlists ...
     new r_m :   0.2917 (alat units)  1.8906 (a.u.) for type    1

     The initial density is read from file :
     out/Ni.save/charge-density


     starting charge      72.6334, renormalised to      72.0000
     Starting wfcs from file
     Checking if some PAW data can be deallocated... 

     total cpu time spent up to now is        1.3 secs

     Self-consistent Calculation

     iteration #  1     ecut=   150.00 Ry     beta= 0.70
     Davidson diagonalization with overlap

---- Real-time Memory Report at c_bands before calling an iterative solver
            93 MiB given to the printing process from OS
             0 MiB allocation reported by mallinfo(arena+hblkhd)
        354801 MiB available memory on the node where the printing process lives
------------------
     ethr =  1.00E-05,  avg # of iterations =  4.1

     total cpu time spent up to now is       14.6 secs

     total energy              =   -1716.56231566 Ry
     estimated scf accuracy    <       0.13110665 Ry

     total magnetization       =     2.37 Bohr mag/cell
     absolute magnetization    =     2.73 Bohr mag/cell

     iteration #  2     ecut=   150.00 Ry     beta= 0.70
     Davidson diagonalization with overlap

---- Real-time Memory Report at c_bands before calling an iterative solver
           122 MiB given to the printing process from OS
             0 MiB allocation reported by mallinfo(arena+hblkhd)
        354316 MiB available memory on the node where the printing process lives
------------------
     ethr =  1.82E-04,  avg # of iterations =  3.4

     total cpu time spent up to now is       25.5 secs

     total energy              =   -1716.55354472 Ry
     estimated scf accuracy    <       0.60938511 Ry

     total magnetization       =     2.77 Bohr mag/cell
     absolute magnetization    =     3.08 Bohr mag/cell

     iteration #  3     ecut=   150.00 Ry     beta= 0.70
     Davidson diagonalization with overlap

---- Real-time Memory Report at c_bands before calling an iterative solver
           123 MiB given to the printing process from OS
             0 MiB allocation reported by mallinfo(arena+hblkhd)
        354312 MiB available memory on the node where the printing process lives
------------------
     ethr =  1.82E-04,  avg # of iterations =  3.1

     total cpu time spent up to now is       35.2 secs

     total energy              =   -1716.64268638 Ry
     estimated scf accuracy    <       0.00129371 Ry

     total magnetization       =     2.59 Bohr mag/cell
     absolute magnetization    =     2.92 Bohr mag/cell

     iteration #  4     ecut=   150.00 Ry     beta= 0.70
     Davidson diagonalization with overlap

---- Real-time Memory Report at c_bands before calling an iterative solver
           124 MiB given to the printing process from OS
             0 MiB allocation reported by mallinfo(arena+hblkhd)
        354306 MiB available memory on the node where the printing process lives
------------------
     ethr =  1.80E-06,  avg # of iterations =  3.1

     total cpu time spent up to now is       45.8 secs

     total energy              =   -1716.64367786 Ry
     estimated scf accuracy    <       0.00124964 Ry

     total magnetization       =     2.58 Bohr mag/cell
     absolute magnetization    =     2.91 Bohr mag/cell

     iteration #  5     ecut=   150.00 Ry     beta= 0.70
     Davidson diagonalization with overlap

---- Real-time Memory Report at c_bands before calling an iterative solver
           124 MiB given to the printing process from OS
             0 MiB allocation reported by mallinfo(arena+hblkhd)
        354301 MiB available memory on the node where the printing process lives
------------------
     ethr =  1.74E-06,  avg # of iterations =  1.0

     total cpu time spent up to now is       52.6 secs

     total energy              =   -1716.64354508 Ry
     estimated scf accuracy    <       0.00048863 Ry

     total magnetization       =     2.59 Bohr mag/cell
     absolute magnetization    =     2.91 Bohr mag/cell

     iteration #  6     ecut=   150.00 Ry     beta= 0.70
     Davidson diagonalization with overlap

---- Real-time Memory Report at c_bands before calling an iterative solver
           125 MiB given to the printing process from OS
             0 MiB allocation reported by mallinfo(arena+hblkhd)
        354294 MiB available memory on the node where the printing process lives
------------------
     ethr =  6.79E-07,  avg # of iterations =  2.0

     total cpu time spent up to now is       60.8 secs

     total energy              =   -1716.64364684 Ry
     estimated scf accuracy    <       0.00001481 Ry

     total magnetization       =     2.61 Bohr mag/cell
     absolute magnetization    =     2.94 Bohr mag/cell

     iteration #  7     ecut=   150.00 Ry     beta= 0.70
     Davidson diagonalization with overlap

---- Real-time Memory Report at c_bands before calling an iterative solver
           125 MiB given to the printing process from OS
             0 MiB allocation reported by mallinfo(arena+hblkhd)
        354290 MiB available memory on the node where the printing process lives
------------------
     ethr =  2.06E-08,  avg # of iterations =  2.1

     total cpu time spent up to now is       68.3 secs

     total energy              =   -1716.64364748 Ry
     estimated scf accuracy    <       0.00000692 Ry

     total magnetization       =     2.62 Bohr mag/cell
     absolute magnetization    =     2.94 Bohr mag/cell

     iteration #  8     ecut=   150.00 Ry     beta= 0.70
     Davidson diagonalization with overlap

---- Real-time Memory Report at c_bands before calling an iterative solver
           126 MiB given to the printing process from OS
             0 MiB allocation reported by mallinfo(arena+hblkhd)
        354290 MiB available memory on the node where the printing process lives
------------------
     ethr =  9.62E-09,  avg # of iterations =  1.1

     total cpu time spent up to now is       75.1 secs

     total energy              =   -1716.64364680 Ry
     estimated scf accuracy    <       0.00000265 Ry

     total magnetization       =     2.61 Bohr mag/cell
     absolute magnetization    =     2.94 Bohr mag/cell

     iteration #  9     ecut=   150.00 Ry     beta= 0.70
     Davidson diagonalization with overlap

---- Real-time Memory Report at c_bands before calling an iterative solver
           126 MiB given to the printing process from OS
             0 MiB allocation reported by mallinfo(arena+hblkhd)
        354282 MiB available memory on the node where the printing process lives
------------------
     ethr =  3.69E-09,  avg # of iterations =  2.0
 
     Magnetic moment per site  (integrated on atomic sphere of radius R)
     atom   1 (R=0.292)  charge= 16.6426  magn=  0.6891
     atom   2 (R=0.292)  charge= 16.6426  magn=  0.6891
     atom   3 (R=0.292)  charge= 16.6426  magn=  0.6891
     atom   4 (R=0.292)  charge= 16.6426  magn=  0.6891

     total cpu time spent up to now is       83.1 secs

     End of self-consistent calculation

 ------ SPIN UP ------------


          k = 0.0000 0.0000 0.0000 (  8385 PWs)   bands (ev):

   -84.0973 -84.0345 -84.0345 -84.0345 -44.5854 -44.5854 -44.5854 -44.4207
   -44.4207 -44.4207 -44.4207 -44.4207 -44.4207 -44.3139 -44.3139 -44.3139
    10.0902  14.5719  14.5720  14.5720  15.0865  15.0865  15.0865  17.0809
    17.0809  17.0809  18.4074  18.4074  19.2104  19.2104  19.2104  19.3029
    19.3029  19.3029  19.3029  19.3029  19.3029  22.1643  22.1643  22.1643
    29.6035  29.6036  29.6036

     occupation numbers 
     1.0000   1.0000   1.0000   1.0000   1.0000   1.0000   1.0000   1.0000
     1.0000   1.0000   1.0000   1.0000   1.0000   1.0000   1.0000   1.0000
     1.0000   1.0000   1.0000   1.0000   1.0000   1.0000   1.0000   1.0000
     1.0000   1.0000   1.0000   1.0000   1.0000   1.0000   1.0000   1.0000
     1.0000   1.0000   1.0000   1.0000   1.0000  -0.0000  -0.0000  -0.0000
    -0.0000  -0.0000  -0.0000

          k = 0.0000 0.0000 0.0833 (  8409 PWs)   bands (ev):

   -84.0962 -84.0356 -84.0345 -84.0345 -44.5826 -44.5826 -44.5810 -44.4235
   -44.4235 -44.4209 -44.4208 -44.4189 -44.4189 -44.3187 -44.3157 -44.3157
    10.1865  14.5816  14.6239  14.6239  15.1175  15.1209  15.1209  17.0436
    17.1093  17.1093  18.3729  18.4206  19.0588  19.0588  19.1654  19.1654
    19.1962  19.2511  19.2511  19.3030  19.3030  21.6828  22.4867  22.4867
    29.6219  29.6220  30.2432

     occupation numbers 
     1.0000   1.0000   1.0000   1.0000   1.0000   1.0000   1.0000   1.0000
     1.0000   1.0000   1.0000   1.0000   1.0000   1.0000   1.0000   1.0000
     1.0000   1.0000   1.0000   1.0000   1.0000   1.0000   1.0000   1.0000
     1.0000   1.0000   1.0000   1.0000   1.0000   1.0000   1.0000   1.0000
     1.0000   1.0000   1.0000   1.0000   1.0000  -0.0000  -0.0000  -0.0000
    -0.0000  -0.0000  -0.0000

          k = 0.0000 0.0000 0.1667 (  8433 PWs)   bands (ev):

   -84.0931 -84.0387 -84.0345 -84.0345 -44.5744 -44.5744 -44.5679 -44.4318
   -44.4318 -44.4213 -44.4212 -44.4136 -44.4136 -44.3328 -44.3210 -44.3210
    10.4725  14.5935  14.7728  14.7729  15.2090  15.2247  15.2247  16.9349
    17.1941  17.1941  18.2733  18.4595  18.5233  18.5233  19.0351  19.0352
    19.1032  19.1032  19.1548  19.3032  19.3032  20.5978  23.2563  23.2563
    29.6792  29.6792  31.8120

     occupation numbers 
     1.0000   1.0000   1.0000   1.0000   1.0000   1.0000   1.0000   1.0000
     1.0000   1.0000   1.0000   1.0000   1.0000   1.0000   1.0000   1.0000
     1.0000   1.0000   1.0000   1.0000   1.0000   1.0000   1.0000   1.0000
     1.0000   1.0000   1.0000   1.0000   1.0000   1.0000   1.0000   1.0000
     1.0000   1.0000   1.0000   1.0000   1.0000  -0.0000  -0.0000  -0.0000
    -0.0000  -0.0000  -0.0000

          k = 0.0000 0.0000 0.2500 (  8465 PWs)   bands (ev):

   -84.0881 -84.0437 -84.0345 -84.0345 -44.5614 -44.5614 -44.5470 -44.4449
   -44.4449 -44.4218 -44.4218 -44.4051 -44.4051 -44.3551 -44.3295 -44.3295
    10.9385  14.5496  14.9959  14.9959  15.3562  15.3986  15.3986  16.7643
    17.3332  17.3332  17.9205  17.9205  18.1218  18.5216  18.8362  18.8362
    18.8800  18.8800  19.0892  19.3035  19.3036  19.4133  24.2472  24.2472
    29.7805  29.7805  32.0446

     occupation numbers 
     1.0000   1.0000   1.0000   1.0000   1.0000   1.0000   1.0000   1.0000
     1.0000   1.0000   1.0000   1.0000   1.0000   1.0000   1.0000   1.0000
     1.0000   1.0000   1.0000   1.0000   1.0000   1.0000   1.0000   1.0000
     1.0000   1.0000   1.0000   1.0000   1.0000   1.0000   1.0000   1.0000
     1.0000   1.0000   1.0000   1.0000   1.0000   1.0000  -0.0000  -0.0000
    -0.0000  -0.0000  -0.0000

          k = 0.0000 0.0000 0.3333 (  8457 PWs)   bands (ev):

   -84.0816 -84.0502 -84.0345 -84.0345 -44.5444 -44.5444 -44.5196 -44.4620
   -44.4620 -44.4223 -44.4223 -44.3940 -44.3940 -44.3839 -44.3406 -44.3406
    11.5653  14.3385  15.2498  15.2498  15.5511  15.6437  15.6437  16.5460
    17.3394  17.3394  17.5228  17.5228  17.9435  18.4473  18.6030  18.6048
    18.6048  18.6084  18.6084  19.0043  19.3039  19.3039  25.3675  25.3675
    29.9276  29.9276  30.6187

     occupation numbers 
     1.0000   1.0000   1.0000   1.0000   1.0000   1.0000   1.0000   1.0000
     1.0000   1.0000   1.0000   1.0000   1.0000   1.0000   1.0000   1.0000
     1.0000   1.0000   1.0000   1.0000   1.0000   1.0000   1.0000   1.0000
     1.0000   1.0000   1.0000   1.0000   1.0000   1.0000   1.0000   1.0000
     1.0000   1.0000   1.0000   1.0000   1.0000   1.0000  -0.0000  -0.0000
    -0.0000  -0.0000  -0.0000

          k = 0.0000 0.0000 0.4167 (  8482 PWs)   bands (ev):

   -84.0740 -84.0578 -84.0345 -84.0345 -44.5246 -44.5246 -44.4874 -44.4820
   -44.4820 -44.4227 -44.4227 -44.4171 -44.3811 -44.3811 -44.3535 -44.3535
    12.3163  13.8489  15.4643  15.4643  15.7827  15.9611  15.9611  16.2974
    16.8121  16.8121  17.7567  17.7567  17.7829  17.8876  18.3157  18.3157
    18.4057  18.4057  18.6985  18.9062  19.3041  19.3041  26.5807  26.5807
    29.2194  29.2194  30.0978

     occupation numbers 
     1.0000   1.0000   1.0000   1.0000   1.0000   1.0000   1.0000   1.0000
     1.0000   1.0000   1.0000   1.0000   1.0000   1.0000   1.0000   1.0000
     1.0000   1.0000   1.0000   1.0000   1.0000   1.0000   1.0000   1.0000
     1.0000   1.0000   1.0000   1.0000   1.0000   1.0000   1.0000   1.0000
     1.0000   1.0000   1.0000   1.0000   1.0000   1.0000  -0.0000  -0.0000
    -0.0000  -0.0000  -0.0000

          k = 0.0000 0.0000-0.5000 (  8466 PWs)   bands (ev):

   -84.0659 -84.0659 -84.0345 -84.0345 -44.5033 -44.5033 -44.5033 -44.5033
   -44.4524 -44.4524 -44.4229 -44.4228 -44.3673 -44.3673 -44.3673 -44.3673
    13.1208  13.1208  15.5512  15.5512  16.0369  16.0369  16.3510  16.3510
    16.3510  16.3510  17.7191  17.7191  18.0256  18.0256  18.0256  18.0256
    18.3242  18.3242  18.8019  18.8019  19.3042  19.3042  27.8689  27.8689
    27.8689  27.8689  30.1897

     occupation numbers 
     1.0000   1.0000   1.0000   1.0000   1.0000   1.0000   1.0000   1.0000
     1.0000   1.0000   1.0000   1.0000   1.0000   1.0000   1.0000   1.0000
     1.0000   1.0000   1.0000   1.0000   1.0000   1.0000   1.0000   1.0000
     1.0000   1.0000   1.0000   1.0000   1.0000   1.0000   1.0000   1.0000
     1.0000   1.0000   1.0000   1.0000   1.0000   1.0000  -0.0000  -0.0000
    -0.0000  -0.0000  -0.0000

          k = 0.0000 0.0833 0.0833 (  8436 PWs)   bands (ev):

   -84.0952 -84.0356 -84.0356 -84.0346 -44.5798 -44.5785 -44.5785 -44.4291
   -44.4217 -44.4217 -44.4189 -44.4189 -44.4180 -44.3260 -44.3175 -44.3149
    10.2823  14.6345  14.6345  14.6746  15.1514  15.1514  15.1546  17.0222
    17.1227  17.1352  18.3631  18.4119  18.8847  18.9761  18.9761  19.1225
    19.1699  19.1699  19.2510  19.2510  19.2701  22.0072  22.0072  22.7722
    29.6374  30.2721  30.2721

     occupation numbers 
     1.0000   1.0000   1.0000   1.0000   1.0000   1.0000   1.0000   1.0000
     1.0000   1.0000   1.0000   1.0000   1.0000   1.0000   1.0000   1.0000
     1.0000   1.0000   1.0000   1.0000   1.0000   1.0000   1.0000   1.0000
     1.0000   1.0000   1.0000   1.0000   1.0000   1.0000   1.0000   1.0000
     1.0000   1.0000   1.0000   1.0000   1.0000  -0.0000  -0.0000  -0.0000
    -0.0000  -0.0000  -0.0000

          k = 0.0000 0.0833 0.1667 (  8446 PWs)   bands (ev):

   -84.0921 -84.0387 -84.0355 -84.0346 -44.5717 -44.5710 -44.5662 -44.4391
   -44.4299 -44.4190 -44.4163 -44.4163 -44.4133 -44.3415 -44.3229 -44.3183
    10.5665  14.6492  14.7862  14.8196  15.2410  15.2532  15.2556  16.9243
    17.1992  17.2115  18.2765  18.4235  18.4339  18.4465  18.7682  18.9979
    19.0397  19.1029  19.1423  19.2509  19.2522  20.9553  22.7515  23.4861
    29.6785  30.3614  31.8532

     occupation numbers 
     1.0000   1.0000   1.0000   1.0000   1.0000   1.0000   1.0000   1.0000
     1.0000   1.0000   1.0000   1.0000   1.0000   1.0000   1.0000   1.0000
     1.0000   1.0000   1.0000   1.0000   1.0000   1.0000   1.0000   1.0000
     1.0000   1.0000   1.0000   1.0000   1.0000   1.0000   1.0000   1.0000
     1.0000   1.0000   1.0000   1.0000   1.0000  -0.0000  -0.0000  -0.0000
    -0.0000  -0.0000  -0.0000

          k = 0.0000 0.0833 0.2500 (  8461 PWs)   bands (ev):

   -84.0872 -84.0436 -84.0354 -84.0347 -44.5592 -44.5587 -44.5465 -44.4524
   -44.4430 -44.4190 -44.4159 -44.4078 -44.4043 -44.3638 -44.3315 -44.3260
    11.0296  14.6097  15.0141  15.0378  15.3853  15.4233  15.4239  16.7600
    17.3332  17.3358  17.8360  17.8657  18.1364  18.4378  18.5149  18.8070
    18.8431  18.8794  19.0660  19.2479  19.2506  19.8829  23.6784  24.4376
    29.6845  30.5153  30.9055

     occupation numbers 
     1.0000   1.0000   1.0000   1.0000   1.0000   1.0000   1.0000   1.0000
     1.0000   1.0000   1.0000   1.0000   1.0000   1.0000   1.0000   1.0000
     1.0000   1.0000   1.0000   1.0000   1.0000   1.0000   1.0000   1.0000
     1.0000   1.0000   1.0000   1.0000   1.0000   1.0000   1.0000   1.0000
     1.0000   1.0000   1.0000   1.0000   1.0000  -0.0000  -0.0000  -0.0000
    -0.0000  -0.0000  -0.0000

          k = 0.0000 0.0833 0.3333 (  8461 PWs)   bands (ev):

   -84.0808 -84.0499 -84.0353 -84.0348 -44.5438 -44.5418 -44.5206 -44.4686
   -44.4600 -44.4189 -44.4163 -44.3966 -44.3926 -44.3918 -44.3427 -44.3370
    11.6521  14.4034  15.2752  15.2901  15.5761  15.6544  15.6642  16.5479
    17.2663  17.3126  17.4802  17.5241  17.9914  18.0020  18.5845  18.6061
    18.6076  18.6129  18.8763  19.1857  19.2473  19.2501  24.6988  25.5321
    29.1508  30.3202  30.7224

     occupation numbers 
     1.0000   1.0000   1.0000   1.0000   1.0000   1.0000   1.0000   1.0000
     1.0000   1.0000   1.0000   1.0000   1.0000   1.0000   1.0000   1.0000
     1.0000   1.0000   1.0000   1.0000   1.0000   1.0000   1.0000   1.0000
     1.0000   1.0000   1.0000   1.0000   1.0000   1.0000   1.0000   1.0000
     1.0000   1.0000   1.0000   1.0000   1.0000   1.0000  -0.0000  -0.0000
    -0.0000  -0.0000  -0.0000

          k = 0.0000 0.0833 0.4167 (  8469 PWs)   bands (ev):

   -84.0733 -84.0574 -84.0351 -84.0349 -44.5259 -44.5221 -44.4902 -44.4870
   -44.4798 -44.4236 -44.4185 -44.4171 -44.3836 -44.3790 -44.3557 -44.3502
    12.3976  13.9184  15.4990  15.5084  15.8027  15.9470  15.9749  16.3055
    16.7538  16.8038  17.5647  17.6576  17.7572  17.9683  18.3151  18.3948
    18.4114  18.4947  18.7138  18.9636  19.2477  19.2494  25.7771  26.7282
    28.0432  29.3476  30.4547

     occupation numbers 
     1.0000   1.0000   1.0000   1.0000   1.0000   1.0000   1.0000   1.0000
     1.0000   1.0000   1.0000   1.0000   1.0000   1.0000   1.0000   1.0000
     1.0000   1.0000   1.0000   1.0000   1.0000   1.0000   1.0000   1.0000
     1.0000   1.0000   1.0000   1.0000   1.0000   1.0000   1.0000   1.0000
     1.0000   1.0000   1.0000   1.0000   1.0000   1.0000  -0.0000  -0.0000
    -0.0000  -0.0000  -0.0000

          k = 0.0000 0.0833-0.5000 (  8472 PWs)   bands (ev):

   -84.0654 -84.0653 -84.0350 -84.0350 -44.5065 -44.5065 -44.5010 -44.5009
   -44.4571 -44.4571 -44.4179 -44.4179 -44.3696 -44.3696 -44.3646 -44.3645
    13.1959  13.1959  15.5945  15.5945  16.0512  16.0512  16.3117  16.3117
    16.3556  16.3556  17.5516  17.5516  18.0254  18.0254  18.1705  18.1705
    18.3227  18.3228  18.8326  18.8326  19.2485  19.2486  26.8960  26.8960
    28.0047  28.0047  30.7299

     occupation numbers 
     1.0000   1.0000   1.0000   1.0000   1.0000   1.0000   1.0000   1.0000
     1.0000   1.0000   1.0000   1.0000   1.0000   1.0000   1.0000   1.0000
     1.0000   1.0000   1.0000   1.0000   1.0000   1.0000   1.0000   1.0000
     1.0000   1.0000   1.0000   1.0000   1.0000   1.0000   1.0000   1.0000
     1.0000   1.0000   1.0000   1.0000   1.0000   1.0000  -0.0000  -0.0000
    -0.0000  -0.0000  -0.0000

          k = 0.0000 0.1667 0.1667 (  8444 PWs)   bands (ev):

   -84.0891 -84.0384 -84.0384 -84.0348 -44.5637 -44.5610 -44.5610 -44.4517
   -44.4244 -44.4244 -44.4124 -44.4124 -44.4104 -44.3594 -44.3285 -44.3179
    10.8454  14.8092  14.8093  14.9534  15.3373  15.3373  15.3481  16.8646
    17.2447  17.2621  18.1264  18.1968  18.1968  18.2451  18.4526  18.8889
    19.0249  19.0249  19.1019  19.1019  19.1728  21.6771  21.6771  24.0992
    29.5806  30.7946  31.9738

     occupation numbers 
     1.0000   1.0000   1.0000   1.0000   1.0000   1.0000   1.0000   1.0000
     1.0000   1.0000   1.0000   1.0000   1.0000   1.0000   1.0000   1.0000
     1.0000   1.0000   1.0000   1.0000   1.0000   1.0000   1.0000   1.0000
     1.0000   1.0000   1.0000   1.0000   1.0000   1.0000   1.0000   1.0000
     1.0000   1.0000   1.0000   1.0000   1.0000  -0.0000  -0.0000  -0.0000
    -0.0000  -0.0000  -0.0000

          k = 0.0000 0.1667 0.2500 (  8462 PWs)   bands (ev):

   -84.0845 -84.0431 -84.0381 -84.0351 -44.5527 -44.5510 -44.5448 -44.4663
   -44.4372 -44.4156 -44.4110 -44.4066 -44.4021 -44.3827 -44.3373 -44.3225
    11.2994  14.7829  15.0517  15.1560  15.4724  15.4983  15.4988  16.7332
    17.3373  17.3597  17.6150  17.6975  17.8629  18.1453  18.5285  18.7200
    18.8378  18.8776  18.9546  19.1003  19.1266  20.5859  22.5144  24.9661
    28.7976  30.2766  32.1430

     occupation numbers 
     1.0000   1.0000   1.0000   1.0000   1.0000   1.0000   1.0000   1.0000
     1.0000   1.0000   1.0000   1.0000   1.0000   1.0000   1.0000   1.0000
     1.0000   1.0000   1.0000   1.0000   1.0000   1.0000   1.0000   1.0000
     1.0000   1.0000   1.0000   1.0000   1.0000   1.0000   1.0000   1.0000
     1.0000   1.0000   1.0000   1.0000   1.0000  -0.0000  -0.0000  -0.0000
    -0.0000  -0.0000  -0.0000

          k = 0.0000 0.1667 0.3333 (  8459 PWs)   bands (ev):

   -84.0784 -84.0491 -84.0376 -84.0355 -44.5417 -44.5344 -44.5233 -44.4819
   -44.4539 -44.4098 -44.4093 -44.4048 -44.4041 -44.3889 -44.3488 -44.3314
    11.9087  14.5909  15.3346  15.4004  15.6507  15.6920  15.7243  16.5464
    17.0777  17.2290  17.4035  17.5225  17.5366  18.0513  18.5219  18.6058
    18.6140  18.6507  18.8012  19.0984  19.1061  19.7567  23.4103  25.9995
    27.5895  30.3957  31.1048

     occupation numbers 
     1.0000   1.0000   1.0000   1.0000   1.0000   1.0000   1.0000   1.0000
     1.0000   1.0000   1.0000   1.0000   1.0000   1.0000   1.0000   1.0000
     1.0000   1.0000   1.0000   1.0000   1.0000   1.0000   1.0000   1.0000
     1.0000   1.0000   1.0000   1.0000   1.0000   1.0000   1.0000   1.0000
     1.0000   1.0000   1.0000   1.0000   1.0000   1.0322  -0.0000  -0.0000
    -0.0000  -0.0000  -0.0000

          k = 0.0000 0.1667 0.4167 (  8465 PWs)   bands (ev):

   -84.0713 -84.0562 -84.0371 -84.0360 -44.5285 -44.5150 -44.4979 -44.4975
   -44.4734 -44.4391 -44.4074 -44.4047 -44.3908 -44.3739 -44.3621 -44.3438
    12.6368  14.1198  15.5886  15.6339  15.8617  15.9095  16.0147  16.3262
    16.6031  16.7765  17.3256  17.3902  17.7631  18.0810  18.3144  18.3564
    18.4104  18.5488  18.8043  19.0967  19.0981  19.2655  24.3538  26.4268
    27.1524  29.7209  30.6973

     occupation numbers 
     1.0000   1.0000   1.0000   1.0000   1.0000   1.0000   1.0000   1.0000
     1.0000   1.0000   1.0000   1.0000   1.0000   1.0000   1.0000   1.0000
     1.0000   1.0000   1.0000   1.0000   1.0000   1.0000   1.0000   1.0000
     1.0000   1.0000   1.0000   1.0000   1.0000   1.0000   1.0000   1.0000
     1.0000   1.0000   1.0000   1.0000   1.0000   1.0000  -0.0000  -0.0000
    -0.0000  -0.0000  -0.0000

          k = 0.0000 0.1667-0.5000 (  8478 PWs)   bands (ev):

   -84.0638 -84.0638 -84.0366 -84.0366 -44.5137 -44.5137 -44.4942 -44.4942
   -44.4689 -44.4689 -44.4057 -44.4057 -44.3765 -44.3764 -44.3584 -44.3584
    13.4153  13.4153  15.7165  15.7165  16.0921  16.0921  16.2048  16.2048
    16.3674  16.3674  17.3178  17.3178  18.0272  18.0272  18.2717  18.2717
    18.3070  18.3070  18.9937  18.9937  19.0960  19.0960  25.3531  25.3531
    28.3985  28.3985  31.1325

     occupation numbers 
     1.0000   1.0000   1.0000   1.0000   1.0000   1.0000   1.0000   1.0000
     1.0000   1.0000   1.0000   1.0000   1.0000   1.0000   1.0000   1.0000
     1.0000   1.0000   1.0000   1.0000   1.0000   1.0000   1.0000   1.0000
     1.0000   1.0000   1.0000   1.0000   1.0000   1.0000   1.0000   1.0000
     1.0000   1.0000   1.0000   1.0000   1.0000   1.0000  -0.0000  -0.0000
    -0.0000  -0.0000  -0.0000

          k = 0.0000 0.2500 0.2500 (  8480 PWs)   bands (ev):

   -84.0802 -84.0423 -84.0423 -84.0358 -44.5417 -44.5417 -44.5386 -44.4813
   -44.4281 -44.4281 -44.4062 -44.3989 -44.3989 -44.3989 -44.3465 -44.3233
    11.7375  15.0477  15.0477  15.3311  15.6174  15.6174  15.6239  16.6568
    17.3300  17.3300  17.3470  17.4242  17.4370  18.0930  18.5817  18.6242
    18.7789  18.7789  18.8753  18.8753  19.0142  21.3378  21.3378  25.7480
    27.4017  30.3561  33.1010

     occupation numbers 
     1.0000   1.0000   1.0000   1.0000   1.0000   1.0000   1.0000   1.0000
     1.0000   1.0000   1.0000   1.0000   1.0000   1.0000   1.0000   1.0000
     1.0000   1.0000   1.0000   1.0000   1.0000   1.0000   1.0000   1.0000
     1.0000   1.0000   1.0000   1.0000   1.0000   1.0000   1.0000   1.0000
     1.0000   1.0000   1.0000   1.0000   1.0000  -0.0000  -0.0000  -0.0000
    -0.0000  -0.0000  -0.0000

          k = 0.0000 0.2500 0.3333 (  8440 PWs)   bands (ev):

   -84.0747 -84.0479 -84.0414 -84.0368 -44.5367 -44.5262 -44.5224 -44.4959
   -44.4443 -44.4319 -44.4161 -44.3955 -44.3936 -44.3840 -44.3584 -44.3290
    12.3232  14.8784  15.3634  15.5443  15.7737  15.7760  15.8195  16.5236
    16.8548  17.0839  17.0954  17.3375  17.5822  18.0269  18.4156  18.5662
    18.6048  18.6416  18.7968  18.8737  18.9410  20.3892  22.1298  26.0888
    26.7116  30.6066  31.6785

     occupation numbers 
     1.0000   1.0000   1.0000   1.0000   1.0000   1.0000   1.0000   1.0000
     1.0000   1.0000   1.0000   1.0000   1.0000   1.0000   1.0000   1.0000
     1.0000   1.0000   1.0000   1.0000   1.0000   1.0000   1.0000   1.0000
     1.0000   1.0000   1.0000   1.0000   1.0000   1.0000   1.0000   1.0000
     1.0000   1.0000   1.0000   1.0000   1.0000  -0.0000  -0.0000  -0.0000
    -0.0000  -0.0000  -0.0000

          k = 0.0000 0.2500 0.4167 (  8439 PWs)   bands (ev):

   -84.0682 -84.0543 -84.0402 -84.0379 -44.5298 -44.5091 -44.5066 -44.5036
   -44.4632 -44.4583 -44.4022 -44.3925 -44.3910 -44.3723 -44.3680 -44.3391
    13.0195  14.4302  15.6636  15.7933  15.8862  15.9570  16.0760  16.3492
    16.4416  16.7245  17.0311  17.2577  17.7876  18.0535  18.2790  18.3175
    18.3661  18.4315  18.8748  18.9010  19.0239  19.7366  22.9733  24.9221
    27.8107  30.3108  30.9860

     occupation numbers 
     1.0000   1.0000   1.0000   1.0000   1.0000   1.0000   1.0000   1.0000
     1.0000   1.0000   1.0000   1.0000   1.0000   1.0000   1.0000   1.0000
     1.0000   1.0000   1.0000   1.0000   1.0000   1.0000   1.0000   1.0000
     1.0000   1.0000   1.0000   1.0000   1.0000   1.0000   1.0000   1.0000
     1.0000   1.0000   1.0000   1.0000   1.0000   1.0008  -0.0000  -0.0000
    -0.0000  -0.0000  -0.0000

          k = 0.0000 0.2500-0.5000 (  8460 PWs)   bands (ev):

   -84.0613 -84.0613 -84.0390 -84.0390 -44.5205 -44.5205 -44.4836 -44.4836
   -44.4834 -44.4834 -44.3908 -44.3908 -44.3873 -44.3873 -44.3526 -44.3525
    13.7600  13.7600  15.8590  15.8590  16.0899  16.0899  16.1541  16.1541
    16.3815  16.3815  17.1221  17.1221  18.0383  18.0383  18.2074  18.2074
    18.2521  18.2521  18.8820  18.8820  19.3168  19.3168  23.8932  23.8932
    29.0166  29.0166  31.5028

     occupation numbers 
     1.0000   1.0000   1.0000   1.0000   1.0000   1.0000   1.0000   1.0000
     1.0000   1.0000   1.0000   1.0000   1.0000   1.0000   1.0000   1.0000
     1.0000   1.0000   1.0000   1.0000   1.0000   1.0000   1.0000   1.0000
     1.0000   1.0000   1.0000   1.0000   1.0000   1.0000   1.0000   1.0000
     1.0000   1.0000   1.0000   1.0000   1.0000   1.0000  -0.0000  -0.0000
    -0.0000  -0.0000  -0.0000

          k = 0.0000 0.3333 0.3333 (  8456 PWs)   bands (ev):

   -84.0698 -84.0462 -84.0462 -84.0384 -44.5281 -44.5281 -44.5082 -44.5069
   -44.4553 -44.4317 -44.4317 -44.3847 -44.3796 -44.3795 -44.3710 -44.3313
    12.8726  15.2216  15.2216  15.6702  15.9204  15.9424  15.9424  16.4621
    16.7314  16.7314  16.8816  17.2721  17.6837  17.9570  18.2794  18.4435
    18.4436  18.6076  18.6076  18.8012  19.0348  21.0650  21.0650  24.7558
    27.6115  30.9315  32.4304

     occupation numbers 
     1.0000   1.0000   1.0000   1.0000   1.0000   1.0000   1.0000   1.0000
     1.0000   1.0000   1.0000   1.0000   1.0000   1.0000   1.0000   1.0000
     1.0000   1.0000   1.0000   1.0000   1.0000   1.0000   1.0000   1.0000
     1.0000   1.0000   1.0000   1.0000   1.0000   1.0000   1.0000   1.0000
     1.0000   1.0000   1.0000   1.0000   1.0000  -0.0000  -0.0000  -0.0000
    -0.0000  -0.0000  -0.0000

          k = 0.0000 0.3333 0.4167 (  8460 PWs)   bands (ev):

   -84.0641 -84.0519 -84.0443 -84.0402 -44.5278 -44.5180 -44.5152 -44.4888
   -44.4779 -44.4499 -44.4171 -44.3857 -44.3789 -44.3766 -44.3636 -44.3382
    13.5178  14.8058  15.5459  15.7586  16.0767  16.0827  16.1511  16.3592
    16.4389  16.6412  16.7966  17.1561  17.8494  17.9513  18.1621  18.2542
    18.2567  18.3311  18.6196  18.7051  19.3409  20.2788  21.8025  23.6094
    28.6571  31.0827  31.3830

     occupation numbers 
     1.0000   1.0000   1.0000   1.0000   1.0000   1.0000   1.0000   1.0000
     1.0000   1.0000   1.0000   1.0000   1.0000   1.0000   1.0000   1.0000
     1.0000   1.0000   1.0000   1.0000   1.0000   1.0000   1.0000   1.0000
     1.0000   1.0000   1.0000   1.0000   1.0000   1.0000   1.0000   1.0000
     1.0000   1.0000   1.0000   1.0000   1.0000  -0.0000  -0.0000  -0.0000
    -0.0000  -0.0000  -0.0000

          k = 0.0000 0.3333-0.5000 (  8438 PWs)   bands (ev):

   -84.0580 -84.0580 -84.0423 -84.0423 -44.5245 -44.5245 -44.4982 -44.4982
   -44.4694 -44.4693 -44.4014 -44.4014 -44.3762 -44.3762 -44.3494 -44.3493
    14.1947  14.1947  15.7452  15.7452  16.2270  16.2270  16.2270  16.2270
    16.3896  16.3897  16.9747  16.9747  18.0657  18.0657  18.0709  18.0710
    18.1429  18.1429  18.6485  18.6485  19.7336  19.7336  22.6366  22.6366
    29.8203  29.8203  31.9769

     occupation numbers 
     1.0000   1.0000   1.0000   1.0000   1.0000   1.0000   1.0000   1.0000
     1.0000   1.0000   1.0000   1.0000   1.0000   1.0000   1.0000   1.0000
     1.0000   1.0000   1.0000   1.0000   1.0000   1.0000   1.0000   1.0000
     1.0000   1.0000   1.0000   1.0000   1.0000   1.0000   1.0000   1.0000
     1.0000   1.0000   1.0000   1.0000   1.0003   1.0003  -0.0000  -0.0000
    -0.0000  -0.0000  -0.0000

          k = 0.0000 0.4167 0.4167 (  8456 PWs)   bands (ev):

   -84.0593 -84.0491 -84.0491 -84.0430 -44.5232 -44.5215 -44.5215 -44.4959
   -44.4715 -44.4344 -44.4344 -44.4012 -44.3696 -44.3620 -44.3619 -44.3419
    14.0873  15.1780  15.1780  15.6527  16.2292  16.2292  16.2980  16.3432
    16.5247  16.6220  16.6221  17.0381  17.8842  17.9652  18.0431  18.0888
    18.0888  18.3652  18.3652  18.5444  19.7333  20.8947  20.8947  22.5131
    29.6543  31.9107  32.0050

     occupation numbers 
     1.0000   1.0000   1.0000   1.0000   1.0000   1.0000   1.0000   1.0000
     1.0000   1.0000   1.0000   1.0000   1.0000   1.0000   1.0000   1.0000
     1.0000   1.0000   1.0000   1.0000   1.0000   1.0000   1.0000   1.0000
     1.0000   1.0000   1.0000   1.0000   1.0000   1.0000   1.0000   1.0000
     1.0000   1.0000   1.0000   1.0000   1.0003  -0.0000  -0.0000  -0.0000
    -0.0000  -0.0000  -0.0000

          k = 0.0000 0.4167-0.5000 (  8454 PWs)   bands (ev):

   -84.0542 -84.0542 -84.0461 -84.0461 -44.5244 -44.5243 -44.5107 -44.5107
   -44.4530 -44.4530 -44.4178 -44.4178 -44.3639 -44.3638 -44.3500 -44.3500
    14.6650  14.6651  15.4702  15.4702  16.2975  16.2975  16.3823  16.3823
    16.4752  16.4752  16.8521  16.8521  17.9367  17.9367  18.0025  18.0025
    18.1402  18.1402  18.4323  18.4323  20.2288  20.2288  21.6221  21.6221
    30.7762  30.7762  32.5845

     occupation numbers 
     1.0000   1.0000   1.0000   1.0000   1.0000   1.0000   1.0000   1.0000
     1.0000   1.0000   1.0000   1.0000   1.0000   1.0000   1.0000   1.0000
     1.0000   1.0000   1.0000   1.0000   1.0000   1.0000   1.0000   1.0000
     1.0000   1.0000   1.0000   1.0000   1.0000   1.0000   1.0000   1.0000
     1.0000   1.0000   1.0000   1.0000  -0.0000  -0.0000  -0.0000  -0.0000
    -0.0000  -0.0000  -0.0000

          k = 0.0000-0.5000-0.5000 (  8476 PWs)   bands (ev):

   -84.0501 -84.0501 -84.0501 -84.0501 -44.5197 -44.5197 -44.5197 -44.5197
   -44.4354 -44.4354 -44.4354 -44.4354 -44.3549 -44.3549 -44.3549 -44.3549
    15.1060  15.1060  15.1060  15.1060  16.3519  16.3519  16.3519  16.3519
    16.6966  16.6966  16.6966  16.6966  17.9082  17.9082  17.9082  17.9083
    18.2593  18.2593  18.2593  18.2593  20.8376  20.8376  20.8376  20.8377
    31.8594  31.8594  31.8594

     occupation numbers 
     1.0000   1.0000   1.0000   1.0000   1.0000   1.0000   1.0000   1.0000
     1.0000   1.0000   1.0000   1.0000   1.0000   1.0000   1.0000   1.0000
     1.0000   1.0000   1.0000   1.0000   1.0000   1.0000   1.0000   1.0000
     1.0000   1.0000   1.0000   1.0000   1.0000   1.0000   1.0000   1.0000
     1.0000   1.0000   1.0000   1.0000  -0.0000  -0.0000  -0.0000  -0.0000
    -0.0000  -0.0000  -0.0000

          k = 0.0833 0.0833 0.0833 (  8436 PWs)   bands (ev):

   -84.0941 -84.0356 -84.0356 -84.0356 -44.5760 -44.5760 -44.5760 -44.4270
   -44.4270 -44.4270 -44.4163 -44.4163 -44.4163 -44.3333 -44.3166 -44.3166
    10.3774  14.6858  14.6858  14.6858  15.1845  15.1845  15.1845  17.0023
    17.1469  17.1469  18.3796  18.3796  18.8124  18.8124  18.8124  19.0652
    19.0652  19.0652  19.2653  19.2653  19.2653  22.2862  22.2862  22.2862
    30.2978  30.2978  30.2978

     occupation numbers 
     1.0000   1.0000   1.0000   1.0000   1.0000   1.0000   1.0000   1.0000
     1.0000   1.0000   1.0000   1.0000   1.0000   1.0000   1.0000   1.0000
     1.0000   1.0000   1.0000   1.0000   1.0000   1.0000   1.0000   1.0000
     1.0000   1.0000   1.0000   1.0000   1.0000   1.0000   1.0000   1.0000
     1.0000   1.0000   1.0000   1.0000   1.0000  -0.0000  -0.0000  -0.0000
    -0.0000  -0.0000  -0.0000

          k = 0.0833 0.0833 0.1667 (  8448 PWs)   bands (ev):

   -84.0911 -84.0386 -84.0356 -84.0356 -44.5687 -44.5687 -44.5645 -44.4365
   -44.4365 -44.4206 -44.4145 -44.4145 -44.4112 -44.3496 -44.3218 -44.3191
    10.6597  14.7026  14.8330  14.8330  15.2726  15.2838  15.2838  16.9135
    17.2125  17.2192  18.2881  18.3417  18.3417  18.4280  18.5966  18.9176
    18.9548  18.9548  19.2344  19.2430  19.2430  21.2316  22.9664  22.9664
    30.3654  30.3654  31.8860

     occupation numbers 
     1.0000   1.0000   1.0000   1.0000   1.0000   1.0000   1.0000   1.0000
     1.0000   1.0000   1.0000   1.0000   1.0000   1.0000   1.0000   1.0000
     1.0000   1.0000   1.0000   1.0000   1.0000   1.0000   1.0000   1.0000
     1.0000   1.0000   1.0000   1.0000   1.0000   1.0000   1.0000   1.0000
     1.0000   1.0000   1.0000   1.0000   1.0000  -0.0000  -0.0000  -0.0000
    -0.0000  -0.0000  -0.0000

          k = 0.0833 0.0833 0.2500 (  8468 PWs)   bands (ev):

   -84.0863 -84.0434 -84.0356 -84.0355 -44.5572 -44.5572 -44.5462 -44.4494
   -44.4493 -44.4138 -44.4138 -44.4106 -44.4030 -44.3722 -44.3300 -44.3263
    11.1196  14.6664  15.0547  15.0547  15.4145  15.4487  15.4487  16.7567
    17.3308  17.3385  17.7871  17.7871  18.1574  18.2454  18.5047  18.7087
    18.7869  18.7870  19.1698  19.2220  19.2220  20.1481  23.8480  23.8480
    30.3198  30.3199  31.1518

     occupation numbers 
     1.0000   1.0000   1.0000   1.0000   1.0000   1.0000   1.0000   1.0000
     1.0000   1.0000   1.0000   1.0000   1.0000   1.0000   1.0000   1.0000
     1.0000   1.0000   1.0000   1.0000   1.0000   1.0000   1.0000   1.0000
     1.0000   1.0000   1.0000   1.0000   1.0000   1.0000   1.0000   1.0000
     1.0000   1.0000   1.0000   1.0000   1.0000  -0.0000  -0.0000  -0.0000
    -0.0000  -0.0000  -0.0000

          k = 0.0833 0.0833 0.3333 (  8463 PWs)   bands (ev):

   -84.0800 -84.0497 -84.0355 -84.0355 -44.5423 -44.5423 -44.5220 -44.4649
   -44.4649 -44.4137 -44.4136 -44.3996 -44.3976 -44.3923 -44.3407 -44.3374
    11.7374  14.4640  15.3130  15.3130  15.6021  15.6740  15.6740  16.5514
    17.2465  17.2465  17.4613  17.5024  17.8289  18.0433  18.4618  18.5767
    18.5767  18.6044  19.0773  19.2112  19.2112  19.3092  24.8342  24.8342
    29.4168  29.4168  31.0267

     occupation numbers 
     1.0000   1.0000   1.0000   1.0000   1.0000   1.0000   1.0000   1.0000
     1.0000   1.0000   1.0000   1.0000   1.0000   1.0000   1.0000   1.0000
     1.0000   1.0000   1.0000   1.0000   1.0000   1.0000   1.0000   1.0000
     1.0000   1.0000   1.0000   1.0000   1.0000   1.0000   1.0000   1.0000
     1.0000   1.0000   1.0000   1.0000   1.0000   1.0000  -0.0000  -0.0000
    -0.0000  -0.0000  -0.0000

          k = 0.0833 0.0833 0.4167 (  8460 PWs)   bands (ev):

   -84.0727 -84.0570 -84.0355 -84.0355 -44.5257 -44.5257 -44.4934 -44.4819
   -44.4819 -44.4302 -44.4138 -44.4137 -44.3826 -44.3798 -44.3531 -44.3513
    12.4766  13.9837  15.5419  15.5419  15.8243  15.9516  15.9516  16.3156
    16.7594  16.7594  17.5030  17.5373  17.7063  18.0837  18.1998  18.3893
    18.3893  18.7199  18.7361  18.9654  19.2064  19.2064  25.8698  25.8698
    28.2609  28.2609  31.3304

     occupation numbers 
     1.0000   1.0000   1.0000   1.0000   1.0000   1.0000   1.0000   1.0000
     1.0000   1.0000   1.0000   1.0000   1.0000   1.0000   1.0000   1.0000
     1.0000   1.0000   1.0000   1.0000   1.0000   1.0000   1.0000   1.0000
     1.0000   1.0000   1.0000   1.0000   1.0000   1.0000   1.0000   1.0000
     1.0000   1.0000   1.0000   1.0000   1.0000   1.0000  -0.0000  -0.0000
    -0.0000  -0.0000  -0.0000

          k = 0.0833 0.0833-0.5000 (  8472 PWs)   bands (ev):

   -84.0648 -84.0648 -84.0355 -84.0355 -44.5143 -44.5143 -44.4934 -44.4934
   -44.4622 -44.4622 -44.4138 -44.4138 -44.3668 -44.3668 -44.3665 -44.3665
    13.2678  13.2678  15.6386  15.6386  16.0675  16.0675  16.2117  16.2117
    16.4237  16.4237  17.4663  17.4663  17.9426  17.9426  18.3113  18.3113
    18.3366  18.3366  18.8432  18.8432  19.2051  19.2051  26.6725  26.6725
    27.4146  27.4146  31.5644

     occupation numbers 
     1.0000   1.0000   1.0000   1.0000   1.0000   1.0000   1.0000   1.0000
     1.0000   1.0000   1.0000   1.0000   1.0000   1.0000   1.0000   1.0000
     1.0000   1.0000   1.0000   1.0000   1.0000   1.0000   1.0000   1.0000
     1.0000   1.0000   1.0000   1.0000   1.0000   1.0000   1.0000   1.0000
     1.0000   1.0000   1.0000   1.0000   1.0000   1.0000  -0.0000  -0.0000
    -0.0000  -0.0000  -0.0000

          k = 0.0833 0.1667 0.1667 (  8454 PWs)   bands (ev):

   -84.0882 -84.0384 -84.0384 -84.0357 -44.5619 -44.5598 -44.5598 -44.4481
   -44.4291 -44.4291 -44.4091 -44.4091 -44.4089 -44.3676 -44.3260 -44.3195
    10.9363  14.8559  14.8559  14.9667  15.3675  15.3675  15.3756  16.8577
    17.2541  17.2643  18.0539  18.1147  18.1147  18.2735  18.4259  18.8053
    18.8235  18.8236  19.2047  19.2128  19.2128  21.8662  21.8662  23.5315
    30.1670  31.0710  31.9089

     occupation numbers 
     1.0000   1.0000   1.0000   1.0000   1.0000   1.0000   1.0000   1.0000
     1.0000   1.0000   1.0000   1.0000   1.0000   1.0000   1.0000   1.0000
     1.0000   1.0000   1.0000   1.0000   1.0000   1.0000   1.0000   1.0000
     1.0000   1.0000   1.0000   1.0000   1.0000   1.0000   1.0000   1.0000
     1.0000   1.0000   1.0000   1.0000   1.0000  -0.0000  -0.0000  -0.0000
    -0.0000  -0.0000  -0.0000

          k = 0.0833 0.1667 0.2500 (  8458 PWs)   bands (ev):

   -84.0836 -84.0430 -84.0382 -84.0359 -44.5522 -44.5513 -44.5452 -44.4612
   -44.4408 -44.4177 -44.4074 -44.4051 -44.4004 -44.3910 -44.3343 -44.3239
    11.3861  14.8290  15.0875  15.1684  15.5024  15.5247  15.5249  16.7341
    17.3354  17.3532  17.5788  17.6340  17.7887  18.1836  18.5089  18.6206
    18.6492  18.7035  19.1483  19.1536  19.1573  20.7358  22.6516  24.3101
    29.0763  30.9362  31.0955

     occupation numbers 
     1.0000   1.0000   1.0000   1.0000   1.0000   1.0000   1.0000   1.0000
     1.0000   1.0000   1.0000   1.0000   1.0000   1.0000   1.0000   1.0000
     1.0000   1.0000   1.0000   1.0000   1.0000   1.0000   1.0000   1.0000
     1.0000   1.0000   1.0000   1.0000   1.0000   1.0000   1.0000   1.0000
     1.0000   1.0000   1.0000   1.0000   1.0000  -0.0000  -0.0000  -0.0000
    -0.0000  -0.0000  -0.0000

          k = 0.0833 0.1667 0.3333 (  8449 PWs)   bands (ev):

   -84.0777 -84.0489 -84.0378 -84.0363 -44.5424 -44.5383 -44.5255 -44.4742
   -44.4552 -44.4177 -44.4059 -44.4035 -44.4031 -44.3889 -44.3452 -44.3328
    11.9893  14.6375  15.3608  15.4127  15.6805  15.7123  15.7358  16.5557
[...]
    -0.0000  -0.0000  -0.0000

          k = 0.2500 0.2500-0.5000 (  8432 PWs)   bands (ev):

   -83.1900 -83.1900 -83.1738 -83.1738 -43.7222 -43.7222 -43.6852 -43.6852
   -43.5842 -43.5842 -43.5320 -43.5320 -43.5143 -43.5143 -43.5137 -43.5136
    14.2347  14.2347  15.8818  15.8818  16.6983  16.6983  17.0873  17.0873
    17.5847  17.5847  17.7384  17.7384  18.2009  18.2009  18.4336  18.4336
    19.7758  19.7758  19.8395  19.8395  19.8797  19.8797  23.5554  23.5554
    26.6785  26.6785  31.4463

     occupation numbers 
     1.0000   1.0000   1.0000   1.0000   1.0000   1.0000   1.0000   1.0000
     1.0000   1.0000   1.0000   1.0000   1.0000   1.0000   1.0000   1.0000
     1.0000   1.0000   1.0000   1.0000   1.0000   1.0000   1.0000   1.0000
     1.0000   1.0000   1.0000   1.0000   1.0000   1.0000   1.0000   1.0000
     0.2484   0.2478  -0.0000  -0.0000  -0.0000  -0.0000  -0.0000  -0.0000
    -0.0000  -0.0000  -0.0000

          k = 0.2500 0.3333 0.3333 (  8443 PWs)   bands (ev):

   -83.1974 -83.1779 -83.1779 -83.1745 -43.7255 -43.7200 -43.7200 -43.6652
   -43.5775 -43.5586 -43.5586 -43.5299 -43.5284 -43.5284 -43.4997 -43.4909
    13.4307  15.4429  15.4429  15.7323  16.7094  16.8012  16.8012  17.3785
    17.6308  17.6308  17.7075  17.9597  17.9972  18.3908  18.3908  18.4104
    19.2849  19.5608  19.9437  19.9585  19.9585  21.7798  21.7798  23.1113
    26.9106  28.4468  28.4468

     occupation numbers 
     1.0000   1.0000   1.0000   1.0000   1.0000   1.0000   1.0000   1.0000
     1.0000   1.0000   1.0000   1.0000   1.0000   1.0000   1.0000   1.0000
     1.0000   1.0000   1.0000   1.0000   1.0000   1.0000   1.0000   1.0000
     1.0000   1.0000   1.0000   1.0000   1.0000   1.0000   1.0000   1.0000
     1.0000   1.0000  -0.0000  -0.0000  -0.0000  -0.0000  -0.0000  -0.0000
    -0.0000  -0.0000  -0.0000

          k = 0.2500 0.3333 0.4167 (  8448 PWs)   bands (ev):

   -83.1927 -83.1826 -83.1770 -83.1753 -43.7305 -43.7277 -43.7157 -43.6871
   -43.5713 -43.5614 -43.5369 -43.5251 -43.5244 -43.5183 -43.5090 -43.4965
    13.9600  15.0142  15.5328  15.6736  16.8709  16.9330  17.0718  17.3847
    17.6562  17.6707  17.7499  17.8495  18.0102  18.2180  18.2933  18.2946
    19.4245  19.8165  19.8669  19.8816  19.8843  20.8207  22.2177  23.0057
    26.5861  27.4908  29.2404

     occupation numbers 
     1.0000   1.0000   1.0000   1.0000   1.0000   1.0000   1.0000   1.0000
     1.0000   1.0000   1.0000   1.0000   1.0000   1.0000   1.0000   1.0000
     1.0000   1.0000   1.0000   1.0000   1.0000   1.0000   1.0000   1.0000
     1.0000   1.0000   1.0000   1.0000   1.0000   1.0000   1.0000   1.0000
     1.0000  -0.0000  -0.0000  -0.0000  -0.0000  -0.0000  -0.0000  -0.0000
    -0.0000  -0.0000  -0.0000

          k = 0.2500 0.3333-0.5000 (  8450 PWs)   bands (ev):

   -83.1876 -83.1876 -83.1762 -83.1762 -43.7313 -43.7313 -43.7044 -43.7044
   -43.5659 -43.5659 -43.5232 -43.5232 -43.5208 -43.5207 -43.5067 -43.5067
    14.5056  14.5056  15.6067  15.6067  16.9578  16.9578  17.2903  17.2903
    17.7259  17.7259  17.7384  17.7384  18.0872  18.0872  18.2512  18.2512
    19.6726  19.6726  19.8490  19.8490  20.1767  20.1767  22.6609  22.6609
    26.8309  26.8309  30.1652

     occupation numbers 
     1.0000   1.0000   1.0000   1.0000   1.0000   1.0000   1.0000   1.0000
     1.0000   1.0000   1.0000   1.0000   1.0000   1.0000   1.0000   1.0000
     1.0000   1.0000   1.0000   1.0000   1.0000   1.0000   1.0000   1.0000
     1.0000   1.0000   1.0000   1.0000   1.0000   1.0000   1.0000   1.0000
     1.0000   1.0000  -0.0000  -0.0000  -0.0000  -0.0000  -0.0000  -0.0000
    -0.0000  -0.0000  -0.0000

          k = 0.2500 0.4167 0.4167 (  8443 PWs)   bands (ev):

   -83.1889 -83.1808 -83.1808 -83.1770 -43.7351 -43.7274 -43.7273 -43.7061
   -43.5604 -43.5432 -43.5432 -43.5181 -43.5180 -43.5141 -43.5141 -43.4979
    14.3736  15.1768  15.1768  15.4981  17.0851  17.2242  17.2242  17.5165
    17.7218  17.7218  17.7869  17.8415  17.9642  18.1332  18.1332  18.1588
    19.4517  19.7778  19.7778  19.8083  20.1404  21.2531  21.2531  22.3936
    26.7830  28.1941  28.1941

     occupation numbers 
     1.0000   1.0000   1.0000   1.0000   1.0000   1.0000   1.0000   1.0000
     1.0000   1.0000   1.0000   1.0000   1.0000   1.0000   1.0000   1.0000
     1.0000   1.0000   1.0000   1.0000   1.0000   1.0000   1.0000   1.0000
     1.0000   1.0000   1.0000   1.0000   1.0000   1.0000   1.0000   1.0000
     1.0000   0.1526   0.1523  -0.0004  -0.0000  -0.0000  -0.0000  -0.0000
    -0.0000  -0.0000  -0.0000

          k = 0.2500 0.4167-0.5000 (  8438 PWs)   bands (ev):

   -83.1848 -83.1848 -83.1789 -83.1789 -43.7341 -43.7341 -43.7200 -43.7199
   -43.5511 -43.5511 -43.5291 -43.5291 -43.5141 -43.5141 -43.5044 -43.5044
    14.7873  14.7873  15.3345  15.3345  17.2236  17.2236  17.4686  17.4686
    17.7362  17.7362  17.8259  17.8259  18.0133  18.0133  18.1019  18.1019
    19.5998  19.5998  19.7520  19.7520  20.5767  20.5767  21.7767  21.7767
    27.3608  27.3608  29.0548

     occupation numbers 
     1.0000   1.0000   1.0000   1.0000   1.0000   1.0000   1.0000   1.0000
     1.0000   1.0000   1.0000   1.0000   1.0000   1.0000   1.0000   1.0000
     1.0000   1.0000   1.0000   1.0000   1.0000   1.0000   1.0000   1.0000
     1.0000   1.0000   1.0000   1.0000   1.0000   1.0000   1.0000   1.0000
     1.0000   1.0000   1.0304   1.0304  -0.0000  -0.0000  -0.0000  -0.0000
    -0.0000  -0.0000  -0.0000

          k = 0.2500-0.5000-0.5000 (  8440 PWs)   bands (ev):

   -83.1819 -83.1819 -83.1819 -83.1819 -43.7302 -43.7302 -43.7302 -43.7302
   -43.5391 -43.5391 -43.5391 -43.5391 -43.5072 -43.5071 -43.5071 -43.5071
    15.0636  15.0636  15.0636  15.0636  17.4291  17.4291  17.4291  17.4291
    17.8174  17.8174  17.8174  17.8174  18.0099  18.0099  18.0100  18.0100
    19.6361  19.6361  19.6361  19.6361  21.0825  21.0825  21.0825  21.0825
    28.1168  28.1168  28.1168

     occupation numbers 
     1.0000   1.0000   1.0000   1.0000   1.0000   1.0000   1.0000   1.0000
     1.0000   1.0000   1.0000   1.0000   1.0000   1.0000   1.0000   1.0000
     1.0000   1.0000   1.0000   1.0000   1.0000   1.0000   1.0000   1.0000
     1.0000   1.0000   1.0000   1.0000   1.0000   1.0000   1.0000   1.0000
     1.0000   1.0000   1.0000   1.0000  -0.0000  -0.0000  -0.0000  -0.0000
    -0.0000  -0.0000  -0.0000

          k = 0.3333 0.3333 0.3333 (  8426 PWs)   bands (ev):

   -83.1940 -83.1778 -83.1778 -83.1778 -43.7325 -43.7325 -43.7325 -43.6889
   -43.5506 -43.5506 -43.5506 -43.5242 -43.5242 -43.5242 -43.4966 -43.4966
    13.8068  15.4093  15.4093  15.4093  16.9871  16.9872  16.9872  17.5378
    17.7867  17.7868  17.7868  17.9239  17.9239  18.2193  18.2193  18.2193
    19.5209  19.5209  19.9851  19.9851  19.9851  21.9072  21.9072  21.9072
    27.4006  27.4006  27.4006

     occupation numbers 
     1.0000   1.0000   1.0000   1.0000   1.0000   1.0000   1.0000   1.0000
     1.0000   1.0000   1.0000   1.0000   1.0000   1.0000   1.0000   1.0000
     1.0000   1.0000   1.0000   1.0000   1.0000   1.0000   1.0000   1.0000
     1.0000   1.0000   1.0000   1.0000   1.0000   1.0000   1.0000   1.0000
     1.0000   1.0000  -0.0000  -0.0000  -0.0000  -0.0000  -0.0000  -0.0000
    -0.0000  -0.0000  -0.0000

          k = 0.3333 0.3333 0.4167 (  8438 PWs)   bands (ev):

   -83.1901 -83.1817 -83.1778 -83.1778 -43.7408 -43.7408 -43.7320 -43.7092
   -43.5468 -43.5468 -43.5279 -43.5200 -43.5200 -43.5175 -43.5032 -43.5002
    14.2234  15.0438  15.3780  15.3780  17.1415  17.1415  17.2844  17.6605
    17.8389  17.8491  17.9110  17.9264  17.9264  18.0643  18.1134  18.1134
    19.6539  19.7214  19.9399  19.9399  19.9619  20.8668  22.0247  22.0247
    26.7229  26.7229  28.0927

     occupation numbers 
     1.0000   1.0000   1.0000   1.0000   1.0000   1.0000   1.0000   1.0000
     1.0000   1.0000   1.0000   1.0000   1.0000   1.0000   1.0000   1.0000
     1.0000   1.0000   1.0000   1.0000   1.0000   1.0000   1.0000   1.0000
     1.0000   1.0000   1.0000   1.0000   1.0000   1.0000   1.0000   1.0000
     1.0000   1.0000  -0.0000  -0.0000  -0.0000  -0.0000  -0.0000  -0.0000
    -0.0000  -0.0000  -0.0000

          k = 0.3333 0.3333-0.5000 (  8444 PWs)   bands (ev):

   -83.1859 -83.1859 -83.1778 -83.1778 -43.7437 -43.7436 -43.7240 -43.7239
   -43.5457 -43.5457 -43.5183 -43.5183 -43.5108 -43.5108 -43.5104 -43.5103
    14.6442  14.6442  15.3657  15.3657  17.1989  17.1989  17.5482  17.5482
    17.8458  17.8458  17.9589  17.9589  17.9949  17.9949  18.0717  18.0717
    19.8721  19.8721  19.9074  19.9074  20.0938  20.0938  22.0736  22.0736
    26.4860  26.4861  28.9448

     occupation numbers 
     1.0000   1.0000   1.0000   1.0000   1.0000   1.0000   1.0000   1.0000
     1.0000   1.0000   1.0000   1.0000   1.0000   1.0000   1.0000   1.0000
     1.0000   1.0000   1.0000   1.0000   1.0000   1.0000   1.0000   1.0000
     1.0000   1.0000   1.0000   1.0000   1.0000   1.0000   1.0000   1.0000
    -0.0000  -0.0000  -0.0000  -0.0000  -0.0000  -0.0000  -0.0000  -0.0000
    -0.0000  -0.0000  -0.0000

          k = 0.3333 0.4167 0.4167 (  8433 PWs)   bands (ev):

   -83.1871 -83.1808 -83.1808 -83.1788 -43.7483 -43.7436 -43.7436 -43.7270
   -43.5371 -43.5277 -43.5277 -43.5151 -43.5135 -43.5135 -43.5078 -43.5008
    14.5059  15.0836  15.0836  15.2460  17.3278  17.4179  17.4179  17.7885
    17.8474  17.9627  17.9627  17.9755  17.9881  18.0702  18.0702  18.1349
    19.6666  19.9172  19.9212  19.9212  19.9455  21.0552  21.0552  21.7050
    26.4552  27.2153  27.2153

     occupation numbers 
     1.0000   1.0000   1.0000   1.0000   1.0000   1.0000   1.0000   1.0000
     1.0000   1.0000   1.0000   1.0000   1.0000   1.0000   1.0000   1.0000
     1.0000   1.0000   1.0000   1.0000   1.0000   1.0000   1.0000   1.0000
     1.0000   1.0000   1.0000   1.0000   1.0000   1.0000   1.0000   1.0000
     1.0000  -0.0000  -0.0000  -0.0000  -0.0000  -0.0000  -0.0000  -0.0000
    -0.0000  -0.0000  -0.0000

          k = 0.3333 0.4167-0.5000 (  8418 PWs)   bands (ev):

   -83.1840 -83.1839 -83.1798 -83.1798 -43.7493 -43.7493 -43.7389 -43.7389
   -43.5312 -43.5312 -43.5155 -43.5155 -43.5123 -43.5123 -43.5060 -43.5060
    14.7934  14.7934  15.1480  15.1480  17.4305  17.4305  17.6478  17.6478
    17.8755  17.8755  17.9365  17.9365  18.1105  18.1105  18.2037  18.2037
    19.8060  19.8060  19.8832  19.8832  20.3317  20.3317  21.3508  21.3508
    26.6485  26.6485  27.9384

     occupation numbers 
     1.0000   1.0000   1.0000   1.0000   1.0000   1.0000   1.0000   1.0000
     1.0000   1.0000   1.0000   1.0000   1.0000   1.0000   1.0000   1.0000
     1.0000   1.0000   1.0000   1.0000   1.0000   1.0000   1.0000   1.0000
     1.0000   1.0000   1.0000   1.0000   1.0000   1.0000   1.0000   1.0000
    -0.0010  -0.0010  -0.0000  -0.0000  -0.0000  -0.0000  -0.0000  -0.0000
    -0.0000  -0.0000  -0.0000

          k = 0.3333-0.5000-0.5000 (  8444 PWs)   bands (ev):

   -83.1819 -83.1819 -83.1819 -83.1818 -43.7476 -43.7476 -43.7476 -43.7476
   -43.5220 -43.5219 -43.5219 -43.5219 -43.5071 -43.5071 -43.5071 -43.5071
    14.9586  14.9586  14.9586  14.9586  17.5963  17.5963  17.5963  17.5963
    17.8630  17.8630  17.8630  17.8630  18.2789  18.2789  18.2789  18.2789
    19.8054  19.8054  19.8054  19.8054  20.7389  20.7389  20.7389  20.7389
    27.1618  27.1618  27.1618

     occupation numbers 
     1.0000   1.0000   1.0000   1.0000   1.0000   1.0000   1.0000   1.0000
     1.0000   1.0000   1.0000   1.0000   1.0000   1.0000   1.0000   1.0000
     1.0000   1.0000   1.0000   1.0000   1.0000   1.0000   1.0000   1.0000
     1.0000   1.0000   1.0000   1.0000   1.0000   1.0000   1.0000   1.0000
    -0.0012  -0.0012  -0.0012  -0.0012  -0.0000  -0.0000  -0.0000  -0.0000
    -0.0000  -0.0000  -0.0000

          k = 0.4167 0.4167 0.4167 (  8411 PWs)   bands (ev):

   -83.1851 -83.1808 -83.1808 -83.1807 -43.7542 -43.7542 -43.7542 -43.7430
   -43.5192 -43.5192 -43.5192 -43.5117 -43.5117 -43.5116 -43.5043 -43.5043
    14.6536  15.0187  15.0187  15.0187  17.5515  17.5515  17.5515  17.7900
    17.7900  17.8634  17.8634  17.8634  18.4149  18.4149  18.4149  18.4221
    19.8313  19.8313  19.9611  19.9611  19.9611  20.8598  20.8598  20.8598
    26.6085  26.6085  26.6085

     occupation numbers 
     1.0000   1.0000   1.0000   1.0000   1.0000   1.0000   1.0000   1.0000
     1.0000   1.0000   1.0000   1.0000   1.0000   1.0000   1.0000   1.0000
     1.0000   1.0000   1.0000   1.0000   1.0000   1.0000   1.0000   1.0000
     1.0000   1.0000   1.0000   1.0000   1.0000   1.0000   1.0000   1.0000
    -0.0000  -0.0000  -0.0000  -0.0000  -0.0000  -0.0000  -0.0000  -0.0000
    -0.0000  -0.0000  -0.0000

          k = 0.4167 0.4167-0.5000 (  8420 PWs)   bands (ev):

   -83.1829 -83.1829 -83.1808 -83.1807 -43.7578 -43.7578 -43.7523 -43.7523
   -43.5174 -43.5174 -43.5099 -43.5099 -43.5081 -43.5081 -43.5080 -43.5079
    14.8222  14.8222  14.9957  14.9957  17.6005  17.6005  17.7104  17.7105
    17.7955  17.7956  17.8239  17.8239  18.5860  18.5860  18.5941  18.5941
    19.9322  19.9322  19.9401  19.9401  20.1221  20.1221  20.7791  20.7791
    26.4040  26.4040  27.1024

     occupation numbers 
     1.0000   1.0000   1.0000   1.0000   1.0000   1.0000   1.0000   1.0000
     1.0000   1.0000   1.0000   1.0000   1.0000   1.0000   1.0000   1.0000
     1.0000   1.0000   1.0000   1.0000   1.0000   1.0000   1.0000   1.0000
     1.0000   1.0000   1.0000   1.0000   1.0000   1.0000   1.0000   1.0000
    -0.0000  -0.0000  -0.0000  -0.0000  -0.0000  -0.0000  -0.0000  -0.0000
    -0.0000  -0.0000  -0.0000

          k = 0.4167-0.5000-0.5000 (  8420 PWs)   bands (ev):

   -83.1818 -83.1818 -83.1818 -83.1818 -43.7589 -43.7588 -43.7588 -43.7588
   -43.5109 -43.5109 -43.5109 -43.5109 -43.5071 -43.5071 -43.5071 -43.5071
    14.8871  14.8871  14.8871  14.8871  17.7019  17.7019  17.7019  17.7019
    17.7698  17.7698  17.7698  17.7698  18.8208  18.8208  18.8209  18.8209
    19.9148  19.9148  19.9148  19.9148  20.2840  20.2840  20.2840  20.2840
    26.5772  26.5772  26.5772

     occupation numbers 
     1.0000   1.0000   1.0000   1.0000   1.0000   1.0000   1.0000   1.0000
     1.0000   1.0000   1.0000   1.0000   1.0000   1.0000   1.0000   1.0000
     1.0000   1.0000   1.0000   1.0000   1.0000   1.0000   1.0000   1.0000
     1.0000   1.0000   1.0000   1.0000   1.0000   1.0000   1.0000   1.0000
    -0.0000  -0.0000  -0.0000  -0.0000  -0.0000  -0.0000  -0.0000  -0.0000
    -0.0000  -0.0000  -0.0000

          k =-0.5000-0.5000-0.5000 (  8480 PWs)   bands (ev):

   -83.1818 -83.1818 -83.1818 -83.1818 -43.7628 -43.7627 -43.7627 -43.7627
   -43.5071 -43.5071 -43.5071 -43.5071 -43.5071 -43.5071 -43.5071 -43.5071
    14.8619  14.8619  14.8619  14.8619  17.7380  17.7380  17.7380  17.7380
    17.7380  17.7380  17.7380  17.7380  19.1824  19.1824  19.1824  19.1824
    19.9526  19.9526  19.9526  19.9526  19.9526  19.9526  19.9526  19.9526
    26.3820  26.3820  26.3820

     occupation numbers 
     1.0000   1.0000   1.0000   1.0000   1.0000   1.0000   1.0000   1.0000
     1.0000   1.0000   1.0000   1.0000   1.0000   1.0000   1.0000   1.0000
     1.0000   1.0000   1.0000   1.0000   1.0000   1.0000   1.0000   1.0000
     1.0000   1.0000   1.0000   1.0000   1.0000   1.0000   1.0000   1.0000
    -0.0000  -0.0000  -0.0000  -0.0000  -0.0000  -0.0000  -0.0000  -0.0000
    -0.0000  -0.0000  -0.0000

     the Fermi energy is    19.7715 ev

!    total energy              =   -1716.64364728 Ry
     total all-electron energy =    -12166.372077 Ry
     estimated scf accuracy    <       0.00000001 Ry
     smearing contrib. (-TS)   =      -0.00000294 Ry
     internal energy E=F+TS    =   -1716.64364434 Ry

     The total energy is F=E-TS. E is the sum of the following terms:
     one-electron contribution =    -702.46869024 Ry
     hartree contribution      =     404.50084052 Ry
     xc contribution           =    -137.55816779 Ry
     ewald contribution        =    -916.72334230 Ry
     one-center paw contrib.   =    -364.39428454 Ry
      -> PAW hartree energy AE =     268.23105282 Ry
      -> PAW hartree energy PS =    -266.53935457 Ry
      -> PAW xc energy AE      =    -125.62382794 Ry
      -> PAW xc energy PS      =      32.83356456 Ry
      -> total E_H with PAW    =     406.19253878 Ry
      -> total E_XC with PAW   =    -230.34843117 Ry

     total magnetization       =     2.61 Bohr mag/cell
     absolute magnetization    =     2.94 Bohr mag/cell

     convergence has been achieved in   9 iterations

     Writing all to output data dir out/Ni.save/
 
     init_run     :      0.92s CPU      1.21s WALL (       1 calls)
     electrons    :     80.23s CPU     81.81s WALL (       1 calls)

     Called by init_run:
     wfcinit      :      0.63s CPU      0.88s WALL (       1 calls)
     potinit      :      0.15s CPU      0.18s WALL (       1 calls)
     hinit0       :      0.06s CPU      0.07s WALL (       1 calls)

     Called by electrons:
     c_bands      :     68.86s CPU     70.18s WALL (       9 calls)
     sum_band     :      9.94s CPU     10.13s WALL (       9 calls)
     v_of_rho     :      0.12s CPU      0.12s WALL (      10 calls)
     v_h          :      0.00s CPU      0.00s WALL (      10 calls)
     v_xc         :      0.11s CPU      0.11s WALL (      10 calls)
     newd         :      0.19s CPU      0.20s WALL (      10 calls)
     PAW_pot      :      1.24s CPU      1.30s WALL (      10 calls)
     mix_rho      :      0.02s CPU      0.02s WALL (       9 calls)

     Called by c_bands:
     init_us_2    :      0.56s CPU      0.61s WALL (    3024 calls)
     init_us_2:cp :      0.56s CPU      0.60s WALL (    3024 calls)
     cegterg      :     65.51s CPU     66.59s WALL (    1512 calls)

     Called by sum_band:
     sum_band:wei :      0.06s CPU      0.07s WALL (       9 calls)
     sum_band:loo :      9.49s CPU      9.68s WALL (       9 calls)
     sum_band:buf :      0.12s CPU      0.12s WALL (    1512 calls)
     sum_band:ini :      0.23s CPU      0.24s WALL (    1512 calls)
     sum_band:cal :      0.56s CPU      0.56s WALL (    1512 calls)
     sum_band:bec :      0.06s CPU      0.05s WALL (    1512 calls)
     addusdens    :      0.33s CPU      0.34s WALL (       9 calls)
                                        0.00s GPU  (       9 calls)
     addusd:skk   :      0.00s CPU      0.00s WALL (       9 calls)
                                        0.00s GPU  (       9 calls)

     Called by *egterg:
     cdiaghg      :     10.24s CPU     10.28s WALL (    5025 calls)
     cegterg:over :      2.59s CPU      2.65s WALL (    3681 calls)
     cegterg:upda :      1.07s CPU      1.07s WALL (    3681 calls)
     cegterg:last :      2.14s CPU      2.14s WALL (    3296 calls)
     h_psi        :     46.77s CPU     47.67s WALL (    5193 calls)
     s_psi        :      1.04s CPU      1.05s WALL (    5193 calls)
     g_psi        :      0.16s CPU      0.17s WALL (    3681 calls)

     Called by h_psi:
     h_psi:calbec :      1.96s CPU      1.98s WALL (    5193 calls)
     vloc_psi     :     43.34s CPU     44.17s WALL (    5193 calls)
     add_vuspsi   :      1.19s CPU      1.20s WALL (    5193 calls)

     General routines
     calbec       :      2.50s CPU      2.52s WALL (    6705 calls)
     fft          :      0.07s CPU      0.07s WALL (     244 calls)
     ffts         :      0.01s CPU      0.01s WALL (      38 calls)
     fftw         :     48.81s CPU     48.89s WALL (  411470 calls)
     interpolate  :      0.01s CPU      0.01s WALL (      20 calls)
 
     Parallel routines

     PAW routines
     PAW_pot      :      1.24s CPU      1.30s WALL (      10 calls)
     PAW_symme    :      0.02s CPU      0.02s WALL (      18 calls)
 
     PWSCF        :   1m21.94s CPU   1m26.67s WALL

 
   This run was terminated on:   5:31:50  22Mar2024            

=------------------------------------------------------------------------------=
   JOB DONE.
=------------------------------------------------------------------------------=
