
     Program PWSCF v.7.2 starts on 22Mar2024 at  5:35: 0 

     This program is part of the open-source Quantum ESPRESSO suite
     for quantum simulation of materials; please cite
         "P. Giannozzi et al., J. Phys.:Condens. Matter 21 395502 (2009);
         "P. Giannozzi et al., J. Phys.:Condens. Matter 29 465901 (2017);
         "P. Giannozzi et al., J. Chem. Phys. 152 154105 (2020);
          URL http://www.quantum-espresso.org", 
     in publications or presentations arising from this work. More details at
     http://www.quantum-espresso.org/quote

     Parallel version (MPI), running on    20 processors

     MPI processes distributed on     1 nodes
     356176 MiB available memory on the printing compute node when the environment starts
 
     Waiting for input...
     Reading input from standard input

     Current dimensions of program PWSCF are:
     Max number of different atomic species (ntypx) = 10
     Max number of k-points (npk) = 120000
     Max angular momentum in pseudopotentials (lmaxx) =  4
     file Ni.pbe-spn-kjpaw_psl.1.0.0.UPF: wavefunction(s)  3P 3D renormalized
     Found identity + (  0.0000 -0.5000 -0.5000) symmetry
     This is a supercell, fractional translations are disabled
 
     R & G space division:  proc/nbgrp/npool/nimage =      20
     Subspace diagonalization in iterative solution of the eigenvalue problem:
     a serial algorithm will be used

 
     Parallelization info
     --------------------
     sticks:   dense  smooth     PW     G-vecs:    dense   smooth      PW
     Min         136     101     29                 5346     3461     531
     Max         137     102     31                 5350     3464     533
     Sum        2733    2029    593               106959    69239   10635
 
     Using Slab Decomposition
 


     bravais-lattice index     =            1
     lattice parameter (alat)  =       6.5385  a.u.
     unit-cell volume          =     279.5277 (a.u.)^3
     number of atoms/cell      =            4
     number of atomic types    =            1
     number of electrons       =        72.00
     number of Kohn-Sham states=           43
     kinetic-energy cutoff     =     150.0000  Ry
     charge density cutoff     =     800.0000  Ry
     scf convergence threshold =      8.0E-08
     mixing beta               =       0.7000
     number of iterations used =            8  plain     mixing
     Exchange-correlation= SLA  PW   PBX  PBC
                           (   1   4   3   4   0   0   0)

     celldm(1)=   6.538452  celldm(2)=   0.000000  celldm(3)=   0.000000
     celldm(4)=   0.000000  celldm(5)=   0.000000  celldm(6)=   0.000000

     crystal axes: (cart. coord. in units of alat)
               a(1) = (   1.000000   0.000000   0.000000 )  
               a(2) = (   0.000000   1.000000   0.000000 )  
               a(3) = (   0.000000   0.000000   1.000000 )  

     reciprocal axes: (cart. coord. in units 2 pi/alat)
               b(1) = (  1.000000  0.000000  0.000000 )  
               b(2) = (  0.000000  1.000000  0.000000 )  
               b(3) = (  0.000000  0.000000  1.000000 )  


     PseudoPot. # 1 for Ni read from file:
     /truba/home/amuhaymin/ZnS/pseudo/QE/Ni.pbe-spn-kjpaw_psl.1.0.0.UPF
     MD5 check sum: 6e86b733589c3ad8389697b807d86aa7
     Pseudo is Projector augmented-wave + core cor, Zval = 18.0
     Generated using &quot;atomic&quot; code by A. Dal Corso  v.6.3
     Shape of augmentation charge: PSQ
     Using radial grid of 1195 points,  6 beta functions with: 
                l(1) =   0
                l(2) =   0
                l(3) =   1
                l(4) =   1
                l(5) =   2
                l(6) =   2
     Q(r) pseudized with 0 coefficients 


     atomic species   valence    mass     pseudopotential
        Ni            18.00    58.69340     Ni( 1.00)

     Starting magnetic structure 
     atomic species   magnetization
        Ni           0.278

     48 Sym. Ops., with inversion, found


                                    s                        frac. trans.

      isym =  1     identity                                     

 cryst.   s( 1) = (     1          0          0      )
                  (     0          1          0      )
                  (     0          0          1      )

 cart.    s( 1) = (  1.0000000  0.0000000  0.0000000 )
                  (  0.0000000  1.0000000  0.0000000 )
                  (  0.0000000  0.0000000  1.0000000 )


      isym =  2     180 deg rotation - cart. axis [0,0,1]        

 cryst.   s( 2) = (    -1          0          0      )
                  (     0         -1          0      )
                  (     0          0          1      )

 cart.    s( 2) = ( -1.0000000  0.0000000  0.0000000 )
                  (  0.0000000 -1.0000000  0.0000000 )
                  (  0.0000000  0.0000000  1.0000000 )


      isym =  3     180 deg rotation - cart. axis [0,1,0]        

 cryst.   s( 3) = (    -1          0          0      )
                  (     0          1          0      )
                  (     0          0         -1      )

 cart.    s( 3) = ( -1.0000000  0.0000000  0.0000000 )
                  (  0.0000000  1.0000000  0.0000000 )
                  (  0.0000000  0.0000000 -1.0000000 )


      isym =  4     180 deg rotation - cart. axis [1,0,0]        

 cryst.   s( 4) = (     1          0          0      )
                  (     0         -1          0      )
                  (     0          0         -1      )

 cart.    s( 4) = (  1.0000000  0.0000000  0.0000000 )
                  (  0.0000000 -1.0000000  0.0000000 )
                  (  0.0000000  0.0000000 -1.0000000 )


      isym =  5     180 deg rotation - cart. axis [1,1,0]        

 cryst.   s( 5) = (     0          1          0      )
                  (     1          0          0      )
                  (     0          0         -1      )

 cart.    s( 5) = (  0.0000000  1.0000000  0.0000000 )
                  (  1.0000000  0.0000000  0.0000000 )
                  (  0.0000000  0.0000000 -1.0000000 )


      isym =  6     180 deg rotation - cart. axis [1,-1,0]       

 cryst.   s( 6) = (     0         -1          0      )
                  (    -1          0          0      )
                  (     0          0         -1      )

 cart.    s( 6) = (  0.0000000 -1.0000000  0.0000000 )
                  ( -1.0000000  0.0000000  0.0000000 )
                  (  0.0000000  0.0000000 -1.0000000 )


      isym =  7      90 deg rotation - cart. axis [0,0,-1]       

 cryst.   s( 7) = (     0         -1          0      )
                  (     1          0          0      )
                  (     0          0          1      )

 cart.    s( 7) = (  0.0000000  1.0000000  0.0000000 )
                  ( -1.0000000  0.0000000  0.0000000 )
                  (  0.0000000  0.0000000  1.0000000 )


      isym =  8      90 deg rotation - cart. axis [0,0,1]        

 cryst.   s( 8) = (     0          1          0      )
                  (    -1          0          0      )
                  (     0          0          1      )

 cart.    s( 8) = (  0.0000000 -1.0000000  0.0000000 )
                  (  1.0000000  0.0000000  0.0000000 )
                  (  0.0000000  0.0000000  1.0000000 )


      isym =  9     180 deg rotation - cart. axis [1,0,1]        

 cryst.   s( 9) = (     0          0          1      )
                  (     0         -1          0      )
                  (     1          0          0      )

 cart.    s( 9) = (  0.0000000  0.0000000  1.0000000 )
                  (  0.0000000 -1.0000000  0.0000000 )
                  (  1.0000000  0.0000000  0.0000000 )


      isym = 10     180 deg rotation - cart. axis [-1,0,1]       

 cryst.   s(10) = (     0          0         -1      )
                  (     0         -1          0      )
                  (    -1          0          0      )

 cart.    s(10) = (  0.0000000  0.0000000 -1.0000000 )
                  (  0.0000000 -1.0000000  0.0000000 )
                  ( -1.0000000  0.0000000  0.0000000 )


      isym = 11      90 deg rotation - cart. axis [0,1,0]        

 cryst.   s(11) = (     0          0         -1      )
                  (     0          1          0      )
                  (     1          0          0      )

 cart.    s(11) = (  0.0000000  0.0000000  1.0000000 )
                  (  0.0000000  1.0000000  0.0000000 )
                  ( -1.0000000  0.0000000  0.0000000 )


      isym = 12      90 deg rotation - cart. axis [0,-1,0]       

 cryst.   s(12) = (     0          0          1      )
                  (     0          1          0      )
                  (    -1          0          0      )

 cart.    s(12) = (  0.0000000  0.0000000 -1.0000000 )
                  (  0.0000000  1.0000000  0.0000000 )
                  (  1.0000000  0.0000000  0.0000000 )


      isym = 13     180 deg rotation - cart. axis [0,1,1]        

 cryst.   s(13) = (    -1          0          0      )
                  (     0          0          1      )
                  (     0          1          0      )

 cart.    s(13) = ( -1.0000000  0.0000000  0.0000000 )
                  (  0.0000000  0.0000000  1.0000000 )
                  (  0.0000000  1.0000000  0.0000000 )


      isym = 14     180 deg rotation - cart. axis [0,1,-1]       

 cryst.   s(14) = (    -1          0          0      )
                  (     0          0         -1      )
                  (     0         -1          0      )

 cart.    s(14) = ( -1.0000000  0.0000000  0.0000000 )
                  (  0.0000000  0.0000000 -1.0000000 )
                  (  0.0000000 -1.0000000  0.0000000 )


      isym = 15      90 deg rotation - cart. axis [-1,0,0]       

 cryst.   s(15) = (     1          0          0      )
                  (     0          0         -1      )
                  (     0          1          0      )

 cart.    s(15) = (  1.0000000  0.0000000  0.0000000 )
                  (  0.0000000  0.0000000  1.0000000 )
                  (  0.0000000 -1.0000000  0.0000000 )


      isym = 16      90 deg rotation - cart. axis [1,0,0]        

 cryst.   s(16) = (     1          0          0      )
                  (     0          0          1      )
                  (     0         -1          0      )

 cart.    s(16) = (  1.0000000  0.0000000  0.0000000 )
                  (  0.0000000  0.0000000 -1.0000000 )
                  (  0.0000000  1.0000000  0.0000000 )


      isym = 17     120 deg rotation - cart. axis [-1,-1,-1]     

 cryst.   s(17) = (     0          0          1      )
                  (     1          0          0      )
                  (     0          1          0      )

 cart.    s(17) = (  0.0000000  1.0000000  0.0000000 )
                  (  0.0000000  0.0000000  1.0000000 )
                  (  1.0000000  0.0000000  0.0000000 )


      isym = 18     120 deg rotation - cart. axis [-1,1,1]       

 cryst.   s(18) = (     0          0         -1      )
                  (    -1          0          0      )
                  (     0          1          0      )

 cart.    s(18) = (  0.0000000 -1.0000000  0.0000000 )
                  (  0.0000000  0.0000000  1.0000000 )
                  ( -1.0000000  0.0000000  0.0000000 )


      isym = 19     120 deg rotation - cart. axis [1,1,-1]       

 cryst.   s(19) = (     0          0         -1      )
                  (     1          0          0      )
                  (     0         -1          0      )

 cart.    s(19) = (  0.0000000  1.0000000  0.0000000 )
                  (  0.0000000  0.0000000 -1.0000000 )
                  ( -1.0000000  0.0000000  0.0000000 )


      isym = 20     120 deg rotation - cart. axis [1,-1,1]       

 cryst.   s(20) = (     0          0          1      )
                  (    -1          0          0      )
                  (     0         -1          0      )

 cart.    s(20) = (  0.0000000 -1.0000000  0.0000000 )
                  (  0.0000000  0.0000000 -1.0000000 )
                  (  1.0000000  0.0000000  0.0000000 )


      isym = 21     120 deg rotation - cart. axis [1,1,1]        

 cryst.   s(21) = (     0          1          0      )
                  (     0          0          1      )
                  (     1          0          0      )

 cart.    s(21) = (  0.0000000  0.0000000  1.0000000 )
                  (  1.0000000  0.0000000  0.0000000 )
                  (  0.0000000  1.0000000  0.0000000 )


      isym = 22     120 deg rotation - cart. axis [-1,1,-1]      

 cryst.   s(22) = (     0         -1          0      )
                  (     0          0         -1      )
                  (     1          0          0      )

 cart.    s(22) = (  0.0000000  0.0000000  1.0000000 )
                  ( -1.0000000  0.0000000  0.0000000 )
                  (  0.0000000 -1.0000000  0.0000000 )


      isym = 23     120 deg rotation - cart. axis [1,-1,-1]      

 cryst.   s(23) = (     0         -1          0      )
                  (     0          0          1      )
                  (    -1          0          0      )

 cart.    s(23) = (  0.0000000  0.0000000 -1.0000000 )
                  ( -1.0000000  0.0000000  0.0000000 )
                  (  0.0000000  1.0000000  0.0000000 )


      isym = 24     120 deg rotation - cart. axis [-1,-1,1]      

 cryst.   s(24) = (     0          1          0      )
                  (     0          0         -1      )
                  (    -1          0          0      )

 cart.    s(24) = (  0.0000000  0.0000000 -1.0000000 )
                  (  1.0000000  0.0000000  0.0000000 )
                  (  0.0000000 -1.0000000  0.0000000 )


      isym = 25     inversion                                    

 cryst.   s(25) = (    -1          0          0      )
                  (     0         -1          0      )
                  (     0          0         -1      )

 cart.    s(25) = ( -1.0000000  0.0000000  0.0000000 )
                  (  0.0000000 -1.0000000  0.0000000 )
                  (  0.0000000  0.0000000 -1.0000000 )


      isym = 26     inv. 180 deg rotation - cart. axis [0,0,1]   

 cryst.   s(26) = (     1          0          0      )
                  (     0          1          0      )
                  (     0          0         -1      )

 cart.    s(26) = (  1.0000000  0.0000000  0.0000000 )
                  (  0.0000000  1.0000000  0.0000000 )
                  (  0.0000000  0.0000000 -1.0000000 )


      isym = 27     inv. 180 deg rotation - cart. axis [0,1,0]   

 cryst.   s(27) = (     1          0          0      )
                  (     0         -1          0      )
                  (     0          0          1      )

 cart.    s(27) = (  1.0000000  0.0000000  0.0000000 )
                  (  0.0000000 -1.0000000  0.0000000 )
                  (  0.0000000  0.0000000  1.0000000 )


      isym = 28     inv. 180 deg rotation - cart. axis [1,0,0]   

 cryst.   s(28) = (    -1          0          0      )
                  (     0          1          0      )
                  (     0          0          1      )

 cart.    s(28) = ( -1.0000000  0.0000000  0.0000000 )
                  (  0.0000000  1.0000000  0.0000000 )
                  (  0.0000000  0.0000000  1.0000000 )


      isym = 29     inv. 180 deg rotation - cart. axis [1,1,0]   

 cryst.   s(29) = (     0         -1          0      )
                  (    -1          0          0      )
                  (     0          0          1      )

 cart.    s(29) = (  0.0000000 -1.0000000  0.0000000 )
                  ( -1.0000000  0.0000000  0.0000000 )
                  (  0.0000000  0.0000000  1.0000000 )


      isym = 30     inv. 180 deg rotation - cart. axis [1,-1,0]  

 cryst.   s(30) = (     0          1          0      )
                  (     1          0          0      )
                  (     0          0          1      )

 cart.    s(30) = (  0.0000000  1.0000000  0.0000000 )
                  (  1.0000000  0.0000000  0.0000000 )
                  (  0.0000000  0.0000000  1.0000000 )


      isym = 31     inv.  90 deg rotation - cart. axis [0,0,-1]  

 cryst.   s(31) = (     0          1          0      )
                  (    -1          0          0      )
                  (     0          0         -1      )

 cart.    s(31) = (  0.0000000 -1.0000000  0.0000000 )
                  (  1.0000000  0.0000000  0.0000000 )
                  (  0.0000000  0.0000000 -1.0000000 )


      isym = 32     inv.  90 deg rotation - cart. axis [0,0,1]   

 cryst.   s(32) = (     0         -1          0      )
                  (     1          0          0      )
                  (     0          0         -1      )

 cart.    s(32) = (  0.0000000  1.0000000  0.0000000 )
                  ( -1.0000000  0.0000000  0.0000000 )
                  (  0.0000000  0.0000000 -1.0000000 )


      isym = 33     inv. 180 deg rotation - cart. axis [1,0,1]   

 cryst.   s(33) = (     0          0         -1      )
                  (     0          1          0      )
                  (    -1          0          0      )

 cart.    s(33) = (  0.0000000  0.0000000 -1.0000000 )
                  (  0.0000000  1.0000000  0.0000000 )
                  ( -1.0000000  0.0000000  0.0000000 )


      isym = 34     inv. 180 deg rotation - cart. axis [-1,0,1]  

 cryst.   s(34) = (     0          0          1      )
                  (     0          1          0      )
                  (     1          0          0      )

 cart.    s(34) = (  0.0000000  0.0000000  1.0000000 )
                  (  0.0000000  1.0000000  0.0000000 )
                  (  1.0000000  0.0000000  0.0000000 )


      isym = 35     inv.  90 deg rotation - cart. axis [0,1,0]   

 cryst.   s(35) = (     0          0          1      )
                  (     0         -1          0      )
                  (    -1          0          0      )

 cart.    s(35) = (  0.0000000  0.0000000 -1.0000000 )
                  (  0.0000000 -1.0000000  0.0000000 )
                  (  1.0000000  0.0000000  0.0000000 )


      isym = 36     inv.  90 deg rotation - cart. axis [0,-1,0]  

 cryst.   s(36) = (     0          0         -1      )
                  (     0         -1          0      )
                  (     1          0          0      )

 cart.    s(36) = (  0.0000000  0.0000000  1.0000000 )
                  (  0.0000000 -1.0000000  0.0000000 )
                  ( -1.0000000  0.0000000  0.0000000 )


      isym = 37     inv. 180 deg rotation - cart. axis [0,1,1]   

 cryst.   s(37) = (     1          0          0      )
                  (     0          0         -1      )
                  (     0         -1          0      )

 cart.    s(37) = (  1.0000000  0.0000000  0.0000000 )
                  (  0.0000000  0.0000000 -1.0000000 )
                  (  0.0000000 -1.0000000  0.0000000 )


      isym = 38     inv. 180 deg rotation - cart. axis [0,1,-1]  

 cryst.   s(38) = (     1          0          0      )
                  (     0          0          1      )
                  (     0          1          0      )

 cart.    s(38) = (  1.0000000  0.0000000  0.0000000 )
                  (  0.0000000  0.0000000  1.0000000 )
                  (  0.0000000  1.0000000  0.0000000 )


      isym = 39     inv.  90 deg rotation - cart. axis [-1,0,0]  

 cryst.   s(39) = (    -1          0          0      )
                  (     0          0          1      )
                  (     0         -1          0      )

 cart.    s(39) = ( -1.0000000  0.0000000  0.0000000 )
                  (  0.0000000  0.0000000 -1.0000000 )
                  (  0.0000000  1.0000000  0.0000000 )


      isym = 40     inv.  90 deg rotation - cart. axis [1,0,0]   

 cryst.   s(40) = (    -1          0          0      )
                  (     0          0         -1      )
                  (     0          1          0      )

 cart.    s(40) = ( -1.0000000  0.0000000  0.0000000 )
                  (  0.0000000  0.0000000  1.0000000 )
                  (  0.0000000 -1.0000000  0.0000000 )


      isym = 41     inv. 120 deg rotation - cart. axis [-1,-1,-1]

 cryst.   s(41) = (     0          0         -1      )
                  (    -1          0          0      )
                  (     0         -1          0      )

 cart.    s(41) = (  0.0000000 -1.0000000  0.0000000 )
                  (  0.0000000  0.0000000 -1.0000000 )
                  ( -1.0000000  0.0000000  0.0000000 )


      isym = 42     inv. 120 deg rotation - cart. axis [-1,1,1]  

 cryst.   s(42) = (     0          0          1      )
                  (     1          0          0      )
                  (     0         -1          0      )

 cart.    s(42) = (  0.0000000  1.0000000  0.0000000 )
                  (  0.0000000  0.0000000 -1.0000000 )
                  (  1.0000000  0.0000000  0.0000000 )


      isym = 43     inv. 120 deg rotation - cart. axis [1,1,-1]  

 cryst.   s(43) = (     0          0          1      )
                  (    -1          0          0      )
                  (     0          1          0      )

 cart.    s(43) = (  0.0000000 -1.0000000  0.0000000 )
                  (  0.0000000  0.0000000  1.0000000 )
                  (  1.0000000  0.0000000  0.0000000 )


      isym = 44     inv. 120 deg rotation - cart. axis [1,-1,1]  

 cryst.   s(44) = (     0          0         -1      )
                  (     1          0          0      )
                  (     0          1          0      )

 cart.    s(44) = (  0.0000000  1.0000000  0.0000000 )
                  (  0.0000000  0.0000000  1.0000000 )
                  ( -1.0000000  0.0000000  0.0000000 )


      isym = 45     inv. 120 deg rotation - cart. axis [1,1,1]   

 cryst.   s(45) = (     0         -1          0      )
                  (     0          0         -1      )
                  (    -1          0          0      )

 cart.    s(45) = (  0.0000000  0.0000000 -1.0000000 )
                  ( -1.0000000  0.0000000  0.0000000 )
                  (  0.0000000 -1.0000000  0.0000000 )


      isym = 46     inv. 120 deg rotation - cart. axis [-1,1,-1] 

 cryst.   s(46) = (     0          1          0      )
                  (     0          0          1      )
                  (    -1          0          0      )

 cart.    s(46) = (  0.0000000  0.0000000 -1.0000000 )
                  (  1.0000000  0.0000000  0.0000000 )
                  (  0.0000000  1.0000000  0.0000000 )


      isym = 47     inv. 120 deg rotation - cart. axis [1,-1,-1] 

 cryst.   s(47) = (     0          1          0      )
                  (     0          0         -1      )
                  (     1          0          0      )

 cart.    s(47) = (  0.0000000  0.0000000  1.0000000 )
                  (  1.0000000  0.0000000  0.0000000 )
                  (  0.0000000 -1.0000000  0.0000000 )


      isym = 48     inv. 120 deg rotation - cart. axis [-1,-1,1] 

 cryst.   s(48) = (     0         -1          0      )
                  (     0          0          1      )
                  (     1          0          0      )

 cart.    s(48) = (  0.0000000  0.0000000  1.0000000 )
                  ( -1.0000000  0.0000000  0.0000000 )
                  (  0.0000000  1.0000000  0.0000000 )


     point group O_h (m-3m) 
     there are 10 classes
     the character table:

       E     8C3   3C2   6C4   6C2'  i     8S6   3s_h  6S4   6s_d 
A_1g   1.00  1.00  1.00  1.00  1.00  1.00  1.00  1.00  1.00  1.00
A_2g   1.00  1.00  1.00 -1.00 -1.00  1.00  1.00  1.00 -1.00 -1.00
E_g    2.00 -1.00  2.00  0.00  0.00  2.00 -1.00  2.00  0.00  0.00
T_1g   3.00  0.00 -1.00  1.00 -1.00  3.00  0.00 -1.00  1.00 -1.00
T_2g   3.00  0.00 -1.00 -1.00  1.00  3.00  0.00 -1.00 -1.00  1.00
A_1u   1.00  1.00  1.00  1.00  1.00 -1.00 -1.00 -1.00 -1.00 -1.00
A_2u   1.00  1.00  1.00 -1.00 -1.00 -1.00 -1.00 -1.00  1.00  1.00
E_u    2.00 -1.00  2.00  0.00  0.00 -2.00  1.00 -2.00  0.00  0.00
T_1u   3.00  0.00 -1.00  1.00 -1.00 -3.00  0.00  1.00 -1.00  1.00
T_2u   3.00  0.00 -1.00 -1.00  1.00 -3.00  0.00  1.00  1.00 -1.00

     the symmetry operations in each class and the name of the first element:

     E        1
          identity                                               
     8C3     17   19   20   18   24   21   22   23
          120 deg rotation - cart. axis [-1,-1,-1]               
     3C2      2    4    3
          180 deg rotation - cart. axis [0,0,1]                  
     6C4      7    8   15   16   12   11
           90 deg rotation - cart. axis [0,0,-1]                 
     6C2'     5    6   14   13   10    9
          180 deg rotation - cart. axis [1,1,0]                  
     i       25
          inversion                                              
     8S6     41   43   44   42   48   45   46   47
          inv. 120 deg rotation - cart. axis [-1,-1,-1]          
     3s_h    26   28   27
          inv. 180 deg rotation - cart. axis [0,0,1]             
     6S4     31   32   39   40   36   35
          inv.  90 deg rotation - cart. axis [0,0,-1]            
     6s_d    29   30   38   37   34   33
          inv. 180 deg rotation - cart. axis [1,1,0]             

   Cartesian axes

     site n.     atom                  positions (alat units)
         1           Ni  tau(   1) = (   0.0000000   0.0000000   0.0000000  )
         2           Ni  tau(   2) = (   0.0000000   0.5000000   0.5000000  )
         3           Ni  tau(   3) = (   0.5000000   0.0000000   0.5000000  )
         4           Ni  tau(   4) = (   0.5000000   0.5000000   0.0000000  )

   Crystallographic axes

     site n.     atom                  positions (cryst. coord.)
         1           Ni  tau(   1) = (  0.0000000  0.0000000  0.0000000  )
         2           Ni  tau(   2) = (  0.0000000  0.5000000  0.5000000  )
         3           Ni  tau(   3) = (  0.5000000  0.0000000  0.5000000  )
         4           Ni  tau(   4) = (  0.5000000  0.5000000  0.0000000  )

     number of k points=    84  Methfessel-Paxton smearing, width (Ry)=  0.0010
                       cart. coord. in units 2pi/alat
        k(    1) = (   0.0000000   0.0000000   0.0000000), wk =   0.0005787
        k(    2) = (   0.0000000   0.0000000   0.0833333), wk =   0.0034722
        k(    3) = (   0.0000000   0.0000000   0.1666667), wk =   0.0034722
        k(    4) = (   0.0000000   0.0000000   0.2500000), wk =   0.0034722
        k(    5) = (   0.0000000   0.0000000   0.3333333), wk =   0.0034722
        k(    6) = (   0.0000000   0.0000000   0.4166667), wk =   0.0034722
        k(    7) = (   0.0000000   0.0000000  -0.5000000), wk =   0.0017361
        k(    8) = (   0.0000000   0.0833333   0.0833333), wk =   0.0069444
        k(    9) = (   0.0000000   0.0833333   0.1666667), wk =   0.0138889
        k(   10) = (   0.0000000   0.0833333   0.2500000), wk =   0.0138889
        k(   11) = (   0.0000000   0.0833333   0.3333333), wk =   0.0138889
        k(   12) = (   0.0000000   0.0833333   0.4166667), wk =   0.0138889
        k(   13) = (   0.0000000   0.0833333  -0.5000000), wk =   0.0069444
        k(   14) = (   0.0000000   0.1666667   0.1666667), wk =   0.0069444
        k(   15) = (   0.0000000   0.1666667   0.2500000), wk =   0.0138889
        k(   16) = (   0.0000000   0.1666667   0.3333333), wk =   0.0138889
        k(   17) = (   0.0000000   0.1666667   0.4166667), wk =   0.0138889
        k(   18) = (   0.0000000   0.1666667  -0.5000000), wk =   0.0069444
        k(   19) = (   0.0000000   0.2500000   0.2500000), wk =   0.0069444
        k(   20) = (   0.0000000   0.2500000   0.3333333), wk =   0.0138889
        k(   21) = (   0.0000000   0.2500000   0.4166667), wk =   0.0138889
        k(   22) = (   0.0000000   0.2500000  -0.5000000), wk =   0.0069444
        k(   23) = (   0.0000000   0.3333333   0.3333333), wk =   0.0069444
        k(   24) = (   0.0000000   0.3333333   0.4166667), wk =   0.0138889
        k(   25) = (   0.0000000   0.3333333  -0.5000000), wk =   0.0069444
        k(   26) = (   0.0000000   0.4166667   0.4166667), wk =   0.0069444
        k(   27) = (   0.0000000   0.4166667  -0.5000000), wk =   0.0069444
        k(   28) = (   0.0000000  -0.5000000  -0.5000000), wk =   0.0017361
        k(   29) = (   0.0833333   0.0833333   0.0833333), wk =   0.0046296
        k(   30) = (   0.0833333   0.0833333   0.1666667), wk =   0.0138889
        k(   31) = (   0.0833333   0.0833333   0.2500000), wk =   0.0138889
        k(   32) = (   0.0833333   0.0833333   0.3333333), wk =   0.0138889
        k(   33) = (   0.0833333   0.0833333   0.4166667), wk =   0.0138889
        k(   34) = (   0.0833333   0.0833333  -0.5000000), wk =   0.0069444
        k(   35) = (   0.0833333   0.1666667   0.1666667), wk =   0.0138889
        k(   36) = (   0.0833333   0.1666667   0.2500000), wk =   0.0277778
        k(   37) = (   0.0833333   0.1666667   0.3333333), wk =   0.0277778
        k(   38) = (   0.0833333   0.1666667   0.4166667), wk =   0.0277778
        k(   39) = (   0.0833333   0.1666667  -0.5000000), wk =   0.0138889
        k(   40) = (   0.0833333   0.2500000   0.2500000), wk =   0.0138889
        k(   41) = (   0.0833333   0.2500000   0.3333333), wk =   0.0277778
        k(   42) = (   0.0833333   0.2500000   0.4166667), wk =   0.0277778
        k(   43) = (   0.0833333   0.2500000  -0.5000000), wk =   0.0138889
        k(   44) = (   0.0833333   0.3333333   0.3333333), wk =   0.0138889
        k(   45) = (   0.0833333   0.3333333   0.4166667), wk =   0.0277778
        k(   46) = (   0.0833333   0.3333333  -0.5000000), wk =   0.0138889
        k(   47) = (   0.0833333   0.4166667   0.4166667), wk =   0.0138889
        k(   48) = (   0.0833333   0.4166667  -0.5000000), wk =   0.0138889
        k(   49) = (   0.0833333  -0.5000000  -0.5000000), wk =   0.0034722
        k(   50) = (   0.1666667   0.1666667   0.1666667), wk =   0.0046296
        k(   51) = (   0.1666667   0.1666667   0.2500000), wk =   0.0138889
        k(   52) = (   0.1666667   0.1666667   0.3333333), wk =   0.0138889
        k(   53) = (   0.1666667   0.1666667   0.4166667), wk =   0.0138889
        k(   54) = (   0.1666667   0.1666667  -0.5000000), wk =   0.0069444
        k(   55) = (   0.1666667   0.2500000   0.2500000), wk =   0.0138889
        k(   56) = (   0.1666667   0.2500000   0.3333333), wk =   0.0277778
        k(   57) = (   0.1666667   0.2500000   0.4166667), wk =   0.0277778
        k(   58) = (   0.1666667   0.2500000  -0.5000000), wk =   0.0138889
        k(   59) = (   0.1666667   0.3333333   0.3333333), wk =   0.0138889
        k(   60) = (   0.1666667   0.3333333   0.4166667), wk =   0.0277778
        k(   61) = (   0.1666667   0.3333333  -0.5000000), wk =   0.0138889
        k(   62) = (   0.1666667   0.4166667   0.4166667), wk =   0.0138889
        k(   63) = (   0.1666667   0.4166667  -0.5000000), wk =   0.0138889
        k(   64) = (   0.1666667  -0.5000000  -0.5000000), wk =   0.0034722
        k(   65) = (   0.2500000   0.2500000   0.2500000), wk =   0.0046296
        k(   66) = (   0.2500000   0.2500000   0.3333333), wk =   0.0138889
        k(   67) = (   0.2500000   0.2500000   0.4166667), wk =   0.0138889
        k(   68) = (   0.2500000   0.2500000  -0.5000000), wk =   0.0069444
        k(   69) = (   0.2500000   0.3333333   0.3333333), wk =   0.0138889
        k(   70) = (   0.2500000   0.3333333   0.4166667), wk =   0.0277778
        k(   71) = (   0.2500000   0.3333333  -0.5000000), wk =   0.0138889
        k(   72) = (   0.2500000   0.4166667   0.4166667), wk =   0.0138889
        k(   73) = (   0.2500000   0.4166667  -0.5000000), wk =   0.0138889
        k(   74) = (   0.2500000  -0.5000000  -0.5000000), wk =   0.0034722
        k(   75) = (   0.3333333   0.3333333   0.3333333), wk =   0.0046296
        k(   76) = (   0.3333333   0.3333333   0.4166667), wk =   0.0138889
        k(   77) = (   0.3333333   0.3333333  -0.5000000), wk =   0.0069444
        k(   78) = (   0.3333333   0.4166667   0.4166667), wk =   0.0138889
        k(   79) = (   0.3333333   0.4166667  -0.5000000), wk =   0.0138889
        k(   80) = (   0.3333333  -0.5000000  -0.5000000), wk =   0.0034722
        k(   81) = (   0.4166667   0.4166667   0.4166667), wk =   0.0046296
        k(   82) = (   0.4166667   0.4166667  -0.5000000), wk =   0.0069444
        k(   83) = (   0.4166667  -0.5000000  -0.5000000), wk =   0.0034722
        k(   84) = (  -0.5000000  -0.5000000  -0.5000000), wk =   0.0005787

                       cryst. coord.
        k(    1) = (   0.0000000   0.0000000   0.0000000), wk =   0.0005787
        k(    2) = (   0.0000000   0.0000000   0.0833333), wk =   0.0034722
        k(    3) = (   0.0000000   0.0000000   0.1666667), wk =   0.0034722
        k(    4) = (   0.0000000   0.0000000   0.2500000), wk =   0.0034722
        k(    5) = (   0.0000000   0.0000000   0.3333333), wk =   0.0034722
        k(    6) = (   0.0000000   0.0000000   0.4166667), wk =   0.0034722
        k(    7) = (   0.0000000   0.0000000  -0.5000000), wk =   0.0017361
        k(    8) = (   0.0000000   0.0833333   0.0833333), wk =   0.0069444
        k(    9) = (   0.0000000   0.0833333   0.1666667), wk =   0.0138889
        k(   10) = (   0.0000000   0.0833333   0.2500000), wk =   0.0138889
        k(   11) = (   0.0000000   0.0833333   0.3333333), wk =   0.0138889
        k(   12) = (   0.0000000   0.0833333   0.4166667), wk =   0.0138889
        k(   13) = (   0.0000000   0.0833333  -0.5000000), wk =   0.0069444
        k(   14) = (   0.0000000   0.1666667   0.1666667), wk =   0.0069444
        k(   15) = (   0.0000000   0.1666667   0.2500000), wk =   0.0138889
        k(   16) = (   0.0000000   0.1666667   0.3333333), wk =   0.0138889
        k(   17) = (   0.0000000   0.1666667   0.4166667), wk =   0.0138889
        k(   18) = (   0.0000000   0.1666667  -0.5000000), wk =   0.0069444
        k(   19) = (   0.0000000   0.2500000   0.2500000), wk =   0.0069444
        k(   20) = (   0.0000000   0.2500000   0.3333333), wk =   0.0138889
        k(   21) = (   0.0000000   0.2500000   0.4166667), wk =   0.0138889
        k(   22) = (   0.0000000   0.2500000  -0.5000000), wk =   0.0069444
        k(   23) = (   0.0000000   0.3333333   0.3333333), wk =   0.0069444
        k(   24) = (   0.0000000   0.3333333   0.4166667), wk =   0.0138889
        k(   25) = (   0.0000000   0.3333333  -0.5000000), wk =   0.0069444
        k(   26) = (   0.0000000   0.4166667   0.4166667), wk =   0.0069444
        k(   27) = (   0.0000000   0.4166667  -0.5000000), wk =   0.0069444
        k(   28) = (   0.0000000  -0.5000000  -0.5000000), wk =   0.0017361
        k(   29) = (   0.0833333   0.0833333   0.0833333), wk =   0.0046296
        k(   30) = (   0.0833333   0.0833333   0.1666667), wk =   0.0138889
        k(   31) = (   0.0833333   0.0833333   0.2500000), wk =   0.0138889
        k(   32) = (   0.0833333   0.0833333   0.3333333), wk =   0.0138889
        k(   33) = (   0.0833333   0.0833333   0.4166667), wk =   0.0138889
        k(   34) = (   0.0833333   0.0833333  -0.5000000), wk =   0.0069444
        k(   35) = (   0.0833333   0.1666667   0.1666667), wk =   0.0138889
        k(   36) = (   0.0833333   0.1666667   0.2500000), wk =   0.0277778
        k(   37) = (   0.0833333   0.1666667   0.3333333), wk =   0.0277778
        k(   38) = (   0.0833333   0.1666667   0.4166667), wk =   0.0277778
        k(   39) = (   0.0833333   0.1666667  -0.5000000), wk =   0.0138889
        k(   40) = (   0.0833333   0.2500000   0.2500000), wk =   0.0138889
        k(   41) = (   0.0833333   0.2500000   0.3333333), wk =   0.0277778
        k(   42) = (   0.0833333   0.2500000   0.4166667), wk =   0.0277778
        k(   43) = (   0.0833333   0.2500000  -0.5000000), wk =   0.0138889
        k(   44) = (   0.0833333   0.3333333   0.3333333), wk =   0.0138889
        k(   45) = (   0.0833333   0.3333333   0.4166667), wk =   0.0277778
        k(   46) = (   0.0833333   0.3333333  -0.5000000), wk =   0.0138889
        k(   47) = (   0.0833333   0.4166667   0.4166667), wk =   0.0138889
        k(   48) = (   0.0833333   0.4166667  -0.5000000), wk =   0.0138889
        k(   49) = (   0.0833333  -0.5000000  -0.5000000), wk =   0.0034722
        k(   50) = (   0.1666667   0.1666667   0.1666667), wk =   0.0046296
        k(   51) = (   0.1666667   0.1666667   0.2500000), wk =   0.0138889
        k(   52) = (   0.1666667   0.1666667   0.3333333), wk =   0.0138889
        k(   53) = (   0.1666667   0.1666667   0.4166667), wk =   0.0138889
        k(   54) = (   0.1666667   0.1666667  -0.5000000), wk =   0.0069444
        k(   55) = (   0.1666667   0.2500000   0.2500000), wk =   0.0138889
        k(   56) = (   0.1666667   0.2500000   0.3333333), wk =   0.0277778
        k(   57) = (   0.1666667   0.2500000   0.4166667), wk =   0.0277778
        k(   58) = (   0.1666667   0.2500000  -0.5000000), wk =   0.0138889
        k(   59) = (   0.1666667   0.3333333   0.3333333), wk =   0.0138889
        k(   60) = (   0.1666667   0.3333333   0.4166667), wk =   0.0277778
        k(   61) = (   0.1666667   0.3333333  -0.5000000), wk =   0.0138889
        k(   62) = (   0.1666667   0.4166667   0.4166667), wk =   0.0138889
        k(   63) = (   0.1666667   0.4166667  -0.5000000), wk =   0.0138889
        k(   64) = (   0.1666667  -0.5000000  -0.5000000), wk =   0.0034722
        k(   65) = (   0.2500000   0.2500000   0.2500000), wk =   0.0046296
        k(   66) = (   0.2500000   0.2500000   0.3333333), wk =   0.0138889
        k(   67) = (   0.2500000   0.2500000   0.4166667), wk =   0.0138889
        k(   68) = (   0.2500000   0.2500000  -0.5000000), wk =   0.0069444
        k(   69) = (   0.2500000   0.3333333   0.3333333), wk =   0.0138889
        k(   70) = (   0.2500000   0.3333333   0.4166667), wk =   0.0277778
        k(   71) = (   0.2500000   0.3333333  -0.5000000), wk =   0.0138889
        k(   72) = (   0.2500000   0.4166667   0.4166667), wk =   0.0138889
        k(   73) = (   0.2500000   0.4166667  -0.5000000), wk =   0.0138889
        k(   74) = (   0.2500000  -0.5000000  -0.5000000), wk =   0.0034722
        k(   75) = (   0.3333333   0.3333333   0.3333333), wk =   0.0046296
        k(   76) = (   0.3333333   0.3333333   0.4166667), wk =   0.0138889
        k(   77) = (   0.3333333   0.3333333  -0.5000000), wk =   0.0069444
        k(   78) = (   0.3333333   0.4166667   0.4166667), wk =   0.0138889
        k(   79) = (   0.3333333   0.4166667  -0.5000000), wk =   0.0138889
        k(   80) = (   0.3333333  -0.5000000  -0.5000000), wk =   0.0034722
        k(   81) = (   0.4166667   0.4166667   0.4166667), wk =   0.0046296
        k(   82) = (   0.4166667   0.4166667  -0.5000000), wk =   0.0069444
        k(   83) = (   0.4166667  -0.5000000  -0.5000000), wk =   0.0034722
        k(   84) = (  -0.5000000  -0.5000000  -0.5000000), wk =   0.0005787

     Dense  grid:   106959 G-vectors     FFT dimensions: (  60,  60,  60)

     Smooth grid:    69239 G-vectors     FFT dimensions: (  54,  54,  54)

     Dynamical RAM for                 wfc:       0.28 MB

     Dynamical RAM for     wfc (w. buffer):      48.01 MB

     Dynamical RAM for           str. fact:       0.08 MB

     Dynamical RAM for           local pot:       0.00 MB

     Dynamical RAM for          nlocal pot:       0.48 MB

     Dynamical RAM for                qrad:       2.27 MB

     Dynamical RAM for          rho,v,vnew:       0.98 MB

     Dynamical RAM for               rhoin:       0.33 MB

     Dynamical RAM for            rho*nmix:       2.61 MB

     Dynamical RAM for           G-vectors:       0.33 MB

     Dynamical RAM for          h,s,v(r/c):       0.34 MB

     Dynamical RAM for          <psi|beta>:       0.05 MB

     Dynamical RAM for                 psi:       0.57 MB

     Dynamical RAM for                hpsi:       0.57 MB

     Dynamical RAM for                spsi:       0.57 MB

     Dynamical RAM for      wfcinit/wfcrot:       0.61 MB

     Dynamical RAM for           addusdens:      15.59 MB

     Estimated static dynamical RAM per process >      53.14 MB

     Estimated max dynamical RAM per process >      71.34 MB

     Estimated total dynamical RAM >       1.39 GB
     Generating pointlists ...
     new r_m :   0.2917 (alat units)  1.9071 (a.u.) for type    1

     The initial density is read from file :
     out/Ni.save/charge-density


     starting charge      72.6279, renormalised to      72.0000
     Starting wfcs from file
     Checking if some PAW data can be deallocated... 

     total cpu time spent up to now is        1.3 secs

     Self-consistent Calculation

     iteration #  1     ecut=   150.00 Ry     beta= 0.70
     Davidson diagonalization with overlap

---- Real-time Memory Report at c_bands before calling an iterative solver
            94 MiB given to the printing process from OS
             0 MiB allocation reported by mallinfo(arena+hblkhd)
        354725 MiB available memory on the node where the printing process lives
------------------
     ethr =  1.00E-05,  avg # of iterations =  4.1

     total cpu time spent up to now is       14.8 secs

     total energy              =   -1716.56864428 Ry
     estimated scf accuracy    <       0.13222425 Ry

     total magnetization       =     2.41 Bohr mag/cell
     absolute magnetization    =     2.78 Bohr mag/cell

     iteration #  2     ecut=   150.00 Ry     beta= 0.70
     Davidson diagonalization with overlap

---- Real-time Memory Report at c_bands before calling an iterative solver
           124 MiB given to the printing process from OS
             0 MiB allocation reported by mallinfo(arena+hblkhd)
        354247 MiB available memory on the node where the printing process lives
------------------
     ethr =  1.84E-04,  avg # of iterations =  3.4

     total cpu time spent up to now is       25.8 secs

     total energy              =   -1716.55756742 Ry
     estimated scf accuracy    <       0.64129687 Ry

     total magnetization       =     2.78 Bohr mag/cell
     absolute magnetization    =     3.11 Bohr mag/cell

     iteration #  3     ecut=   150.00 Ry     beta= 0.70
     Davidson diagonalization with overlap

---- Real-time Memory Report at c_bands before calling an iterative solver
           125 MiB given to the printing process from OS
             0 MiB allocation reported by mallinfo(arena+hblkhd)
        354246 MiB available memory on the node where the printing process lives
------------------
     ethr =  1.84E-04,  avg # of iterations =  3.1

     total cpu time spent up to now is       35.7 secs

     total energy              =   -1716.64982442 Ry
     estimated scf accuracy    <       0.00327094 Ry

     total magnetization       =     2.61 Bohr mag/cell
     absolute magnetization    =     2.95 Bohr mag/cell

     iteration #  4     ecut=   150.00 Ry     beta= 0.70
     Davidson diagonalization with overlap

---- Real-time Memory Report at c_bands before calling an iterative solver
           125 MiB given to the printing process from OS
             0 MiB allocation reported by mallinfo(arena+hblkhd)
        354239 MiB available memory on the node where the printing process lives
------------------
     ethr =  4.54E-06,  avg # of iterations =  2.8

     total cpu time spent up to now is       44.9 secs

     total energy              =   -1716.64966909 Ry
     estimated scf accuracy    <       0.03510943 Ry

     total magnetization       =     2.61 Bohr mag/cell
     absolute magnetization    =     2.95 Bohr mag/cell

     iteration #  5     ecut=   150.00 Ry     beta= 0.70
     Davidson diagonalization with overlap

---- Real-time Memory Report at c_bands before calling an iterative solver
           126 MiB given to the printing process from OS
             0 MiB allocation reported by mallinfo(arena+hblkhd)
        354236 MiB available memory on the node where the printing process lives
------------------
     ethr =  4.54E-06,  avg # of iterations =  2.0

     total cpu time spent up to now is       52.5 secs

     total energy              =   -1716.65126312 Ry
     estimated scf accuracy    <       0.00039672 Ry

     total magnetization       =     2.60 Bohr mag/cell
     absolute magnetization    =     2.94 Bohr mag/cell

     iteration #  6     ecut=   150.00 Ry     beta= 0.70
     Davidson diagonalization with overlap

---- Real-time Memory Report at c_bands before calling an iterative solver
           126 MiB given to the printing process from OS
             0 MiB allocation reported by mallinfo(arena+hblkhd)
        354233 MiB available memory on the node where the printing process lives
------------------
     ethr =  5.51E-07,  avg # of iterations =  2.0

     total cpu time spent up to now is       60.9 secs

     total energy              =   -1716.65134693 Ry
     estimated scf accuracy    <       0.00001315 Ry

     total magnetization       =     2.61 Bohr mag/cell
     absolute magnetization    =     2.95 Bohr mag/cell

     iteration #  7     ecut=   150.00 Ry     beta= 0.70
     Davidson diagonalization with overlap

---- Real-time Memory Report at c_bands before calling an iterative solver
           127 MiB given to the printing process from OS
             0 MiB allocation reported by mallinfo(arena+hblkhd)
        354226 MiB available memory on the node where the printing process lives
------------------
     ethr =  1.83E-08,  avg # of iterations =  3.4

     total cpu time spent up to now is       69.5 secs

     total energy              =   -1716.65134772 Ry
     estimated scf accuracy    <       0.00000502 Ry

     total magnetization       =     2.61 Bohr mag/cell
     absolute magnetization    =     2.96 Bohr mag/cell

     iteration #  8     ecut=   150.00 Ry     beta= 0.70
     Davidson diagonalization with overlap

---- Real-time Memory Report at c_bands before calling an iterative solver
           127 MiB given to the printing process from OS
             0 MiB allocation reported by mallinfo(arena+hblkhd)
        354222 MiB available memory on the node where the printing process lives
------------------
     ethr =  6.98E-09,  avg # of iterations =  2.0

     total cpu time spent up to now is       77.4 secs

     total energy              =   -1716.65134838 Ry
     estimated scf accuracy    <       0.00000020 Ry

     total magnetization       =     2.61 Bohr mag/cell
     absolute magnetization    =     2.95 Bohr mag/cell

     iteration #  9     ecut=   150.00 Ry     beta= 0.70
     Davidson diagonalization with overlap

---- Real-time Memory Report at c_bands before calling an iterative solver
           128 MiB given to the printing process from OS
             0 MiB allocation reported by mallinfo(arena+hblkhd)
        354218 MiB available memory on the node where the printing process lives
------------------
     ethr =  2.78E-10,  avg # of iterations =  4.5
 
     Magnetic moment per site  (integrated on atomic sphere of radius R)
     atom   1 (R=0.292)  charge= 16.6625  magn=  0.6892
     atom   2 (R=0.292)  charge= 16.6625  magn=  0.6892
     atom   3 (R=0.292)  charge= 16.6625  magn=  0.6892
     atom   4 (R=0.292)  charge= 16.6625  magn=  0.6892

     total cpu time spent up to now is       87.8 secs

     End of self-consistent calculation

 ------ SPIN UP ------------


          k = 0.0000 0.0000 0.0000 (  8709 PWs)   bands (ev):

   -84.6740 -84.6183 -84.6183 -84.6181 -45.1522 -45.1522 -45.1522 -45.0026
   -45.0026 -45.0026 -45.0025 -45.0025 -45.0025 -44.9050 -44.9050 -44.9050
     9.6521  14.1172  14.1172  14.1172  14.6092  14.6092  14.6092  16.5260
    16.5260  16.5260  17.8074  17.8074  18.5791  18.5792  18.5792  18.6606
    18.6606  18.6606  18.6607  18.6607  18.6607  21.5179  21.5179  21.5179
    28.7320  28.7320  28.7320

     occupation numbers 
     1.0000   1.0000   1.0000   1.0000   1.0000   1.0000   1.0000   1.0000
     1.0000   1.0000   1.0000   1.0000   1.0000   1.0000   1.0000   1.0000
     1.0000   1.0000   1.0000   1.0000   1.0000   1.0000   1.0000   1.0000
     1.0000   1.0000   1.0000   1.0000   1.0000   1.0000   1.0000   1.0000
     1.0000   1.0000   1.0000   1.0000   1.0000  -0.0000  -0.0000  -0.0000
    -0.0000  -0.0000  -0.0000

          k = 0.0000 0.0000 0.0833 (  8645 PWs)   bands (ev):

   -84.6730 -84.6192 -84.6183 -84.6182 -45.1496 -45.1496 -45.1481 -45.0051
   -45.0051 -45.0027 -45.0026 -45.0009 -45.0009 -44.9095 -44.9067 -44.9067
     9.7465  14.1253  14.1676  14.1676  14.6391  14.6423  14.6423  16.4903
    16.5534  16.5534  17.7743  17.8201  18.4290  18.4290  18.5361  18.5361
    18.5655  18.6110  18.6110  18.6607  18.6608  21.0377  21.8272  21.8272
    28.7518  28.7519  29.3711

     occupation numbers 
     1.0000   1.0000   1.0000   1.0000   1.0000   1.0000   1.0000   1.0000
     1.0000   1.0000   1.0000   1.0000   1.0000   1.0000   1.0000   1.0000
     1.0000   1.0000   1.0000   1.0000   1.0000   1.0000   1.0000   1.0000
     1.0000   1.0000   1.0000   1.0000   1.0000   1.0000   1.0000   1.0000
     1.0000   1.0000   1.0000   1.0000   1.0000  -0.0000  -0.0000  -0.0000
    -0.0000  -0.0000  -0.0000

          k = 0.0000 0.0000 0.1667 (  8657 PWs)   bands (ev):

   -84.6702 -84.6220 -84.6183 -84.6181 -45.1422 -45.1422 -45.1362 -45.0126
   -45.0126 -45.0031 -45.0029 -44.9960 -44.9960 -44.9223 -44.9116 -44.9116
    10.0270  14.1329  14.3119  14.3119  14.7274  14.7419  14.7419  16.3862
    16.6349  16.6349  17.6790  17.8575  17.9167  17.9167  18.4114  18.4115
    18.4693  18.4693  18.5258  18.6609  18.6610  19.9616  22.5714  22.5714
    28.8136  28.8136  30.9334

     occupation numbers 
     1.0000   1.0000   1.0000   1.0000   1.0000   1.0000   1.0000   1.0000
     1.0000   1.0000   1.0000   1.0000   1.0000   1.0000   1.0000   1.0000
     1.0000   1.0000   1.0000   1.0000   1.0000   1.0000   1.0000   1.0000
     1.0000   1.0000   1.0000   1.0000   1.0000   1.0000   1.0000   1.0000
     1.0000   1.0000   1.0000   1.0000   1.0000  -0.0000  -0.0000  -0.0000
    -0.0000  -0.0000  -0.0000

          k = 0.0000 0.0000 0.2500 (  8645 PWs)   bands (ev):

   -84.6658 -84.6264 -84.6183 -84.6181 -45.1303 -45.1303 -45.1171 -45.0245
   -45.0245 -45.0035 -45.0034 -44.9883 -44.9883 -44.9425 -44.9194 -44.9194
    10.4844  14.0819  14.5280  14.5280  14.8692  14.9089  14.9089  16.2227
    16.7687  16.7687  17.3371  17.3371  17.5339  17.9172  18.2208  18.2209
    18.2552  18.2552  18.4628  18.6612  18.6613  18.7939  23.5358  23.5358
    28.9229  28.9229  31.1952

     occupation numbers 
     1.0000   1.0000   1.0000   1.0000   1.0000   1.0000   1.0000   1.0000
     1.0000   1.0000   1.0000   1.0000   1.0000   1.0000   1.0000   1.0000
     1.0000   1.0000   1.0000   1.0000   1.0000   1.0000   1.0000   1.0000
     1.0000   1.0000   1.0000   1.0000   1.0000   1.0000   1.0000   1.0000
     1.0000   1.0000   1.0000   1.0000   1.0000   1.0000  -0.0000  -0.0000
    -0.0000  -0.0000  -0.0000

          k = 0.0000 0.0000 0.3333 (  8674 PWs)   bands (ev):

   -84.6600 -84.6322 -84.6183 -84.6181 -45.1148 -45.1148 -45.0922 -45.0400
   -45.0400 -45.0040 -45.0039 -44.9782 -44.9782 -44.9687 -44.9295 -44.9295
    11.1004  13.8614  14.7740  14.7741  15.0570  15.1445  15.1445  16.0134
    16.7774  16.7774  16.9511  16.9511  17.3630  17.8485  17.9945  17.9945
    17.9955  17.9988  17.9989  18.3812  18.6615  18.6616  24.6300  24.6300
    29.0828  29.0828  29.7883

     occupation numbers 
     1.0000   1.0000   1.0000   1.0000   1.0000   1.0000   1.0000   1.0000
     1.0000   1.0000   1.0000   1.0000   1.0000   1.0000   1.0000   1.0000
     1.0000   1.0000   1.0000   1.0000   1.0000   1.0000   1.0000   1.0000
     1.0000   1.0000   1.0000   1.0000   1.0000   1.0000   1.0000   1.0000
     1.0000   1.0000   1.0000   1.0000   1.0000   1.0000  -0.0000  -0.0000
    -0.0000  -0.0000  -0.0000

          k = 0.0000 0.0000 0.4167 (  8690 PWs)   bands (ev):

   -84.6533 -84.6389 -84.6182 -84.6181 -45.0968 -45.0968 -45.0628 -45.0581
   -45.0581 -45.0044 -45.0042 -44.9989 -44.9665 -44.9665 -44.9412 -44.9412
    11.8403  13.3643  14.9818  14.9818  15.2799  15.4497  15.4497  15.7747
    16.2692  16.2692  17.1761  17.1761  17.2086  17.3067  17.7134  17.7134
    17.8077  17.8078  18.0873  18.2870  18.6617  18.6618  25.8182  25.8182
    28.4101  28.4101  29.2722

     occupation numbers 
     1.0000   1.0000   1.0000   1.0000   1.0000   1.0000   1.0000   1.0000
     1.0000   1.0000   1.0000   1.0000   1.0000   1.0000   1.0000   1.0000
     1.0000   1.0000   1.0000   1.0000   1.0000   1.0000   1.0000   1.0000
     1.0000   1.0000   1.0000   1.0000   1.0000   1.0000   1.0000   1.0000
     1.0000   1.0000   1.0000   1.0000   1.0000   1.0000  -0.0000  -0.0000
    -0.0000  -0.0000  -0.0000

          k = 0.0000 0.0000-0.5000 (  8722 PWs)   bands (ev):

   -84.6462 -84.6460 -84.6182 -84.6181 -45.0775 -45.0775 -45.0774 -45.0774
   -45.0312 -45.0310 -45.0045 -45.0043 -44.9539 -44.9539 -44.9538 -44.9538
    12.6368  12.6368  15.0660  15.0661  15.5244  15.5245  15.8250  15.8250
    15.8251  15.8251  17.1461  17.1462  17.4346  17.4346  17.4347  17.4347
    17.7293  17.7294  18.1867  18.1868  18.6618  18.6619  27.0824  27.0824
    27.0824  27.0824  29.3785

     occupation numbers 
     1.0000   1.0000   1.0000   1.0000   1.0000   1.0000   1.0000   1.0000
     1.0000   1.0000   1.0000   1.0000   1.0000   1.0000   1.0000   1.0000
     1.0000   1.0000   1.0000   1.0000   1.0000   1.0000   1.0000   1.0000
     1.0000   1.0000   1.0000   1.0000   1.0000   1.0000   1.0000   1.0000
     1.0000   1.0000   1.0000   1.0000   1.0000   1.0000  -0.0000  -0.0000
    -0.0000  -0.0000  -0.0000

          k = 0.0000 0.0833 0.0833 (  8660 PWs)   bands (ev):

   -84.6721 -84.6192 -84.6191 -84.6182 -45.1471 -45.1458 -45.1458 -45.0102
   -45.0035 -45.0033 -45.0009 -45.0009 -45.0001 -44.9161 -44.9084 -44.9060
     9.8404  14.1766  14.1766  14.2166  14.6716  14.6716  14.6746  16.4699
    16.5663  16.5783  17.7650  17.8118  18.2631  18.3502  18.3503  18.4950
    18.5400  18.5400  18.6109  18.6109  18.6292  21.3483  21.3483  22.1024
    28.7693  29.4015  29.4015

     occupation numbers 
     1.0000   1.0000   1.0000   1.0000   1.0000   1.0000   1.0000   1.0000
     1.0000   1.0000   1.0000   1.0000   1.0000   1.0000   1.0000   1.0000
     1.0000   1.0000   1.0000   1.0000   1.0000   1.0000   1.0000   1.0000
     1.0000   1.0000   1.0000   1.0000   1.0000   1.0000   1.0000   1.0000
     1.0000   1.0000   1.0000   1.0000   1.0000  -0.0000  -0.0000  -0.0000
    -0.0000  -0.0000  -0.0000

          k = 0.0000 0.0833 0.1667 (  8659 PWs)   bands (ev):

   -84.6694 -84.6219 -84.6191 -84.6183 -45.1397 -45.1391 -45.1346 -45.0192
   -45.0109 -45.0009 -44.9985 -44.9985 -44.9957 -44.9302 -44.9133 -44.9091
    10.1192  14.1870  14.3237  14.3571  14.7581  14.7694  14.7715  16.3761
    16.6399  16.6517  17.6822  17.8211  17.8308  17.8451  18.1511  18.3757
    18.4158  18.4690  18.5138  18.6108  18.6120  20.3032  22.0675  22.7943
    28.8177  29.4953  30.9763

     occupation numbers 
     1.0000   1.0000   1.0000   1.0000   1.0000   1.0000   1.0000   1.0000
     1.0000   1.0000   1.0000   1.0000   1.0000   1.0000   1.0000   1.0000
     1.0000   1.0000   1.0000   1.0000   1.0000   1.0000   1.0000   1.0000
     1.0000   1.0000   1.0000   1.0000   1.0000   1.0000   1.0000   1.0000
     1.0000   1.0000   1.0000   1.0000   1.0000  -0.0000  -0.0000  -0.0000
    -0.0000  -0.0000  -0.0000

          k = 0.0000 0.0833 0.2500 (  8666 PWs)   bands (ev):

   -84.6650 -84.6262 -84.6190 -84.6183 -45.1283 -45.1279 -45.1167 -45.0313
   -45.0227 -45.0009 -44.9981 -44.9907 -44.9876 -44.9505 -44.9212 -44.9162
    10.5737  14.1404  14.5447  14.5684  14.8971  14.9327  14.9333  16.2186
    16.7690  16.7713  17.2556  17.2844  17.5479  17.8342  17.9108  18.1928
    18.2274  18.2546  18.4411  18.6079  18.6105  19.2422  22.9687  23.7209
    28.8459  29.6579  30.0401

     occupation numbers 
     1.0000   1.0000   1.0000   1.0000   1.0000   1.0000   1.0000   1.0000
     1.0000   1.0000   1.0000   1.0000   1.0000   1.0000   1.0000   1.0000
     1.0000   1.0000   1.0000   1.0000   1.0000   1.0000   1.0000   1.0000
     1.0000   1.0000   1.0000   1.0000   1.0000   1.0000   1.0000   1.0000
     1.0000   1.0000   1.0000   1.0000   1.0000  -0.0000  -0.0000  -0.0000
    -0.0000  -0.0000  -0.0000

          k = 0.0000 0.0833 0.3333 (  8681 PWs)   bands (ev):

   -84.6593 -84.6319 -84.6189 -84.6184 -45.1143 -45.1125 -45.0931 -45.0460
   -45.0382 -45.0008 -44.9985 -44.9805 -44.9769 -44.9759 -44.9314 -44.9262
    11.1857  13.9247  14.7978  14.8127  15.0810  15.1547  15.1642  16.0151
    16.7066  16.7515  16.9111  16.9525  17.4084  17.4148  17.9795  17.9938
    17.9983  18.0067  18.2592  18.5552  18.6073  18.6100  23.9646  24.7904
    28.3496  29.4406  29.8805

     occupation numbers 
     1.0000   1.0000   1.0000   1.0000   1.0000   1.0000   1.0000   1.0000
     1.0000   1.0000   1.0000   1.0000   1.0000   1.0000   1.0000   1.0000
     1.0000   1.0000   1.0000   1.0000   1.0000   1.0000   1.0000   1.0000
     1.0000   1.0000   1.0000   1.0000   1.0000   1.0000   1.0000   1.0000
     1.0000   1.0000   1.0000   1.0000   1.0000   1.0000  -0.0000  -0.0000
    -0.0000  -0.0000  -0.0000

          k = 0.0000 0.0833 0.4167 (  8683 PWs)   bands (ev):

   -84.6527 -84.6385 -84.6188 -84.6185 -45.0980 -45.0946 -45.0654 -45.0627
   -45.0561 -45.0048 -45.0005 -44.9992 -44.9687 -44.9645 -44.9432 -44.9382
    11.9203  13.4324  15.0149  15.0243  15.2991  15.4358  15.4630  15.7825
    16.2126  16.2612  16.9952  17.0843  17.1766  17.3836  17.7128  17.7973
    17.8133  17.8886  18.1017  18.3411  18.6077  18.6093  25.0205  25.9621
    27.2515  28.5355  29.5946

     occupation numbers 
     1.0000   1.0000   1.0000   1.0000   1.0000   1.0000   1.0000   1.0000
     1.0000   1.0000   1.0000   1.0000   1.0000   1.0000   1.0000   1.0000
     1.0000   1.0000   1.0000   1.0000   1.0000   1.0000   1.0000   1.0000
     1.0000   1.0000   1.0000   1.0000   1.0000   1.0000   1.0000   1.0000
     1.0000   1.0000   1.0000   1.0000   1.0000   1.0000  -0.0000  -0.0000
    -0.0000  -0.0000  -0.0000

          k = 0.0000 0.0833-0.5000 (  8698 PWs)   bands (ev):

   -84.6457 -84.6455 -84.6187 -84.6186 -45.0805 -45.0804 -45.0754 -45.0753
   -45.0354 -45.0353 -45.0000 -44.9998 -44.9560 -44.9559 -44.9514 -44.9513
    12.7106  12.7106  15.1077  15.1077  15.5380  15.5381  15.7866  15.7867
    15.8294  15.8295  16.9838  16.9839  17.4344  17.4345  17.5761  17.5762
    17.7280  17.7281  18.2157  18.2158  18.6085  18.6086  26.1198  26.1198
    27.2150  27.2151  29.8936

     occupation numbers 
     1.0000   1.0000   1.0000   1.0000   1.0000   1.0000   1.0000   1.0000
     1.0000   1.0000   1.0000   1.0000   1.0000   1.0000   1.0000   1.0000
     1.0000   1.0000   1.0000   1.0000   1.0000   1.0000   1.0000   1.0000
     1.0000   1.0000   1.0000   1.0000   1.0000   1.0000   1.0000   1.0000
     1.0000   1.0000   1.0000   1.0000   1.0000   1.0000  -0.0000  -0.0000
    -0.0000  -0.0000  -0.0000

          k = 0.0000 0.1667 0.1667 (  8682 PWs)   bands (ev):

   -84.6668 -84.6218 -84.6216 -84.6184 -45.1324 -45.1299 -45.1299 -45.0307
   -45.0059 -45.0058 -44.9950 -44.9949 -44.9932 -44.9465 -44.9184 -44.9088
    10.3929  14.3424  14.3424  14.4865  14.8505  14.8505  14.8605  16.3190
    16.6837  16.7007  17.5355  17.6026  17.6027  17.6522  17.8509  18.2714
    18.4017  18.4018  18.4680  18.4680  18.5358  21.0006  21.0006  23.3904
    28.7473  29.9229  31.1028

     occupation numbers 
     1.0000   1.0000   1.0000   1.0000   1.0000   1.0000   1.0000   1.0000
     1.0000   1.0000   1.0000   1.0000   1.0000   1.0000   1.0000   1.0000
     1.0000   1.0000   1.0000   1.0000   1.0000   1.0000   1.0000   1.0000
     1.0000   1.0000   1.0000   1.0000   1.0000   1.0000   1.0000   1.0000
     1.0000   1.0000   1.0000   1.0000   1.0000  -0.0000  -0.0000  -0.0000
    -0.0000  -0.0000  -0.0000

          k = 0.0000 0.1667 0.2500 (  8677 PWs)   bands (ev):

   -84.6626 -84.6258 -84.6214 -84.6187 -45.1224 -45.1208 -45.1151 -45.0439
   -45.0175 -44.9978 -44.9937 -44.9897 -44.9855 -44.9677 -44.9264 -44.9130
    10.8388  14.3090  14.5778  14.6821  14.9807  15.0051  15.0055  16.1930
    16.7736  16.7943  17.0421  17.1225  17.2806  17.5565  17.9236  18.1095
    18.2225  18.2529  18.3346  18.4664  18.4916  19.9227  21.8148  24.2360
    28.0040  29.3849  31.2869

     occupation numbers 
     1.0000   1.0000   1.0000   1.0000   1.0000   1.0000   1.0000   1.0000
     1.0000   1.0000   1.0000   1.0000   1.0000   1.0000   1.0000   1.0000
     1.0000   1.0000   1.0000   1.0000   1.0000   1.0000   1.0000   1.0000
     1.0000   1.0000   1.0000   1.0000   1.0000   1.0000   1.0000   1.0000
     1.0000   1.0000   1.0000   1.0000   1.0000  -0.0000  -0.0000  -0.0000
    -0.0000  -0.0000  -0.0000

          k = 0.0000 0.1667 0.3333 (  8670 PWs)   bands (ev):

   -84.6572 -84.6312 -84.6210 -84.6191 -45.1123 -45.1057 -45.0955 -45.0581
   -45.0327 -44.9923 -44.9921 -44.9881 -44.9874 -44.9735 -44.9369 -44.9211
    11.4380  14.1078  14.8526  14.9182  15.1525  15.1912  15.2222  16.0138
    16.5241  16.6709  16.8386  16.9527  16.9645  17.4658  17.9194  17.9921
    18.0079  18.0406  18.1875  18.4646  18.4719  19.1083  22.6894  25.2466
    26.8064  29.5133  30.2640

     occupation numbers 
     1.0000   1.0000   1.0000   1.0000   1.0000   1.0000   1.0000   1.0000
     1.0000   1.0000   1.0000   1.0000   1.0000   1.0000   1.0000   1.0000
     1.0000   1.0000   1.0000   1.0000   1.0000   1.0000   1.0000   1.0000
     1.0000   1.0000   1.0000   1.0000   1.0000   1.0000   1.0000   1.0000
     1.0000   1.0000   1.0000   1.0000   1.0000   1.0004  -0.0000  -0.0000
    -0.0000  -0.0000  -0.0000

          k = 0.0000 0.1667 0.4167 (  8685 PWs)   bands (ev):

   -84.6509 -84.6375 -84.6205 -84.6195 -45.1003 -45.0881 -45.0726 -45.0720
   -45.0503 -45.0189 -44.9904 -44.9879 -44.9752 -44.9598 -44.9491 -44.9324
    12.1558  13.6299  15.0995  15.1451  15.3557  15.3987  15.5015  15.8024
    16.0666  16.2349  16.7651  16.8281  17.1823  17.4930  17.7122  17.7605
    17.8125  17.9438  18.1877  18.4629  18.4643  18.6304  23.6140  25.6561
    26.3765  28.9007  29.8230

     occupation numbers 
     1.0000   1.0000   1.0000   1.0000   1.0000   1.0000   1.0000   1.0000
     1.0000   1.0000   1.0000   1.0000   1.0000   1.0000   1.0000   1.0000
     1.0000   1.0000   1.0000   1.0000   1.0000   1.0000   1.0000   1.0000
     1.0000   1.0000   1.0000   1.0000   1.0000   1.0000   1.0000   1.0000
     1.0000   1.0000   1.0000   1.0000   1.0000   1.0000  -0.0000  -0.0000
    -0.0000  -0.0000  -0.0000

          k = 0.0000 0.1667-0.5000 (  8690 PWs)   bands (ev):

   -84.6443 -84.6441 -84.6201 -84.6200 -45.0869 -45.0869 -45.0693 -45.0692
   -45.0461 -45.0459 -44.9889 -44.9888 -44.9622 -44.9621 -44.9458 -44.9457
    12.9264  12.9264  15.2247  15.2247  15.5773  15.5774  15.6824  15.6825
    15.8409  15.8410  16.7592  16.7592  17.4361  17.4362  17.6761  17.6761
    17.7130  17.7131  18.3691  18.3691  18.4622  18.4624  24.5967  24.5967
    27.6000  27.6000  30.2670

     occupation numbers 
     1.0000   1.0000   1.0000   1.0000   1.0000   1.0000   1.0000   1.0000
     1.0000   1.0000   1.0000   1.0000   1.0000   1.0000   1.0000   1.0000
     1.0000   1.0000   1.0000   1.0000   1.0000   1.0000   1.0000   1.0000
     1.0000   1.0000   1.0000   1.0000   1.0000   1.0000   1.0000   1.0000
     1.0000   1.0000   1.0000   1.0000   1.0000   1.0000  -0.0000  -0.0000
    -0.0000  -0.0000  -0.0000

          k = 0.0000 0.2500 0.2500 (  8664 PWs)   bands (ev):

   -84.6588 -84.6252 -84.6251 -84.6194 -45.1123 -45.1123 -45.1096 -45.0575
   -45.0092 -45.0091 -44.9890 -44.9827 -44.9826 -44.9826 -44.9348 -44.9137
    11.2694  14.5667  14.5667  14.8498  15.1199  15.1199  15.1268  16.1198
    16.7669  16.7670  16.7839  16.8591  16.8687  17.5066  17.9768  18.0148
    18.1663  18.1663  18.2506  18.2507  18.3837  20.6539  20.6539  24.9997
    26.6225  29.4698  32.2295

     occupation numbers 
     1.0000   1.0000   1.0000   1.0000   1.0000   1.0000   1.0000   1.0000
     1.0000   1.0000   1.0000   1.0000   1.0000   1.0000   1.0000   1.0000
     1.0000   1.0000   1.0000   1.0000   1.0000   1.0000   1.0000   1.0000
     1.0000   1.0000   1.0000   1.0000   1.0000   1.0000   1.0000   1.0000
     1.0000   1.0000   1.0000   1.0000   1.0000  -0.0000  -0.0000  -0.0000
    -0.0000  -0.0000  -0.0000

          k = 0.0000 0.2500 0.3333 (  8656 PWs)   bands (ev):

   -84.6539 -84.6301 -84.6243 -84.6202 -45.1078 -45.0982 -45.0949 -45.0707
   -45.0239 -45.0124 -44.9983 -44.9795 -44.9779 -44.9691 -44.9457 -44.9190
    11.8459  14.3883  14.8737  15.0533  15.2705  15.2747  15.3140  15.9920
    16.3094  16.5311  16.5422  16.7762  17.0084  17.4431  17.8175  17.9623
    17.9910  18.0345  18.1800  18.2491  18.3134  19.7222  21.4268  25.3244
    25.9429  29.7244  30.8261

     occupation numbers 
     1.0000   1.0000   1.0000   1.0000   1.0000   1.0000   1.0000   1.0000
     1.0000   1.0000   1.0000   1.0000   1.0000   1.0000   1.0000   1.0000
     1.0000   1.0000   1.0000   1.0000   1.0000   1.0000   1.0000   1.0000
     1.0000   1.0000   1.0000   1.0000   1.0000   1.0000   1.0000   1.0000
     1.0000   1.0000   1.0000   1.0000   1.0000  -0.0000  -0.0000  -0.0000
    -0.0000  -0.0000  -0.0000

          k = 0.0000 0.2500 0.4167 (  8683 PWs)   bands (ev):

   -84.6481 -84.6358 -84.6233 -84.6212 -45.1015 -45.0828 -45.0803 -45.0778
   -45.0410 -45.0363 -44.9856 -44.9768 -44.9755 -44.9584 -44.9545 -44.9282
    12.5327  13.9343  15.1657  15.2913  15.3817  15.4470  15.5606  15.8243
    15.9121  16.1848  16.4830  16.7013  17.2059  17.4681  17.6862  17.7151
    17.7701  17.8322  18.2501  18.2752  18.3977  19.0855  22.2532  24.1722
    27.0206  29.4786  30.1070

     occupation numbers 
     1.0000   1.0000   1.0000   1.0000   1.0000   1.0000   1.0000   1.0000
     1.0000   1.0000   1.0000   1.0000   1.0000   1.0000   1.0000   1.0000
     1.0000   1.0000   1.0000   1.0000   1.0000   1.0000   1.0000   1.0000
     1.0000   1.0000   1.0000   1.0000   1.0000   1.0000   1.0000   1.0000
     1.0000   1.0000   1.0000   1.0000   1.0000   1.0000  -0.0000  -0.0000
    -0.0000  -0.0000  -0.0000

          k = 0.0000 0.2500-0.5000 (  8708 PWs)   bands (ev):

   -84.6420 -84.6419 -84.6223 -84.6222 -45.0931 -45.0931 -45.0595 -45.0594
   -45.0594 -45.0594 -44.9754 -44.9753 -44.9721 -44.9719 -44.9405 -44.9404
    13.2659  13.2659  15.3559  15.3559  15.5744  15.5745  15.6367  15.6368
    15.8545  15.8546  16.5717  16.5717  17.4468  17.4469  17.6160  17.6161
    17.6605  17.6606  18.2570  18.2571  18.6793  18.6793  23.1577  23.1577
    28.2052  28.2053  30.6268

     occupation numbers 
     1.0000   1.0000   1.0000   1.0000   1.0000   1.0000   1.0000   1.0000
     1.0000   1.0000   1.0000   1.0000   1.0000   1.0000   1.0000   1.0000
     1.0000   1.0000   1.0000   1.0000   1.0000   1.0000   1.0000   1.0000
     1.0000   1.0000   1.0000   1.0000   1.0000   1.0000   1.0000   1.0000
     1.0000   1.0000   1.0000   1.0000   1.0000   1.0000  -0.0000  -0.0000
    -0.0000  -0.0000  -0.0000

          k = 0.0000 0.3333 0.3333 (  8666 PWs)   bands (ev):

   -84.6495 -84.6287 -84.6285 -84.6216 -45.0999 -45.0999 -45.0820 -45.0808
   -45.0336 -45.0125 -45.0124 -44.9698 -44.9651 -44.9650 -44.9571 -44.9210
    12.3873  14.7229  14.7229  15.1682  15.4186  15.4324  15.4325  15.9329
    16.1934  16.1935  16.3362  16.7144  17.1060  17.3764  17.6867  17.8446
    17.8446  17.9937  17.9938  18.1793  18.4081  20.3803  20.3803  24.0089
    26.8243  30.0496  31.5644

     occupation numbers 
     1.0000   1.0000   1.0000   1.0000   1.0000   1.0000   1.0000   1.0000
     1.0000   1.0000   1.0000   1.0000   1.0000   1.0000   1.0000   1.0000
     1.0000   1.0000   1.0000   1.0000   1.0000   1.0000   1.0000   1.0000
     1.0000   1.0000   1.0000   1.0000   1.0000   1.0000   1.0000   1.0000
     1.0000   1.0000   1.0000   1.0000   1.0000  -0.0000  -0.0000  -0.0000
    -0.0000  -0.0000  -0.0000

          k = 0.0000 0.3333 0.4167 (  8667 PWs)   bands (ev):

   -84.6445 -84.6337 -84.6269 -84.6233 -45.0996 -45.0908 -45.0881 -45.0643
   -45.0542 -45.0289 -44.9991 -44.9705 -44.9644 -44.9624 -44.9505 -44.9274
    13.0243  14.3031  15.0386  15.2478  15.5677  15.5718  15.6330  15.8339
    15.9149  16.1046  16.2592  16.6044  17.2653  17.3709  17.5741  17.6628
    17.6649  17.7281  18.0051  18.0871  18.7023  19.6113  21.1015  22.8783
    27.8503  30.2361  30.5011

     occupation numbers 
     1.0000   1.0000   1.0000   1.0000   1.0000   1.0000   1.0000   1.0000
     1.0000   1.0000   1.0000   1.0000   1.0000   1.0000   1.0000   1.0000
     1.0000   1.0000   1.0000   1.0000   1.0000   1.0000   1.0000   1.0000
     1.0000   1.0000   1.0000   1.0000   1.0000   1.0000   1.0000   1.0000
     1.0000   1.0000   1.0000   1.0000   1.0000  -0.0000  -0.0000  -0.0000
    -0.0000  -0.0000  -0.0000

          k = 0.0000 0.3333-0.5000 (  8670 PWs)   bands (ev):

   -84.6391 -84.6390 -84.6252 -84.6250 -45.0967 -45.0967 -45.0727 -45.0727
   -45.0467 -45.0466 -44.9849 -44.9848 -44.9621 -44.9620 -44.9375 -44.9375
    13.6946  13.6947  15.2321  15.2321  15.7066  15.7067  15.7150  15.7151
    15.8624  15.8625  16.4311  16.4311  17.4782  17.4782  17.4808  17.4809
    17.5557  17.5558  18.0328  18.0329  19.0814  19.0815  21.9203  21.9203
    28.9936  28.9936  31.0944

     occupation numbers 
     1.0000   1.0000   1.0000   1.0000   1.0000   1.0000   1.0000   1.0000
     1.0000   1.0000   1.0000   1.0000   1.0000   1.0000   1.0000   1.0000
     1.0000   1.0000   1.0000   1.0000   1.0000   1.0000   1.0000   1.0000
     1.0000   1.0000   1.0000   1.0000   1.0000   1.0000   1.0000   1.0000
     1.0000   1.0000   1.0000   1.0000   1.0000   1.0000  -0.0000  -0.0000
    -0.0000  -0.0000  -0.0000

          k = 0.0000 0.4167 0.4167 (  8662 PWs)   bands (ev):

   -84.6402 -84.6312 -84.6311 -84.6258 -45.0955 -45.0939 -45.0938 -45.0705
   -45.0486 -45.0149 -45.0148 -44.9846 -44.9560 -44.9491 -44.9490 -44.9307
    13.5872  14.6694  14.6694  15.1408  15.7083  15.7084  15.7846  15.8184
    15.9925  16.0934  16.0935  16.4921  17.3068  17.3765  17.4598  17.5038
    17.5038  17.7608  17.7609  17.9328  19.0809  20.2111  20.2112  21.7986
    28.8295  31.0259  31.1430

     occupation numbers 
     1.0000   1.0000   1.0000   1.0000   1.0000   1.0000   1.0000   1.0000
     1.0000   1.0000   1.0000   1.0000   1.0000   1.0000   1.0000   1.0000
     1.0000   1.0000   1.0000   1.0000   1.0000   1.0000   1.0000   1.0000
     1.0000   1.0000   1.0000   1.0000   1.0000   1.0000   1.0000   1.0000
     1.0000   1.0000   1.0000   1.0000   1.0000  -0.0000  -0.0000  -0.0000
    -0.0000  -0.0000  -0.0000

          k = 0.0000 0.4167-0.5000 (  8672 PWs)   bands (ev):

   -84.6358 -84.6356 -84.6285 -84.6284 -45.0965 -45.0965 -45.0841 -45.0840
   -45.0318 -45.0317 -44.9998 -44.9997 -44.9508 -44.9508 -44.9381 -44.9381
    14.1597  14.1597  14.9585  14.9585  15.7742  15.7742  15.8555  15.8555
    15.9541  15.9541  16.3145  16.3145  17.3573  17.3574  17.4207  17.4208
    17.5446  17.5447  17.8253  17.8253  19.5614  19.5614  20.9230  20.9231
    29.9327  29.9327  31.6961

     occupation numbers 
     1.0000   1.0000   1.0000   1.0000   1.0000   1.0000   1.0000   1.0000
     1.0000   1.0000   1.0000   1.0000   1.0000   1.0000   1.0000   1.0000
     1.0000   1.0000   1.0000   1.0000   1.0000   1.0000   1.0000   1.0000
     1.0000   1.0000   1.0000   1.0000   1.0000   1.0000   1.0000   1.0000
     1.0000   1.0000   1.0000   1.0000  -0.0000  -0.0000  -0.0000  -0.0000
    -0.0000  -0.0000  -0.0000

          k = 0.0000-0.5000-0.5000 (  8604 PWs)   bands (ev):

   -84.6321 -84.6321 -84.6321 -84.6319 -45.0923 -45.0923 -45.0922 -45.0922
   -45.0158 -45.0158 -45.0157 -45.0155 -44.9427 -44.9426 -44.9425 -44.9425
    14.5968  14.5968  14.5968  14.5969  15.8263  15.8263  15.8265  15.8265
    16.1661  16.1661  16.1662  16.1662  17.3301  17.3301  17.3301  17.3303
    17.6590  17.6590  17.6592  17.6592  20.1547  20.1547  20.1547  20.1548
    30.9988  30.9989  30.9989

     occupation numbers 
     1.0000   1.0000   1.0000   1.0000   1.0000   1.0000   1.0000   1.0000
     1.0000   1.0000   1.0000   1.0000   1.0000   1.0000   1.0000   1.0000
     1.0000   1.0000   1.0000   1.0000   1.0000   1.0000   1.0000   1.0000
     1.0000   1.0000   1.0000   1.0000   1.0000   1.0000   1.0000   1.0000
     1.0000   1.0000   1.0000   1.0000  -0.0000  -0.0000  -0.0000  -0.0000
    -0.0000  -0.0000  -0.0000

          k = 0.0833 0.0833 0.0833 (  8658 PWs)   bands (ev):

   -84.6712 -84.6192 -84.6192 -84.6190 -45.1436 -45.1435 -45.1435 -45.0082
   -45.0082 -45.0081 -44.9986 -44.9985 -44.9985 -44.9228 -44.9076 -44.9076
     9.9336  14.2264  14.2264  14.2264  14.7034  14.7034  14.7034  16.4509
    16.5896  16.5896  17.7809  17.7809  18.1938  18.1938  18.1939  18.4383
    18.4384  18.4384  18.6262  18.6263  18.6263  21.6170  21.6170  21.6170
    29.4293  29.4293  29.4293

     occupation numbers 
     1.0000   1.0000   1.0000   1.0000   1.0000   1.0000   1.0000   1.0000
     1.0000   1.0000   1.0000   1.0000   1.0000   1.0000   1.0000   1.0000
     1.0000   1.0000   1.0000   1.0000   1.0000   1.0000   1.0000   1.0000
     1.0000   1.0000   1.0000   1.0000   1.0000   1.0000   1.0000   1.0000
     1.0000   1.0000   1.0000   1.0000   1.0000  -0.0000  -0.0000  -0.0000
    -0.0000  -0.0000  -0.0000

          k = 0.0833 0.0833 0.1667 (  8663 PWs)   bands (ev):

   -84.6685 -84.6218 -84.6192 -84.6191 -45.1369 -45.1369 -45.1331 -45.0169
   -45.0168 -45.0024 -44.9969 -44.9968 -44.9938 -44.9376 -44.9123 -44.9098
    10.2107  14.2389  14.3690  14.3690  14.7884  14.7988  14.7988  16.3658
    16.6527  16.6592  17.6933  17.7423  17.7423  17.8273  17.9868  18.2949
    18.3333  18.3334  18.5985  18.6042  18.6043  20.5695  22.2758  22.2758
    29.5054  29.5054  31.0123

     occupation numbers 
     1.0000   1.0000   1.0000   1.0000   1.0000   1.0000   1.0000   1.0000
     1.0000   1.0000   1.0000   1.0000   1.0000   1.0000   1.0000   1.0000
     1.0000   1.0000   1.0000   1.0000   1.0000   1.0000   1.0000   1.0000
     1.0000   1.0000   1.0000   1.0000   1.0000   1.0000   1.0000   1.0000
     1.0000   1.0000   1.0000   1.0000   1.0000  -0.0000  -0.0000  -0.0000
    -0.0000  -0.0000  -0.0000

          k = 0.0833 0.0833 0.2500 (  8664 PWs)   bands (ev):

   -84.6642 -84.6261 -84.6192 -84.6191 -45.1265 -45.1264 -45.1164 -45.0285
   -45.0285 -44.9963 -44.9961 -44.9933 -44.9863 -44.9581 -44.9198 -44.9164
    10.6621  14.1956  14.5838  14.5839  14.9251  14.9572  14.9572  16.2156
    16.7668  16.7741  17.2085  17.2085  17.5679  17.6491  17.9010  18.0933
    18.1732  18.1733  18.5377  18.5834  18.5835  19.4990  23.1338  23.1338
    29.4929  29.4930  30.2699

     occupation numbers 
     1.0000   1.0000   1.0000   1.0000   1.0000   1.0000   1.0000   1.0000
     1.0000   1.0000   1.0000   1.0000   1.0000   1.0000   1.0000   1.0000
     1.0000   1.0000   1.0000   1.0000   1.0000   1.0000   1.0000   1.0000
     1.0000   1.0000   1.0000   1.0000   1.0000   1.0000   1.0000   1.0000
     1.0000   1.0000   1.0000   1.0000   1.0000  -0.0000  -0.0000  -0.0000
    -0.0000  -0.0000  -0.0000

          k = 0.0833 0.0833 0.3333 (  8675 PWs)   bands (ev):

   -84.6586 -84.6317 -84.6192 -84.6190 -45.1129 -45.1129 -45.0944 -45.0427
   -45.0426 -44.9961 -44.9960 -44.9830 -44.9814 -44.9766 -44.9295 -44.9265
    11.2695  13.9840  14.8340  14.8341  15.1058  15.1738  15.1738  16.0186
    16.6875  16.6876  16.8934  16.9319  17.2478  17.4577  17.8555  17.9718
    17.9719  17.9966  18.4496  18.5728  18.5729  18.6766  24.0970  24.0970
    28.6058  28.6058  30.1514

     occupation numbers 
     1.0000   1.0000   1.0000   1.0000   1.0000   1.0000   1.0000   1.0000
     1.0000   1.0000   1.0000   1.0000   1.0000   1.0000   1.0000   1.0000
     1.0000   1.0000   1.0000   1.0000   1.0000   1.0000   1.0000   1.0000
     1.0000   1.0000   1.0000   1.0000   1.0000   1.0000   1.0000   1.0000
     1.0000   1.0000   1.0000   1.0000   1.0000   1.0000  -0.0000  -0.0000
    -0.0000  -0.0000  -0.0000

          k = 0.0833 0.0833 0.4167 (  8685 PWs)   bands (ev):

   -84.6521 -84.6382 -84.6192 -84.6190 -45.0979 -45.0978 -45.0683 -45.0581
   -45.0580 -45.0109 -44.9962 -44.9961 -44.9678 -44.9653 -44.9409 -44.9392
    11.9982  13.4965  15.0562  15.0562  15.3198  15.4402  15.4403  15.7922
    16.2181  16.2182  16.9363  16.9685  17.1282  17.4939  17.6032  17.7919
    17.7920  18.1075  18.1204  18.3427  18.5682  18.5683  25.1126  25.1126
    27.4587  27.4587  30.4755

     occupation numbers 
     1.0000   1.0000   1.0000   1.0000   1.0000   1.0000   1.0000   1.0000
     1.0000   1.0000   1.0000   1.0000   1.0000   1.0000   1.0000   1.0000
     1.0000   1.0000   1.0000   1.0000   1.0000   1.0000   1.0000   1.0000
     1.0000   1.0000   1.0000   1.0000   1.0000   1.0000   1.0000   1.0000
     1.0000   1.0000   1.0000   1.0000   1.0000   1.0000  -0.0000  -0.0000
    -0.0000  -0.0000  -0.0000

          k = 0.0833 0.0833-0.5000 (  8712 PWs)   bands (ev):

   -84.6452 -84.6451 -84.6192 -84.6190 -45.0876 -45.0875 -45.0686 -45.0684
   -45.0400 -45.0398 -44.9963 -44.9961 -44.9534 -44.9533 -44.9532 -44.9530
    12.7814  12.7814  15.1501  15.1501  15.5536  15.5538  15.6898  15.6899
    15.8950  15.8951  16.9018  16.9018  17.3556  17.3557  17.7170  17.7171
    17.7356  17.7357  18.2257  18.2257  18.5669  18.5670  25.9080  25.9080
    26.6163  26.6163  30.7324

     occupation numbers 
     1.0000   1.0000   1.0000   1.0000   1.0000   1.0000   1.0000   1.0000
     1.0000   1.0000   1.0000   1.0000   1.0000   1.0000   1.0000   1.0000
     1.0000   1.0000   1.0000   1.0000   1.0000   1.0000   1.0000   1.0000
     1.0000   1.0000   1.0000   1.0000   1.0000   1.0000   1.0000   1.0000
     1.0000   1.0000   1.0000   1.0000   1.0000   1.0000  -0.0000  -0.0000
    -0.0000  -0.0000  -0.0000

          k = 0.0833 0.1667 0.1667 (  8663 PWs)   bands (ev):

   -84.6659 -84.6218 -84.6216 -84.6193 -45.1307 -45.1288 -45.1287 -45.0274
   -45.0102 -45.0100 -44.9920 -44.9919 -44.9918 -44.9539 -44.9162 -44.9102
    10.4822  14.3876  14.3876  14.4983  14.8795  14.8795  14.8871  16.3124
    16.6929  16.7029  17.4656  17.5235  17.5236  17.6794  17.8253  18.1896
    18.2057  18.2058  18.5678  18.5770  18.5770  21.1844  21.1844  22.8251
    29.3459  30.1819  31.0557

     occupation numbers 
     1.0000   1.0000   1.0000   1.0000   1.0000   1.0000   1.0000   1.0000
     1.0000   1.0000   1.0000   1.0000   1.0000   1.0000   1.0000   1.0000
     1.0000   1.0000   1.0000   1.0000   1.0000   1.0000   1.0000   1.0000
     1.0000   1.0000   1.0000   1.0000   1.0000   1.0000   1.0000   1.0000
     1.0000   1.0000   1.0000   1.0000   1.0000  -0.0000  -0.0000  -0.0000
    -0.0000  -0.0000  -0.0000

          k = 0.0833 0.1667 0.2500 (  8670 PWs)   bands (ev):

   -84.6619 -84.6257 -84.6215 -84.6195 -45.1219 -45.1211 -45.1155 -45.0392
   -45.0208 -44.9997 -44.9904 -44.9883 -44.9840 -44.9752 -44.9237 -44.9142
    10.9241  14.3538  14.6123  14.6930  15.0096  15.0307  15.0310  16.1940
    16.7718  16.7883  17.0072  17.0610  17.2090  17.5931  17.9048  18.0097
    18.0404  18.0920  18.5165  18.5185  18.5226  20.0691  21.9488  23.5845
    28.2725  30.0478  30.2608

     occupation numbers 
     1.0000   1.0000   1.0000   1.0000   1.0000   1.0000   1.0000   1.0000
     1.0000   1.0000   1.0000   1.0000   1.0000   1.0000   1.0000   1.0000
     1.0000   1.0000   1.0000   1.0000   1.0000   1.0000   1.0000   1.0000
     1.0000   1.0000   1.0000   1.0000   1.0000   1.0000   1.0000   1.0000
     1.0000   1.0000   1.0000   1.0000   1.0000  -0.0000  -0.0000  -0.0000
    -0.0000  -0.0000  -0.0000

          k = 0.0833 0.1667 0.3333 (  8671 PWs)   bands (ev):

   -84.6566 -84.6310 -84.6211 -84.6197 -45.1131 -45.1093 -45.0975 -45.0511
   -45.0338 -44.9995 -44.9890 -44.9868 -44.9865 -44.9735 -44.9337 -44.9223
    11.5174  14.1535  14.8771  14.9288  15.1812  15.2114  15.2339  16.0228
[...]
    -0.0000  -0.0000  -0.0000

          k = 0.2500 0.2500-0.5000 (  8672 PWs)   bands (ev):

   -83.7715 -83.7715 -83.7572 -83.7571 -44.2908 -44.2908 -44.2571 -44.2571
   -44.1655 -44.1655 -44.1180 -44.1180 -44.1018 -44.1018 -44.1012 -44.1012
    13.7374  13.7374  15.3843  15.3843  16.1842  16.1842  16.5592  16.5592
    17.0390  17.0390  17.1873  17.1873  17.6328  17.6328  17.8558  17.8558
    19.1469  19.1469  19.2103  19.2103  19.2486  19.2486  22.8473  22.8473
    25.8558  25.8558  30.5735

     occupation numbers 
     1.0000   1.0000   1.0000   1.0000   1.0000   1.0000   1.0000   1.0000
     1.0000   1.0000   1.0000   1.0000   1.0000   1.0000   1.0000   1.0000
     1.0000   1.0000   1.0000   1.0000   1.0000   1.0000   1.0000   1.0000
     1.0000   1.0000   1.0000   1.0000   1.0000   1.0000   1.0000   1.0000
     0.3946   0.3935  -0.0000  -0.0000  -0.0000  -0.0000  -0.0000  -0.0000
    -0.0000  -0.0000  -0.0000

          k = 0.2500 0.3333 0.3333 (  8675 PWs)   bands (ev):

   -83.7781 -83.7608 -83.7607 -83.7578 -44.2938 -44.2888 -44.2888 -44.2389
   -44.1594 -44.1422 -44.1422 -44.1161 -44.1147 -44.1147 -44.0885 -44.0805
    12.9390  14.9492  14.9492  15.2395  16.1941  16.2828  16.2828  16.8397
    17.0821  17.0821  17.1568  17.4008  17.4368  17.8151  17.8151  17.8337
    18.6756  18.9403  19.3097  19.3235  19.3235  21.0969  21.0969  22.4090
    26.0886  27.6116  27.6116

     occupation numbers 
     1.0000   1.0000   1.0000   1.0000   1.0000   1.0000   1.0000   1.0000
     1.0000   1.0000   1.0000   1.0000   1.0000   1.0000   1.0000   1.0000
     1.0000   1.0000   1.0000   1.0000   1.0000   1.0000   1.0000   1.0000
     1.0000   1.0000   1.0000   1.0000   1.0000   1.0000   1.0000   1.0000
     1.0000   1.0000  -0.0000  -0.0000  -0.0000  -0.0000  -0.0000  -0.0000
    -0.0000  -0.0000  -0.0000

          k = 0.2500 0.3333 0.4167 (  8670 PWs)   bands (ev):

   -83.7739 -83.7649 -83.7600 -83.7585 -44.2984 -44.2958 -44.2848 -44.2588
   -44.1538 -44.1447 -44.1224 -44.1118 -44.1111 -44.1055 -44.0970 -44.0856
    13.4663  14.5202  15.0402  15.1815  16.3505  16.4103  16.5433  16.8443
    17.1071  17.1211  17.1980  17.2946  17.4491  17.6489  17.7210  17.7223
    18.8102  19.1865  19.2354  19.2501  19.2526  20.1609  21.5283  22.3093
    25.7617  26.6622  28.3932

     occupation numbers 
     1.0000   1.0000   1.0000   1.0000   1.0000   1.0000   1.0000   1.0000
     1.0000   1.0000   1.0000   1.0000   1.0000   1.0000   1.0000   1.0000
     1.0000   1.0000   1.0000   1.0000   1.0000   1.0000   1.0000   1.0000
     1.0000   1.0000   1.0000   1.0000   1.0000   1.0000   1.0000   1.0000
     1.0000  -0.0001  -0.0000  -0.0000  -0.0000  -0.0000  -0.0000  -0.0000
    -0.0000  -0.0000  -0.0000

          k = 0.2500 0.3333-0.5000 (  8680 PWs)   bands (ev):

   -83.7694 -83.7694 -83.7592 -83.7592 -44.2991 -44.2991 -44.2746 -44.2746
   -44.1488 -44.1488 -44.1100 -44.1100 -44.1077 -44.1077 -44.0949 -44.0949
    14.0113  14.0113  15.1146  15.1146  16.4347  16.4347  16.7530  16.7530
    17.1752  17.1752  17.1868  17.1868  17.5231  17.5232  17.6805  17.6806
    19.0488  19.0488  19.2189  19.2189  19.5349  19.5349  21.9675  21.9675
    26.0053  26.0053  29.3056

     occupation numbers 
     1.0000   1.0000   1.0000   1.0000   1.0000   1.0000   1.0000   1.0000
     1.0000   1.0000   1.0000   1.0000   1.0000   1.0000   1.0000   1.0000
     1.0000   1.0000   1.0000   1.0000   1.0000   1.0000   1.0000   1.0000
     1.0000   1.0000   1.0000   1.0000   1.0000   1.0000   1.0000   1.0000
     1.0000   1.0000  -0.0000  -0.0000  -0.0000  -0.0000  -0.0000  -0.0000
    -0.0000  -0.0000  -0.0000

          k = 0.2500 0.4167 0.4167 (  8662 PWs)   bands (ev):

   -83.7706 -83.7634 -83.7634 -83.7600 -44.3026 -44.2955 -44.2955 -44.2761
   -44.1438 -44.1281 -44.1281 -44.1054 -44.1052 -44.1017 -44.1017 -44.0869
    13.8813  14.6861  14.6861  15.0085  16.5576  16.6909  16.6909  16.9699
    17.1699  17.1699  17.2344  17.2862  17.4047  17.5671  17.5671  17.5916
    18.8366  19.1502  19.1502  19.1797  19.4990  20.5827  20.5827  21.7060
    25.9562  27.3563  27.3563

     occupation numbers 
     1.0000   1.0000   1.0000   1.0000   1.0000   1.0000   1.0000   1.0000
     1.0000   1.0000   1.0000   1.0000   1.0000   1.0000   1.0000   1.0000
     1.0000   1.0000   1.0000   1.0000   1.0000   1.0000   1.0000   1.0000
     1.0000   1.0000   1.0000   1.0000   1.0000   1.0000   1.0000   1.0000
     1.0000   0.2085   0.2082  -0.0010  -0.0000  -0.0000  -0.0000  -0.0000
    -0.0000  -0.0000  -0.0000

          k = 0.2500 0.4167-0.5000 (  8674 PWs)   bands (ev):

   -83.7670 -83.7669 -83.7617 -83.7617 -44.3016 -44.3016 -44.2887 -44.2887
   -44.1353 -44.1353 -44.1153 -44.1153 -44.1017 -44.1017 -44.0928 -44.0928
    14.2964  14.2964  14.8454  14.8454  16.6911  16.6912  16.9254  16.9254
    17.1841  17.1841  17.2706  17.2706  17.4518  17.4518  17.5370  17.5370
    18.9791  18.9791  19.1256  19.1256  19.9224  19.9224  21.0971  21.0971
    26.5298  26.5298  28.2064

     occupation numbers 
     1.0000   1.0000   1.0000   1.0000   1.0000   1.0000   1.0000   1.0000
     1.0000   1.0000   1.0000   1.0000   1.0000   1.0000   1.0000   1.0000
     1.0000   1.0000   1.0000   1.0000   1.0000   1.0000   1.0000   1.0000
     1.0000   1.0000   1.0000   1.0000   1.0000   1.0000   1.0000   1.0000
     1.0000   1.0000   1.0302   1.0302  -0.0000  -0.0000  -0.0000  -0.0000
    -0.0000  -0.0000  -0.0000

          k = 0.2500-0.5000-0.5000 (  8620 PWs)   bands (ev):

   -83.7643 -83.7643 -83.7643 -83.7643 -44.2980 -44.2980 -44.2980 -44.2980
   -44.1244 -44.1244 -44.1244 -44.1244 -44.0954 -44.0954 -44.0954 -44.0954
    14.5748  14.5748  14.5748  14.5748  16.8891  16.8891  16.8891  16.8891
    17.2616  17.2616  17.2616  17.2616  17.4485  17.4485  17.4485  17.4486
    19.0142  19.0142  19.0142  19.0142  20.4158  20.4158  20.4158  20.4158
    27.2780  27.2780  27.2780

     occupation numbers 
     1.0000   1.0000   1.0000   1.0000   1.0000   1.0000   1.0000   1.0000
     1.0000   1.0000   1.0000   1.0000   1.0000   1.0000   1.0000   1.0000
     1.0000   1.0000   1.0000   1.0000   1.0000   1.0000   1.0000   1.0000
     1.0000   1.0000   1.0000   1.0000   1.0000   1.0000   1.0000   1.0000
     1.0000   1.0000   1.0000   1.0000  -0.0000  -0.0000  -0.0000  -0.0000
    -0.0000  -0.0000  -0.0000

          k = 0.3333 0.3333 0.3333 (  8676 PWs)   bands (ev):

   -83.7751 -83.7607 -83.7607 -83.7607 -44.3002 -44.3002 -44.3002 -44.2604
   -44.1349 -44.1349 -44.1349 -44.1109 -44.1109 -44.1109 -44.0857 -44.0857
    13.3159  14.9200  14.9200  14.9200  16.4622  16.4623  16.4623  16.9910
    17.2327  17.2327  17.2327  17.3661  17.3661  17.6501  17.6501  17.6501
    18.9024  18.9024  19.3490  19.3490  19.3490  21.2270  21.2271  21.2271
    26.5717  26.5717  26.5718

     occupation numbers 
     1.0000   1.0000   1.0000   1.0000   1.0000   1.0000   1.0000   1.0000
     1.0000   1.0000   1.0000   1.0000   1.0000   1.0000   1.0000   1.0000
     1.0000   1.0000   1.0000   1.0000   1.0000   1.0000   1.0000   1.0000
     1.0000   1.0000   1.0000   1.0000   1.0000   1.0000   1.0000   1.0000
     1.0000   1.0000  -0.0000  -0.0000  -0.0000  -0.0000  -0.0000  -0.0000
    -0.0000  -0.0000  -0.0000

          k = 0.3333 0.3333 0.4167 (  8659 PWs)   bands (ev):

   -83.7716 -83.7642 -83.7607 -83.7607 -44.3077 -44.3077 -44.2997 -44.2789
   -44.1314 -44.1314 -44.1142 -44.1071 -44.1071 -44.1048 -44.0918 -44.0890
    13.7341  14.5564  14.8917  14.8917  16.6118  16.6118  16.7487  17.1084
    17.2825  17.2937  17.3536  17.3681  17.3681  17.5010  17.5481  17.5481
    19.0310  19.0950  19.3057  19.3057  19.3264  20.2096  21.3473  21.3473
    25.8955  25.8955  27.2548

     occupation numbers 
     1.0000   1.0000   1.0000   1.0000   1.0000   1.0000   1.0000   1.0000
     1.0000   1.0000   1.0000   1.0000   1.0000   1.0000   1.0000   1.0000
     1.0000   1.0000   1.0000   1.0000   1.0000   1.0000   1.0000   1.0000
     1.0000   1.0000   1.0000   1.0000   1.0000   1.0000   1.0000   1.0000
     1.0000   1.0000  -0.0000  -0.0000  -0.0000  -0.0000  -0.0000  -0.0000
    -0.0000  -0.0000  -0.0000

          k = 0.3333 0.3333-0.5000 (  8644 PWs)   bands (ev):

   -83.7679 -83.7679 -83.7607 -83.7607 -44.3103 -44.3103 -44.2923 -44.2923
   -44.1304 -44.1304 -44.1056 -44.1056 -44.0986 -44.0986 -44.0983 -44.0983
    14.1565  14.1565  14.8803  14.8803  16.6675  16.6675  17.0024  17.0024
    17.2889  17.2889  17.3996  17.3996  17.4346  17.4346  17.5079  17.5080
    19.2399  19.2399  19.2746  19.2746  19.4571  19.4571  21.3976  21.3976
    25.6584  25.6584  28.0966

     occupation numbers 
     1.0000   1.0000   1.0000   1.0000   1.0000   1.0000   1.0000   1.0000
     1.0000   1.0000   1.0000   1.0000   1.0000   1.0000   1.0000   1.0000
     1.0000   1.0000   1.0000   1.0000   1.0000   1.0000   1.0000   1.0000
     1.0000   1.0000   1.0000   1.0000   1.0000   1.0000   1.0000   1.0000
    -0.0000  -0.0000  -0.0000  -0.0000  -0.0000  -0.0000  -0.0000  -0.0000
    -0.0000  -0.0000  -0.0000

          k = 0.3333 0.4167 0.4167 (  8655 PWs)   bands (ev):

   -83.7690 -83.7633 -83.7633 -83.7615 -44.3145 -44.3103 -44.3103 -44.2951
   -44.1226 -44.1141 -44.1141 -44.1026 -44.1012 -44.1012 -44.0960 -44.0896
    14.0208  14.6006  14.6006  14.7635  16.7919  16.8786  16.8786  17.2354
    17.2922  17.4031  17.4031  17.4124  17.4275  17.5064  17.5064  17.5701
    19.0429  19.2839  19.2876  19.2876  19.3115  20.3961  20.3961  21.0372
    25.6266  26.3829  26.3829

     occupation numbers 
     1.0000   1.0000   1.0000   1.0000   1.0000   1.0000   1.0000   1.0000
     1.0000   1.0000   1.0000   1.0000   1.0000   1.0000   1.0000   1.0000
     1.0000   1.0000   1.0000   1.0000   1.0000   1.0000   1.0000   1.0000
     1.0000   1.0000   1.0000   1.0000   1.0000   1.0000   1.0000   1.0000
     1.0000  -0.0000  -0.0000  -0.0000  -0.0000  -0.0000  -0.0000  -0.0000
    -0.0000  -0.0000  -0.0000

          k = 0.3333 0.4167-0.5000 (  8662 PWs)   bands (ev):

   -83.7662 -83.7662 -83.7624 -83.7624 -44.3154 -44.3154 -44.3059 -44.3059
   -44.1173 -44.1173 -44.1030 -44.1030 -44.1001 -44.1001 -44.0943 -44.0943
    14.3108  14.3108  14.6666  14.6666  16.8910  16.8910  17.1001  17.1001
    17.3193  17.3193  17.3778  17.3779  17.5444  17.5444  17.6366  17.6366
    19.1771  19.1771  19.2512  19.2512  19.6876  19.6876  20.6884  20.6884
    25.8186  25.8186  27.0987

     occupation numbers 
     1.0000   1.0000   1.0000   1.0000   1.0000   1.0000   1.0000   1.0000
     1.0000   1.0000   1.0000   1.0000   1.0000   1.0000   1.0000   1.0000
     1.0000   1.0000   1.0000   1.0000   1.0000   1.0000   1.0000   1.0000
     1.0000   1.0000   1.0000   1.0000   1.0000   1.0000   1.0000   1.0000
    -0.0023  -0.0023  -0.0000  -0.0000  -0.0000  -0.0000  -0.0000  -0.0000
    -0.0000  -0.0000  -0.0000

          k = 0.3333-0.5000-0.5000 (  8644 PWs)   bands (ev):

   -83.7643 -83.7643 -83.7643 -83.7643 -44.3139 -44.3139 -44.3139 -44.3139
   -44.1088 -44.1088 -44.1088 -44.1088 -44.0953 -44.0953 -44.0953 -44.0953
    14.4782  14.4782  14.4782  14.4782  17.0508  17.0508  17.0508  17.0508
    17.3071  17.3071  17.3071  17.3072  17.7089  17.7090  17.7090  17.7090
    19.1764  19.1764  19.1764  19.1765  20.0863  20.0863  20.0863  20.0863
    26.3281  26.3281  26.3281

     occupation numbers 
     1.0000   1.0000   1.0000   1.0000   1.0000   1.0000   1.0000   1.0000
     1.0000   1.0000   1.0000   1.0000   1.0000   1.0000   1.0000   1.0000
     1.0000   1.0000   1.0000   1.0000   1.0000   1.0000   1.0000   1.0000
     1.0000   1.0000   1.0000   1.0000   1.0000   1.0000   1.0000   1.0000
    -0.0027  -0.0027  -0.0027  -0.0027  -0.0000  -0.0000  -0.0000  -0.0000
    -0.0000  -0.0000  -0.0000

          k = 0.4167 0.4167 0.4167 (  8660 PWs)   bands (ev):

   -83.7672 -83.7633 -83.7633 -83.7633 -44.3198 -44.3198 -44.3198 -44.3097
   -44.1064 -44.1064 -44.1064 -44.0995 -44.0995 -44.0995 -44.0927 -44.0927
    14.1741  14.5405  14.5405  14.5405  17.0075  17.0075  17.0075  17.2369
    17.2369  17.3075  17.3075  17.3075  17.8418  17.8418  17.8418  17.8471
    19.2010  19.2010  19.3258  19.3258  19.3258  20.2099  20.2099  20.2099
    25.7776  25.7776  25.7776

     occupation numbers 
     1.0000   1.0000   1.0000   1.0000   1.0000   1.0000   1.0000   1.0000
     1.0000   1.0000   1.0000   1.0000   1.0000   1.0000   1.0000   1.0000
     1.0000   1.0000   1.0000   1.0000   1.0000   1.0000   1.0000   1.0000
     1.0000   1.0000   1.0000   1.0000   1.0000   1.0000   1.0000   1.0000
    -0.0000  -0.0000  -0.0000  -0.0000  -0.0000  -0.0000  -0.0000  -0.0000
    -0.0000  -0.0000  -0.0000

          k = 0.4167 0.4167-0.5000 (  8658 PWs)   bands (ev):

   -83.7653 -83.7652 -83.7633 -83.7633 -44.3231 -44.3231 -44.3182 -44.3182
   -44.1047 -44.1047 -44.0979 -44.0979 -44.0962 -44.0962 -44.0961 -44.0961
    14.3450  14.3450  14.5191  14.5191  17.0547  17.0548  17.1604  17.1605
    17.2423  17.2423  17.2695  17.2695  18.0089  18.0090  18.0163  18.0163
    19.2979  19.2979  19.3057  19.3057  19.4861  19.4861  20.1322  20.1322
    25.5732  25.5732  26.2678

     occupation numbers 
     1.0000   1.0000   1.0000   1.0000   1.0000   1.0000   1.0000   1.0000
     1.0000   1.0000   1.0000   1.0000   1.0000   1.0000   1.0000   1.0000
     1.0000   1.0000   1.0000   1.0000   1.0000   1.0000   1.0000   1.0000
     1.0000   1.0000   1.0000   1.0000   1.0000   1.0000   1.0000   1.0000
    -0.0000  -0.0000  -0.0000  -0.0000  -0.0000  -0.0000  -0.0000  -0.0000
    -0.0000  -0.0000  -0.0000

          k = 0.4167-0.5000-0.5000 (  8612 PWs)   bands (ev):

   -83.7643 -83.7643 -83.7643 -83.7643 -44.3241 -44.3241 -44.3241 -44.3241
   -44.0988 -44.0988 -44.0988 -44.0987 -44.0953 -44.0953 -44.0953 -44.0953
    14.4119  14.4119  14.4119  14.4119  17.1522  17.1522  17.1522  17.1523
    17.2175  17.2175  17.2175  17.2175  18.2389  18.2389  18.2389  18.2389
    19.2814  19.2814  19.2814  19.2814  19.6452  19.6452  19.6452  19.6452
    25.7451  25.7451  25.7451

     occupation numbers 
     1.0000   1.0000   1.0000   1.0000   1.0000   1.0000   1.0000   1.0000
     1.0000   1.0000   1.0000   1.0000   1.0000   1.0000   1.0000   1.0000
     1.0000   1.0000   1.0000   1.0000   1.0000   1.0000   1.0000   1.0000
     1.0000   1.0000   1.0000   1.0000   1.0000   1.0000   1.0000   1.0000
    -0.0000  -0.0000  -0.0000  -0.0000  -0.0000  -0.0000  -0.0000  -0.0000
    -0.0000  -0.0000  -0.0000

          k =-0.5000-0.5000-0.5000 (  8552 PWs)   bands (ev):

   -83.7643 -83.7643 -83.7643 -83.7643 -44.3276 -44.3276 -44.3276 -44.3276
   -44.0953 -44.0953 -44.0953 -44.0953 -44.0953 -44.0953 -44.0953 -44.0953
    14.3885  14.3885  14.3885  14.3885  17.1868  17.1868  17.1868  17.1868
    17.1868  17.1868  17.1869  17.1869  18.5977  18.5977  18.5977  18.5977
    19.3176  19.3176  19.3176  19.3176  19.3176  19.3176  19.3176  19.3176
    25.5501  25.5501  25.5501

     occupation numbers 
     1.0000   1.0000   1.0000   1.0000   1.0000   1.0000   1.0000   1.0000
     1.0000   1.0000   1.0000   1.0000   1.0000   1.0000   1.0000   1.0000
     1.0000   1.0000   1.0000   1.0000   1.0000   1.0000   1.0000   1.0000
     1.0000   1.0000   1.0000   1.0000   1.0000   1.0000   1.0000   1.0000
    -0.0000  -0.0000  -0.0000  -0.0000  -0.0000  -0.0000  -0.0000  -0.0000
    -0.0000  -0.0000  -0.0000

     the Fermi energy is    19.1452 ev

!    total energy              =   -1716.65134846 Ry
     total all-electron energy =    -12166.379779 Ry
     estimated scf accuracy    <          6.1E-09 Ry
     smearing contrib. (-TS)   =      -0.00000522 Ry
     internal energy E=F+TS    =   -1716.65134324 Ry

     The total energy is F=E-TS. E is the sum of the following terms:
     one-electron contribution =    -715.43984518 Ry
     hartree contribution      =     409.43233642 Ry
     xc contribution           =    -137.48341652 Ry
     ewald contribution        =    -908.77487401 Ry
     one-center paw contrib.   =    -364.38554395 Ry
      -> PAW hartree energy AE =     268.09984100 Ry
      -> PAW hartree energy PS =    -266.40711592 Ry
      -> PAW xc energy AE      =    -125.61577110 Ry
      -> PAW xc energy PS      =      32.82666120 Ry
      -> total E_H with PAW    =     411.12506150 Ry
      -> total E_XC with PAW   =    -230.27252642 Ry

     total magnetization       =     2.61 Bohr mag/cell
     absolute magnetization    =     2.95 Bohr mag/cell

     convergence has been achieved in   9 iterations

     Writing all to output data dir out/Ni.save/
 
     init_run     :      0.88s CPU      1.18s WALL (       1 calls)
     electrons    :     85.00s CPU     86.52s WALL (       1 calls)

     Called by init_run:
     wfcinit      :      0.63s CPU      0.89s WALL (       1 calls)
     potinit      :      0.14s CPU      0.16s WALL (       1 calls)
     hinit0       :      0.05s CPU      0.05s WALL (       1 calls)

     Called by electrons:
     c_bands      :     73.47s CPU     74.75s WALL (       9 calls)
     sum_band     :     10.07s CPU     10.27s WALL (       9 calls)
     v_of_rho     :      0.11s CPU      0.12s WALL (      10 calls)
     v_h          :      0.00s CPU      0.00s WALL (      10 calls)
     v_xc         :      0.11s CPU      0.11s WALL (      10 calls)
     newd         :      0.19s CPU      0.19s WALL (      10 calls)
     PAW_pot      :      1.24s CPU      1.29s WALL (      10 calls)
     mix_rho      :      0.02s CPU      0.02s WALL (       9 calls)

     Called by c_bands:
     init_us_2    :      0.56s CPU      0.60s WALL (    3024 calls)
     init_us_2:cp :      0.56s CPU      0.59s WALL (    3024 calls)
     cegterg      :     70.08s CPU     71.21s WALL (    1512 calls)

     Called by sum_band:
     sum_band:wei :      0.06s CPU      0.07s WALL (       9 calls)
     sum_band:loo :      9.62s CPU      9.81s WALL (       9 calls)
     sum_band:buf :      0.12s CPU      0.13s WALL (    1512 calls)
     sum_band:ini :      0.24s CPU      0.25s WALL (    1512 calls)
     sum_band:cal :      0.57s CPU      0.58s WALL (    1512 calls)
     sum_band:bec :      0.06s CPU      0.05s WALL (    1512 calls)
     addusdens    :      0.33s CPU      0.34s WALL (       9 calls)
                                        0.00s GPU  (       9 calls)
     addusd:skk   :      0.00s CPU      0.00s WALL (       9 calls)
                                        0.00s GPU  (       9 calls)

     Called by *egterg:
     cdiaghg      :     12.30s CPU     12.36s WALL (    5936 calls)
     cegterg:over :      2.86s CPU      2.91s WALL (    4592 calls)
     cegterg:upda :      1.22s CPU      1.22s WALL (    4592 calls)
     cegterg:last :      2.30s CPU      2.31s WALL (    3473 calls)
     h_psi        :     48.40s CPU     49.33s WALL (    6104 calls)
     s_psi        :      1.10s CPU      1.11s WALL (    6104 calls)
     g_psi        :      0.18s CPU      0.18s WALL (    4592 calls)

     Called by h_psi:
     h_psi:calbec :      2.16s CPU      2.17s WALL (    6104 calls)
     vloc_psi     :     44.63s CPU     45.50s WALL (    6104 calls)
     add_vuspsi   :      1.30s CPU      1.32s WALL (    6104 calls)

     General routines
     calbec       :      2.72s CPU      2.74s WALL (    7616 calls)
     fft          :      0.06s CPU      0.07s WALL (     244 calls)
     ffts         :      0.01s CPU      0.01s WALL (      38 calls)
     fftw         :     50.09s CPU     50.28s WALL (  419660 calls)
     interpolate  :      0.01s CPU      0.01s WALL (      20 calls)
 
     Parallel routines

     PAW routines
     PAW_pot      :      1.24s CPU      1.29s WALL (      10 calls)
     PAW_symme    :      0.02s CPU      0.02s WALL (      18 calls)
 
     PWSCF        :   1m26.70s CPU   1m31.07s WALL

 
   This run was terminated on:   5:36:32  22Mar2024            

=------------------------------------------------------------------------------=
   JOB DONE.
=------------------------------------------------------------------------------=
