
     Program PWSCF v.7.2 starts on 22Mar2024 at  5:36:32 

     This program is part of the open-source Quantum ESPRESSO suite
     for quantum simulation of materials; please cite
         "P. Giannozzi et al., J. Phys.:Condens. Matter 21 395502 (2009);
         "P. Giannozzi et al., J. Phys.:Condens. Matter 29 465901 (2017);
         "P. Giannozzi et al., J. Chem. Phys. 152 154105 (2020);
          URL http://www.quantum-espresso.org", 
     in publications or presentations arising from this work. More details at
     http://www.quantum-espresso.org/quote

     Parallel version (MPI), running on    20 processors

     MPI processes distributed on     1 nodes
     356143 MiB available memory on the printing compute node when the environment starts
 
     Waiting for input...
     Reading input from standard input

     Current dimensions of program PWSCF are:
     Max number of different atomic species (ntypx) = 10
     Max number of k-points (npk) = 120000
     Max angular momentum in pseudopotentials (lmaxx) =  4
     file Ni.pbe-spn-kjpaw_psl.1.0.0.UPF: wavefunction(s)  3P 3D renormalized
     Found identity + (  0.0000 -0.5000 -0.5000) symmetry
     This is a supercell, fractional translations are disabled
 
     R & G space division:  proc/nbgrp/npool/nimage =      20
     Subspace diagonalization in iterative solution of the eigenvalue problem:
     a serial algorithm will be used

 
     Parallelization info
     --------------------
     sticks:   dense  smooth     PW     G-vecs:    dense   smooth      PW
     Min         136     103     29                 5386     3499     537
     Max         137     104     30                 5391     3501     540
     Sum        2733    2061    593               107783    69983   10779
 
     Using Slab Decomposition
 


     bravais-lattice index     =            1
     lattice parameter (alat)  =       6.5573  a.u.
     unit-cell volume          =     281.9584 (a.u.)^3
     number of atoms/cell      =            4
     number of atomic types    =            1
     number of electrons       =        72.00
     number of Kohn-Sham states=           43
     kinetic-energy cutoff     =     150.0000  Ry
     charge density cutoff     =     800.0000  Ry
     scf convergence threshold =      8.0E-08
     mixing beta               =       0.7000
     number of iterations used =            8  plain     mixing
     Exchange-correlation= SLA  PW   PBX  PBC
                           (   1   4   3   4   0   0   0)

     celldm(1)=   6.557350  celldm(2)=   0.000000  celldm(3)=   0.000000
     celldm(4)=   0.000000  celldm(5)=   0.000000  celldm(6)=   0.000000

     crystal axes: (cart. coord. in units of alat)
               a(1) = (   1.000000   0.000000   0.000000 )  
               a(2) = (   0.000000   1.000000   0.000000 )  
               a(3) = (   0.000000   0.000000   1.000000 )  

     reciprocal axes: (cart. coord. in units 2 pi/alat)
               b(1) = (  1.000000  0.000000  0.000000 )  
               b(2) = (  0.000000  1.000000  0.000000 )  
               b(3) = (  0.000000  0.000000  1.000000 )  


     PseudoPot. # 1 for Ni read from file:
     /truba/home/amuhaymin/ZnS/pseudo/QE/Ni.pbe-spn-kjpaw_psl.1.0.0.UPF
     MD5 check sum: 6e86b733589c3ad8389697b807d86aa7
     Pseudo is Projector augmented-wave + core cor, Zval = 18.0
     Generated using &quot;atomic&quot; code by A. Dal Corso  v.6.3
     Shape of augmentation charge: PSQ
     Using radial grid of 1195 points,  6 beta functions with: 
                l(1) =   0
                l(2) =   0
                l(3) =   1
                l(4) =   1
                l(5) =   2
                l(6) =   2
     Q(r) pseudized with 0 coefficients 


     atomic species   valence    mass     pseudopotential
        Ni            18.00    58.69340     Ni( 1.00)

     Starting magnetic structure 
     atomic species   magnetization
        Ni           0.278

     48 Sym. Ops., with inversion, found


                                    s                        frac. trans.

      isym =  1     identity                                     

 cryst.   s( 1) = (     1          0          0      )
                  (     0          1          0      )
                  (     0          0          1      )

 cart.    s( 1) = (  1.0000000  0.0000000  0.0000000 )
                  (  0.0000000  1.0000000  0.0000000 )
                  (  0.0000000  0.0000000  1.0000000 )


      isym =  2     180 deg rotation - cart. axis [0,0,1]        

 cryst.   s( 2) = (    -1          0          0      )
                  (     0         -1          0      )
                  (     0          0          1      )

 cart.    s( 2) = ( -1.0000000  0.0000000  0.0000000 )
                  (  0.0000000 -1.0000000  0.0000000 )
                  (  0.0000000  0.0000000  1.0000000 )


      isym =  3     180 deg rotation - cart. axis [0,1,0]        

 cryst.   s( 3) = (    -1          0          0      )
                  (     0          1          0      )
                  (     0          0         -1      )

 cart.    s( 3) = ( -1.0000000  0.0000000  0.0000000 )
                  (  0.0000000  1.0000000  0.0000000 )
                  (  0.0000000  0.0000000 -1.0000000 )


      isym =  4     180 deg rotation - cart. axis [1,0,0]        

 cryst.   s( 4) = (     1          0          0      )
                  (     0         -1          0      )
                  (     0          0         -1      )

 cart.    s( 4) = (  1.0000000  0.0000000  0.0000000 )
                  (  0.0000000 -1.0000000  0.0000000 )
                  (  0.0000000  0.0000000 -1.0000000 )


      isym =  5     180 deg rotation - cart. axis [1,1,0]        

 cryst.   s( 5) = (     0          1          0      )
                  (     1          0          0      )
                  (     0          0         -1      )

 cart.    s( 5) = (  0.0000000  1.0000000  0.0000000 )
                  (  1.0000000  0.0000000  0.0000000 )
                  (  0.0000000  0.0000000 -1.0000000 )


      isym =  6     180 deg rotation - cart. axis [1,-1,0]       

 cryst.   s( 6) = (     0         -1          0      )
                  (    -1          0          0      )
                  (     0          0         -1      )

 cart.    s( 6) = (  0.0000000 -1.0000000  0.0000000 )
                  ( -1.0000000  0.0000000  0.0000000 )
                  (  0.0000000  0.0000000 -1.0000000 )


      isym =  7      90 deg rotation - cart. axis [0,0,-1]       

 cryst.   s( 7) = (     0         -1          0      )
                  (     1          0          0      )
                  (     0          0          1      )

 cart.    s( 7) = (  0.0000000  1.0000000  0.0000000 )
                  ( -1.0000000  0.0000000  0.0000000 )
                  (  0.0000000  0.0000000  1.0000000 )


      isym =  8      90 deg rotation - cart. axis [0,0,1]        

 cryst.   s( 8) = (     0          1          0      )
                  (    -1          0          0      )
                  (     0          0          1      )

 cart.    s( 8) = (  0.0000000 -1.0000000  0.0000000 )
                  (  1.0000000  0.0000000  0.0000000 )
                  (  0.0000000  0.0000000  1.0000000 )


      isym =  9     180 deg rotation - cart. axis [1,0,1]        

 cryst.   s( 9) = (     0          0          1      )
                  (     0         -1          0      )
                  (     1          0          0      )

 cart.    s( 9) = (  0.0000000  0.0000000  1.0000000 )
                  (  0.0000000 -1.0000000  0.0000000 )
                  (  1.0000000  0.0000000  0.0000000 )


      isym = 10     180 deg rotation - cart. axis [-1,0,1]       

 cryst.   s(10) = (     0          0         -1      )
                  (     0         -1          0      )
                  (    -1          0          0      )

 cart.    s(10) = (  0.0000000  0.0000000 -1.0000000 )
                  (  0.0000000 -1.0000000  0.0000000 )
                  ( -1.0000000  0.0000000  0.0000000 )


      isym = 11      90 deg rotation - cart. axis [0,1,0]        

 cryst.   s(11) = (     0          0         -1      )
                  (     0          1          0      )
                  (     1          0          0      )

 cart.    s(11) = (  0.0000000  0.0000000  1.0000000 )
                  (  0.0000000  1.0000000  0.0000000 )
                  ( -1.0000000  0.0000000  0.0000000 )


      isym = 12      90 deg rotation - cart. axis [0,-1,0]       

 cryst.   s(12) = (     0          0          1      )
                  (     0          1          0      )
                  (    -1          0          0      )

 cart.    s(12) = (  0.0000000  0.0000000 -1.0000000 )
                  (  0.0000000  1.0000000  0.0000000 )
                  (  1.0000000  0.0000000  0.0000000 )


      isym = 13     180 deg rotation - cart. axis [0,1,1]        

 cryst.   s(13) = (    -1          0          0      )
                  (     0          0          1      )
                  (     0          1          0      )

 cart.    s(13) = ( -1.0000000  0.0000000  0.0000000 )
                  (  0.0000000  0.0000000  1.0000000 )
                  (  0.0000000  1.0000000  0.0000000 )


      isym = 14     180 deg rotation - cart. axis [0,1,-1]       

 cryst.   s(14) = (    -1          0          0      )
                  (     0          0         -1      )
                  (     0         -1          0      )

 cart.    s(14) = ( -1.0000000  0.0000000  0.0000000 )
                  (  0.0000000  0.0000000 -1.0000000 )
                  (  0.0000000 -1.0000000  0.0000000 )


      isym = 15      90 deg rotation - cart. axis [-1,0,0]       

 cryst.   s(15) = (     1          0          0      )
                  (     0          0         -1      )
                  (     0          1          0      )

 cart.    s(15) = (  1.0000000  0.0000000  0.0000000 )
                  (  0.0000000  0.0000000  1.0000000 )
                  (  0.0000000 -1.0000000  0.0000000 )


      isym = 16      90 deg rotation - cart. axis [1,0,0]        

 cryst.   s(16) = (     1          0          0      )
                  (     0          0          1      )
                  (     0         -1          0      )

 cart.    s(16) = (  1.0000000  0.0000000  0.0000000 )
                  (  0.0000000  0.0000000 -1.0000000 )
                  (  0.0000000  1.0000000  0.0000000 )


      isym = 17     120 deg rotation - cart. axis [-1,-1,-1]     

 cryst.   s(17) = (     0          0          1      )
                  (     1          0          0      )
                  (     0          1          0      )

 cart.    s(17) = (  0.0000000  1.0000000  0.0000000 )
                  (  0.0000000  0.0000000  1.0000000 )
                  (  1.0000000  0.0000000  0.0000000 )


      isym = 18     120 deg rotation - cart. axis [-1,1,1]       

 cryst.   s(18) = (     0          0         -1      )
                  (    -1          0          0      )
                  (     0          1          0      )

 cart.    s(18) = (  0.0000000 -1.0000000  0.0000000 )
                  (  0.0000000  0.0000000  1.0000000 )
                  ( -1.0000000  0.0000000  0.0000000 )


      isym = 19     120 deg rotation - cart. axis [1,1,-1]       

 cryst.   s(19) = (     0          0         -1      )
                  (     1          0          0      )
                  (     0         -1          0      )

 cart.    s(19) = (  0.0000000  1.0000000  0.0000000 )
                  (  0.0000000  0.0000000 -1.0000000 )
                  ( -1.0000000  0.0000000  0.0000000 )


      isym = 20     120 deg rotation - cart. axis [1,-1,1]       

 cryst.   s(20) = (     0          0          1      )
                  (    -1          0          0      )
                  (     0         -1          0      )

 cart.    s(20) = (  0.0000000 -1.0000000  0.0000000 )
                  (  0.0000000  0.0000000 -1.0000000 )
                  (  1.0000000  0.0000000  0.0000000 )


      isym = 21     120 deg rotation - cart. axis [1,1,1]        

 cryst.   s(21) = (     0          1          0      )
                  (     0          0          1      )
                  (     1          0          0      )

 cart.    s(21) = (  0.0000000  0.0000000  1.0000000 )
                  (  1.0000000  0.0000000  0.0000000 )
                  (  0.0000000  1.0000000  0.0000000 )


      isym = 22     120 deg rotation - cart. axis [-1,1,-1]      

 cryst.   s(22) = (     0         -1          0      )
                  (     0          0         -1      )
                  (     1          0          0      )

 cart.    s(22) = (  0.0000000  0.0000000  1.0000000 )
                  ( -1.0000000  0.0000000  0.0000000 )
                  (  0.0000000 -1.0000000  0.0000000 )


      isym = 23     120 deg rotation - cart. axis [1,-1,-1]      

 cryst.   s(23) = (     0         -1          0      )
                  (     0          0          1      )
                  (    -1          0          0      )

 cart.    s(23) = (  0.0000000  0.0000000 -1.0000000 )
                  ( -1.0000000  0.0000000  0.0000000 )
                  (  0.0000000  1.0000000  0.0000000 )


      isym = 24     120 deg rotation - cart. axis [-1,-1,1]      

 cryst.   s(24) = (     0          1          0      )
                  (     0          0         -1      )
                  (    -1          0          0      )

 cart.    s(24) = (  0.0000000  0.0000000 -1.0000000 )
                  (  1.0000000  0.0000000  0.0000000 )
                  (  0.0000000 -1.0000000  0.0000000 )


      isym = 25     inversion                                    

 cryst.   s(25) = (    -1          0          0      )
                  (     0         -1          0      )
                  (     0          0         -1      )

 cart.    s(25) = ( -1.0000000  0.0000000  0.0000000 )
                  (  0.0000000 -1.0000000  0.0000000 )
                  (  0.0000000  0.0000000 -1.0000000 )


      isym = 26     inv. 180 deg rotation - cart. axis [0,0,1]   

 cryst.   s(26) = (     1          0          0      )
                  (     0          1          0      )
                  (     0          0         -1      )

 cart.    s(26) = (  1.0000000  0.0000000  0.0000000 )
                  (  0.0000000  1.0000000  0.0000000 )
                  (  0.0000000  0.0000000 -1.0000000 )


      isym = 27     inv. 180 deg rotation - cart. axis [0,1,0]   

 cryst.   s(27) = (     1          0          0      )
                  (     0         -1          0      )
                  (     0          0          1      )

 cart.    s(27) = (  1.0000000  0.0000000  0.0000000 )
                  (  0.0000000 -1.0000000  0.0000000 )
                  (  0.0000000  0.0000000  1.0000000 )


      isym = 28     inv. 180 deg rotation - cart. axis [1,0,0]   

 cryst.   s(28) = (    -1          0          0      )
                  (     0          1          0      )
                  (     0          0          1      )

 cart.    s(28) = ( -1.0000000  0.0000000  0.0000000 )
                  (  0.0000000  1.0000000  0.0000000 )
                  (  0.0000000  0.0000000  1.0000000 )


      isym = 29     inv. 180 deg rotation - cart. axis [1,1,0]   

 cryst.   s(29) = (     0         -1          0      )
                  (    -1          0          0      )
                  (     0          0          1      )

 cart.    s(29) = (  0.0000000 -1.0000000  0.0000000 )
                  ( -1.0000000  0.0000000  0.0000000 )
                  (  0.0000000  0.0000000  1.0000000 )


      isym = 30     inv. 180 deg rotation - cart. axis [1,-1,0]  

 cryst.   s(30) = (     0          1          0      )
                  (     1          0          0      )
                  (     0          0          1      )

 cart.    s(30) = (  0.0000000  1.0000000  0.0000000 )
                  (  1.0000000  0.0000000  0.0000000 )
                  (  0.0000000  0.0000000  1.0000000 )


      isym = 31     inv.  90 deg rotation - cart. axis [0,0,-1]  

 cryst.   s(31) = (     0          1          0      )
                  (    -1          0          0      )
                  (     0          0         -1      )

 cart.    s(31) = (  0.0000000 -1.0000000  0.0000000 )
                  (  1.0000000  0.0000000  0.0000000 )
                  (  0.0000000  0.0000000 -1.0000000 )


      isym = 32     inv.  90 deg rotation - cart. axis [0,0,1]   

 cryst.   s(32) = (     0         -1          0      )
                  (     1          0          0      )
                  (     0          0         -1      )

 cart.    s(32) = (  0.0000000  1.0000000  0.0000000 )
                  ( -1.0000000  0.0000000  0.0000000 )
                  (  0.0000000  0.0000000 -1.0000000 )


      isym = 33     inv. 180 deg rotation - cart. axis [1,0,1]   

 cryst.   s(33) = (     0          0         -1      )
                  (     0          1          0      )
                  (    -1          0          0      )

 cart.    s(33) = (  0.0000000  0.0000000 -1.0000000 )
                  (  0.0000000  1.0000000  0.0000000 )
                  ( -1.0000000  0.0000000  0.0000000 )


      isym = 34     inv. 180 deg rotation - cart. axis [-1,0,1]  

 cryst.   s(34) = (     0          0          1      )
                  (     0          1          0      )
                  (     1          0          0      )

 cart.    s(34) = (  0.0000000  0.0000000  1.0000000 )
                  (  0.0000000  1.0000000  0.0000000 )
                  (  1.0000000  0.0000000  0.0000000 )


      isym = 35     inv.  90 deg rotation - cart. axis [0,1,0]   

 cryst.   s(35) = (     0          0          1      )
                  (     0         -1          0      )
                  (    -1          0          0      )

 cart.    s(35) = (  0.0000000  0.0000000 -1.0000000 )
                  (  0.0000000 -1.0000000  0.0000000 )
                  (  1.0000000  0.0000000  0.0000000 )


      isym = 36     inv.  90 deg rotation - cart. axis [0,-1,0]  

 cryst.   s(36) = (     0          0         -1      )
                  (     0         -1          0      )
                  (     1          0          0      )

 cart.    s(36) = (  0.0000000  0.0000000  1.0000000 )
                  (  0.0000000 -1.0000000  0.0000000 )
                  ( -1.0000000  0.0000000  0.0000000 )


      isym = 37     inv. 180 deg rotation - cart. axis [0,1,1]   

 cryst.   s(37) = (     1          0          0      )
                  (     0          0         -1      )
                  (     0         -1          0      )

 cart.    s(37) = (  1.0000000  0.0000000  0.0000000 )
                  (  0.0000000  0.0000000 -1.0000000 )
                  (  0.0000000 -1.0000000  0.0000000 )


      isym = 38     inv. 180 deg rotation - cart. axis [0,1,-1]  

 cryst.   s(38) = (     1          0          0      )
                  (     0          0          1      )
                  (     0          1          0      )

 cart.    s(38) = (  1.0000000  0.0000000  0.0000000 )
                  (  0.0000000  0.0000000  1.0000000 )
                  (  0.0000000  1.0000000  0.0000000 )


      isym = 39     inv.  90 deg rotation - cart. axis [-1,0,0]  

 cryst.   s(39) = (    -1          0          0      )
                  (     0          0          1      )
                  (     0         -1          0      )

 cart.    s(39) = ( -1.0000000  0.0000000  0.0000000 )
                  (  0.0000000  0.0000000 -1.0000000 )
                  (  0.0000000  1.0000000  0.0000000 )


      isym = 40     inv.  90 deg rotation - cart. axis [1,0,0]   

 cryst.   s(40) = (    -1          0          0      )
                  (     0          0         -1      )
                  (     0          1          0      )

 cart.    s(40) = ( -1.0000000  0.0000000  0.0000000 )
                  (  0.0000000  0.0000000  1.0000000 )
                  (  0.0000000 -1.0000000  0.0000000 )


      isym = 41     inv. 120 deg rotation - cart. axis [-1,-1,-1]

 cryst.   s(41) = (     0          0         -1      )
                  (    -1          0          0      )
                  (     0         -1          0      )

 cart.    s(41) = (  0.0000000 -1.0000000  0.0000000 )
                  (  0.0000000  0.0000000 -1.0000000 )
                  ( -1.0000000  0.0000000  0.0000000 )


      isym = 42     inv. 120 deg rotation - cart. axis [-1,1,1]  

 cryst.   s(42) = (     0          0          1      )
                  (     1          0          0      )
                  (     0         -1          0      )

 cart.    s(42) = (  0.0000000  1.0000000  0.0000000 )
                  (  0.0000000  0.0000000 -1.0000000 )
                  (  1.0000000  0.0000000  0.0000000 )


      isym = 43     inv. 120 deg rotation - cart. axis [1,1,-1]  

 cryst.   s(43) = (     0          0          1      )
                  (    -1          0          0      )
                  (     0          1          0      )

 cart.    s(43) = (  0.0000000 -1.0000000  0.0000000 )
                  (  0.0000000  0.0000000  1.0000000 )
                  (  1.0000000  0.0000000  0.0000000 )


      isym = 44     inv. 120 deg rotation - cart. axis [1,-1,1]  

 cryst.   s(44) = (     0          0         -1      )
                  (     1          0          0      )
                  (     0          1          0      )

 cart.    s(44) = (  0.0000000  1.0000000  0.0000000 )
                  (  0.0000000  0.0000000  1.0000000 )
                  ( -1.0000000  0.0000000  0.0000000 )


      isym = 45     inv. 120 deg rotation - cart. axis [1,1,1]   

 cryst.   s(45) = (     0         -1          0      )
                  (     0          0         -1      )
                  (    -1          0          0      )

 cart.    s(45) = (  0.0000000  0.0000000 -1.0000000 )
                  ( -1.0000000  0.0000000  0.0000000 )
                  (  0.0000000 -1.0000000  0.0000000 )


      isym = 46     inv. 120 deg rotation - cart. axis [-1,1,-1] 

 cryst.   s(46) = (     0          1          0      )
                  (     0          0          1      )
                  (    -1          0          0      )

 cart.    s(46) = (  0.0000000  0.0000000 -1.0000000 )
                  (  1.0000000  0.0000000  0.0000000 )
                  (  0.0000000  1.0000000  0.0000000 )


      isym = 47     inv. 120 deg rotation - cart. axis [1,-1,-1] 

 cryst.   s(47) = (     0          1          0      )
                  (     0          0         -1      )
                  (     1          0          0      )

 cart.    s(47) = (  0.0000000  0.0000000  1.0000000 )
                  (  1.0000000  0.0000000  0.0000000 )
                  (  0.0000000 -1.0000000  0.0000000 )


      isym = 48     inv. 120 deg rotation - cart. axis [-1,-1,1] 

 cryst.   s(48) = (     0         -1          0      )
                  (     0          0          1      )
                  (     1          0          0      )

 cart.    s(48) = (  0.0000000  0.0000000  1.0000000 )
                  ( -1.0000000  0.0000000  0.0000000 )
                  (  0.0000000  1.0000000  0.0000000 )


     point group O_h (m-3m) 
     there are 10 classes
     the character table:

       E     8C3   3C2   6C4   6C2'  i     8S6   3s_h  6S4   6s_d 
A_1g   1.00  1.00  1.00  1.00  1.00  1.00  1.00  1.00  1.00  1.00
A_2g   1.00  1.00  1.00 -1.00 -1.00  1.00  1.00  1.00 -1.00 -1.00
E_g    2.00 -1.00  2.00  0.00  0.00  2.00 -1.00  2.00  0.00  0.00
T_1g   3.00  0.00 -1.00  1.00 -1.00  3.00  0.00 -1.00  1.00 -1.00
T_2g   3.00  0.00 -1.00 -1.00  1.00  3.00  0.00 -1.00 -1.00  1.00
A_1u   1.00  1.00  1.00  1.00  1.00 -1.00 -1.00 -1.00 -1.00 -1.00
A_2u   1.00  1.00  1.00 -1.00 -1.00 -1.00 -1.00 -1.00  1.00  1.00
E_u    2.00 -1.00  2.00  0.00  0.00 -2.00  1.00 -2.00  0.00  0.00
T_1u   3.00  0.00 -1.00  1.00 -1.00 -3.00  0.00  1.00 -1.00  1.00
T_2u   3.00  0.00 -1.00 -1.00  1.00 -3.00  0.00  1.00  1.00 -1.00

     the symmetry operations in each class and the name of the first element:

     E        1
          identity                                               
     8C3     17   19   20   18   24   21   22   23
          120 deg rotation - cart. axis [-1,-1,-1]               
     3C2      2    4    3
          180 deg rotation - cart. axis [0,0,1]                  
     6C4      7    8   15   16   12   11
           90 deg rotation - cart. axis [0,0,-1]                 
     6C2'     5    6   14   13   10    9
          180 deg rotation - cart. axis [1,1,0]                  
     i       25
          inversion                                              
     8S6     41   43   44   42   48   45   46   47
          inv. 120 deg rotation - cart. axis [-1,-1,-1]          
     3s_h    26   28   27
          inv. 180 deg rotation - cart. axis [0,0,1]             
     6S4     31   32   39   40   36   35
          inv.  90 deg rotation - cart. axis [0,0,-1]            
     6s_d    29   30   38   37   34   33
          inv. 180 deg rotation - cart. axis [1,1,0]             

   Cartesian axes

     site n.     atom                  positions (alat units)
         1           Ni  tau(   1) = (   0.0000000   0.0000000   0.0000000  )
         2           Ni  tau(   2) = (   0.0000000   0.5000000   0.5000000  )
         3           Ni  tau(   3) = (   0.5000000   0.0000000   0.5000000  )
         4           Ni  tau(   4) = (   0.5000000   0.5000000   0.0000000  )

   Crystallographic axes

     site n.     atom                  positions (cryst. coord.)
         1           Ni  tau(   1) = (  0.0000000  0.0000000  0.0000000  )
         2           Ni  tau(   2) = (  0.0000000  0.5000000  0.5000000  )
         3           Ni  tau(   3) = (  0.5000000  0.0000000  0.5000000  )
         4           Ni  tau(   4) = (  0.5000000  0.5000000  0.0000000  )

     number of k points=    84  Methfessel-Paxton smearing, width (Ry)=  0.0010
                       cart. coord. in units 2pi/alat
        k(    1) = (   0.0000000   0.0000000   0.0000000), wk =   0.0005787
        k(    2) = (   0.0000000   0.0000000   0.0833333), wk =   0.0034722
        k(    3) = (   0.0000000   0.0000000   0.1666667), wk =   0.0034722
        k(    4) = (   0.0000000   0.0000000   0.2500000), wk =   0.0034722
        k(    5) = (   0.0000000   0.0000000   0.3333333), wk =   0.0034722
        k(    6) = (   0.0000000   0.0000000   0.4166667), wk =   0.0034722
        k(    7) = (   0.0000000   0.0000000  -0.5000000), wk =   0.0017361
        k(    8) = (   0.0000000   0.0833333   0.0833333), wk =   0.0069444
        k(    9) = (   0.0000000   0.0833333   0.1666667), wk =   0.0138889
        k(   10) = (   0.0000000   0.0833333   0.2500000), wk =   0.0138889
        k(   11) = (   0.0000000   0.0833333   0.3333333), wk =   0.0138889
        k(   12) = (   0.0000000   0.0833333   0.4166667), wk =   0.0138889
        k(   13) = (   0.0000000   0.0833333  -0.5000000), wk =   0.0069444
        k(   14) = (   0.0000000   0.1666667   0.1666667), wk =   0.0069444
        k(   15) = (   0.0000000   0.1666667   0.2500000), wk =   0.0138889
        k(   16) = (   0.0000000   0.1666667   0.3333333), wk =   0.0138889
        k(   17) = (   0.0000000   0.1666667   0.4166667), wk =   0.0138889
        k(   18) = (   0.0000000   0.1666667  -0.5000000), wk =   0.0069444
        k(   19) = (   0.0000000   0.2500000   0.2500000), wk =   0.0069444
        k(   20) = (   0.0000000   0.2500000   0.3333333), wk =   0.0138889
        k(   21) = (   0.0000000   0.2500000   0.4166667), wk =   0.0138889
        k(   22) = (   0.0000000   0.2500000  -0.5000000), wk =   0.0069444
        k(   23) = (   0.0000000   0.3333333   0.3333333), wk =   0.0069444
        k(   24) = (   0.0000000   0.3333333   0.4166667), wk =   0.0138889
        k(   25) = (   0.0000000   0.3333333  -0.5000000), wk =   0.0069444
        k(   26) = (   0.0000000   0.4166667   0.4166667), wk =   0.0069444
        k(   27) = (   0.0000000   0.4166667  -0.5000000), wk =   0.0069444
        k(   28) = (   0.0000000  -0.5000000  -0.5000000), wk =   0.0017361
        k(   29) = (   0.0833333   0.0833333   0.0833333), wk =   0.0046296
        k(   30) = (   0.0833333   0.0833333   0.1666667), wk =   0.0138889
        k(   31) = (   0.0833333   0.0833333   0.2500000), wk =   0.0138889
        k(   32) = (   0.0833333   0.0833333   0.3333333), wk =   0.0138889
        k(   33) = (   0.0833333   0.0833333   0.4166667), wk =   0.0138889
        k(   34) = (   0.0833333   0.0833333  -0.5000000), wk =   0.0069444
        k(   35) = (   0.0833333   0.1666667   0.1666667), wk =   0.0138889
        k(   36) = (   0.0833333   0.1666667   0.2500000), wk =   0.0277778
        k(   37) = (   0.0833333   0.1666667   0.3333333), wk =   0.0277778
        k(   38) = (   0.0833333   0.1666667   0.4166667), wk =   0.0277778
        k(   39) = (   0.0833333   0.1666667  -0.5000000), wk =   0.0138889
        k(   40) = (   0.0833333   0.2500000   0.2500000), wk =   0.0138889
        k(   41) = (   0.0833333   0.2500000   0.3333333), wk =   0.0277778
        k(   42) = (   0.0833333   0.2500000   0.4166667), wk =   0.0277778
        k(   43) = (   0.0833333   0.2500000  -0.5000000), wk =   0.0138889
        k(   44) = (   0.0833333   0.3333333   0.3333333), wk =   0.0138889
        k(   45) = (   0.0833333   0.3333333   0.4166667), wk =   0.0277778
        k(   46) = (   0.0833333   0.3333333  -0.5000000), wk =   0.0138889
        k(   47) = (   0.0833333   0.4166667   0.4166667), wk =   0.0138889
        k(   48) = (   0.0833333   0.4166667  -0.5000000), wk =   0.0138889
        k(   49) = (   0.0833333  -0.5000000  -0.5000000), wk =   0.0034722
        k(   50) = (   0.1666667   0.1666667   0.1666667), wk =   0.0046296
        k(   51) = (   0.1666667   0.1666667   0.2500000), wk =   0.0138889
        k(   52) = (   0.1666667   0.1666667   0.3333333), wk =   0.0138889
        k(   53) = (   0.1666667   0.1666667   0.4166667), wk =   0.0138889
        k(   54) = (   0.1666667   0.1666667  -0.5000000), wk =   0.0069444
        k(   55) = (   0.1666667   0.2500000   0.2500000), wk =   0.0138889
        k(   56) = (   0.1666667   0.2500000   0.3333333), wk =   0.0277778
        k(   57) = (   0.1666667   0.2500000   0.4166667), wk =   0.0277778
        k(   58) = (   0.1666667   0.2500000  -0.5000000), wk =   0.0138889
        k(   59) = (   0.1666667   0.3333333   0.3333333), wk =   0.0138889
        k(   60) = (   0.1666667   0.3333333   0.4166667), wk =   0.0277778
        k(   61) = (   0.1666667   0.3333333  -0.5000000), wk =   0.0138889
        k(   62) = (   0.1666667   0.4166667   0.4166667), wk =   0.0138889
        k(   63) = (   0.1666667   0.4166667  -0.5000000), wk =   0.0138889
        k(   64) = (   0.1666667  -0.5000000  -0.5000000), wk =   0.0034722
        k(   65) = (   0.2500000   0.2500000   0.2500000), wk =   0.0046296
        k(   66) = (   0.2500000   0.2500000   0.3333333), wk =   0.0138889
        k(   67) = (   0.2500000   0.2500000   0.4166667), wk =   0.0138889
        k(   68) = (   0.2500000   0.2500000  -0.5000000), wk =   0.0069444
        k(   69) = (   0.2500000   0.3333333   0.3333333), wk =   0.0138889
        k(   70) = (   0.2500000   0.3333333   0.4166667), wk =   0.0277778
        k(   71) = (   0.2500000   0.3333333  -0.5000000), wk =   0.0138889
        k(   72) = (   0.2500000   0.4166667   0.4166667), wk =   0.0138889
        k(   73) = (   0.2500000   0.4166667  -0.5000000), wk =   0.0138889
        k(   74) = (   0.2500000  -0.5000000  -0.5000000), wk =   0.0034722
        k(   75) = (   0.3333333   0.3333333   0.3333333), wk =   0.0046296
        k(   76) = (   0.3333333   0.3333333   0.4166667), wk =   0.0138889
        k(   77) = (   0.3333333   0.3333333  -0.5000000), wk =   0.0069444
        k(   78) = (   0.3333333   0.4166667   0.4166667), wk =   0.0138889
        k(   79) = (   0.3333333   0.4166667  -0.5000000), wk =   0.0138889
        k(   80) = (   0.3333333  -0.5000000  -0.5000000), wk =   0.0034722
        k(   81) = (   0.4166667   0.4166667   0.4166667), wk =   0.0046296
        k(   82) = (   0.4166667   0.4166667  -0.5000000), wk =   0.0069444
        k(   83) = (   0.4166667  -0.5000000  -0.5000000), wk =   0.0034722
        k(   84) = (  -0.5000000  -0.5000000  -0.5000000), wk =   0.0005787

                       cryst. coord.
        k(    1) = (   0.0000000   0.0000000   0.0000000), wk =   0.0005787
        k(    2) = (   0.0000000   0.0000000   0.0833333), wk =   0.0034722
        k(    3) = (   0.0000000   0.0000000   0.1666667), wk =   0.0034722
        k(    4) = (   0.0000000   0.0000000   0.2500000), wk =   0.0034722
        k(    5) = (   0.0000000   0.0000000   0.3333333), wk =   0.0034722
        k(    6) = (   0.0000000   0.0000000   0.4166667), wk =   0.0034722
        k(    7) = (   0.0000000   0.0000000  -0.5000000), wk =   0.0017361
        k(    8) = (   0.0000000   0.0833333   0.0833333), wk =   0.0069444
        k(    9) = (   0.0000000   0.0833333   0.1666667), wk =   0.0138889
        k(   10) = (   0.0000000   0.0833333   0.2500000), wk =   0.0138889
        k(   11) = (   0.0000000   0.0833333   0.3333333), wk =   0.0138889
        k(   12) = (   0.0000000   0.0833333   0.4166667), wk =   0.0138889
        k(   13) = (   0.0000000   0.0833333  -0.5000000), wk =   0.0069444
        k(   14) = (   0.0000000   0.1666667   0.1666667), wk =   0.0069444
        k(   15) = (   0.0000000   0.1666667   0.2500000), wk =   0.0138889
        k(   16) = (   0.0000000   0.1666667   0.3333333), wk =   0.0138889
        k(   17) = (   0.0000000   0.1666667   0.4166667), wk =   0.0138889
        k(   18) = (   0.0000000   0.1666667  -0.5000000), wk =   0.0069444
        k(   19) = (   0.0000000   0.2500000   0.2500000), wk =   0.0069444
        k(   20) = (   0.0000000   0.2500000   0.3333333), wk =   0.0138889
        k(   21) = (   0.0000000   0.2500000   0.4166667), wk =   0.0138889
        k(   22) = (   0.0000000   0.2500000  -0.5000000), wk =   0.0069444
        k(   23) = (   0.0000000   0.3333333   0.3333333), wk =   0.0069444
        k(   24) = (   0.0000000   0.3333333   0.4166667), wk =   0.0138889
        k(   25) = (   0.0000000   0.3333333  -0.5000000), wk =   0.0069444
        k(   26) = (   0.0000000   0.4166667   0.4166667), wk =   0.0069444
        k(   27) = (   0.0000000   0.4166667  -0.5000000), wk =   0.0069444
        k(   28) = (   0.0000000  -0.5000000  -0.5000000), wk =   0.0017361
        k(   29) = (   0.0833333   0.0833333   0.0833333), wk =   0.0046296
        k(   30) = (   0.0833333   0.0833333   0.1666667), wk =   0.0138889
        k(   31) = (   0.0833333   0.0833333   0.2500000), wk =   0.0138889
        k(   32) = (   0.0833333   0.0833333   0.3333333), wk =   0.0138889
        k(   33) = (   0.0833333   0.0833333   0.4166667), wk =   0.0138889
        k(   34) = (   0.0833333   0.0833333  -0.5000000), wk =   0.0069444
        k(   35) = (   0.0833333   0.1666667   0.1666667), wk =   0.0138889
        k(   36) = (   0.0833333   0.1666667   0.2500000), wk =   0.0277778
        k(   37) = (   0.0833333   0.1666667   0.3333333), wk =   0.0277778
        k(   38) = (   0.0833333   0.1666667   0.4166667), wk =   0.0277778
        k(   39) = (   0.0833333   0.1666667  -0.5000000), wk =   0.0138889
        k(   40) = (   0.0833333   0.2500000   0.2500000), wk =   0.0138889
        k(   41) = (   0.0833333   0.2500000   0.3333333), wk =   0.0277778
        k(   42) = (   0.0833333   0.2500000   0.4166667), wk =   0.0277778
        k(   43) = (   0.0833333   0.2500000  -0.5000000), wk =   0.0138889
        k(   44) = (   0.0833333   0.3333333   0.3333333), wk =   0.0138889
        k(   45) = (   0.0833333   0.3333333   0.4166667), wk =   0.0277778
        k(   46) = (   0.0833333   0.3333333  -0.5000000), wk =   0.0138889
        k(   47) = (   0.0833333   0.4166667   0.4166667), wk =   0.0138889
        k(   48) = (   0.0833333   0.4166667  -0.5000000), wk =   0.0138889
        k(   49) = (   0.0833333  -0.5000000  -0.5000000), wk =   0.0034722
        k(   50) = (   0.1666667   0.1666667   0.1666667), wk =   0.0046296
        k(   51) = (   0.1666667   0.1666667   0.2500000), wk =   0.0138889
        k(   52) = (   0.1666667   0.1666667   0.3333333), wk =   0.0138889
        k(   53) = (   0.1666667   0.1666667   0.4166667), wk =   0.0138889
        k(   54) = (   0.1666667   0.1666667  -0.5000000), wk =   0.0069444
        k(   55) = (   0.1666667   0.2500000   0.2500000), wk =   0.0138889
        k(   56) = (   0.1666667   0.2500000   0.3333333), wk =   0.0277778
        k(   57) = (   0.1666667   0.2500000   0.4166667), wk =   0.0277778
        k(   58) = (   0.1666667   0.2500000  -0.5000000), wk =   0.0138889
        k(   59) = (   0.1666667   0.3333333   0.3333333), wk =   0.0138889
        k(   60) = (   0.1666667   0.3333333   0.4166667), wk =   0.0277778
        k(   61) = (   0.1666667   0.3333333  -0.5000000), wk =   0.0138889
        k(   62) = (   0.1666667   0.4166667   0.4166667), wk =   0.0138889
        k(   63) = (   0.1666667   0.4166667  -0.5000000), wk =   0.0138889
        k(   64) = (   0.1666667  -0.5000000  -0.5000000), wk =   0.0034722
        k(   65) = (   0.2500000   0.2500000   0.2500000), wk =   0.0046296
        k(   66) = (   0.2500000   0.2500000   0.3333333), wk =   0.0138889
        k(   67) = (   0.2500000   0.2500000   0.4166667), wk =   0.0138889
        k(   68) = (   0.2500000   0.2500000  -0.5000000), wk =   0.0069444
        k(   69) = (   0.2500000   0.3333333   0.3333333), wk =   0.0138889
        k(   70) = (   0.2500000   0.3333333   0.4166667), wk =   0.0277778
        k(   71) = (   0.2500000   0.3333333  -0.5000000), wk =   0.0138889
        k(   72) = (   0.2500000   0.4166667   0.4166667), wk =   0.0138889
        k(   73) = (   0.2500000   0.4166667  -0.5000000), wk =   0.0138889
        k(   74) = (   0.2500000  -0.5000000  -0.5000000), wk =   0.0034722
        k(   75) = (   0.3333333   0.3333333   0.3333333), wk =   0.0046296
        k(   76) = (   0.3333333   0.3333333   0.4166667), wk =   0.0138889
        k(   77) = (   0.3333333   0.3333333  -0.5000000), wk =   0.0069444
        k(   78) = (   0.3333333   0.4166667   0.4166667), wk =   0.0138889
        k(   79) = (   0.3333333   0.4166667  -0.5000000), wk =   0.0138889
        k(   80) = (   0.3333333  -0.5000000  -0.5000000), wk =   0.0034722
        k(   81) = (   0.4166667   0.4166667   0.4166667), wk =   0.0046296
        k(   82) = (   0.4166667   0.4166667  -0.5000000), wk =   0.0069444
        k(   83) = (   0.4166667  -0.5000000  -0.5000000), wk =   0.0034722
        k(   84) = (  -0.5000000  -0.5000000  -0.5000000), wk =   0.0005787

     Dense  grid:   107783 G-vectors     FFT dimensions: (  60,  60,  60)

     Smooth grid:    69983 G-vectors     FFT dimensions: (  54,  54,  54)

     Dynamical RAM for                 wfc:       0.29 MB

     Dynamical RAM for     wfc (w. buffer):      48.46 MB

     Dynamical RAM for           str. fact:       0.08 MB

     Dynamical RAM for           local pot:       0.00 MB

     Dynamical RAM for          nlocal pot:       0.48 MB

     Dynamical RAM for                qrad:       2.27 MB

     Dynamical RAM for          rho,v,vnew:       0.99 MB

     Dynamical RAM for               rhoin:       0.33 MB

     Dynamical RAM for            rho*nmix:       2.63 MB

     Dynamical RAM for           G-vectors:       0.34 MB

     Dynamical RAM for          h,s,v(r/c):       0.34 MB

     Dynamical RAM for          <psi|beta>:       0.05 MB

     Dynamical RAM for                 psi:       0.57 MB

     Dynamical RAM for                hpsi:       0.57 MB

     Dynamical RAM for                spsi:       0.57 MB

     Dynamical RAM for      wfcinit/wfcrot:       0.62 MB

     Dynamical RAM for           addusdens:      15.71 MB

     Estimated static dynamical RAM per process >      53.60 MB

     Estimated max dynamical RAM per process >      71.94 MB

     Estimated total dynamical RAM >       1.41 GB
     Generating pointlists ...
     new r_m :   0.2917 (alat units)  1.9127 (a.u.) for type    1

     The initial density is read from file :
     out/Ni.save/charge-density


     starting charge      72.6261, renormalised to      72.0000
     Starting wfcs from file
     Checking if some PAW data can be deallocated... 

     total cpu time spent up to now is        1.3 secs

     Self-consistent Calculation

     iteration #  1     ecut=   150.00 Ry     beta= 0.70
     Davidson diagonalization with overlap

---- Real-time Memory Report at c_bands before calling an iterative solver
            94 MiB given to the printing process from OS
             0 MiB allocation reported by mallinfo(arena+hblkhd)
        354685 MiB available memory on the node where the printing process lives
------------------
     ethr =  1.00E-05,  avg # of iterations =  4.1

     total cpu time spent up to now is       14.7 secs

     total energy              =   -1716.57083249 Ry
     estimated scf accuracy    <       0.13141622 Ry

     total magnetization       =     2.44 Bohr mag/cell
     absolute magnetization    =     2.81 Bohr mag/cell

     iteration #  2     ecut=   150.00 Ry     beta= 0.70
     Davidson diagonalization with overlap

---- Real-time Memory Report at c_bands before calling an iterative solver
           124 MiB given to the printing process from OS
             0 MiB allocation reported by mallinfo(arena+hblkhd)
        354173 MiB available memory on the node where the printing process lives
------------------
     ethr =  1.83E-04,  avg # of iterations =  3.4

     total cpu time spent up to now is       25.9 secs

     total energy              =   -1716.55895256 Ry
     estimated scf accuracy    <       0.64649310 Ry

     total magnetization       =     2.81 Bohr mag/cell
     absolute magnetization    =     3.14 Bohr mag/cell

     iteration #  3     ecut=   150.00 Ry     beta= 0.70
     Davidson diagonalization with overlap

---- Real-time Memory Report at c_bands before calling an iterative solver
           126 MiB given to the printing process from OS
             0 MiB allocation reported by mallinfo(arena+hblkhd)
        354170 MiB available memory on the node where the printing process lives
------------------
     ethr =  1.83E-04,  avg # of iterations =  3.1

     total cpu time spent up to now is       35.8 secs

     total energy              =   -1716.65195978 Ry
     estimated scf accuracy    <       0.00189810 Ry

     total magnetization       =     2.61 Bohr mag/cell
     absolute magnetization    =     2.95 Bohr mag/cell

     iteration #  4     ecut=   150.00 Ry     beta= 0.70
     Davidson diagonalization with overlap

---- Real-time Memory Report at c_bands before calling an iterative solver
           126 MiB given to the printing process from OS
             0 MiB allocation reported by mallinfo(arena+hblkhd)
        354169 MiB available memory on the node where the printing process lives
------------------
     ethr =  2.64E-06,  avg # of iterations =  3.1

     total cpu time spent up to now is       46.3 secs

     total energy              =   -1716.65146317 Ry
     estimated scf accuracy    <       0.03823227 Ry

     total magnetization       =     2.61 Bohr mag/cell
     absolute magnetization    =     2.95 Bohr mag/cell

     iteration #  5     ecut=   150.00 Ry     beta= 0.70
     Davidson diagonalization with overlap

---- Real-time Memory Report at c_bands before calling an iterative solver
           126 MiB given to the printing process from OS
             0 MiB allocation reported by mallinfo(arena+hblkhd)
        354163 MiB available memory on the node where the printing process lives
------------------
     ethr =  2.64E-06,  avg # of iterations =  2.0

     total cpu time spent up to now is       54.3 secs

     total energy              =   -1716.65313300 Ry
     estimated scf accuracy    <       0.00050588 Ry

     total magnetization       =     2.60 Bohr mag/cell
     absolute magnetization    =     2.95 Bohr mag/cell

     iteration #  6     ecut=   150.00 Ry     beta= 0.70
     Davidson diagonalization with overlap

---- Real-time Memory Report at c_bands before calling an iterative solver
           127 MiB given to the printing process from OS
             0 MiB allocation reported by mallinfo(arena+hblkhd)
        354159 MiB available memory on the node where the printing process lives
------------------
     ethr =  7.03E-07,  avg # of iterations =  2.0

     total cpu time spent up to now is       62.1 secs

     total energy              =   -1716.65318074 Ry
     estimated scf accuracy    <       0.00002774 Ry

     total magnetization       =     2.60 Bohr mag/cell
     absolute magnetization    =     2.95 Bohr mag/cell

     iteration #  7     ecut=   150.00 Ry     beta= 0.70
     Davidson diagonalization with overlap

---- Real-time Memory Report at c_bands before calling an iterative solver
           127 MiB given to the printing process from OS
             0 MiB allocation reported by mallinfo(arena+hblkhd)
        354154 MiB available memory on the node where the printing process lives
------------------
     ethr =  3.85E-08,  avg # of iterations =  2.3

     total cpu time spent up to now is       70.7 secs

     total energy              =   -1716.65318734 Ry
     estimated scf accuracy    <       0.00000048 Ry

     total magnetization       =     2.61 Bohr mag/cell
     absolute magnetization    =     2.96 Bohr mag/cell

     iteration #  8     ecut=   150.00 Ry     beta= 0.70
     Davidson diagonalization with overlap

---- Real-time Memory Report at c_bands before calling an iterative solver
           128 MiB given to the printing process from OS
             0 MiB allocation reported by mallinfo(arena+hblkhd)
        354149 MiB available memory on the node where the printing process lives
------------------
     ethr =  6.66E-10,  avg # of iterations =  4.2

     total cpu time spent up to now is       81.3 secs

     total energy              =   -1716.65318758 Ry
     estimated scf accuracy    <       0.00000036 Ry

     total magnetization       =     2.61 Bohr mag/cell
     absolute magnetization    =     2.96 Bohr mag/cell

     iteration #  9     ecut=   150.00 Ry     beta= 0.70
     Davidson diagonalization with overlap

---- Real-time Memory Report at c_bands before calling an iterative solver
           128 MiB given to the printing process from OS
             0 MiB allocation reported by mallinfo(arena+hblkhd)
        354145 MiB available memory on the node where the printing process lives
------------------
     ethr =  5.00E-10,  avg # of iterations =  1.0
 
     Magnetic moment per site  (integrated on atomic sphere of radius R)
     atom   1 (R=0.292)  charge= 16.6689  magn=  0.6891
     atom   2 (R=0.292)  charge= 16.6691  magn=  0.6891
     atom   3 (R=0.292)  charge= 16.6691  magn=  0.6891
     atom   4 (R=0.292)  charge= 16.6691  magn=  0.6891

     total cpu time spent up to now is       88.2 secs

     End of self-consistent calculation

 ------ SPIN UP ------------


          k = 0.0000 0.0000 0.0000 (  8733 PWs)   bands (ev):

   -84.8614 -84.8079 -84.8079 -84.8076 -45.3365 -45.3365 -45.3365 -45.1917
   -45.1917 -45.1917 -45.1915 -45.1915 -45.1915 -45.0970 -45.0970 -45.0970
     9.5101  13.9691  13.9691  13.9691  14.4538  14.4538  14.4538  16.3455
    16.3455  16.3455  17.6124  17.6124  18.3740  18.3742  18.3742  18.4519
    18.4519  18.4519  18.4521  18.4521  18.4521  21.3079  21.3079  21.3079
    28.4482  28.4482  28.4482

     occupation numbers 
     1.0000   1.0000   1.0000   1.0000   1.0000   1.0000   1.0000   1.0000
     1.0000   1.0000   1.0000   1.0000   1.0000   1.0000   1.0000   1.0000
     1.0000   1.0000   1.0000   1.0000   1.0000   1.0000   1.0000   1.0000
     1.0000   1.0000   1.0000   1.0000   1.0000   1.0000   1.0000   1.0000
     1.0000   1.0000   1.0000   1.0000   1.0000  -0.0000  -0.0000  -0.0000
    -0.0000  -0.0000  -0.0000

          k = 0.0000 0.0000 0.0833 (  8761 PWs)   bands (ev):

   -84.8605 -84.8087 -84.8079 -84.8077 -45.3340 -45.3340 -45.3325 -45.1941
   -45.1941 -45.1918 -45.1916 -45.1900 -45.1900 -45.1013 -45.0987 -45.0987
     9.6039  13.9768  14.0190  14.0190  14.4834  14.4864  14.4864  16.3103
    16.3726  16.3726  17.5798  17.6250  18.2243  18.2243  18.3316  18.3317
    18.3607  18.4030  18.4030  18.4520  18.4522  20.8281  21.6129  21.6129
    28.4685  28.4685  29.0871

     occupation numbers 
     1.0000   1.0000   1.0000   1.0000   1.0000   1.0000   1.0000   1.0000
     1.0000   1.0000   1.0000   1.0000   1.0000   1.0000   1.0000   1.0000
     1.0000   1.0000   1.0000   1.0000   1.0000   1.0000   1.0000   1.0000
     1.0000   1.0000   1.0000   1.0000   1.0000   1.0000   1.0000   1.0000
     1.0000   1.0000   1.0000   1.0000   1.0000  -0.0000  -0.0000  -0.0000
    -0.0000  -0.0000  -0.0000

          k = 0.0000 0.0000 0.1667 (  8745 PWs)   bands (ev):

   -84.8578 -84.8114 -84.8079 -84.8077 -45.3268 -45.3268 -45.3210 -45.2013
   -45.2013 -45.1921 -45.1919 -45.1852 -45.1852 -45.1137 -45.1034 -45.1034
     9.8825  13.9830  14.1618  14.1618  14.5705  14.5847  14.5847  16.2077
    16.4531  16.4531  17.4859  17.6619  17.7196  17.7196  18.2087  18.2088
    18.2633  18.2633  18.3214  18.4522  18.4524  19.7549  22.3490  22.3490
    28.5317  28.5317  30.6472

     occupation numbers 
     1.0000   1.0000   1.0000   1.0000   1.0000   1.0000   1.0000   1.0000
     1.0000   1.0000   1.0000   1.0000   1.0000   1.0000   1.0000   1.0000
     1.0000   1.0000   1.0000   1.0000   1.0000   1.0000   1.0000   1.0000
     1.0000   1.0000   1.0000   1.0000   1.0000   1.0000   1.0000   1.0000
     1.0000   1.0000   1.0000   1.0000   1.0000  -0.0000  -0.0000  -0.0000
    -0.0000  -0.0000  -0.0000

          k = 0.0000 0.0000 0.2500 (  8746 PWs)   bands (ev):

   -84.8535 -84.8156 -84.8079 -84.8077 -45.3153 -45.3153 -45.3025 -45.2129
   -45.2129 -45.1926 -45.1923 -45.1777 -45.1777 -45.1333 -45.1109 -45.1109
    10.3371  13.9298  14.3757  14.3757  14.7107  14.7495  14.7495  16.0465
    16.5852  16.5852  17.1475  17.1475  17.3429  17.7208  18.0208  18.0209
    18.0522  18.0522  18.2593  18.4525  18.4527  18.5927  23.3046  23.3046
    28.6435  28.6435  30.9187

     occupation numbers 
     1.0000   1.0000   1.0000   1.0000   1.0000   1.0000   1.0000   1.0000
     1.0000   1.0000   1.0000   1.0000   1.0000   1.0000   1.0000   1.0000
     1.0000   1.0000   1.0000   1.0000   1.0000   1.0000   1.0000   1.0000
     1.0000   1.0000   1.0000   1.0000   1.0000   1.0000   1.0000   1.0000
     1.0000   1.0000   1.0000   1.0000   1.0000   1.0000  -0.0000  -0.0000
    -0.0000  -0.0000  -0.0000

          k = 0.0000 0.0000 0.3333 (  8738 PWs)   bands (ev):

   -84.8480 -84.8212 -84.8078 -84.8076 -45.3003 -45.3003 -45.2783 -45.2279
   -45.2279 -45.1930 -45.1928 -45.1680 -45.1680 -45.1587 -45.1207 -45.1207
    10.9496  13.7062  14.6191  14.6192  14.8961  14.9820  14.9820  15.8400
    16.5946  16.5946  16.7652  16.7652  17.1743  17.6540  17.7950  17.7950
    17.7981  17.8019  17.8020  18.1788  18.4528  18.4530  24.3904  24.3904
    28.8075  28.8075  29.5182

     occupation numbers 
     1.0000   1.0000   1.0000   1.0000   1.0000   1.0000   1.0000   1.0000
     1.0000   1.0000   1.0000   1.0000   1.0000   1.0000   1.0000   1.0000
     1.0000   1.0000   1.0000   1.0000   1.0000   1.0000   1.0000   1.0000
     1.0000   1.0000   1.0000   1.0000   1.0000   1.0000   1.0000   1.0000
     1.0000   1.0000   1.0000   1.0000   1.0000   1.0000  -0.0000  -0.0000
    -0.0000  -0.0000  -0.0000

          k = 0.0000 0.0000 0.4167 (  8750 PWs)   bands (ev):

   -84.8415 -84.8276 -84.8078 -84.8076 -45.2829 -45.2829 -45.2499 -45.2454
   -45.2454 -45.1934 -45.1931 -45.1880 -45.1566 -45.1566 -45.1321 -45.1321
    11.6859  13.2068  14.8247  14.8248  15.1162  15.2833  15.2833  15.6046
    16.0927  16.0927  16.9874  16.9874  17.0219  17.1179  17.5176  17.5176
    17.6133  17.6134  17.8888  18.0858  18.4530  18.4532  25.5703  25.5703
    28.1469  28.1469  29.0031

     occupation numbers 
     1.0000   1.0000   1.0000   1.0000   1.0000   1.0000   1.0000   1.0000
     1.0000   1.0000   1.0000   1.0000   1.0000   1.0000   1.0000   1.0000
     1.0000   1.0000   1.0000   1.0000   1.0000   1.0000   1.0000   1.0000
     1.0000   1.0000   1.0000   1.0000   1.0000   1.0000   1.0000   1.0000
     1.0000   1.0000   1.0000   1.0000   1.0000   1.0000  -0.0000  -0.0000
    -0.0000  -0.0000  -0.0000

          k = 0.0000 0.0000-0.5000 (  8778 PWs)   bands (ev):

   -84.8347 -84.8345 -84.8078 -84.8076 -45.2642 -45.2642 -45.2641 -45.2641
   -45.2192 -45.2190 -45.1935 -45.1933 -45.1444 -45.1444 -45.1442 -45.1442
    12.4797  12.4797  14.9081  14.9082  15.3575  15.3577  15.6539  15.6539
    15.6541  15.6541  16.9599  16.9600  17.2424  17.2424  17.2426  17.2426
    17.5359  17.5361  17.9868  17.9869  18.4531  18.4532  26.8266  26.8266
    26.8267  26.8267  29.1146

     occupation numbers 
     1.0000   1.0000   1.0000   1.0000   1.0000   1.0000   1.0000   1.0000
     1.0000   1.0000   1.0000   1.0000   1.0000   1.0000   1.0000   1.0000
     1.0000   1.0000   1.0000   1.0000   1.0000   1.0000   1.0000   1.0000
     1.0000   1.0000   1.0000   1.0000   1.0000   1.0000   1.0000   1.0000
     1.0000   1.0000   1.0000   1.0000   1.0000   1.0000  -0.0000  -0.0000
    -0.0000  -0.0000  -0.0000

          k = 0.0000 0.0833 0.0833 (  8738 PWs)   bands (ev):

   -84.8596 -84.8088 -84.8086 -84.8078 -45.3316 -45.3303 -45.3303 -45.1990
   -45.1925 -45.1923 -45.1900 -45.1900 -45.1892 -45.1077 -45.1003 -45.0979
     9.6971  14.0276  14.0276  14.0675  14.5154  14.5154  14.5183  16.2902
    16.3853  16.3971  17.5707  17.6168  18.0611  18.1468  18.1469  18.2912
    18.3354  18.3354  18.4030  18.4030  18.4210  21.1342  21.1343  21.8848
    28.4867  29.1180  29.1180

     occupation numbers 
     1.0000   1.0000   1.0000   1.0000   1.0000   1.0000   1.0000   1.0000
     1.0000   1.0000   1.0000   1.0000   1.0000   1.0000   1.0000   1.0000
     1.0000   1.0000   1.0000   1.0000   1.0000   1.0000   1.0000   1.0000
     1.0000   1.0000   1.0000   1.0000   1.0000   1.0000   1.0000   1.0000
     1.0000   1.0000   1.0000   1.0000   1.0000  -0.0000  -0.0000  -0.0000
    -0.0000  -0.0000  -0.0000

          k = 0.0000 0.0833 0.1667 (  8746 PWs)   bands (ev):

   -84.8569 -84.8113 -84.8086 -84.8078 -45.3244 -45.3238 -45.3194 -45.2077
   -45.1996 -45.1900 -45.1877 -45.1877 -45.1850 -45.1214 -45.1051 -45.1010
     9.9742  14.0365  14.1732  14.2065  14.6008  14.6119  14.6140  16.1977
    16.4580  16.4697  17.4890  17.6253  17.6348  17.6496  17.9505  18.1736
    18.2131  18.2630  18.3096  18.4028  18.4041  20.0914  21.8453  22.5696
    28.5373  29.2132  30.6906

     occupation numbers 
     1.0000   1.0000   1.0000   1.0000   1.0000   1.0000   1.0000   1.0000
     1.0000   1.0000   1.0000   1.0000   1.0000   1.0000   1.0000   1.0000
     1.0000   1.0000   1.0000   1.0000   1.0000   1.0000   1.0000   1.0000
     1.0000   1.0000   1.0000   1.0000   1.0000   1.0000   1.0000   1.0000
     1.0000   1.0000   1.0000   1.0000   1.0000  -0.0000  -0.0000  -0.0000
    -0.0000  -0.0000  -0.0000

          k = 0.0000 0.0833 0.2500 (  8731 PWs)   bands (ev):

   -84.8527 -84.8155 -84.8085 -84.8079 -45.3134 -45.3130 -45.3021 -45.2194
   -45.2111 -45.1900 -45.1873 -45.1801 -45.1770 -45.1410 -45.1126 -45.1078
    10.4260  13.9877  14.3919  14.4156  14.7381  14.7730  14.7736  16.0425
    16.5855  16.5877  17.0669  17.0954  17.3567  17.6380  17.7145  17.9932
    18.0274  18.0516  18.2381  18.4000  18.4025  19.0341  22.7381  23.4881
    28.5725  29.3785  29.7587

     occupation numbers 
     1.0000   1.0000   1.0000   1.0000   1.0000   1.0000   1.0000   1.0000
     1.0000   1.0000   1.0000   1.0000   1.0000   1.0000   1.0000   1.0000
     1.0000   1.0000   1.0000   1.0000   1.0000   1.0000   1.0000   1.0000
     1.0000   1.0000   1.0000   1.0000   1.0000   1.0000   1.0000   1.0000
     1.0000   1.0000   1.0000   1.0000   1.0000  -0.0000  -0.0000  -0.0000
    -0.0000  -0.0000  -0.0000

          k = 0.0000 0.0833 0.3333 (  8746 PWs)   bands (ev):

   -84.8473 -84.8209 -84.8084 -84.8079 -45.2998 -45.2981 -45.2792 -45.2337
   -45.2261 -45.1899 -45.1876 -45.1702 -45.1667 -45.1656 -45.1225 -45.1175
    11.0344  13.7691  14.6424  14.6573  14.9197  14.9921  15.0015  15.8418
    16.5246  16.5691  16.7260  16.7665  17.2189  17.2240  17.7828  17.7943
    17.8009  17.8097  18.0587  18.3503  18.3994  18.4021  23.7261  24.5495
    28.0890  29.1540  29.6061

     occupation numbers 
     1.0000   1.0000   1.0000   1.0000   1.0000   1.0000   1.0000   1.0000
     1.0000   1.0000   1.0000   1.0000   1.0000   1.0000   1.0000   1.0000
     1.0000   1.0000   1.0000   1.0000   1.0000   1.0000   1.0000   1.0000
     1.0000   1.0000   1.0000   1.0000   1.0000   1.0000   1.0000   1.0000
     1.0000   1.0000   1.0000   1.0000   1.0000   1.0000  -0.0000  -0.0000
    -0.0000  -0.0000  -0.0000

          k = 0.0000 0.0833 0.4167 (  8759 PWs)   bands (ev):

   -84.8409 -84.8273 -84.8083 -84.8080 -45.2840 -45.2807 -45.2524 -45.2498
   -45.2434 -45.1936 -45.1895 -45.1883 -45.1587 -45.1547 -45.1340 -45.1292
    11.7654  13.2745  14.8573  14.8668  15.1351  15.2695  15.2965  15.6122
    16.0366  16.0847  16.8100  16.8979  16.9878  17.1935  17.5170  17.6031
    17.6189  17.6916  17.9029  18.1389  18.3998  18.4014  24.7745  25.7131
    26.9940  28.2713  29.3142

     occupation numbers 
     1.0000   1.0000   1.0000   1.0000   1.0000   1.0000   1.0000   1.0000
     1.0000   1.0000   1.0000   1.0000   1.0000   1.0000   1.0000   1.0000
     1.0000   1.0000   1.0000   1.0000   1.0000   1.0000   1.0000   1.0000
     1.0000   1.0000   1.0000   1.0000   1.0000   1.0000   1.0000   1.0000
     1.0000   1.0000   1.0000   1.0000   1.0000   1.0000  -0.0000  -0.0000
    -0.0000  -0.0000  -0.0000

          k = 0.0000 0.0833-0.5000 (  8766 PWs)   bands (ev):

   -84.8342 -84.8340 -84.8083 -84.8081 -45.2671 -45.2669 -45.2622 -45.2620
   -45.2233 -45.2231 -45.1891 -45.1889 -45.1465 -45.1463 -45.1420 -45.1418
    12.5531  12.5531  14.9492  14.9493  15.3710  15.3711  15.6158  15.6160
    15.6583  15.6584  16.7992  16.7993  17.2422  17.2424  17.3829  17.3830
    17.5347  17.5348  18.0153  18.0154  18.4005  18.4007  25.8674  25.8674
    26.9583  26.9583  29.6210

     occupation numbers 
     1.0000   1.0000   1.0000   1.0000   1.0000   1.0000   1.0000   1.0000
     1.0000   1.0000   1.0000   1.0000   1.0000   1.0000   1.0000   1.0000
     1.0000   1.0000   1.0000   1.0000   1.0000   1.0000   1.0000   1.0000
     1.0000   1.0000   1.0000   1.0000   1.0000   1.0000   1.0000   1.0000
     1.0000   1.0000   1.0000   1.0000   1.0000   1.0000  -0.0000  -0.0000
    -0.0000  -0.0000  -0.0000

          k = 0.0000 0.1667 0.1667 (  8718 PWs)   bands (ev):

   -84.8544 -84.8112 -84.8110 -84.8080 -45.3173 -45.3149 -45.3149 -45.2188
   -45.1949 -45.1947 -45.1842 -45.1842 -45.1825 -45.1371 -45.1099 -45.1006
    10.2462  14.1905  14.1905  14.3345  14.6920  14.6920  14.7017  16.1415
    16.5012  16.5181  17.3434  17.4094  17.4095  17.4595  17.6553  18.0707
    18.1992  18.1993  18.2620  18.2620  18.3288  20.7809  20.7809  23.1602
    28.4755  29.6396  30.8189

     occupation numbers 
     1.0000   1.0000   1.0000   1.0000   1.0000   1.0000   1.0000   1.0000
     1.0000   1.0000   1.0000   1.0000   1.0000   1.0000   1.0000   1.0000
     1.0000   1.0000   1.0000   1.0000   1.0000   1.0000   1.0000   1.0000
     1.0000   1.0000   1.0000   1.0000   1.0000   1.0000   1.0000   1.0000
     1.0000   1.0000   1.0000   1.0000   1.0000  -0.0000  -0.0000  -0.0000
    -0.0000  -0.0000  -0.0000

          k = 0.0000 0.1667 0.2500 (  8733 PWs)   bands (ev):

   -84.8505 -84.8151 -84.8108 -84.8083 -45.3076 -45.3061 -45.3006 -45.2316
   -45.2060 -45.1870 -45.1830 -45.1791 -45.1751 -45.1576 -45.1177 -45.1047
    10.6895  14.1548  14.4236  14.5278  14.8206  14.8445  14.8450  16.0173
    16.5903  16.6105  16.8559  16.9356  17.0913  17.3651  17.7270  17.9111
    18.0226  18.0499  18.1332  18.2605  18.2852  19.7072  21.5875  23.9988
    27.7459  29.0944  31.0077

     occupation numbers 
     1.0000   1.0000   1.0000   1.0000   1.0000   1.0000   1.0000   1.0000
     1.0000   1.0000   1.0000   1.0000   1.0000   1.0000   1.0000   1.0000
     1.0000   1.0000   1.0000   1.0000   1.0000   1.0000   1.0000   1.0000
     1.0000   1.0000   1.0000   1.0000   1.0000   1.0000   1.0000   1.0000
     1.0000   1.0000   1.0000   1.0000   1.0000  -0.0000  -0.0000  -0.0000
    -0.0000  -0.0000  -0.0000

          k = 0.0000 0.1667 0.3333 (  8748 PWs)   bands (ev):

   -84.8453 -84.8203 -84.8104 -84.8086 -45.2979 -45.2915 -45.2815 -45.2453
   -45.2207 -45.1816 -45.1814 -45.1775 -45.1769 -45.1634 -45.1279 -45.1126
    11.2854  13.9508  14.6957  14.7612  14.9903  15.0283  15.0588  15.8405
    16.3442  16.4895  16.6549  16.7675  16.7785  17.2755  17.7236  17.7926
    17.8110  17.8424  17.9881  18.2587  18.2658  18.8976  22.4552  25.0020
    26.5517  29.2259  29.9904

     occupation numbers 
     1.0000   1.0000   1.0000   1.0000   1.0000   1.0000   1.0000   1.0000
     1.0000   1.0000   1.0000   1.0000   1.0000   1.0000   1.0000   1.0000
     1.0000   1.0000   1.0000   1.0000   1.0000   1.0000   1.0000   1.0000
     1.0000   1.0000   1.0000   1.0000   1.0000   1.0000   1.0000   1.0000
     1.0000   1.0000   1.0000   1.0000   1.0000   1.0000  -0.0000  -0.0000
    -0.0000  -0.0000  -0.0000

          k = 0.0000 0.1667 0.4167 (  8767 PWs)   bands (ev):

   -84.8392 -84.8263 -84.8100 -84.8090 -45.2863 -45.2744 -45.2594 -45.2588
   -45.2378 -45.2073 -45.1798 -45.1774 -45.1651 -45.1502 -45.1397 -45.1236
    11.9997  13.4707  14.9403  14.9860  15.1909  15.2325  15.3345  15.6319
    15.8921  16.0588  16.5829  16.6453  16.9934  17.3019  17.5164  17.5668
    17.6181  17.7472  17.9874  18.2570  18.2583  18.4241  23.3735  25.4055
    26.1243  28.6339  29.5382

     occupation numbers 
     1.0000   1.0000   1.0000   1.0000   1.0000   1.0000   1.0000   1.0000
     1.0000   1.0000   1.0000   1.0000   1.0000   1.0000   1.0000   1.0000
     1.0000   1.0000   1.0000   1.0000   1.0000   1.0000   1.0000   1.0000
     1.0000   1.0000   1.0000   1.0000   1.0000   1.0000   1.0000   1.0000
     1.0000   1.0000   1.0000   1.0000   1.0000   1.0000  -0.0000  -0.0000
    -0.0000  -0.0000  -0.0000

          k = 0.0000 0.1667-0.5000 (  8754 PWs)   bands (ev):

   -84.8329 -84.8327 -84.8096 -84.8094 -45.2733 -45.2732 -45.2562 -45.2560
   -45.2336 -45.2335 -45.1784 -45.1782 -45.1525 -45.1523 -45.1365 -45.1364
    12.7677  12.7677  15.0646  15.0647  15.4097  15.4098  15.5125  15.5126
    15.6696  15.6697  16.5775  16.5775  17.2439  17.2441  17.4825  17.4825
    17.5199  17.5201  18.1661  18.1662  18.2563  18.2565  24.3509  24.3509
    27.3404  27.3405  29.9849

     occupation numbers 
     1.0000   1.0000   1.0000   1.0000   1.0000   1.0000   1.0000   1.0000
     1.0000   1.0000   1.0000   1.0000   1.0000   1.0000   1.0000   1.0000
     1.0000   1.0000   1.0000   1.0000   1.0000   1.0000   1.0000   1.0000
     1.0000   1.0000   1.0000   1.0000   1.0000   1.0000   1.0000   1.0000
     1.0000   1.0000   1.0000   1.0000   1.0000   1.0000  -0.0000  -0.0000
    -0.0000  -0.0000  -0.0000

          k = 0.0000 0.2500 0.2500 (  8750 PWs)   bands (ev):

   -84.8468 -84.8145 -84.8143 -84.8089 -45.2979 -45.2978 -45.2952 -45.2448
   -45.1980 -45.1978 -45.1783 -45.1724 -45.1722 -45.1722 -45.1259 -45.1055
    11.1176  14.4101  14.4102  14.6931  14.9579  14.9580  14.9651  15.9451
    16.5839  16.5840  16.6007  16.6754  16.6838  17.3160  17.7802  17.8168
    17.9672  17.9673  18.0477  18.0477  18.1788  20.4317  20.4318  24.7565
    26.3690  29.1812  31.9458

     occupation numbers 
     1.0000   1.0000   1.0000   1.0000   1.0000   1.0000   1.0000   1.0000
     1.0000   1.0000   1.0000   1.0000   1.0000   1.0000   1.0000   1.0000
     1.0000   1.0000   1.0000   1.0000   1.0000   1.0000   1.0000   1.0000
     1.0000   1.0000   1.0000   1.0000   1.0000   1.0000   1.0000   1.0000
     1.0000   1.0000   1.0000   1.0000   1.0000  -0.0000  -0.0000  -0.0000
    -0.0000  -0.0000  -0.0000

          k = 0.0000 0.2500 0.3333 (  8759 PWs)   bands (ev):

   -84.8421 -84.8192 -84.8136 -84.8097 -45.2935 -45.2841 -45.2810 -45.2576
   -45.2122 -45.2010 -45.1874 -45.1692 -45.1677 -45.1591 -45.1364 -45.1105
    11.6911  14.2290  14.7144  14.8934  15.1067  15.1117  15.1495  15.8189
    16.1321  16.3514  16.3624  16.5936  16.8217  17.2533  17.6231  17.7661
    17.7915  17.8373  17.9796  18.0461  18.1095  19.5055  21.1985  25.0758
    25.6930  29.4371  30.5488

     occupation numbers 
     1.0000   1.0000   1.0000   1.0000   1.0000   1.0000   1.0000   1.0000
     1.0000   1.0000   1.0000   1.0000   1.0000   1.0000   1.0000   1.0000
     1.0000   1.0000   1.0000   1.0000   1.0000   1.0000   1.0000   1.0000
     1.0000   1.0000   1.0000   1.0000   1.0000   1.0000   1.0000   1.0000
     1.0000   1.0000   1.0000   1.0000   1.0000  -0.0000  -0.0000  -0.0000
    -0.0000  -0.0000  -0.0000

          k = 0.0000 0.2500 0.4167 (  8751 PWs)   bands (ev):

   -84.8365 -84.8247 -84.8127 -84.8106 -45.2874 -45.2692 -45.2668 -45.2644
   -45.2288 -45.2242 -45.1751 -45.1666 -45.1654 -45.1487 -45.1450 -45.1195
    12.3747  13.7732  15.0037  15.1277  15.2178  15.2810  15.3929  15.6535
    15.7399  16.0093  16.3047  16.5203  17.0167  17.2778  17.4936  17.5193
    17.5764  17.6375  18.0471  18.0718  18.1943  18.8740  22.0192  23.9284
    26.7638  29.2079  29.8207

     occupation numbers 
     1.0000   1.0000   1.0000   1.0000   1.0000   1.0000   1.0000   1.0000
     1.0000   1.0000   1.0000   1.0000   1.0000   1.0000   1.0000   1.0000
     1.0000   1.0000   1.0000   1.0000   1.0000   1.0000   1.0000   1.0000
     1.0000   1.0000   1.0000   1.0000   1.0000   1.0000   1.0000   1.0000
     1.0000   1.0000   1.0000   1.0000   1.0000   1.0000  -0.0000  -0.0000
    -0.0000  -0.0000  -0.0000

          k = 0.0000 0.2500-0.5000 (  8748 PWs)   bands (ev):

   -84.8307 -84.8305 -84.8117 -84.8115 -45.2793 -45.2792 -45.2467 -45.2466
   -45.2465 -45.2465 -45.1652 -45.1651 -45.1620 -45.1618 -45.1314 -45.1313
    13.1055  13.1055  15.1921  15.1921  15.4068  15.4069  15.4683  15.4684
    15.6830  15.6832  16.3927  16.3927  17.2545  17.2547  17.4238  17.4239
    17.4682  17.4683  18.0538  18.0540  18.4722  18.4722  22.9186  22.9187
    27.9414  27.9415  30.3413

     occupation numbers 
     1.0000   1.0000   1.0000   1.0000   1.0000   1.0000   1.0000   1.0000
     1.0000   1.0000   1.0000   1.0000   1.0000   1.0000   1.0000   1.0000
     1.0000   1.0000   1.0000   1.0000   1.0000   1.0000   1.0000   1.0000
     1.0000   1.0000   1.0000   1.0000   1.0000   1.0000   1.0000   1.0000
     1.0000   1.0000   1.0000   1.0000   1.0000   1.0000  -0.0000  -0.0000
    -0.0000  -0.0000  -0.0000

          k = 0.0000 0.3333 0.3333 (  8780 PWs)   bands (ev):

   -84.8379 -84.8179 -84.8177 -84.8111 -45.2859 -45.2858 -45.2684 -45.2673
   -45.2216 -45.2012 -45.2010 -45.1598 -45.1553 -45.1551 -45.1475 -45.1126
    12.2298  14.5608  14.5608  15.0047  15.2554  15.2665  15.2666  15.7606
    16.0185  16.0186  16.1588  16.5330  16.9181  17.1877  17.4940  17.6500
    17.6500  17.7941  17.7942  17.9772  18.2045  20.1578  20.1579  23.7661
    26.5684  29.7624  31.2826

     occupation numbers 
     1.0000   1.0000   1.0000   1.0000   1.0000   1.0000   1.0000   1.0000
     1.0000   1.0000   1.0000   1.0000   1.0000   1.0000   1.0000   1.0000
     1.0000   1.0000   1.0000   1.0000   1.0000   1.0000   1.0000   1.0000
     1.0000   1.0000   1.0000   1.0000   1.0000   1.0000   1.0000   1.0000
     1.0000   1.0000   1.0000   1.0000   1.0000  -0.0000  -0.0000  -0.0000
    -0.0000  -0.0000  -0.0000

          k = 0.0000 0.3333 0.4167 (  8751 PWs)   bands (ev):

   -84.8330 -84.8226 -84.8161 -84.8127 -45.2856 -45.2770 -45.2744 -45.2514
   -45.2415 -45.2171 -45.1882 -45.1605 -45.1546 -45.1527 -45.1411 -45.1187
    12.8641  14.1398  14.8737  15.0817  15.4001  15.4075  15.4645  15.6629
    15.7444  15.9301  16.0844  16.4250  17.0753  17.1822  17.3830  17.4706
    17.4725  17.5321  17.8054  17.8863  18.4949  19.3944  20.8737  22.6406
    27.5880  29.9607  30.2138

     occupation numbers 
     1.0000   1.0000   1.0000   1.0000   1.0000   1.0000   1.0000   1.0000
     1.0000   1.0000   1.0000   1.0000   1.0000   1.0000   1.0000   1.0000
     1.0000   1.0000   1.0000   1.0000   1.0000   1.0000   1.0000   1.0000
     1.0000   1.0000   1.0000   1.0000   1.0000   1.0000   1.0000   1.0000
     1.0000   1.0000   1.0000   1.0000   1.0000  -0.0000  -0.0000  -0.0000
    -0.0000  -0.0000  -0.0000

          k = 0.0000 0.3333-0.5000 (  8760 PWs)   bands (ev):

   -84.8279 -84.8277 -84.8145 -84.8143 -45.2827 -45.2827 -45.2595 -45.2594
   -45.2343 -45.2342 -45.1744 -45.1742 -45.1524 -45.1523 -45.1285 -45.1285
    13.5323  13.5323  15.0653  15.0653  15.5373  15.5374  15.5484  15.5485
    15.6909  15.6910  16.2543  16.2543  17.2854  17.2855  17.2907  17.2908
    17.3648  17.3650  17.8327  17.8328  18.8696  18.8696  21.6875  21.6876
    28.7247  28.7247  30.8069

     occupation numbers 
     1.0000   1.0000   1.0000   1.0000   1.0000   1.0000   1.0000   1.0000
     1.0000   1.0000   1.0000   1.0000   1.0000   1.0000   1.0000   1.0000
     1.0000   1.0000   1.0000   1.0000   1.0000   1.0000   1.0000   1.0000
     1.0000   1.0000   1.0000   1.0000   1.0000   1.0000   1.0000   1.0000
     1.0000   1.0000   1.0000   1.0000   1.0000   1.0000  -0.0000  -0.0000
    -0.0000  -0.0000  -0.0000

          k = 0.0000 0.4167 0.4167 (  8746 PWs)   bands (ev):

   -84.8289 -84.8203 -84.8201 -84.8150 -45.2815 -45.2801 -45.2799 -45.2573
   -45.2361 -45.2036 -45.2033 -45.1741 -45.1464 -45.1398 -45.1396 -45.1220
    13.4248  14.5041  14.5042  14.9744  15.5388  15.5390  15.6176  15.6476
    15.8194  15.9214  15.9215  16.3145  17.1191  17.1851  17.2701  17.3136
    17.3136  17.5643  17.5645  17.7341  18.8690  19.9890  19.9891  21.5664
    28.5612  30.7377  30.8625

     occupation numbers 
     1.0000   1.0000   1.0000   1.0000   1.0000   1.0000   1.0000   1.0000
     1.0000   1.0000   1.0000   1.0000   1.0000   1.0000   1.0000   1.0000
     1.0000   1.0000   1.0000   1.0000   1.0000   1.0000   1.0000   1.0000
     1.0000   1.0000   1.0000   1.0000   1.0000   1.0000   1.0000   1.0000
     1.0000   1.0000   1.0000   1.0000   1.0000  -0.0000  -0.0000  -0.0000
    -0.0000  -0.0000  -0.0000

          k = 0.0000 0.4167-0.5000 (  8742 PWs)   bands (ev):

   -84.8247 -84.8245 -84.8177 -84.8175 -45.2825 -45.2825 -45.2705 -45.2704
   -45.2199 -45.2197 -45.1889 -45.1887 -45.1414 -45.1414 -45.1291 -45.1291
    13.9955  13.9956  14.7922  14.7923  15.6039  15.6040  15.6841  15.6842
    15.7845  15.7845  16.1395  16.1396  17.1689  17.1691  17.2316  17.2318
    17.3510  17.3511  17.6279  17.6280  19.3446  19.3447  20.6960  20.6960
    29.6584  29.6584  31.4066

     occupation numbers 
     1.0000   1.0000   1.0000   1.0000   1.0000   1.0000   1.0000   1.0000
     1.0000   1.0000   1.0000   1.0000   1.0000   1.0000   1.0000   1.0000
     1.0000   1.0000   1.0000   1.0000   1.0000   1.0000   1.0000   1.0000
     1.0000   1.0000   1.0000   1.0000   1.0000   1.0000   1.0000   1.0000
     1.0000   1.0000   1.0000   1.0000  -0.0000  -0.0000  -0.0000  -0.0000
    -0.0000  -0.0000  -0.0000

          k = 0.0000-0.5000-0.5000 (  8724 PWs)   bands (ev):

   -84.8212 -84.8212 -84.8212 -84.8208 -45.2785 -45.2784 -45.2783 -45.2783
   -45.2044 -45.2044 -45.2044 -45.2040 -45.1336 -45.1335 -45.1334 -45.1334
    14.4314  14.4314  14.4314  14.4315  15.6553  15.6554  15.6555  15.6555
    15.9935  15.9935  15.9936  15.9937  17.1421  17.1421  17.1421  17.1424
    17.4639  17.4639  17.4641  17.4641  19.9328  19.9328  19.9329  19.9330
    30.7189  30.7189  30.7189

     occupation numbers 
     1.0000   1.0000   1.0000   1.0000   1.0000   1.0000   1.0000   1.0000
     1.0000   1.0000   1.0000   1.0000   1.0000   1.0000   1.0000   1.0000
     1.0000   1.0000   1.0000   1.0000   1.0000   1.0000   1.0000   1.0000
     1.0000   1.0000   1.0000   1.0000   1.0000   1.0000   1.0000   1.0000
     1.0000   1.0000   1.0000   1.0000  -0.0000  -0.0000  -0.0000  -0.0000
    -0.0000  -0.0000  -0.0000

          k = 0.0833 0.0833 0.0833 (  8742 PWs)   bands (ev):

   -84.8587 -84.8088 -84.8088 -84.8085 -45.3281 -45.3281 -45.3281 -45.1971
   -45.1971 -45.1969 -45.1878 -45.1876 -45.1876 -45.1142 -45.0995 -45.0995
     9.7898  14.0768  14.0768  14.0768  14.5468  14.5468  14.5468  16.2715
    16.4083  16.4083  17.5863  17.5863  17.9928  17.9928  17.9929  18.2347
    18.2348  18.2348  18.4186  18.4187  18.4187  21.3996  21.3996  21.3996
    29.1464  29.1464  29.1464

     occupation numbers 
     1.0000   1.0000   1.0000   1.0000   1.0000   1.0000   1.0000   1.0000
     1.0000   1.0000   1.0000   1.0000   1.0000   1.0000   1.0000   1.0000
     1.0000   1.0000   1.0000   1.0000   1.0000   1.0000   1.0000   1.0000
     1.0000   1.0000   1.0000   1.0000   1.0000   1.0000   1.0000   1.0000
     1.0000   1.0000   1.0000   1.0000   1.0000  -0.0000  -0.0000  -0.0000
    -0.0000  -0.0000  -0.0000

          k = 0.0833 0.0833 0.1667 (  8738 PWs)   bands (ev):

   -84.8561 -84.8113 -84.8088 -84.8086 -45.3217 -45.3217 -45.3180 -45.2055
   -45.2054 -45.1914 -45.1861 -45.1860 -45.1831 -45.1285 -45.1041 -45.1017
    10.0651  14.0879  14.2179  14.2180  14.6308  14.6409  14.6409  16.1877
    16.4707  16.4770  17.4999  17.5475  17.5475  17.6321  17.7887  18.0926
    18.1314  18.1315  18.3919  18.3966  18.3968  20.3544  22.0514  22.0514
    29.2252  29.2252  30.7276

     occupation numbers 
     1.0000   1.0000   1.0000   1.0000   1.0000   1.0000   1.0000   1.0000
     1.0000   1.0000   1.0000   1.0000   1.0000   1.0000   1.0000   1.0000
     1.0000   1.0000   1.0000   1.0000   1.0000   1.0000   1.0000   1.0000
     1.0000   1.0000   1.0000   1.0000   1.0000   1.0000   1.0000   1.0000
     1.0000   1.0000   1.0000   1.0000   1.0000  -0.0000  -0.0000  -0.0000
    -0.0000  -0.0000  -0.0000

          k = 0.0833 0.0833 0.2500 (  8733 PWs)   bands (ev):

   -84.8520 -84.8154 -84.8087 -84.8085 -45.3116 -45.3116 -45.3018 -45.2167
   -45.2167 -45.1855 -45.1853 -45.1826 -45.1759 -45.1484 -45.1113 -45.1080
    10.5138  14.0424  14.4305  14.4306  14.7658  14.7972  14.7972  16.0395
    16.5833  16.5905  17.0204  17.0204  17.3763  17.4553  17.7048  17.8933
    17.9738  17.9739  18.3324  18.3759  18.3761  19.2882  22.9018  22.9018
    29.2235  29.2236  29.9829

     occupation numbers 
     1.0000   1.0000   1.0000   1.0000   1.0000   1.0000   1.0000   1.0000
     1.0000   1.0000   1.0000   1.0000   1.0000   1.0000   1.0000   1.0000
     1.0000   1.0000   1.0000   1.0000   1.0000   1.0000   1.0000   1.0000
     1.0000   1.0000   1.0000   1.0000   1.0000   1.0000   1.0000   1.0000
     1.0000   1.0000   1.0000   1.0000   1.0000  -0.0000  -0.0000  -0.0000
    -0.0000  -0.0000  -0.0000

          k = 0.0833 0.0833 0.3333 (  8745 PWs)   bands (ev):

   -84.8466 -84.8207 -84.8087 -84.8085 -45.2985 -45.2985 -45.2804 -45.2304
   -45.2304 -45.1854 -45.1852 -45.1725 -45.1711 -45.1664 -45.1208 -45.1178
    11.1178  13.8279  14.6781  14.6781  14.9443  15.0110  15.0110  15.8452
    16.5058  16.5058  16.7088  16.7463  17.0590  17.2674  17.6584  17.7752
    17.7754  17.7992  18.2457  18.3654  18.3655  18.4710  23.8575  23.8575
    28.3419  28.3419  29.8663

     occupation numbers 
     1.0000   1.0000   1.0000   1.0000   1.0000   1.0000   1.0000   1.0000
     1.0000   1.0000   1.0000   1.0000   1.0000   1.0000   1.0000   1.0000
     1.0000   1.0000   1.0000   1.0000   1.0000   1.0000   1.0000   1.0000
     1.0000   1.0000   1.0000   1.0000   1.0000   1.0000   1.0000   1.0000
     1.0000   1.0000   1.0000   1.0000   1.0000   1.0000  -0.0000  -0.0000
    -0.0000  -0.0000  -0.0000

          k = 0.0833 0.0833 0.4167 (  8763 PWs)   bands (ev):

   -84.8404 -84.8270 -84.8087 -84.8085 -45.2839 -45.2838 -45.2552 -45.2454
   -45.2453 -45.1995 -45.1854 -45.1853 -45.1579 -45.1554 -45.1318 -45.1301
    11.8429  13.3382  14.8980  14.8981  15.1556  15.2739  15.2739  15.6218
    16.0421  16.0421  16.7520  16.7835  16.9402  17.3022  17.4093  17.5978
    17.5979  17.9085  17.9203  18.1404  18.3608  18.3610  24.8664  24.8664
    27.1977  27.1977  30.1969

     occupation numbers 
     1.0000   1.0000   1.0000   1.0000   1.0000   1.0000   1.0000   1.0000
     1.0000   1.0000   1.0000   1.0000   1.0000   1.0000   1.0000   1.0000
     1.0000   1.0000   1.0000   1.0000   1.0000   1.0000   1.0000   1.0000
     1.0000   1.0000   1.0000   1.0000   1.0000   1.0000   1.0000   1.0000
     1.0000   1.0000   1.0000   1.0000   1.0000   1.0000  -0.0000  -0.0000
    -0.0000  -0.0000  -0.0000

          k = 0.0833 0.0833-0.5000 (  8762 PWs)   bands (ev):

   -84.8338 -84.8336 -84.8087 -84.8085 -45.2739 -45.2738 -45.2555 -45.2553
   -45.2277 -45.2276 -45.1855 -45.1853 -45.1439 -45.1438 -45.1437 -45.1435
    12.6235  12.6236  14.9911  14.9911  15.3864  15.3865  15.5201  15.5202
    15.7231  15.7232  16.7183  16.7183  17.1648  17.1649  17.5238  17.5240
    17.5403  17.5404  18.0250  18.0251  18.3595  18.3597  25.6595  25.6595
    26.3566  26.3567  30.4616

     occupation numbers 
     1.0000   1.0000   1.0000   1.0000   1.0000   1.0000   1.0000   1.0000
     1.0000   1.0000   1.0000   1.0000   1.0000   1.0000   1.0000   1.0000
     1.0000   1.0000   1.0000   1.0000   1.0000   1.0000   1.0000   1.0000
     1.0000   1.0000   1.0000   1.0000   1.0000   1.0000   1.0000   1.0000
     1.0000   1.0000   1.0000   1.0000   1.0000   1.0000  -0.0000  -0.0000
    -0.0000  -0.0000  -0.0000

          k = 0.0833 0.1667 0.1667 (  8711 PWs)   bands (ev):

   -84.8536 -84.8112 -84.8110 -84.8088 -45.3157 -45.3138 -45.3138 -45.2156
   -45.1990 -45.1988 -45.1814 -45.1812 -45.1811 -45.1443 -45.1078 -45.1021
    10.3350  14.2352  14.2352  14.3458  14.7206  14.7207  14.7281  16.1350
    16.5103  16.5202  17.2743  17.3313  17.3315  17.4862  17.6301  17.9896
    18.0049  18.0050  18.3610  18.3704  18.3705  20.9629  20.9629  22.5956
    29.0785  29.8926  30.7776

     occupation numbers 
     1.0000   1.0000   1.0000   1.0000   1.0000   1.0000   1.0000   1.0000
     1.0000   1.0000   1.0000   1.0000   1.0000   1.0000   1.0000   1.0000
     1.0000   1.0000   1.0000   1.0000   1.0000   1.0000   1.0000   1.0000
     1.0000   1.0000   1.0000   1.0000   1.0000   1.0000   1.0000   1.0000
     1.0000   1.0000   1.0000   1.0000   1.0000  -0.0000  -0.0000  -0.0000
    -0.0000  -0.0000  -0.0000

          k = 0.0833 0.1667 0.2500 (  8730 PWs)   bands (ev):

   -84.8497 -84.8150 -84.8109 -84.8090 -45.3071 -45.3064 -45.3009 -45.2271
   -45.2092 -45.1888 -45.1798 -45.1778 -45.1736 -45.1649 -45.1151 -45.1059
    10.7743  14.1991  14.4576  14.5383  14.8492  14.8699  14.8702  16.0182
    16.5885  16.6046  16.8214  16.8748  17.0206  17.4011  17.7085  17.8111
    17.8426  17.8933  18.3113  18.3121  18.3165  19.8525  21.7205  23.3487
    28.0109  29.7585  29.9890

     occupation numbers 
     1.0000   1.0000   1.0000   1.0000   1.0000   1.0000   1.0000   1.0000
     1.0000   1.0000   1.0000   1.0000   1.0000   1.0000   1.0000   1.0000
     1.0000   1.0000   1.0000   1.0000   1.0000   1.0000   1.0000   1.0000
     1.0000   1.0000   1.0000   1.0000   1.0000   1.0000   1.0000   1.0000
     1.0000   1.0000   1.0000   1.0000   1.0000  -0.0000  -0.0000  -0.0000
    -0.0000  -0.0000  -0.0000

          k = 0.0833 0.1667 0.3333 (  8752 PWs)   bands (ev):

   -84.8446 -84.8201 -84.8106 -84.8092 -45.2986 -45.2949 -45.2835 -45.2385
   -45.2218 -45.1885 -45.1784 -45.1763 -45.1760 -45.1634 -45.1248 -45.1138
    11.3644  13.9961  14.7197  14.7712  15.0187  15.0485  15.0705  15.8493
[...]
    -0.0000  -0.0000  -0.0000

          k = 0.2500 0.2500-0.5000 (  8778 PWs)   bands (ev):

   -83.9607 -83.9606 -83.9469 -83.9467 -44.4760 -44.4759 -44.4432 -44.4432
   -44.3546 -44.3545 -44.3086 -44.3085 -44.2929 -44.2928 -44.2923 -44.2922
    13.5755  13.5755  15.2223  15.2224  16.0167  16.0167  16.3873  16.3873
    16.8613  16.8614  17.0078  17.0079  17.4478  17.4479  17.6677  17.6677
    18.9423  18.9424  19.0057  19.0057  19.0433  19.0434  22.6169  22.6169
    25.5880  25.5880  30.2892

     occupation numbers 
     1.0000   1.0000   1.0000   1.0000   1.0000   1.0000   1.0000   1.0000
     1.0000   1.0000   1.0000   1.0000   1.0000   1.0000   1.0000   1.0000
     1.0000   1.0000   1.0000   1.0000   1.0000   1.0000   1.0000   1.0000
     1.0000   1.0000   1.0000   1.0000   1.0000   1.0000   1.0000   1.0000
     0.4477   0.4468  -0.0000  -0.0000  -0.0000  -0.0000  -0.0000  -0.0000
    -0.0000  -0.0000  -0.0000

          k = 0.2500 0.3333 0.3333 (  8745 PWs)   bands (ev):

   -83.9670 -83.9503 -83.9502 -83.9474 -44.4789 -44.4740 -44.4740 -44.4255
   -44.3486 -44.3320 -44.3319 -44.3067 -44.3054 -44.3053 -44.2799 -44.2722
    12.7791  14.7884  14.7884  15.0790  16.0262  16.1139  16.1140  16.6644
    16.9034  16.9035  16.9776  17.2188  17.2543  17.6276  17.6277  17.6460
    18.4773  18.7384  19.1035  19.1170  19.1170  20.8748  20.8748  22.1806
    25.8210  27.3398  27.3398

     occupation numbers 
     1.0000   1.0000   1.0000   1.0000   1.0000   1.0000   1.0000   1.0000
     1.0000   1.0000   1.0000   1.0000   1.0000   1.0000   1.0000   1.0000
     1.0000   1.0000   1.0000   1.0000   1.0000   1.0000   1.0000   1.0000
     1.0000   1.0000   1.0000   1.0000   1.0000   1.0000   1.0000   1.0000
     1.0000   1.0000  -0.0000  -0.0000  -0.0000  -0.0000  -0.0000  -0.0000
    -0.0000  -0.0000  -0.0000

          k = 0.2500 0.3333 0.4167 (  8747 PWs)   bands (ev):

   -83.9629 -83.9543 -83.9496 -83.9481 -44.4833 -44.4808 -44.4701 -44.4449
   -44.3432 -44.3344 -44.3128 -44.3025 -44.3019 -44.2964 -44.2881 -44.2771
    13.3057  14.3594  14.8798  15.0212  16.1810  16.2400  16.3711  16.6684
    16.9284  16.9423  17.0185  17.1139  17.2665  17.4636  17.5347  17.5360
    18.6103  18.9816  19.0300  19.0448  19.0472  19.9464  21.3041  22.0828
    25.4935  26.3926  28.1174

     occupation numbers 
     1.0000   1.0000   1.0000   1.0000   1.0000   1.0000   1.0000   1.0000
     1.0000   1.0000   1.0000   1.0000   1.0000   1.0000   1.0000   1.0000
     1.0000   1.0000   1.0000   1.0000   1.0000   1.0000   1.0000   1.0000
     1.0000   1.0000   1.0000   1.0000   1.0000   1.0000   1.0000   1.0000
     1.0000  -0.0001  -0.0000  -0.0000  -0.0000  -0.0000  -0.0000  -0.0000
    -0.0000  -0.0000  -0.0000

          k = 0.2500 0.3333-0.5000 (  8740 PWs)   bands (ev):

   -83.9586 -83.9585 -83.9489 -83.9488 -44.4840 -44.4840 -44.4601 -44.4601
   -44.3384 -44.3383 -44.3008 -44.3007 -44.2985 -44.2985 -44.2862 -44.2861
    13.8504  13.8504  14.9543  14.9544  16.2643  16.2643  16.5781  16.5782
    16.9959  16.9959  17.0073  17.0073  17.3395  17.3395  17.4947  17.4948
    18.8459  18.8459  19.0139  19.0140  19.3262  19.3262  21.7420  21.7420
    25.7366  25.7366  29.0256

     occupation numbers 
     1.0000   1.0000   1.0000   1.0000   1.0000   1.0000   1.0000   1.0000
     1.0000   1.0000   1.0000   1.0000   1.0000   1.0000   1.0000   1.0000
     1.0000   1.0000   1.0000   1.0000   1.0000   1.0000   1.0000   1.0000
     1.0000   1.0000   1.0000   1.0000   1.0000   1.0000   1.0000   1.0000
     1.0000   1.0000  -0.0000  -0.0000  -0.0000  -0.0000  -0.0000  -0.0000
    -0.0000  -0.0000  -0.0000

          k = 0.2500 0.4167 0.4167 (  8736 PWs)   bands (ev):

   -83.9597 -83.9528 -83.9527 -83.9496 -44.4873 -44.4804 -44.4804 -44.4617
   -44.3335 -44.3183 -44.3183 -44.2963 -44.2961 -44.2928 -44.2927 -44.2784
    13.7210  14.5263  14.5263  14.8491  16.3857  16.5172  16.5172  16.7921
    16.9903  16.9903  17.0545  17.1056  17.2225  17.3828  17.3828  17.4070
    18.6365  18.9461  18.9461  18.9753  19.2905  20.3647  20.3648  21.4824
    25.6872  27.0836  27.0836

     occupation numbers 
     1.0000   1.0000   1.0000   1.0000   1.0000   1.0000   1.0000   1.0000
     1.0000   1.0000   1.0000   1.0000   1.0000   1.0000   1.0000   1.0000
     1.0000   1.0000   1.0000   1.0000   1.0000   1.0000   1.0000   1.0000
     1.0000   1.0000   1.0000   1.0000   1.0000   1.0000   1.0000   1.0000
     1.0000   0.2305   0.2296  -0.0013  -0.0000  -0.0000  -0.0000  -0.0000
    -0.0000  -0.0000  -0.0000

          k = 0.2500 0.4167-0.5000 (  8746 PWs)   bands (ev):

   -83.9563 -83.9562 -83.9512 -83.9511 -44.4864 -44.4864 -44.4739 -44.4739
   -44.3254 -44.3253 -44.3059 -44.3059 -44.2927 -44.2927 -44.2841 -44.2841
    14.1365  14.1365  14.6861  14.6862  16.5177  16.5178  16.7485  16.7486
    17.0044  17.0044  17.0899  17.0900  17.2689  17.2690  17.3530  17.3531
    18.7772  18.7772  18.9218  18.9219  19.7096  19.7096  20.8761  20.8761
    26.2594  26.2594  27.9302

     occupation numbers 
     1.0000   1.0000   1.0000   1.0000   1.0000   1.0000   1.0000   1.0000
     1.0000   1.0000   1.0000   1.0000   1.0000   1.0000   1.0000   1.0000
     1.0000   1.0000   1.0000   1.0000   1.0000   1.0000   1.0000   1.0000
     1.0000   1.0000   1.0000   1.0000   1.0000   1.0000   1.0000   1.0000
     1.0000   1.0000   1.0299   1.0301  -0.0000  -0.0000  -0.0000  -0.0000
    -0.0000  -0.0000  -0.0000

          k = 0.2500-0.5000-0.5000 (  8772 PWs)   bands (ev):

   -83.9537 -83.9537 -83.9537 -83.9535 -44.4829 -44.4829 -44.4829 -44.4829
   -44.3148 -44.3148 -44.3148 -44.3147 -44.2867 -44.2866 -44.2866 -44.2866
    14.4156  14.4156  14.4156  14.4156  16.7131  16.7131  16.7132  16.7133
    17.0807  17.0808  17.0808  17.0808  17.2657  17.2657  17.2657  17.2658
    18.8118  18.8119  18.8119  18.8119  20.1989  20.1989  20.1990  20.1990
    27.0050  27.0050  27.0050

     occupation numbers 
     1.0000   1.0000   1.0000   1.0000   1.0000   1.0000   1.0000   1.0000
     1.0000   1.0000   1.0000   1.0000   1.0000   1.0000   1.0000   1.0000
     1.0000   1.0000   1.0000   1.0000   1.0000   1.0000   1.0000   1.0000
     1.0000   1.0000   1.0000   1.0000   1.0000   1.0000   1.0000   1.0000
     1.0000   1.0000   1.0000   1.0000  -0.0000  -0.0000  -0.0000  -0.0000
    -0.0000  -0.0000  -0.0000

          k = 0.3333 0.3333 0.3333 (  8760 PWs)   bands (ev):

   -83.9641 -83.9503 -83.9503 -83.9501 -44.4851 -44.4850 -44.4850 -44.4465
   -44.3250 -44.3250 -44.3248 -44.3017 -44.3016 -44.3016 -44.2772 -44.2772
    13.1561  14.7607  14.7607  14.7607  16.2912  16.2913  16.2913  16.8130
    17.0524  17.0524  17.0525  17.1845  17.1845  17.4647  17.4648  17.4648
    18.7012  18.7012  19.1421  19.1421  19.1421  21.0058  21.0058  21.0058
    26.3020  26.3020  26.3020

     occupation numbers 
     1.0000   1.0000   1.0000   1.0000   1.0000   1.0000   1.0000   1.0000
     1.0000   1.0000   1.0000   1.0000   1.0000   1.0000   1.0000   1.0000
     1.0000   1.0000   1.0000   1.0000   1.0000   1.0000   1.0000   1.0000
     1.0000   1.0000   1.0000   1.0000   1.0000   1.0000   1.0000   1.0000
     1.0000   1.0000  -0.0000  -0.0000  -0.0000  -0.0000  -0.0000  -0.0000
    -0.0000  -0.0000  -0.0000

          k = 0.3333 0.3333 0.4167 (  8744 PWs)   bands (ev):

   -83.9607 -83.9536 -83.9503 -83.9502 -44.4923 -44.4923 -44.4845 -44.4643
   -44.3216 -44.3215 -44.3049 -44.2980 -44.2980 -44.2957 -44.2831 -44.2804
    13.5748  14.3976  14.7333  14.7333  16.4392  16.4393  16.5743  16.9287
    17.1014  17.1129  17.1721  17.1864  17.1864  17.3176  17.3640  17.3641
    18.8283  18.8913  19.0995  19.0995  19.1197  19.9958  21.1270  21.1270
    25.6262  25.6263  26.9821

     occupation numbers 
     1.0000   1.0000   1.0000   1.0000   1.0000   1.0000   1.0000   1.0000
     1.0000   1.0000   1.0000   1.0000   1.0000   1.0000   1.0000   1.0000
     1.0000   1.0000   1.0000   1.0000   1.0000   1.0000   1.0000   1.0000
     1.0000   1.0000   1.0000   1.0000   1.0000   1.0000   1.0000   1.0000
     1.0000   1.0000  -0.0000  -0.0000  -0.0000  -0.0000  -0.0000  -0.0000
    -0.0000  -0.0000  -0.0000

          k = 0.3333 0.3333-0.5000 (  8738 PWs)   bands (ev):

   -83.9572 -83.9571 -83.9503 -83.9502 -44.4948 -44.4948 -44.4774 -44.4774
   -44.3206 -44.3205 -44.2965 -44.2964 -44.2898 -44.2897 -44.2895 -44.2894
    13.9977  13.9977  14.7222  14.7223  16.4944  16.4944  16.8247  16.8247
    17.1076  17.1076  17.2175  17.2175  17.2523  17.2523  17.3243  17.3244
    19.0343  19.0343  19.0687  19.0688  19.2500  19.2500  21.1777  21.1778
    25.3891  25.3891  27.8205

     occupation numbers 
     1.0000   1.0000   1.0000   1.0000   1.0000   1.0000   1.0000   1.0000
     1.0000   1.0000   1.0000   1.0000   1.0000   1.0000   1.0000   1.0000
     1.0000   1.0000   1.0000   1.0000   1.0000   1.0000   1.0000   1.0000
     1.0000   1.0000   1.0000   1.0000   1.0000   1.0000   1.0000   1.0000
    -0.0000  -0.0000  -0.0000  -0.0000  -0.0000  -0.0000  -0.0000  -0.0000
    -0.0000  -0.0000  -0.0000

          k = 0.3333 0.4167 0.4167 (  8745 PWs)   bands (ev):

   -83.9582 -83.9528 -83.9527 -83.9510 -44.4989 -44.4948 -44.4947 -44.4801
   -44.3130 -44.3048 -44.3047 -44.2937 -44.2923 -44.2922 -44.2872 -44.2810
    13.8629  14.4433  14.4433  14.6063  16.6174  16.7029  16.7029  17.0553
    17.1114  17.2209  17.2209  17.2293  17.2450  17.3230  17.3230  17.3863
    18.8400  19.0779  19.0816  19.0816  19.1054  20.1818  20.1818  20.8201
    25.3569  26.1120  26.1120

     occupation numbers 
     1.0000   1.0000   1.0000   1.0000   1.0000   1.0000   1.0000   1.0000
     1.0000   1.0000   1.0000   1.0000   1.0000   1.0000   1.0000   1.0000
     1.0000   1.0000   1.0000   1.0000   1.0000   1.0000   1.0000   1.0000
     1.0000   1.0000   1.0000   1.0000   1.0000   1.0000   1.0000   1.0000
     1.0000  -0.0000  -0.0000  -0.0000  -0.0000  -0.0000  -0.0000  -0.0000
    -0.0000  -0.0000  -0.0000

          k = 0.3333 0.4167-0.5000 (  8754 PWs)   bands (ev):

   -83.9555 -83.9554 -83.9519 -83.9518 -44.4997 -44.4997 -44.4906 -44.4906
   -44.3079 -44.3078 -44.2940 -44.2939 -44.2912 -44.2911 -44.2856 -44.2855
    14.1536  14.1536  14.5098  14.5099  16.7153  16.7153  16.9217  16.9217
    17.1381  17.1382  17.1959  17.1960  17.3602  17.3602  17.4521  17.4521
    18.9725  18.9725  19.0457  19.0457  19.4781  19.4782  20.4729  20.4729
    25.5486  25.5486  26.8255

     occupation numbers 
     1.0000   1.0000   1.0000   1.0000   1.0000   1.0000   1.0000   1.0000
     1.0000   1.0000   1.0000   1.0000   1.0000   1.0000   1.0000   1.0000
     1.0000   1.0000   1.0000   1.0000   1.0000   1.0000   1.0000   1.0000
     1.0000   1.0000   1.0000   1.0000   1.0000   1.0000   1.0000   1.0000
    -0.0029  -0.0029  -0.0000  -0.0000  -0.0000  -0.0000  -0.0000  -0.0000
    -0.0000  -0.0000  -0.0000

          k = 0.3333-0.5000-0.5000 (  8752 PWs)   bands (ev):

   -83.9537 -83.9537 -83.9537 -83.9535 -44.4983 -44.4983 -44.4982 -44.4982
   -44.2997 -44.2996 -44.2996 -44.2995 -44.2866 -44.2866 -44.2865 -44.2865
    14.3217  14.3217  14.3217  14.3217  16.8731  16.8731  16.8731  16.8732
    17.1261  17.1261  17.1261  17.1262  17.5235  17.5235  17.5236  17.5236
    18.9719  18.9719  18.9719  18.9719  19.8740  19.8740  19.8741  19.8741
    26.0569  26.0569  26.0569

     occupation numbers 
     1.0000   1.0000   1.0000   1.0000   1.0000   1.0000   1.0000   1.0000
     1.0000   1.0000   1.0000   1.0000   1.0000   1.0000   1.0000   1.0000
     1.0000   1.0000   1.0000   1.0000   1.0000   1.0000   1.0000   1.0000
     1.0000   1.0000   1.0000   1.0000   1.0000   1.0000   1.0000   1.0000
    -0.0035  -0.0035  -0.0035  -0.0035  -0.0000  -0.0000  -0.0000  -0.0000
    -0.0000  -0.0000  -0.0000

          k = 0.4167 0.4167 0.4167 (  8750 PWs)   bands (ev):

   -83.9564 -83.9528 -83.9528 -83.9526 -44.5040 -44.5040 -44.5040 -44.4942
   -44.2973 -44.2973 -44.2972 -44.2906 -44.2906 -44.2906 -44.2840 -44.2840
    14.0178  14.3847  14.3848  14.3848  16.8304  16.8304  16.8304  17.0568
    17.0568  17.1265  17.1265  17.1265  17.6554  17.6554  17.6554  17.6601
    18.9961  18.9961  19.1191  19.1192  19.1192  19.9986  19.9986  19.9986
    25.5072  25.5073  25.5073

     occupation numbers 
     1.0000   1.0000   1.0000   1.0000   1.0000   1.0000   1.0000   1.0000
     1.0000   1.0000   1.0000   1.0000   1.0000   1.0000   1.0000   1.0000
     1.0000   1.0000   1.0000   1.0000   1.0000   1.0000   1.0000   1.0000
     1.0000   1.0000   1.0000   1.0000   1.0000   1.0000   1.0000   1.0000
    -0.0000  -0.0000  -0.0000  -0.0000  -0.0000  -0.0000  -0.0000  -0.0000
    -0.0000  -0.0000  -0.0000

          k = 0.4167 0.4167-0.5000 (  8730 PWs)   bands (ev):

   -83.9546 -83.9545 -83.9528 -83.9527 -44.5072 -44.5072 -44.5024 -44.5024
   -44.2957 -44.2956 -44.2891 -44.2890 -44.2874 -44.2874 -44.2874 -44.2873
    14.1896  14.1896  14.3638  14.3638  16.8770  16.8770  16.9813  16.9814
    17.0621  17.0621  17.0890  17.0890  17.8212  17.8212  17.8283  17.8283
    19.0916  19.0916  19.0993  19.0994  19.2792  19.2793  19.9218  19.9218
    25.3029  25.3029  25.9963

     occupation numbers 
     1.0000   1.0000   1.0000   1.0000   1.0000   1.0000   1.0000   1.0000
     1.0000   1.0000   1.0000   1.0000   1.0000   1.0000   1.0000   1.0000
     1.0000   1.0000   1.0000   1.0000   1.0000   1.0000   1.0000   1.0000
     1.0000   1.0000   1.0000   1.0000   1.0000   1.0000   1.0000   1.0000
    -0.0000  -0.0000  -0.0000  -0.0000  -0.0000  -0.0000  -0.0000  -0.0000
    -0.0000  -0.0000  -0.0000

          k = 0.4167-0.5000-0.5000 (  8736 PWs)   bands (ev):

   -83.9537 -83.9537 -83.9537 -83.9535 -44.5082 -44.5081 -44.5081 -44.5081
   -44.2899 -44.2899 -44.2899 -44.2898 -44.2866 -44.2866 -44.2865 -44.2865
    14.2571  14.2571  14.2571  14.2571  16.9732  16.9732  16.9732  16.9733
    17.0376  17.0376  17.0376  17.0377  18.0496  18.0496  18.0496  18.0496
    19.0753  19.0754  19.0754  19.0754  19.4375  19.4375  19.4375  19.4375
    25.4744  25.4744  25.4744

     occupation numbers 
     1.0000   1.0000   1.0000   1.0000   1.0000   1.0000   1.0000   1.0000
     1.0000   1.0000   1.0000   1.0000   1.0000   1.0000   1.0000   1.0000
     1.0000   1.0000   1.0000   1.0000   1.0000   1.0000   1.0000   1.0000
     1.0000   1.0000   1.0000   1.0000   1.0000   1.0000   1.0000   1.0000
    -0.0000  -0.0000  -0.0000  -0.0000  -0.0000  -0.0000  -0.0000  -0.0000
    -0.0000  -0.0000  -0.0000

          k =-0.5000-0.5000-0.5000 (  8744 PWs)   bands (ev):

   -83.9537 -83.9537 -83.9537 -83.9535 -44.5116 -44.5115 -44.5115 -44.5115
   -44.2866 -44.2866 -44.2866 -44.2866 -44.2866 -44.2865 -44.2865 -44.2865
    14.2343  14.2343  14.2343  14.2343  17.0073  17.0073  17.0073  17.0074
    17.0074  17.0074  17.0074  17.0074  18.4075  18.4075  18.4075  18.4075
    19.1111  19.1111  19.1111  19.1111  19.1111  19.1111  19.1112  19.1112
    25.2795  25.2795  25.2795

     occupation numbers 
     1.0000   1.0000   1.0000   1.0000   1.0000   1.0000   1.0000   1.0000
     1.0000   1.0000   1.0000   1.0000   1.0000   1.0000   1.0000   1.0000
     1.0000   1.0000   1.0000   1.0000   1.0000   1.0000   1.0000   1.0000
     1.0000   1.0000   1.0000   1.0000   1.0000   1.0000   1.0000   1.0000
    -0.0000  -0.0000  -0.0000  -0.0000  -0.0000  -0.0000  -0.0000  -0.0000
    -0.0000  -0.0000  -0.0000

     the Fermi energy is    18.9415 ev

!    total energy              =   -1716.65318756 Ry
     total all-electron energy =    -12166.381618 Ry
     estimated scf accuracy    <       0.00000005 Ry
     smearing contrib. (-TS)   =      -0.00000514 Ry
     internal energy E=F+TS    =   -1716.65318241 Ry

     The total energy is F=E-TS. E is the sum of the following terms:
     one-electron contribution =    -719.71855291 Ry
     hartree contribution      =     411.06277171 Ry
     xc contribution           =    -137.45884750 Ry
     ewald contribution        =    -906.15592625 Ry
     one-center paw contrib.   =    -364.38262747 Ry
      -> PAW hartree energy AE =     268.05509497 Ry
      -> PAW hartree energy PS =    -266.36206469 Ry
      -> PAW xc energy AE      =    -125.61284971 Ry
      -> PAW xc energy PS      =      32.82417732 Ry
      -> total E_H with PAW    =     412.75580199 Ry
      -> total E_XC with PAW   =    -230.24751988 Ry

     total magnetization       =     2.61 Bohr mag/cell
     absolute magnetization    =     2.96 Bohr mag/cell

     convergence has been achieved in   9 iterations

     Writing all to output data dir out/Ni.save/
 
     init_run     :      0.89s CPU      1.18s WALL (       1 calls)
     electrons    :     85.33s CPU     86.95s WALL (       1 calls)

     Called by init_run:
     wfcinit      :      0.64s CPU      0.89s WALL (       1 calls)
     potinit      :      0.14s CPU      0.16s WALL (       1 calls)
     hinit0       :      0.04s CPU      0.05s WALL (       1 calls)

     Called by electrons:
     c_bands      :     73.81s CPU     75.15s WALL (       9 calls)
     sum_band     :     10.06s CPU     10.26s WALL (       9 calls)
     v_of_rho     :      0.12s CPU      0.12s WALL (      10 calls)
     v_h          :      0.00s CPU      0.00s WALL (      10 calls)
     v_xc         :      0.11s CPU      0.11s WALL (      10 calls)
     newd         :      0.19s CPU      0.20s WALL (      10 calls)
     PAW_pot      :      1.23s CPU      1.28s WALL (      10 calls)
     mix_rho      :      0.02s CPU      0.03s WALL (       9 calls)

     Called by c_bands:
     init_us_2    :      0.57s CPU      0.62s WALL (    3024 calls)
     init_us_2:cp :      0.57s CPU      0.61s WALL (    3024 calls)
     cegterg      :     70.38s CPU     71.49s WALL (    1512 calls)

     Called by sum_band:
     sum_band:wei :      0.06s CPU      0.07s WALL (       9 calls)
     sum_band:loo :      9.61s CPU      9.80s WALL (       9 calls)
     sum_band:buf :      0.12s CPU      0.12s WALL (    1512 calls)
     sum_band:ini :      0.23s CPU      0.24s WALL (    1512 calls)
     sum_band:cal :      0.59s CPU      0.59s WALL (    1512 calls)
     sum_band:bec :      0.06s CPU      0.05s WALL (    1512 calls)
     addusdens    :      0.35s CPU      0.36s WALL (       9 calls)
                                        0.00s GPU  (       9 calls)
     addusd:skk   :      0.00s CPU      0.00s WALL (       9 calls)
                                        0.00s GPU  (       9 calls)

     Called by *egterg:
     cdiaghg      :     11.74s CPU     11.78s WALL (    5599 calls)
     cegterg:over :      2.94s CPU      3.00s WALL (    4255 calls)
     cegterg:upda :      1.24s CPU      1.24s WALL (    4255 calls)
     cegterg:last :      2.35s CPU      2.35s WALL (    3443 calls)
     h_psi        :     49.12s CPU     50.05s WALL (    5767 calls)
     s_psi        :      1.14s CPU      1.15s WALL (    5767 calls)
     g_psi        :      0.18s CPU      0.18s WALL (    4255 calls)

     Called by h_psi:
     h_psi:calbec :      2.16s CPU      2.17s WALL (    5767 calls)
     vloc_psi     :     45.35s CPU     46.21s WALL (    5767 calls)
     add_vuspsi   :      1.31s CPU      1.33s WALL (    5767 calls)

     General routines
     calbec       :      2.74s CPU      2.75s WALL (    7279 calls)
     fft          :      0.07s CPU      0.07s WALL (     244 calls)
     ffts         :      0.01s CPU      0.01s WALL (      38 calls)
     fftw         :     50.78s CPU     50.94s WALL (  424478 calls)
     interpolate  :      0.01s CPU      0.01s WALL (      20 calls)
 
     Parallel routines

     PAW routines
     PAW_pot      :      1.23s CPU      1.28s WALL (      10 calls)
     PAW_symme    :      0.02s CPU      0.02s WALL (      18 calls)
 
     PWSCF        :   1m27.03s CPU   1m32.02s WALL

 
   This run was terminated on:   5:38: 4  22Mar2024            

=------------------------------------------------------------------------------=
   JOB DONE.
=------------------------------------------------------------------------------=
