
     Program PWSCF v.7.2 starts on 22Mar2024 at  5:27:57 

     This program is part of the open-source Quantum ESPRESSO suite
     for quantum simulation of materials; please cite
         "P. Giannozzi et al., J. Phys.:Condens. Matter 21 395502 (2009);
         "P. Giannozzi et al., J. Phys.:Condens. Matter 29 465901 (2017);
         "P. Giannozzi et al., J. Chem. Phys. 152 154105 (2020);
          URL http://www.quantum-espresso.org", 
     in publications or presentations arising from this work. More details at
     http://www.quantum-espresso.org/quote

     Parallel version (MPI), running on    20 processors

     MPI processes distributed on     1 nodes
     357361 MiB available memory on the printing compute node when the environment starts
 
     Waiting for input...
     Reading input from standard input

     Current dimensions of program PWSCF are:
     Max number of different atomic species (ntypx) = 10
     Max number of k-points (npk) = 120000
     Max angular momentum in pseudopotentials (lmaxx) =  4
     file Ni.pbe-spn-kjpaw_psl.1.0.0.UPF: wavefunction(s)  3P 3D renormalized
     Found identity + (  0.0000 -0.5000 -0.5000) symmetry
     This is a supercell, fractional translations are disabled
 
     R & G space division:  proc/nbgrp/npool/nimage =      20
     Subspace diagonalization in iterative solution of the eigenvalue problem:
     a serial algorithm will be used

 
     Parallelization info
     --------------------
     sticks:   dense  smooth     PW     G-vecs:    dense   smooth      PW
     Min         133     100     28                 5165     3350     512
     Max         134     101     30                 5168     3354     513
     Sum        2661    2001    577               103311    67043   10251
 
     Using Slab Decomposition
 


     bravais-lattice index     =            1
     lattice parameter (alat)  =       6.4629  a.u.
     unit-cell volume          =     269.9448 (a.u.)^3
     number of atoms/cell      =            4
     number of atomic types    =            1
     number of electrons       =        72.00
     number of Kohn-Sham states=           43
     kinetic-energy cutoff     =     150.0000  Ry
     charge density cutoff     =     800.0000  Ry
     scf convergence threshold =      8.0E-08
     mixing beta               =       0.7000
     number of iterations used =            8  plain     mixing
     Exchange-correlation= SLA  PW   PBX  PBC
                           (   1   4   3   4   0   0   0)

     celldm(1)=   6.462863  celldm(2)=   0.000000  celldm(3)=   0.000000
     celldm(4)=   0.000000  celldm(5)=   0.000000  celldm(6)=   0.000000

     crystal axes: (cart. coord. in units of alat)
               a(1) = (   1.000000   0.000000   0.000000 )  
               a(2) = (   0.000000   1.000000   0.000000 )  
               a(3) = (   0.000000   0.000000   1.000000 )  

     reciprocal axes: (cart. coord. in units 2 pi/alat)
               b(1) = (  1.000000  0.000000  0.000000 )  
               b(2) = (  0.000000  1.000000  0.000000 )  
               b(3) = (  0.000000  0.000000  1.000000 )  


     PseudoPot. # 1 for Ni read from file:
     /truba/home/amuhaymin/ZnS/pseudo/QE/Ni.pbe-spn-kjpaw_psl.1.0.0.UPF
     MD5 check sum: 6e86b733589c3ad8389697b807d86aa7
     Pseudo is Projector augmented-wave + core cor, Zval = 18.0
     Generated using &quot;atomic&quot; code by A. Dal Corso  v.6.3
     Shape of augmentation charge: PSQ
     Using radial grid of 1195 points,  6 beta functions with: 
                l(1) =   0
                l(2) =   0
                l(3) =   1
                l(4) =   1
                l(5) =   2
                l(6) =   2
     Q(r) pseudized with 0 coefficients 


     atomic species   valence    mass     pseudopotential
        Ni            18.00    58.69340     Ni( 1.00)

     Starting magnetic structure 
     atomic species   magnetization
        Ni           0.278

     48 Sym. Ops., with inversion, found


                                    s                        frac. trans.

      isym =  1     identity                                     

 cryst.   s( 1) = (     1          0          0      )
                  (     0          1          0      )
                  (     0          0          1      )

 cart.    s( 1) = (  1.0000000  0.0000000  0.0000000 )
                  (  0.0000000  1.0000000  0.0000000 )
                  (  0.0000000  0.0000000  1.0000000 )


      isym =  2     180 deg rotation - cart. axis [0,0,1]        

 cryst.   s( 2) = (    -1          0          0      )
                  (     0         -1          0      )
                  (     0          0          1      )

 cart.    s( 2) = ( -1.0000000  0.0000000  0.0000000 )
                  (  0.0000000 -1.0000000  0.0000000 )
                  (  0.0000000  0.0000000  1.0000000 )


      isym =  3     180 deg rotation - cart. axis [0,1,0]        

 cryst.   s( 3) = (    -1          0          0      )
                  (     0          1          0      )
                  (     0          0         -1      )

 cart.    s( 3) = ( -1.0000000  0.0000000  0.0000000 )
                  (  0.0000000  1.0000000  0.0000000 )
                  (  0.0000000  0.0000000 -1.0000000 )


      isym =  4     180 deg rotation - cart. axis [1,0,0]        

 cryst.   s( 4) = (     1          0          0      )
                  (     0         -1          0      )
                  (     0          0         -1      )

 cart.    s( 4) = (  1.0000000  0.0000000  0.0000000 )
                  (  0.0000000 -1.0000000  0.0000000 )
                  (  0.0000000  0.0000000 -1.0000000 )


      isym =  5     180 deg rotation - cart. axis [1,1,0]        

 cryst.   s( 5) = (     0          1          0      )
                  (     1          0          0      )
                  (     0          0         -1      )

 cart.    s( 5) = (  0.0000000  1.0000000  0.0000000 )
                  (  1.0000000  0.0000000  0.0000000 )
                  (  0.0000000  0.0000000 -1.0000000 )


      isym =  6     180 deg rotation - cart. axis [1,-1,0]       

 cryst.   s( 6) = (     0         -1          0      )
                  (    -1          0          0      )
                  (     0          0         -1      )

 cart.    s( 6) = (  0.0000000 -1.0000000  0.0000000 )
                  ( -1.0000000  0.0000000  0.0000000 )
                  (  0.0000000  0.0000000 -1.0000000 )


      isym =  7      90 deg rotation - cart. axis [0,0,-1]       

 cryst.   s( 7) = (     0         -1          0      )
                  (     1          0          0      )
                  (     0          0          1      )

 cart.    s( 7) = (  0.0000000  1.0000000  0.0000000 )
                  ( -1.0000000  0.0000000  0.0000000 )
                  (  0.0000000  0.0000000  1.0000000 )


      isym =  8      90 deg rotation - cart. axis [0,0,1]        

 cryst.   s( 8) = (     0          1          0      )
                  (    -1          0          0      )
                  (     0          0          1      )

 cart.    s( 8) = (  0.0000000 -1.0000000  0.0000000 )
                  (  1.0000000  0.0000000  0.0000000 )
                  (  0.0000000  0.0000000  1.0000000 )


      isym =  9     180 deg rotation - cart. axis [1,0,1]        

 cryst.   s( 9) = (     0          0          1      )
                  (     0         -1          0      )
                  (     1          0          0      )

 cart.    s( 9) = (  0.0000000  0.0000000  1.0000000 )
                  (  0.0000000 -1.0000000  0.0000000 )
                  (  1.0000000  0.0000000  0.0000000 )


      isym = 10     180 deg rotation - cart. axis [-1,0,1]       

 cryst.   s(10) = (     0          0         -1      )
                  (     0         -1          0      )
                  (    -1          0          0      )

 cart.    s(10) = (  0.0000000  0.0000000 -1.0000000 )
                  (  0.0000000 -1.0000000  0.0000000 )
                  ( -1.0000000  0.0000000  0.0000000 )


      isym = 11      90 deg rotation - cart. axis [0,1,0]        

 cryst.   s(11) = (     0          0         -1      )
                  (     0          1          0      )
                  (     1          0          0      )

 cart.    s(11) = (  0.0000000  0.0000000  1.0000000 )
                  (  0.0000000  1.0000000  0.0000000 )
                  ( -1.0000000  0.0000000  0.0000000 )


      isym = 12      90 deg rotation - cart. axis [0,-1,0]       

 cryst.   s(12) = (     0          0          1      )
                  (     0          1          0      )
                  (    -1          0          0      )

 cart.    s(12) = (  0.0000000  0.0000000 -1.0000000 )
                  (  0.0000000  1.0000000  0.0000000 )
                  (  1.0000000  0.0000000  0.0000000 )


      isym = 13     180 deg rotation - cart. axis [0,1,1]        

 cryst.   s(13) = (    -1          0          0      )
                  (     0          0          1      )
                  (     0          1          0      )

 cart.    s(13) = ( -1.0000000  0.0000000  0.0000000 )
                  (  0.0000000  0.0000000  1.0000000 )
                  (  0.0000000  1.0000000  0.0000000 )


      isym = 14     180 deg rotation - cart. axis [0,1,-1]       

 cryst.   s(14) = (    -1          0          0      )
                  (     0          0         -1      )
                  (     0         -1          0      )

 cart.    s(14) = ( -1.0000000  0.0000000  0.0000000 )
                  (  0.0000000  0.0000000 -1.0000000 )
                  (  0.0000000 -1.0000000  0.0000000 )


      isym = 15      90 deg rotation - cart. axis [-1,0,0]       

 cryst.   s(15) = (     1          0          0      )
                  (     0          0         -1      )
                  (     0          1          0      )

 cart.    s(15) = (  1.0000000  0.0000000  0.0000000 )
                  (  0.0000000  0.0000000  1.0000000 )
                  (  0.0000000 -1.0000000  0.0000000 )


      isym = 16      90 deg rotation - cart. axis [1,0,0]        

 cryst.   s(16) = (     1          0          0      )
                  (     0          0          1      )
                  (     0         -1          0      )

 cart.    s(16) = (  1.0000000  0.0000000  0.0000000 )
                  (  0.0000000  0.0000000 -1.0000000 )
                  (  0.0000000  1.0000000  0.0000000 )


      isym = 17     120 deg rotation - cart. axis [-1,-1,-1]     

 cryst.   s(17) = (     0          0          1      )
                  (     1          0          0      )
                  (     0          1          0      )

 cart.    s(17) = (  0.0000000  1.0000000  0.0000000 )
                  (  0.0000000  0.0000000  1.0000000 )
                  (  1.0000000  0.0000000  0.0000000 )


      isym = 18     120 deg rotation - cart. axis [-1,1,1]       

 cryst.   s(18) = (     0          0         -1      )
                  (    -1          0          0      )
                  (     0          1          0      )

 cart.    s(18) = (  0.0000000 -1.0000000  0.0000000 )
                  (  0.0000000  0.0000000  1.0000000 )
                  ( -1.0000000  0.0000000  0.0000000 )


      isym = 19     120 deg rotation - cart. axis [1,1,-1]       

 cryst.   s(19) = (     0          0         -1      )
                  (     1          0          0      )
                  (     0         -1          0      )

 cart.    s(19) = (  0.0000000  1.0000000  0.0000000 )
                  (  0.0000000  0.0000000 -1.0000000 )
                  ( -1.0000000  0.0000000  0.0000000 )


      isym = 20     120 deg rotation - cart. axis [1,-1,1]       

 cryst.   s(20) = (     0          0          1      )
                  (    -1          0          0      )
                  (     0         -1          0      )

 cart.    s(20) = (  0.0000000 -1.0000000  0.0000000 )
                  (  0.0000000  0.0000000 -1.0000000 )
                  (  1.0000000  0.0000000  0.0000000 )


      isym = 21     120 deg rotation - cart. axis [1,1,1]        

 cryst.   s(21) = (     0          1          0      )
                  (     0          0          1      )
                  (     1          0          0      )

 cart.    s(21) = (  0.0000000  0.0000000  1.0000000 )
                  (  1.0000000  0.0000000  0.0000000 )
                  (  0.0000000  1.0000000  0.0000000 )


      isym = 22     120 deg rotation - cart. axis [-1,1,-1]      

 cryst.   s(22) = (     0         -1          0      )
                  (     0          0         -1      )
                  (     1          0          0      )

 cart.    s(22) = (  0.0000000  0.0000000  1.0000000 )
                  ( -1.0000000  0.0000000  0.0000000 )
                  (  0.0000000 -1.0000000  0.0000000 )


      isym = 23     120 deg rotation - cart. axis [1,-1,-1]      

 cryst.   s(23) = (     0         -1          0      )
                  (     0          0          1      )
                  (    -1          0          0      )

 cart.    s(23) = (  0.0000000  0.0000000 -1.0000000 )
                  ( -1.0000000  0.0000000  0.0000000 )
                  (  0.0000000  1.0000000  0.0000000 )


      isym = 24     120 deg rotation - cart. axis [-1,-1,1]      

 cryst.   s(24) = (     0          1          0      )
                  (     0          0         -1      )
                  (    -1          0          0      )

 cart.    s(24) = (  0.0000000  0.0000000 -1.0000000 )
                  (  1.0000000  0.0000000  0.0000000 )
                  (  0.0000000 -1.0000000  0.0000000 )


      isym = 25     inversion                                    

 cryst.   s(25) = (    -1          0          0      )
                  (     0         -1          0      )
                  (     0          0         -1      )

 cart.    s(25) = ( -1.0000000  0.0000000  0.0000000 )
                  (  0.0000000 -1.0000000  0.0000000 )
                  (  0.0000000  0.0000000 -1.0000000 )


      isym = 26     inv. 180 deg rotation - cart. axis [0,0,1]   

 cryst.   s(26) = (     1          0          0      )
                  (     0          1          0      )
                  (     0          0         -1      )

 cart.    s(26) = (  1.0000000  0.0000000  0.0000000 )
                  (  0.0000000  1.0000000  0.0000000 )
                  (  0.0000000  0.0000000 -1.0000000 )


      isym = 27     inv. 180 deg rotation - cart. axis [0,1,0]   

 cryst.   s(27) = (     1          0          0      )
                  (     0         -1          0      )
                  (     0          0          1      )

 cart.    s(27) = (  1.0000000  0.0000000  0.0000000 )
                  (  0.0000000 -1.0000000  0.0000000 )
                  (  0.0000000  0.0000000  1.0000000 )


      isym = 28     inv. 180 deg rotation - cart. axis [1,0,0]   

 cryst.   s(28) = (    -1          0          0      )
                  (     0          1          0      )
                  (     0          0          1      )

 cart.    s(28) = ( -1.0000000  0.0000000  0.0000000 )
                  (  0.0000000  1.0000000  0.0000000 )
                  (  0.0000000  0.0000000  1.0000000 )


      isym = 29     inv. 180 deg rotation - cart. axis [1,1,0]   

 cryst.   s(29) = (     0         -1          0      )
                  (    -1          0          0      )
                  (     0          0          1      )

 cart.    s(29) = (  0.0000000 -1.0000000  0.0000000 )
                  ( -1.0000000  0.0000000  0.0000000 )
                  (  0.0000000  0.0000000  1.0000000 )


      isym = 30     inv. 180 deg rotation - cart. axis [1,-1,0]  

 cryst.   s(30) = (     0          1          0      )
                  (     1          0          0      )
                  (     0          0          1      )

 cart.    s(30) = (  0.0000000  1.0000000  0.0000000 )
                  (  1.0000000  0.0000000  0.0000000 )
                  (  0.0000000  0.0000000  1.0000000 )


      isym = 31     inv.  90 deg rotation - cart. axis [0,0,-1]  

 cryst.   s(31) = (     0          1          0      )
                  (    -1          0          0      )
                  (     0          0         -1      )

 cart.    s(31) = (  0.0000000 -1.0000000  0.0000000 )
                  (  1.0000000  0.0000000  0.0000000 )
                  (  0.0000000  0.0000000 -1.0000000 )


      isym = 32     inv.  90 deg rotation - cart. axis [0,0,1]   

 cryst.   s(32) = (     0         -1          0      )
                  (     1          0          0      )
                  (     0          0         -1      )

 cart.    s(32) = (  0.0000000  1.0000000  0.0000000 )
                  ( -1.0000000  0.0000000  0.0000000 )
                  (  0.0000000  0.0000000 -1.0000000 )


      isym = 33     inv. 180 deg rotation - cart. axis [1,0,1]   

 cryst.   s(33) = (     0          0         -1      )
                  (     0          1          0      )
                  (    -1          0          0      )

 cart.    s(33) = (  0.0000000  0.0000000 -1.0000000 )
                  (  0.0000000  1.0000000  0.0000000 )
                  ( -1.0000000  0.0000000  0.0000000 )


      isym = 34     inv. 180 deg rotation - cart. axis [-1,0,1]  

 cryst.   s(34) = (     0          0          1      )
                  (     0          1          0      )
                  (     1          0          0      )

 cart.    s(34) = (  0.0000000  0.0000000  1.0000000 )
                  (  0.0000000  1.0000000  0.0000000 )
                  (  1.0000000  0.0000000  0.0000000 )


      isym = 35     inv.  90 deg rotation - cart. axis [0,1,0]   

 cryst.   s(35) = (     0          0          1      )
                  (     0         -1          0      )
                  (    -1          0          0      )

 cart.    s(35) = (  0.0000000  0.0000000 -1.0000000 )
                  (  0.0000000 -1.0000000  0.0000000 )
                  (  1.0000000  0.0000000  0.0000000 )


      isym = 36     inv.  90 deg rotation - cart. axis [0,-1,0]  

 cryst.   s(36) = (     0          0         -1      )
                  (     0         -1          0      )
                  (     1          0          0      )

 cart.    s(36) = (  0.0000000  0.0000000  1.0000000 )
                  (  0.0000000 -1.0000000  0.0000000 )
                  ( -1.0000000  0.0000000  0.0000000 )


      isym = 37     inv. 180 deg rotation - cart. axis [0,1,1]   

 cryst.   s(37) = (     1          0          0      )
                  (     0          0         -1      )
                  (     0         -1          0      )

 cart.    s(37) = (  1.0000000  0.0000000  0.0000000 )
                  (  0.0000000  0.0000000 -1.0000000 )
                  (  0.0000000 -1.0000000  0.0000000 )


      isym = 38     inv. 180 deg rotation - cart. axis [0,1,-1]  

 cryst.   s(38) = (     1          0          0      )
                  (     0          0          1      )
                  (     0          1          0      )

 cart.    s(38) = (  1.0000000  0.0000000  0.0000000 )
                  (  0.0000000  0.0000000  1.0000000 )
                  (  0.0000000  1.0000000  0.0000000 )


      isym = 39     inv.  90 deg rotation - cart. axis [-1,0,0]  

 cryst.   s(39) = (    -1          0          0      )
                  (     0          0          1      )
                  (     0         -1          0      )

 cart.    s(39) = ( -1.0000000  0.0000000  0.0000000 )
                  (  0.0000000  0.0000000 -1.0000000 )
                  (  0.0000000  1.0000000  0.0000000 )


      isym = 40     inv.  90 deg rotation - cart. axis [1,0,0]   

 cryst.   s(40) = (    -1          0          0      )
                  (     0          0         -1      )
                  (     0          1          0      )

 cart.    s(40) = ( -1.0000000  0.0000000  0.0000000 )
                  (  0.0000000  0.0000000  1.0000000 )
                  (  0.0000000 -1.0000000  0.0000000 )


      isym = 41     inv. 120 deg rotation - cart. axis [-1,-1,-1]

 cryst.   s(41) = (     0          0         -1      )
                  (    -1          0          0      )
                  (     0         -1          0      )

 cart.    s(41) = (  0.0000000 -1.0000000  0.0000000 )
                  (  0.0000000  0.0000000 -1.0000000 )
                  ( -1.0000000  0.0000000  0.0000000 )


      isym = 42     inv. 120 deg rotation - cart. axis [-1,1,1]  

 cryst.   s(42) = (     0          0          1      )
                  (     1          0          0      )
                  (     0         -1          0      )

 cart.    s(42) = (  0.0000000  1.0000000  0.0000000 )
                  (  0.0000000  0.0000000 -1.0000000 )
                  (  1.0000000  0.0000000  0.0000000 )


      isym = 43     inv. 120 deg rotation - cart. axis [1,1,-1]  

 cryst.   s(43) = (     0          0          1      )
                  (    -1          0          0      )
                  (     0          1          0      )

 cart.    s(43) = (  0.0000000 -1.0000000  0.0000000 )
                  (  0.0000000  0.0000000  1.0000000 )
                  (  1.0000000  0.0000000  0.0000000 )


      isym = 44     inv. 120 deg rotation - cart. axis [1,-1,1]  

 cryst.   s(44) = (     0          0         -1      )
                  (     1          0          0      )
                  (     0          1          0      )

 cart.    s(44) = (  0.0000000  1.0000000  0.0000000 )
                  (  0.0000000  0.0000000  1.0000000 )
                  ( -1.0000000  0.0000000  0.0000000 )


      isym = 45     inv. 120 deg rotation - cart. axis [1,1,1]   

 cryst.   s(45) = (     0         -1          0      )
                  (     0          0         -1      )
                  (    -1          0          0      )

 cart.    s(45) = (  0.0000000  0.0000000 -1.0000000 )
                  ( -1.0000000  0.0000000  0.0000000 )
                  (  0.0000000 -1.0000000  0.0000000 )


      isym = 46     inv. 120 deg rotation - cart. axis [-1,1,-1] 

 cryst.   s(46) = (     0          1          0      )
                  (     0          0          1      )
                  (    -1          0          0      )

 cart.    s(46) = (  0.0000000  0.0000000 -1.0000000 )
                  (  1.0000000  0.0000000  0.0000000 )
                  (  0.0000000  1.0000000  0.0000000 )


      isym = 47     inv. 120 deg rotation - cart. axis [1,-1,-1] 

 cryst.   s(47) = (     0          1          0      )
                  (     0          0         -1      )
                  (     1          0          0      )

 cart.    s(47) = (  0.0000000  0.0000000  1.0000000 )
                  (  1.0000000  0.0000000  0.0000000 )
                  (  0.0000000 -1.0000000  0.0000000 )


      isym = 48     inv. 120 deg rotation - cart. axis [-1,-1,1] 

 cryst.   s(48) = (     0         -1          0      )
                  (     0          0          1      )
                  (     1          0          0      )

 cart.    s(48) = (  0.0000000  0.0000000  1.0000000 )
                  ( -1.0000000  0.0000000  0.0000000 )
                  (  0.0000000  1.0000000  0.0000000 )


     point group O_h (m-3m) 
     there are 10 classes
     the character table:

       E     8C3   3C2   6C4   6C2'  i     8S6   3s_h  6S4   6s_d 
A_1g   1.00  1.00  1.00  1.00  1.00  1.00  1.00  1.00  1.00  1.00
A_2g   1.00  1.00  1.00 -1.00 -1.00  1.00  1.00  1.00 -1.00 -1.00
E_g    2.00 -1.00  2.00  0.00  0.00  2.00 -1.00  2.00  0.00  0.00
T_1g   3.00  0.00 -1.00  1.00 -1.00  3.00  0.00 -1.00  1.00 -1.00
T_2g   3.00  0.00 -1.00 -1.00  1.00  3.00  0.00 -1.00 -1.00  1.00
A_1u   1.00  1.00  1.00  1.00  1.00 -1.00 -1.00 -1.00 -1.00 -1.00
A_2u   1.00  1.00  1.00 -1.00 -1.00 -1.00 -1.00 -1.00  1.00  1.00
E_u    2.00 -1.00  2.00  0.00  0.00 -2.00  1.00 -2.00  0.00  0.00
T_1u   3.00  0.00 -1.00  1.00 -1.00 -3.00  0.00  1.00 -1.00  1.00
T_2u   3.00  0.00 -1.00 -1.00  1.00 -3.00  0.00  1.00  1.00 -1.00

     the symmetry operations in each class and the name of the first element:

     E        1
          identity                                               
     8C3     17   19   20   18   24   21   22   23
          120 deg rotation - cart. axis [-1,-1,-1]               
     3C2      2    4    3
          180 deg rotation - cart. axis [0,0,1]                  
     6C4      7    8   15   16   12   11
           90 deg rotation - cart. axis [0,0,-1]                 
     6C2'     5    6   14   13   10    9
          180 deg rotation - cart. axis [1,1,0]                  
     i       25
          inversion                                              
     8S6     41   43   44   42   48   45   46   47
          inv. 120 deg rotation - cart. axis [-1,-1,-1]          
     3s_h    26   28   27
          inv. 180 deg rotation - cart. axis [0,0,1]             
     6S4     31   32   39   40   36   35
          inv.  90 deg rotation - cart. axis [0,0,-1]            
     6s_d    29   30   38   37   34   33
          inv. 180 deg rotation - cart. axis [1,1,0]             

   Cartesian axes

     site n.     atom                  positions (alat units)
         1           Ni  tau(   1) = (   0.0000000   0.0000000   0.0000000  )
         2           Ni  tau(   2) = (   0.0000000   0.5000000   0.5000000  )
         3           Ni  tau(   3) = (   0.5000000   0.0000000   0.5000000  )
         4           Ni  tau(   4) = (   0.5000000   0.5000000   0.0000000  )

   Crystallographic axes

     site n.     atom                  positions (cryst. coord.)
         1           Ni  tau(   1) = (  0.0000000  0.0000000  0.0000000  )
         2           Ni  tau(   2) = (  0.0000000  0.5000000  0.5000000  )
         3           Ni  tau(   3) = (  0.5000000  0.0000000  0.5000000  )
         4           Ni  tau(   4) = (  0.5000000  0.5000000  0.0000000  )

     number of k points=    84  Methfessel-Paxton smearing, width (Ry)=  0.0010
                       cart. coord. in units 2pi/alat
        k(    1) = (   0.0000000   0.0000000   0.0000000), wk =   0.0005787
        k(    2) = (   0.0000000   0.0000000   0.0833333), wk =   0.0034722
        k(    3) = (   0.0000000   0.0000000   0.1666667), wk =   0.0034722
        k(    4) = (   0.0000000   0.0000000   0.2500000), wk =   0.0034722
        k(    5) = (   0.0000000   0.0000000   0.3333333), wk =   0.0034722
        k(    6) = (   0.0000000   0.0000000   0.4166667), wk =   0.0034722
        k(    7) = (   0.0000000   0.0000000  -0.5000000), wk =   0.0017361
        k(    8) = (   0.0000000   0.0833333   0.0833333), wk =   0.0069444
        k(    9) = (   0.0000000   0.0833333   0.1666667), wk =   0.0138889
        k(   10) = (   0.0000000   0.0833333   0.2500000), wk =   0.0138889
        k(   11) = (   0.0000000   0.0833333   0.3333333), wk =   0.0138889
        k(   12) = (   0.0000000   0.0833333   0.4166667), wk =   0.0138889
        k(   13) = (   0.0000000   0.0833333  -0.5000000), wk =   0.0069444
        k(   14) = (   0.0000000   0.1666667   0.1666667), wk =   0.0069444
        k(   15) = (   0.0000000   0.1666667   0.2500000), wk =   0.0138889
        k(   16) = (   0.0000000   0.1666667   0.3333333), wk =   0.0138889
        k(   17) = (   0.0000000   0.1666667   0.4166667), wk =   0.0138889
        k(   18) = (   0.0000000   0.1666667  -0.5000000), wk =   0.0069444
        k(   19) = (   0.0000000   0.2500000   0.2500000), wk =   0.0069444
        k(   20) = (   0.0000000   0.2500000   0.3333333), wk =   0.0138889
        k(   21) = (   0.0000000   0.2500000   0.4166667), wk =   0.0138889
        k(   22) = (   0.0000000   0.2500000  -0.5000000), wk =   0.0069444
        k(   23) = (   0.0000000   0.3333333   0.3333333), wk =   0.0069444
        k(   24) = (   0.0000000   0.3333333   0.4166667), wk =   0.0138889
        k(   25) = (   0.0000000   0.3333333  -0.5000000), wk =   0.0069444
        k(   26) = (   0.0000000   0.4166667   0.4166667), wk =   0.0069444
        k(   27) = (   0.0000000   0.4166667  -0.5000000), wk =   0.0069444
        k(   28) = (   0.0000000  -0.5000000  -0.5000000), wk =   0.0017361
        k(   29) = (   0.0833333   0.0833333   0.0833333), wk =   0.0046296
        k(   30) = (   0.0833333   0.0833333   0.1666667), wk =   0.0138889
        k(   31) = (   0.0833333   0.0833333   0.2500000), wk =   0.0138889
        k(   32) = (   0.0833333   0.0833333   0.3333333), wk =   0.0138889
        k(   33) = (   0.0833333   0.0833333   0.4166667), wk =   0.0138889
        k(   34) = (   0.0833333   0.0833333  -0.5000000), wk =   0.0069444
        k(   35) = (   0.0833333   0.1666667   0.1666667), wk =   0.0138889
        k(   36) = (   0.0833333   0.1666667   0.2500000), wk =   0.0277778
        k(   37) = (   0.0833333   0.1666667   0.3333333), wk =   0.0277778
        k(   38) = (   0.0833333   0.1666667   0.4166667), wk =   0.0277778
        k(   39) = (   0.0833333   0.1666667  -0.5000000), wk =   0.0138889
        k(   40) = (   0.0833333   0.2500000   0.2500000), wk =   0.0138889
        k(   41) = (   0.0833333   0.2500000   0.3333333), wk =   0.0277778
        k(   42) = (   0.0833333   0.2500000   0.4166667), wk =   0.0277778
        k(   43) = (   0.0833333   0.2500000  -0.5000000), wk =   0.0138889
        k(   44) = (   0.0833333   0.3333333   0.3333333), wk =   0.0138889
        k(   45) = (   0.0833333   0.3333333   0.4166667), wk =   0.0277778
        k(   46) = (   0.0833333   0.3333333  -0.5000000), wk =   0.0138889
        k(   47) = (   0.0833333   0.4166667   0.4166667), wk =   0.0138889
        k(   48) = (   0.0833333   0.4166667  -0.5000000), wk =   0.0138889
        k(   49) = (   0.0833333  -0.5000000  -0.5000000), wk =   0.0034722
        k(   50) = (   0.1666667   0.1666667   0.1666667), wk =   0.0046296
        k(   51) = (   0.1666667   0.1666667   0.2500000), wk =   0.0138889
        k(   52) = (   0.1666667   0.1666667   0.3333333), wk =   0.0138889
        k(   53) = (   0.1666667   0.1666667   0.4166667), wk =   0.0138889
        k(   54) = (   0.1666667   0.1666667  -0.5000000), wk =   0.0069444
        k(   55) = (   0.1666667   0.2500000   0.2500000), wk =   0.0138889
        k(   56) = (   0.1666667   0.2500000   0.3333333), wk =   0.0277778
        k(   57) = (   0.1666667   0.2500000   0.4166667), wk =   0.0277778
        k(   58) = (   0.1666667   0.2500000  -0.5000000), wk =   0.0138889
        k(   59) = (   0.1666667   0.3333333   0.3333333), wk =   0.0138889
        k(   60) = (   0.1666667   0.3333333   0.4166667), wk =   0.0277778
        k(   61) = (   0.1666667   0.3333333  -0.5000000), wk =   0.0138889
        k(   62) = (   0.1666667   0.4166667   0.4166667), wk =   0.0138889
        k(   63) = (   0.1666667   0.4166667  -0.5000000), wk =   0.0138889
        k(   64) = (   0.1666667  -0.5000000  -0.5000000), wk =   0.0034722
        k(   65) = (   0.2500000   0.2500000   0.2500000), wk =   0.0046296
        k(   66) = (   0.2500000   0.2500000   0.3333333), wk =   0.0138889
        k(   67) = (   0.2500000   0.2500000   0.4166667), wk =   0.0138889
        k(   68) = (   0.2500000   0.2500000  -0.5000000), wk =   0.0069444
        k(   69) = (   0.2500000   0.3333333   0.3333333), wk =   0.0138889
        k(   70) = (   0.2500000   0.3333333   0.4166667), wk =   0.0277778
        k(   71) = (   0.2500000   0.3333333  -0.5000000), wk =   0.0138889
        k(   72) = (   0.2500000   0.4166667   0.4166667), wk =   0.0138889
        k(   73) = (   0.2500000   0.4166667  -0.5000000), wk =   0.0138889
        k(   74) = (   0.2500000  -0.5000000  -0.5000000), wk =   0.0034722
        k(   75) = (   0.3333333   0.3333333   0.3333333), wk =   0.0046296
        k(   76) = (   0.3333333   0.3333333   0.4166667), wk =   0.0138889
        k(   77) = (   0.3333333   0.3333333  -0.5000000), wk =   0.0069444
        k(   78) = (   0.3333333   0.4166667   0.4166667), wk =   0.0138889
        k(   79) = (   0.3333333   0.4166667  -0.5000000), wk =   0.0138889
        k(   80) = (   0.3333333  -0.5000000  -0.5000000), wk =   0.0034722
        k(   81) = (   0.4166667   0.4166667   0.4166667), wk =   0.0046296
        k(   82) = (   0.4166667   0.4166667  -0.5000000), wk =   0.0069444
        k(   83) = (   0.4166667  -0.5000000  -0.5000000), wk =   0.0034722
        k(   84) = (  -0.5000000  -0.5000000  -0.5000000), wk =   0.0005787

                       cryst. coord.
        k(    1) = (   0.0000000   0.0000000   0.0000000), wk =   0.0005787
        k(    2) = (   0.0000000   0.0000000   0.0833333), wk =   0.0034722
        k(    3) = (   0.0000000   0.0000000   0.1666667), wk =   0.0034722
        k(    4) = (   0.0000000   0.0000000   0.2500000), wk =   0.0034722
        k(    5) = (   0.0000000   0.0000000   0.3333333), wk =   0.0034722
        k(    6) = (   0.0000000   0.0000000   0.4166667), wk =   0.0034722
        k(    7) = (   0.0000000   0.0000000  -0.5000000), wk =   0.0017361
        k(    8) = (   0.0000000   0.0833333   0.0833333), wk =   0.0069444
        k(    9) = (   0.0000000   0.0833333   0.1666667), wk =   0.0138889
        k(   10) = (   0.0000000   0.0833333   0.2500000), wk =   0.0138889
        k(   11) = (   0.0000000   0.0833333   0.3333333), wk =   0.0138889
        k(   12) = (   0.0000000   0.0833333   0.4166667), wk =   0.0138889
        k(   13) = (   0.0000000   0.0833333  -0.5000000), wk =   0.0069444
        k(   14) = (   0.0000000   0.1666667   0.1666667), wk =   0.0069444
        k(   15) = (   0.0000000   0.1666667   0.2500000), wk =   0.0138889
        k(   16) = (   0.0000000   0.1666667   0.3333333), wk =   0.0138889
        k(   17) = (   0.0000000   0.1666667   0.4166667), wk =   0.0138889
        k(   18) = (   0.0000000   0.1666667  -0.5000000), wk =   0.0069444
        k(   19) = (   0.0000000   0.2500000   0.2500000), wk =   0.0069444
        k(   20) = (   0.0000000   0.2500000   0.3333333), wk =   0.0138889
        k(   21) = (   0.0000000   0.2500000   0.4166667), wk =   0.0138889
        k(   22) = (   0.0000000   0.2500000  -0.5000000), wk =   0.0069444
        k(   23) = (   0.0000000   0.3333333   0.3333333), wk =   0.0069444
        k(   24) = (   0.0000000   0.3333333   0.4166667), wk =   0.0138889
        k(   25) = (   0.0000000   0.3333333  -0.5000000), wk =   0.0069444
        k(   26) = (   0.0000000   0.4166667   0.4166667), wk =   0.0069444
        k(   27) = (   0.0000000   0.4166667  -0.5000000), wk =   0.0069444
        k(   28) = (   0.0000000  -0.5000000  -0.5000000), wk =   0.0017361
        k(   29) = (   0.0833333   0.0833333   0.0833333), wk =   0.0046296
        k(   30) = (   0.0833333   0.0833333   0.1666667), wk =   0.0138889
        k(   31) = (   0.0833333   0.0833333   0.2500000), wk =   0.0138889
        k(   32) = (   0.0833333   0.0833333   0.3333333), wk =   0.0138889
        k(   33) = (   0.0833333   0.0833333   0.4166667), wk =   0.0138889
        k(   34) = (   0.0833333   0.0833333  -0.5000000), wk =   0.0069444
        k(   35) = (   0.0833333   0.1666667   0.1666667), wk =   0.0138889
        k(   36) = (   0.0833333   0.1666667   0.2500000), wk =   0.0277778
        k(   37) = (   0.0833333   0.1666667   0.3333333), wk =   0.0277778
        k(   38) = (   0.0833333   0.1666667   0.4166667), wk =   0.0277778
        k(   39) = (   0.0833333   0.1666667  -0.5000000), wk =   0.0138889
        k(   40) = (   0.0833333   0.2500000   0.2500000), wk =   0.0138889
        k(   41) = (   0.0833333   0.2500000   0.3333333), wk =   0.0277778
        k(   42) = (   0.0833333   0.2500000   0.4166667), wk =   0.0277778
        k(   43) = (   0.0833333   0.2500000  -0.5000000), wk =   0.0138889
        k(   44) = (   0.0833333   0.3333333   0.3333333), wk =   0.0138889
        k(   45) = (   0.0833333   0.3333333   0.4166667), wk =   0.0277778
        k(   46) = (   0.0833333   0.3333333  -0.5000000), wk =   0.0138889
        k(   47) = (   0.0833333   0.4166667   0.4166667), wk =   0.0138889
        k(   48) = (   0.0833333   0.4166667  -0.5000000), wk =   0.0138889
        k(   49) = (   0.0833333  -0.5000000  -0.5000000), wk =   0.0034722
        k(   50) = (   0.1666667   0.1666667   0.1666667), wk =   0.0046296
        k(   51) = (   0.1666667   0.1666667   0.2500000), wk =   0.0138889
        k(   52) = (   0.1666667   0.1666667   0.3333333), wk =   0.0138889
        k(   53) = (   0.1666667   0.1666667   0.4166667), wk =   0.0138889
        k(   54) = (   0.1666667   0.1666667  -0.5000000), wk =   0.0069444
        k(   55) = (   0.1666667   0.2500000   0.2500000), wk =   0.0138889
        k(   56) = (   0.1666667   0.2500000   0.3333333), wk =   0.0277778
        k(   57) = (   0.1666667   0.2500000   0.4166667), wk =   0.0277778
        k(   58) = (   0.1666667   0.2500000  -0.5000000), wk =   0.0138889
        k(   59) = (   0.1666667   0.3333333   0.3333333), wk =   0.0138889
        k(   60) = (   0.1666667   0.3333333   0.4166667), wk =   0.0277778
        k(   61) = (   0.1666667   0.3333333  -0.5000000), wk =   0.0138889
        k(   62) = (   0.1666667   0.4166667   0.4166667), wk =   0.0138889
        k(   63) = (   0.1666667   0.4166667  -0.5000000), wk =   0.0138889
        k(   64) = (   0.1666667  -0.5000000  -0.5000000), wk =   0.0034722
        k(   65) = (   0.2500000   0.2500000   0.2500000), wk =   0.0046296
        k(   66) = (   0.2500000   0.2500000   0.3333333), wk =   0.0138889
        k(   67) = (   0.2500000   0.2500000   0.4166667), wk =   0.0138889
        k(   68) = (   0.2500000   0.2500000  -0.5000000), wk =   0.0069444
        k(   69) = (   0.2500000   0.3333333   0.3333333), wk =   0.0138889
        k(   70) = (   0.2500000   0.3333333   0.4166667), wk =   0.0277778
        k(   71) = (   0.2500000   0.3333333  -0.5000000), wk =   0.0138889
        k(   72) = (   0.2500000   0.4166667   0.4166667), wk =   0.0138889
        k(   73) = (   0.2500000   0.4166667  -0.5000000), wk =   0.0138889
        k(   74) = (   0.2500000  -0.5000000  -0.5000000), wk =   0.0034722
        k(   75) = (   0.3333333   0.3333333   0.3333333), wk =   0.0046296
        k(   76) = (   0.3333333   0.3333333   0.4166667), wk =   0.0138889
        k(   77) = (   0.3333333   0.3333333  -0.5000000), wk =   0.0069444
        k(   78) = (   0.3333333   0.4166667   0.4166667), wk =   0.0138889
        k(   79) = (   0.3333333   0.4166667  -0.5000000), wk =   0.0138889
        k(   80) = (   0.3333333  -0.5000000  -0.5000000), wk =   0.0034722
        k(   81) = (   0.4166667   0.4166667   0.4166667), wk =   0.0046296
        k(   82) = (   0.4166667   0.4166667  -0.5000000), wk =   0.0069444
        k(   83) = (   0.4166667  -0.5000000  -0.5000000), wk =   0.0034722
        k(   84) = (  -0.5000000  -0.5000000  -0.5000000), wk =   0.0005787

     Dense  grid:   103311 G-vectors     FFT dimensions: (  60,  60,  60)

     Smooth grid:    67043 G-vectors     FFT dimensions: (  54,  54,  54)

     Dynamical RAM for                 wfc:       0.27 MB

     Dynamical RAM for     wfc (w. buffer):      46.35 MB

     Dynamical RAM for           str. fact:       0.08 MB

     Dynamical RAM for           local pot:       0.00 MB

     Dynamical RAM for          nlocal pot:       0.46 MB

     Dynamical RAM for                qrad:       2.27 MB

     Dynamical RAM for          rho,v,vnew:       0.97 MB

     Dynamical RAM for               rhoin:       0.32 MB

     Dynamical RAM for            rho*nmix:       2.52 MB

     Dynamical RAM for           G-vectors:       0.32 MB

     Dynamical RAM for          h,s,v(r/c):       0.34 MB

     Dynamical RAM for          <psi|beta>:       0.05 MB

     Dynamical RAM for                 psi:       0.55 MB

     Dynamical RAM for                hpsi:       0.55 MB

     Dynamical RAM for                spsi:       0.55 MB

     Dynamical RAM for      wfcinit/wfcrot:       0.59 MB

     Dynamical RAM for           addusdens:      15.06 MB

     Estimated static dynamical RAM per process >      51.42 MB

     Estimated max dynamical RAM per process >      69.00 MB

     Estimated total dynamical RAM >       1.35 GB
     Generating pointlists ...
     new r_m :   0.2917 (alat units)  1.8851 (a.u.) for type    1

     The initial density is read from file :
     out/Ni.save/charge-density


     starting charge      68.6265, renormalised to      72.0000
     Starting wfcs from file
     Checking if some PAW data can be deallocated... 

     total cpu time spent up to now is       13.9 secs

     Self-consistent Calculation

     iteration #  1     ecut=   150.00 Ry     beta= 0.70
     Davidson diagonalization with overlap

---- Real-time Memory Report at c_bands before calling an iterative solver
            91 MiB given to the printing process from OS
             0 MiB allocation reported by mallinfo(arena+hblkhd)
        354776 MiB available memory on the node where the printing process lives
------------------
     ethr =  1.00E-05,  avg # of iterations =  7.9

     total cpu time spent up to now is       32.7 secs

     total energy              =   -1714.49693394 Ry
     estimated scf accuracy    <       3.50038470 Ry

     total magnetization       =     2.93 Bohr mag/cell
     absolute magnetization    =     3.23 Bohr mag/cell

     iteration #  2     ecut=   150.00 Ry     beta= 0.70
     Davidson diagonalization with overlap

---- Real-time Memory Report at c_bands before calling an iterative solver
           122 MiB given to the printing process from OS
             0 MiB allocation reported by mallinfo(arena+hblkhd)
        354294 MiB available memory on the node where the printing process lives
------------------
     ethr =  4.86E-03,  avg # of iterations =  3.2

     total cpu time spent up to now is       43.4 secs

     total energy              =   -1714.27227313 Ry
     estimated scf accuracy    <      15.74692510 Ry

     total magnetization       =     0.57 Bohr mag/cell
     absolute magnetization    =     0.93 Bohr mag/cell

     iteration #  3     ecut=   150.00 Ry     beta= 0.70
     Davidson diagonalization with overlap

---- Real-time Memory Report at c_bands before calling an iterative solver
           123 MiB given to the printing process from OS
             0 MiB allocation reported by mallinfo(arena+hblkhd)
        354290 MiB available memory on the node where the printing process lives
------------------
     ethr =  4.86E-03,  avg # of iterations =  2.5

     total cpu time spent up to now is       52.5 secs

     total energy              =   -1716.61855062 Ry
     estimated scf accuracy    <       0.02014919 Ry

     total magnetization       =     2.29 Bohr mag/cell
     absolute magnetization    =     2.62 Bohr mag/cell

     iteration #  4     ecut=   150.00 Ry     beta= 0.70
     Davidson diagonalization with overlap

---- Real-time Memory Report at c_bands before calling an iterative solver
           124 MiB given to the printing process from OS
             0 MiB allocation reported by mallinfo(arena+hblkhd)
        354280 MiB available memory on the node where the printing process lives
------------------
     ethr =  2.80E-05,  avg # of iterations =  3.8

     total cpu time spent up to now is       64.1 secs

     total energy              =   -1716.64415775 Ry
     estimated scf accuracy    <       0.04483415 Ry

     total magnetization       =     2.55 Bohr mag/cell
     absolute magnetization    =     2.84 Bohr mag/cell

     iteration #  5     ecut=   150.00 Ry     beta= 0.70
     Davidson diagonalization with overlap

---- Real-time Memory Report at c_bands before calling an iterative solver
           125 MiB given to the printing process from OS
             0 MiB allocation reported by mallinfo(arena+hblkhd)
        354267 MiB available memory on the node where the printing process lives
------------------
     ethr =  2.80E-05,  avg # of iterations =  1.0

     total cpu time spent up to now is       70.9 secs

     total energy              =   -1716.63144491 Ry
     estimated scf accuracy    <       0.03250455 Ry

     total magnetization       =     2.54 Bohr mag/cell
     absolute magnetization    =     2.84 Bohr mag/cell

     iteration #  6     ecut=   150.00 Ry     beta= 0.70
     Davidson diagonalization with overlap

---- Real-time Memory Report at c_bands before calling an iterative solver
           125 MiB given to the printing process from OS
             0 MiB allocation reported by mallinfo(arena+hblkhd)
        354266 MiB available memory on the node where the printing process lives
------------------
     ethr =  2.80E-05,  avg # of iterations =  3.0

     total cpu time spent up to now is       80.3 secs

     total energy              =   -1716.63969705 Ry
     estimated scf accuracy    <       0.00706474 Ry

     total magnetization       =     2.41 Bohr mag/cell
     absolute magnetization    =     2.74 Bohr mag/cell

     iteration #  7     ecut=   150.00 Ry     beta= 0.70
     Davidson diagonalization with overlap

---- Real-time Memory Report at c_bands before calling an iterative solver
           125 MiB given to the printing process from OS
             0 MiB allocation reported by mallinfo(arena+hblkhd)
        354258 MiB available memory on the node where the printing process lives
------------------
     ethr =  9.81E-06,  avg # of iterations =  1.9

     total cpu time spent up to now is       87.6 secs

     total energy              =   -1716.64029576 Ry
     estimated scf accuracy    <       0.00047833 Ry

     total magnetization       =     2.49 Bohr mag/cell
     absolute magnetization    =     2.81 Bohr mag/cell

     iteration #  8     ecut=   150.00 Ry     beta= 0.70
     Davidson diagonalization with overlap

---- Real-time Memory Report at c_bands before calling an iterative solver
           126 MiB given to the printing process from OS
             0 MiB allocation reported by mallinfo(arena+hblkhd)
        354255 MiB available memory on the node where the printing process lives
------------------
     ethr =  6.64E-07,  avg # of iterations =  2.0

     total cpu time spent up to now is       95.0 secs

     total energy              =   -1716.64030689 Ry
     estimated scf accuracy    <       0.00026353 Ry

     total magnetization       =     2.51 Bohr mag/cell
     absolute magnetization    =     2.83 Bohr mag/cell

     iteration #  9     ecut=   150.00 Ry     beta= 0.70
     Davidson diagonalization with overlap

---- Real-time Memory Report at c_bands before calling an iterative solver
           126 MiB given to the printing process from OS
             0 MiB allocation reported by mallinfo(arena+hblkhd)
        354247 MiB available memory on the node where the printing process lives
------------------
     ethr =  3.66E-07,  avg # of iterations =  1.0

     total cpu time spent up to now is      101.8 secs

     total energy              =   -1716.64030257 Ry
     estimated scf accuracy    <       0.00016683 Ry

     total magnetization       =     2.53 Bohr mag/cell
     absolute magnetization    =     2.85 Bohr mag/cell

     iteration # 10     ecut=   150.00 Ry     beta= 0.70
     Davidson diagonalization with overlap

---- Real-time Memory Report at c_bands before calling an iterative solver
           127 MiB given to the printing process from OS
             0 MiB allocation reported by mallinfo(arena+hblkhd)
        354243 MiB available memory on the node where the printing process lives
------------------
     ethr =  2.32E-07,  avg # of iterations =  1.3

     total cpu time spent up to now is      108.7 secs

     total energy              =   -1716.64030123 Ry
     estimated scf accuracy    <       0.00011041 Ry

     total magnetization       =     2.58 Bohr mag/cell
     absolute magnetization    =     2.91 Bohr mag/cell

     iteration # 11     ecut=   150.00 Ry     beta= 0.70
     Davidson diagonalization with overlap

---- Real-time Memory Report at c_bands before calling an iterative solver
           127 MiB given to the printing process from OS
             0 MiB allocation reported by mallinfo(arena+hblkhd)
        354239 MiB available memory on the node where the printing process lives
------------------
     ethr =  1.53E-07,  avg # of iterations =  1.5

     total cpu time spent up to now is      115.8 secs

     total energy              =   -1716.64031136 Ry
     estimated scf accuracy    <       0.00001448 Ry

     total magnetization       =     2.61 Bohr mag/cell
     absolute magnetization    =     2.93 Bohr mag/cell

     iteration # 12     ecut=   150.00 Ry     beta= 0.70
     Davidson diagonalization with overlap

---- Real-time Memory Report at c_bands before calling an iterative solver
           127 MiB given to the printing process from OS
             0 MiB allocation reported by mallinfo(arena+hblkhd)
        354240 MiB available memory on the node where the printing process lives
------------------
     ethr =  2.01E-08,  avg # of iterations =  1.6

     total cpu time spent up to now is      123.1 secs

     total energy              =   -1716.64031023 Ry
     estimated scf accuracy    <       0.00000536 Ry

     total magnetization       =     2.61 Bohr mag/cell
     absolute magnetization    =     2.93 Bohr mag/cell

     iteration # 13     ecut=   150.00 Ry     beta= 0.70
     Davidson diagonalization with overlap

---- Real-time Memory Report at c_bands before calling an iterative solver
           127 MiB given to the printing process from OS
             0 MiB allocation reported by mallinfo(arena+hblkhd)
        354240 MiB available memory on the node where the printing process lives
------------------
     ethr =  7.45E-09,  avg # of iterations =  2.0

     total cpu time spent up to now is      131.1 secs

     total energy              =   -1716.64031108 Ry
     estimated scf accuracy    <       0.00000016 Ry

     total magnetization       =     2.61 Bohr mag/cell
     absolute magnetization    =     2.93 Bohr mag/cell

     iteration # 14     ecut=   150.00 Ry     beta= 0.70
     Davidson diagonalization with overlap

---- Real-time Memory Report at c_bands before calling an iterative solver
           127 MiB given to the printing process from OS
             0 MiB allocation reported by mallinfo(arena+hblkhd)
        354240 MiB available memory on the node where the printing process lives
------------------
     ethr =  2.16E-10,  avg # of iterations =  3.6
 
     Magnetic moment per site  (integrated on atomic sphere of radius R)
     atom   1 (R=0.292)  charge= 16.6359  magn=  0.6881
     atom   2 (R=0.292)  charge= 16.6359  magn=  0.6881
     atom   3 (R=0.292)  charge= 16.6359  magn=  0.6881
     atom   4 (R=0.292)  charge= 16.6359  magn=  0.6881

     total cpu time spent up to now is      140.9 secs

     End of self-consistent calculation

 ------ SPIN UP ------------


          k = 0.0000 0.0000 0.0000 (  8385 PWs)   bands (ev):

   -83.8989 -83.8337 -83.8337 -83.8337 -44.3907 -44.3907 -44.3907 -44.2206
   -44.2206 -44.2206 -44.2206 -44.2206 -44.2206 -44.1104 -44.1104 -44.1104
    10.2408  14.7278  14.7278  14.7278  15.2502  15.2502  15.2502  17.2714
    17.2714  17.2714  18.6135  18.6135  19.4272  19.4272  19.4272  19.5237
    19.5237  19.5237  19.5237  19.5237  19.5237  22.3858  22.3858  22.3858
    29.9016  29.9016  29.9016

     occupation numbers 
     1.0000   1.0000   1.0000   1.0000   1.0000   1.0000   1.0000   1.0000
     1.0000   1.0000   1.0000   1.0000   1.0000   1.0000   1.0000   1.0000
     1.0000   1.0000   1.0000   1.0000   1.0000   1.0000   1.0000   1.0000
     1.0000   1.0000   1.0000   1.0000   1.0000   1.0000   1.0000   1.0000
     1.0000   1.0000   1.0000   1.0000   1.0000  -0.0000  -0.0000  -0.0000
    -0.0000  -0.0000  -0.0000

          k = 0.0000 0.0000 0.0833 (  8345 PWs)   bands (ev):

   -83.8978 -83.8348 -83.8337 -83.8337 -44.3878 -44.3878 -44.3861 -44.2235
   -44.2235 -44.2207 -44.2207 -44.2187 -44.2187 -44.1154 -44.1123 -44.1123
    10.3378  14.7379  14.7804  14.7804  15.2816  15.2851  15.2851  17.2335
    17.3002  17.3002  18.5784  18.6269  19.2752  19.2752  19.3816  19.3816
    19.4129  19.4711  19.4711  19.5238  19.5238  21.9039  22.7128  22.7128
    29.9195  29.9195  30.5414

     occupation numbers 
     1.0000   1.0000   1.0000   1.0000   1.0000   1.0000   1.0000   1.0000
     1.0000   1.0000   1.0000   1.0000   1.0000   1.0000   1.0000   1.0000
     1.0000   1.0000   1.0000   1.0000   1.0000   1.0000   1.0000   1.0000
     1.0000   1.0000   1.0000   1.0000   1.0000   1.0000   1.0000   1.0000
     1.0000   1.0000   1.0000   1.0000   1.0000  -0.0000  -0.0000  -0.0000
    -0.0000  -0.0000  -0.0000

          k = 0.0000 0.0000 0.1667 (  8389 PWs)   bands (ev):

   -83.8946 -83.8380 -83.8337 -83.8337 -44.3793 -44.3793 -44.3727 -44.2320
   -44.2320 -44.2212 -44.2212 -44.2132 -44.2132 -44.1300 -44.1178 -44.1178
    10.6256  14.7514  14.9308  14.9309  15.3742  15.3903  15.3903  17.1233
    17.3861  17.3861  18.4774  18.6662  18.7316  18.7316  19.2494  19.2494
    19.3211  19.3211  19.3709  19.5240  19.5240  20.8159  23.4911  23.4911
    29.9752  29.9752  32.1122

     occupation numbers 
     1.0000   1.0000   1.0000   1.0000   1.0000   1.0000   1.0000   1.0000
     1.0000   1.0000   1.0000   1.0000   1.0000   1.0000   1.0000   1.0000
     1.0000   1.0000   1.0000   1.0000   1.0000   1.0000   1.0000   1.0000
     1.0000   1.0000   1.0000   1.0000   1.0000   1.0000   1.0000   1.0000
     1.0000   1.0000   1.0000   1.0000   1.0000  -0.0000  -0.0000  -0.0000
    -0.0000  -0.0000  -0.0000

          k = 0.0000 0.0000 0.2500 (  8417 PWs)   bands (ev):

   -83.8894 -83.8432 -83.8336 -83.8336 -44.3659 -44.3659 -44.3511 -44.2456
   -44.2456 -44.2217 -44.2217 -44.2045 -44.2045 -44.1530 -44.1266 -44.1266
    11.0946  14.7100  15.1563  15.1563  15.5233  15.5666  15.5666  16.9502
    17.5270  17.5270  18.1208  18.1208  18.3236  18.7291  19.0476  19.0476
    19.0947  19.0947  19.3044  19.5243  19.5243  19.6257  24.4912  24.4912
    30.0736  30.0736  32.3351

     occupation numbers 
     1.0000   1.0000   1.0000   1.0000   1.0000   1.0000   1.0000   1.0000
     1.0000   1.0000   1.0000   1.0000   1.0000   1.0000   1.0000   1.0000
     1.0000   1.0000   1.0000   1.0000   1.0000   1.0000   1.0000   1.0000
     1.0000   1.0000   1.0000   1.0000   1.0000   1.0000   1.0000   1.0000
     1.0000   1.0000   1.0000   1.0000   1.0000   1.0000  -0.0000  -0.0000
    -0.0000  -0.0000  -0.0000

          k = 0.0000 0.0000 0.3333 (  8385 PWs)   bands (ev):

   -83.8826 -83.8500 -83.8336 -83.8336 -44.3483 -44.3483 -44.3228 -44.2633
   -44.2633 -44.2223 -44.2223 -44.1931 -44.1931 -44.1827 -44.1380 -44.1380
    11.7250  14.5021  15.4129  15.4129  15.7207  15.8150  15.8150  16.7288
    17.5324  17.5324  17.7191  17.7191  18.1428  18.6528  18.8116  18.8129
    18.8129  18.8193  18.8193  19.2183  19.5246  19.5246  25.6202  25.6202
    30.2163  30.2163  30.9028

     occupation numbers 
     1.0000   1.0000   1.0000   1.0000   1.0000   1.0000   1.0000   1.0000
     1.0000   1.0000   1.0000   1.0000   1.0000   1.0000   1.0000   1.0000
     1.0000   1.0000   1.0000   1.0000   1.0000   1.0000   1.0000   1.0000
     1.0000   1.0000   1.0000   1.0000   1.0000   1.0000   1.0000   1.0000
     1.0000   1.0000   1.0000   1.0000   1.0000   1.0000  -0.0000  -0.0000
    -0.0000  -0.0000  -0.0000

          k = 0.0000 0.0000 0.4167 (  8382 PWs)   bands (ev):

   -83.8747 -83.8578 -83.8336 -83.8336 -44.3279 -44.3279 -44.2895 -44.2838
   -44.2838 -44.2227 -44.2227 -44.2170 -44.1798 -44.1798 -44.1513 -44.1513
    12.4797  14.0151  15.6297  15.6297  15.9552  16.1366  16.1366  16.4768
    16.9985  16.9985  17.9561  17.9561  17.9801  18.0870  18.5226  18.5226
    18.6110  18.6111  18.9084  19.1189  19.5249  19.5249  26.8420  26.8420
    29.4964  29.4964  30.3800

     occupation numbers 
     1.0000   1.0000   1.0000   1.0000   1.0000   1.0000   1.0000   1.0000
     1.0000   1.0000   1.0000   1.0000   1.0000   1.0000   1.0000   1.0000
     1.0000   1.0000   1.0000   1.0000   1.0000   1.0000   1.0000   1.0000
     1.0000   1.0000   1.0000   1.0000   1.0000   1.0000   1.0000   1.0000
     1.0000   1.0000   1.0000   1.0000   1.0000   1.0000  -0.0000  -0.0000
    -0.0000  -0.0000  -0.0000

          k = 0.0000 0.0000-0.5000 (  8410 PWs)   bands (ev):

   -83.8663 -83.8663 -83.8336 -83.8336 -44.3059 -44.3059 -44.3059 -44.3059
   -44.2535 -44.2535 -44.2229 -44.2228 -44.1656 -44.1656 -44.1656 -44.1656
    13.2869  13.2869  15.7175  15.7175  16.2128  16.2128  16.5316  16.5316
    16.5316  16.5316  17.9157  17.9157  18.2286  18.2286  18.2286  18.2286
    18.5284  18.5284  19.0132  19.0132  19.5250  19.5250  28.1383  28.1383
    28.1384  28.1384  30.4674

     occupation numbers 
     1.0000   1.0000   1.0000   1.0000   1.0000   1.0000   1.0000   1.0000
     1.0000   1.0000   1.0000   1.0000   1.0000   1.0000   1.0000   1.0000
     1.0000   1.0000   1.0000   1.0000   1.0000   1.0000   1.0000   1.0000
     1.0000   1.0000   1.0000   1.0000   1.0000   1.0000   1.0000   1.0000
     1.0000   1.0000   1.0000   1.0000   1.0000   1.0000  -0.0000  -0.0000
    -0.0000  -0.0000  -0.0000

          k = 0.0000 0.0833 0.0833 (  8359 PWs)   bands (ev):

   -83.8967 -83.8348 -83.8348 -83.8337 -44.3849 -44.3835 -44.3835 -44.2293
   -44.2216 -44.2216 -44.2188 -44.2188 -44.2179 -44.1230 -44.1142 -44.1115
    10.4341  14.7914  14.7914  14.8315  15.3159  15.3159  15.3192  17.2118
    17.3138  17.3264  18.5685  18.6180  19.0982  19.1911  19.1911  19.3380
    19.3863  19.3863  19.4710  19.4710  19.4904  22.2330  22.2330  23.0018
    29.9343  30.5698  30.5698

     occupation numbers 
     1.0000   1.0000   1.0000   1.0000   1.0000   1.0000   1.0000   1.0000
     1.0000   1.0000   1.0000   1.0000   1.0000   1.0000   1.0000   1.0000
     1.0000   1.0000   1.0000   1.0000   1.0000   1.0000   1.0000   1.0000
     1.0000   1.0000   1.0000   1.0000   1.0000   1.0000   1.0000   1.0000
     1.0000   1.0000   1.0000   1.0000   1.0000  -0.0000  -0.0000  -0.0000
    -0.0000  -0.0000  -0.0000

          k = 0.0000 0.0833 0.1667 (  8400 PWs)   bands (ev):

   -83.8935 -83.8380 -83.8347 -83.8337 -44.3765 -44.3759 -44.3709 -44.2396
   -44.2301 -44.2188 -44.2161 -44.2161 -44.2129 -44.1390 -44.1198 -44.1150
    10.7202  14.8076  14.9447  14.9781  15.4067  15.4192  15.4216  17.1125
    17.3913  17.4037  18.4806  18.6304  18.6410  18.6530  18.9801  19.2116
    19.2541  19.3208  19.3583  19.4709  19.4723  21.1790  22.9861  23.7233
    29.9727  30.6575  32.1528

     occupation numbers 
     1.0000   1.0000   1.0000   1.0000   1.0000   1.0000   1.0000   1.0000
     1.0000   1.0000   1.0000   1.0000   1.0000   1.0000   1.0000   1.0000
     1.0000   1.0000   1.0000   1.0000   1.0000   1.0000   1.0000   1.0000
     1.0000   1.0000   1.0000   1.0000   1.0000   1.0000   1.0000   1.0000
     1.0000   1.0000   1.0000   1.0000   1.0000  -0.0000  -0.0000  -0.0000
    -0.0000  -0.0000  -0.0000

          k = 0.0000 0.0833 0.2500 (  8387 PWs)   bands (ev):

   -83.8884 -83.8431 -83.8346 -83.8338 -44.3637 -44.3632 -44.3506 -44.2533
   -44.2436 -44.2189 -44.2157 -44.2072 -44.2037 -44.1620 -44.1286 -44.1229
    11.1862  14.7706  15.1750  15.1987  15.5527  15.5916  15.5922  16.9458
    17.5269  17.5297  18.0353  18.0653  18.3385  18.6451  18.7224  19.0179
    19.0545  19.0941  19.2807  19.4679  19.4706  20.1029  23.9217  24.6833
    29.9710  30.8083  31.2017

     occupation numbers 
     1.0000   1.0000   1.0000   1.0000   1.0000   1.0000   1.0000   1.0000
     1.0000   1.0000   1.0000   1.0000   1.0000   1.0000   1.0000   1.0000
     1.0000   1.0000   1.0000   1.0000   1.0000   1.0000   1.0000   1.0000
     1.0000   1.0000   1.0000   1.0000   1.0000   1.0000   1.0000   1.0000
     1.0000   1.0000   1.0000   1.0000   1.0000  -0.0000  -0.0000  -0.0000
    -0.0000  -0.0000  -0.0000

          k = 0.0000 0.0833 0.3333 (  8386 PWs)   bands (ev):

   -83.8818 -83.8497 -83.8344 -83.8339 -44.3478 -44.3457 -44.3239 -44.2701
   -44.2612 -44.2187 -44.2161 -44.1957 -44.1916 -44.1908 -44.1401 -44.1342
    11.8123  14.5675  15.4388  15.4537  15.7460  15.8259  15.8358  16.7307
    17.4584  17.5052  17.6756  17.7204  18.1916  18.2036  18.7923  18.8148
    18.8185  18.8210  19.0882  19.4022  19.4672  19.4701  24.9504  25.7863
    29.4252  30.6207  31.0101

     occupation numbers 
     1.0000   1.0000   1.0000   1.0000   1.0000   1.0000   1.0000   1.0000
     1.0000   1.0000   1.0000   1.0000   1.0000   1.0000   1.0000   1.0000
     1.0000   1.0000   1.0000   1.0000   1.0000   1.0000   1.0000   1.0000
     1.0000   1.0000   1.0000   1.0000   1.0000   1.0000   1.0000   1.0000
     1.0000   1.0000   1.0000   1.0000   1.0000   1.0000  -0.0000  -0.0000
    -0.0000  -0.0000  -0.0000

          k = 0.0000 0.0833 0.4167 (  8395 PWs)   bands (ev):

   -83.8740 -83.8574 -83.8343 -83.8340 -44.3292 -44.3253 -44.2925 -44.2891
   -44.2816 -44.2237 -44.2183 -44.2169 -44.1823 -44.1776 -44.1536 -44.1479
    12.5615  14.0851  15.6650  15.6743  15.9755  16.1224  16.1505  16.4850
    16.9395  16.9900  17.7602  17.8544  17.9566  18.1691  18.5220  18.6000
    18.6168  18.7028  18.9240  19.1774  19.4677  19.4694  26.0363  26.9907
    28.3143  29.6256  30.7485

     occupation numbers 
     1.0000   1.0000   1.0000   1.0000   1.0000   1.0000   1.0000   1.0000
     1.0000   1.0000   1.0000   1.0000   1.0000   1.0000   1.0000   1.0000
     1.0000   1.0000   1.0000   1.0000   1.0000   1.0000   1.0000   1.0000
     1.0000   1.0000   1.0000   1.0000   1.0000   1.0000   1.0000   1.0000
     1.0000   1.0000   1.0000   1.0000   1.0000   1.0000  -0.0000  -0.0000
    -0.0000  -0.0000  -0.0000

          k = 0.0000 0.0833-0.5000 (  8396 PWs)   bands (ev):

   -83.8657 -83.8657 -83.8342 -83.8341 -44.3092 -44.3092 -44.3035 -44.3035
   -44.2583 -44.2583 -44.2177 -44.2177 -44.1679 -44.1679 -44.1627 -44.1627
    13.3625  13.3625  15.7614  15.7614  16.2273  16.2273  16.4919  16.4919
    16.5361  16.5361  17.7465  17.7465  18.2284  18.2284  18.3746  18.3746
    18.5269  18.5269  19.0445  19.0445  19.4685  19.4685  27.1619  27.1619
    28.2752  28.2752  31.0156

     occupation numbers 
     1.0000   1.0000   1.0000   1.0000   1.0000   1.0000   1.0000   1.0000
     1.0000   1.0000   1.0000   1.0000   1.0000   1.0000   1.0000   1.0000
     1.0000   1.0000   1.0000   1.0000   1.0000   1.0000   1.0000   1.0000
     1.0000   1.0000   1.0000   1.0000   1.0000   1.0000   1.0000   1.0000
     1.0000   1.0000   1.0000   1.0000   1.0000   1.0000  -0.0000  -0.0000
    -0.0000  -0.0000  -0.0000

          k = 0.0000 0.1667 0.1667 (  8360 PWs)   bands (ev):

   -83.8905 -83.8377 -83.8377 -83.8339 -44.3683 -44.3655 -44.3655 -44.2526
   -44.2244 -44.2244 -44.2120 -44.2120 -44.2100 -44.1575 -44.1255 -44.1146
    11.0010  14.9693  14.9693  15.1135  15.5044  15.5044  15.5154  17.0519
    17.4374  17.4549  18.3293  18.4009  18.4009  18.4487  18.6592  19.1011
    19.2390  19.2390  19.3197  19.3197  19.3917  21.9091  21.9091  24.3422
    29.8653  31.0929  32.2713

     occupation numbers 
     1.0000   1.0000   1.0000   1.0000   1.0000   1.0000   1.0000   1.0000
     1.0000   1.0000   1.0000   1.0000   1.0000   1.0000   1.0000   1.0000
     1.0000   1.0000   1.0000   1.0000   1.0000   1.0000   1.0000   1.0000
     1.0000   1.0000   1.0000   1.0000   1.0000   1.0000   1.0000   1.0000
     1.0000   1.0000   1.0000   1.0000   1.0000  -0.0000  -0.0000  -0.0000
    -0.0000  -0.0000  -0.0000

          k = 0.0000 0.1667 0.2500 (  8376 PWs)   bands (ev):

   -83.8856 -83.8426 -83.8374 -83.8343 -44.3569 -44.3551 -44.3488 -44.2677
   -44.2376 -44.2153 -44.2106 -44.2061 -44.2014 -44.1815 -44.1346 -44.1193
    11.4577  14.9454  15.2141  15.3184  15.6411  15.6675  15.6680  16.9186
    17.5309  17.5538  17.8116  17.8950  18.0629  18.3474  18.7363  18.9297
    19.0491  19.0923  19.1675  19.3181  19.3449  20.8135  22.7543  25.2164
    29.0693  30.5814  32.4355

     occupation numbers 
     1.0000   1.0000   1.0000   1.0000   1.0000   1.0000   1.0000   1.0000
     1.0000   1.0000   1.0000   1.0000   1.0000   1.0000   1.0000   1.0000
     1.0000   1.0000   1.0000   1.0000   1.0000   1.0000   1.0000   1.0000
     1.0000   1.0000   1.0000   1.0000   1.0000   1.0000   1.0000   1.0000
     1.0000   1.0000   1.0000   1.0000   1.0000  -0.0000  -0.0000  -0.0000
    -0.0000  -0.0000  -0.0000

          k = 0.0000 0.1667 0.3333 (  8367 PWs)   bands (ev):

   -83.8793 -83.8489 -83.8369 -83.8347 -44.3455 -44.3380 -44.3266 -44.2838
   -44.2549 -44.2094 -44.2088 -44.2042 -44.2035 -44.1878 -44.1464 -44.1285
    12.0704  14.7566  15.4999  15.5656  15.8216  15.8639  15.8966  16.7292
    17.2677  17.4205  17.5974  17.7181  17.7331  18.2523  18.7288  18.8167
    18.8221  18.8602  19.0120  19.3162  19.3240  19.9793  23.6574  26.2576
    27.8576  30.6974  31.3925

     occupation numbers 
     1.0000   1.0000   1.0000   1.0000   1.0000   1.0000   1.0000   1.0000
     1.0000   1.0000   1.0000   1.0000   1.0000   1.0000   1.0000   1.0000
     1.0000   1.0000   1.0000   1.0000   1.0000   1.0000   1.0000   1.0000
     1.0000   1.0000   1.0000   1.0000   1.0000   1.0000   1.0000   1.0000
     1.0000   1.0000   1.0000   1.0000   1.0000   0.8671  -0.0000  -0.0000
    -0.0000  -0.0000  -0.0000

          k = 0.0000 0.1667 0.4167 (  8382 PWs)   bands (ev):

   -83.8720 -83.8562 -83.8363 -83.8352 -44.3319 -44.3180 -44.3004 -44.3000
   -44.2750 -44.2397 -44.2069 -44.2041 -44.1897 -44.1723 -44.1602 -44.1413
    12.8020  14.2879  15.7563  15.8015  16.0354  16.0848  16.1909  16.5060
    16.7872  16.9624  17.5180  17.5831  17.9626  18.2829  18.5213  18.5610
    18.6157  18.7565  19.0161  19.3145  19.3159  19.4836  24.6074  26.6908
    27.4182  30.0017  30.9961

     occupation numbers 
     1.0000   1.0000   1.0000   1.0000   1.0000   1.0000   1.0000   1.0000
     1.0000   1.0000   1.0000   1.0000   1.0000   1.0000   1.0000   1.0000
     1.0000   1.0000   1.0000   1.0000   1.0000   1.0000   1.0000   1.0000
     1.0000   1.0000   1.0000   1.0000   1.0000   1.0000   1.0000   1.0000
     1.0000   1.0000   1.0000   1.0000   1.0000   1.0000  -0.0000  -0.0000
    -0.0000  -0.0000  -0.0000

          k = 0.0000 0.1667-0.5000 (  8386 PWs)   bands (ev):

   -83.8641 -83.8641 -83.8358 -83.8358 -44.3166 -44.3166 -44.2965 -44.2965
   -44.2705 -44.2705 -44.2052 -44.2051 -44.1750 -44.1750 -44.1564 -44.1563
    13.5830  13.5830  15.8852  15.8852  16.2688  16.2688  16.3840  16.3840
    16.5482  16.5482  17.5095  17.5095  18.2302  18.2302  18.4762  18.4762
    18.5109  18.5109  19.2083  19.2083  19.3138  19.3138  25.6122  25.6123
    28.6720  28.6720  31.4281

     occupation numbers 
     1.0000   1.0000   1.0000   1.0000   1.0000   1.0000   1.0000   1.0000
     1.0000   1.0000   1.0000   1.0000   1.0000   1.0000   1.0000   1.0000
     1.0000   1.0000   1.0000   1.0000   1.0000   1.0000   1.0000   1.0000
     1.0000   1.0000   1.0000   1.0000   1.0000   1.0000   1.0000   1.0000
     1.0000   1.0000   1.0000   1.0000   1.0000   1.0000  -0.0000  -0.0000
    -0.0000  -0.0000  -0.0000

          k = 0.0000 0.2500 0.2500 (  8378 PWs)   bands (ev):

   -83.8812 -83.8418 -83.8418 -83.8350 -44.3456 -44.3456 -44.3423 -44.2832
   -44.2282 -44.2282 -44.2057 -44.1981 -44.1981 -44.1981 -44.1440 -44.1201
    11.8983  15.2127  15.2127  15.4960  15.7881  15.7881  15.7946  16.8411
    17.5232  17.5232  17.5404  17.6182  17.6321  18.2943  18.7894  18.8335
    18.9893  18.9893  19.0900  19.0900  19.2309  21.5725  21.5725  26.0045
    27.6684  30.6591  33.3990

     occupation numbers 
     1.0000   1.0000   1.0000   1.0000   1.0000   1.0000   1.0000   1.0000
     1.0000   1.0000   1.0000   1.0000   1.0000   1.0000   1.0000   1.0000
     1.0000   1.0000   1.0000   1.0000   1.0000   1.0000   1.0000   1.0000
     1.0000   1.0000   1.0000   1.0000   1.0000   1.0000   1.0000   1.0000
     1.0000   1.0000   1.0000   1.0000   1.0000  -0.0000  -0.0000  -0.0000
    -0.0000  -0.0000  -0.0000

          k = 0.0000 0.2500 0.3333 (  8383 PWs)   bands (ev):

   -83.8754 -83.8475 -83.8408 -83.8360 -44.3405 -44.3296 -44.3257 -44.2982
   -44.2450 -44.2323 -44.2159 -44.1946 -44.1927 -44.1828 -44.1564 -44.1261
    12.4871  15.0464  15.5313  15.7126  15.9464  15.9481  15.9929  16.7061
    17.0420  17.2737  17.2853  17.5303  17.7793  18.2273  18.6210  18.7736
    18.8156  18.8500  19.0087  19.0883  19.1566  20.6182  22.3710  26.3506
    26.9751  30.9081  31.9701

     occupation numbers 
     1.0000   1.0000   1.0000   1.0000   1.0000   1.0000   1.0000   1.0000
     1.0000   1.0000   1.0000   1.0000   1.0000   1.0000   1.0000   1.0000
     1.0000   1.0000   1.0000   1.0000   1.0000   1.0000   1.0000   1.0000
     1.0000   1.0000   1.0000   1.0000   1.0000   1.0000   1.0000   1.0000
     1.0000   1.0000   1.0000   1.0000   1.0000  -0.0000  -0.0000  -0.0000
    -0.0000  -0.0000  -0.0000

          k = 0.0000 0.2500 0.4167 (  8370 PWs)   bands (ev):

   -83.8687 -83.8542 -83.8396 -83.8371 -44.3332 -44.3119 -44.3094 -44.3062
   -44.2645 -44.2595 -44.2015 -44.1915 -44.1900 -44.1707 -44.1663 -44.1364
    13.1866  14.6003  15.8343  15.9652  16.0596  16.1320  16.2529  16.5293
    16.6234  16.9098  17.2192  17.4486  17.9874  18.2545  18.4825  18.5244
    18.5707  18.6373  19.0895  19.1161  19.2390  19.9602  23.2202  25.1791
    28.0813  30.5957  31.2864

     occupation numbers 
     1.0000   1.0000   1.0000   1.0000   1.0000   1.0000   1.0000   1.0000
     1.0000   1.0000   1.0000   1.0000   1.0000   1.0000   1.0000   1.0000
     1.0000   1.0000   1.0000   1.0000   1.0000   1.0000   1.0000   1.0000
     1.0000   1.0000   1.0000   1.0000   1.0000   1.0000   1.0000   1.0000
     1.0000   1.0000   1.0000   1.0000   1.0000   1.0109  -0.0000  -0.0000
    -0.0000  -0.0000  -0.0000

          k = 0.0000 0.2500-0.5000 (  8346 PWs)   bands (ev):

   -83.8615 -83.8615 -83.8384 -83.8383 -44.3237 -44.3237 -44.2857 -44.2857
   -44.2854 -44.2854 -44.1897 -44.1897 -44.1861 -44.1861 -44.1503 -44.1503
    13.9296  13.9296  16.0315  16.0315  16.2669  16.2669  16.3316  16.3316
    16.5624  16.5624  17.3109  17.3109  18.2415  18.2415  18.4104  18.4104
    18.4552  18.4552  19.0968  19.0968  19.5358  19.5358  24.1454  24.1454
    29.2945  29.2945  31.8020

     occupation numbers 
     1.0000   1.0000   1.0000   1.0000   1.0000   1.0000   1.0000   1.0000
     1.0000   1.0000   1.0000   1.0000   1.0000   1.0000   1.0000   1.0000
     1.0000   1.0000   1.0000   1.0000   1.0000   1.0000   1.0000   1.0000
     1.0000   1.0000   1.0000   1.0000   1.0000   1.0000   1.0000   1.0000
     1.0000   1.0000   1.0000   1.0000   1.0000   1.0000  -0.0000  -0.0000
    -0.0000  -0.0000  -0.0000

          k = 0.0000 0.3333 0.3333 (  8388 PWs)   bands (ev):

   -83.8703 -83.8458 -83.8458 -83.8376 -44.3315 -44.3315 -44.3111 -44.3096
   -44.2564 -44.2320 -44.2320 -44.1835 -44.1781 -44.1781 -44.1694 -44.1283
    13.0393  15.3926  15.3926  15.8424  16.0926  16.1174  16.1174  16.6438
    16.9161  16.9161  17.0689  17.4635  17.8821  18.1563  18.4828  18.6492
    18.6492  18.8185  18.8186  19.0149  19.2501  21.3000  21.3000  25.0118
    27.8813  31.2329  32.7267

     occupation numbers 
     1.0000   1.0000   1.0000   1.0000   1.0000   1.0000   1.0000   1.0000
     1.0000   1.0000   1.0000   1.0000   1.0000   1.0000   1.0000   1.0000
     1.0000   1.0000   1.0000   1.0000   1.0000   1.0000   1.0000   1.0000
     1.0000   1.0000   1.0000   1.0000   1.0000   1.0000   1.0000   1.0000
     1.0000   1.0000   1.0000   1.0000   1.0000  -0.0000  -0.0000  -0.0000
    -0.0000  -0.0000  -0.0000

          k = 0.0000 0.3333 0.4167 (  8375 PWs)   bands (ev):

   -83.8644 -83.8517 -83.8438 -83.8396 -44.3312 -44.3211 -44.3183 -44.2909
   -44.2798 -44.2508 -44.2169 -44.1845 -44.1774 -44.1751 -44.1617 -44.1355
    13.6872  14.9782  15.7200  15.9339  16.2499  16.2595  16.3289  16.5395
    16.6188  16.8254  16.9810  17.3454  18.0500  18.1506  18.3640  18.4572
    18.4600  18.5382  18.8307  18.9174  19.5603  20.5081  22.0431  23.8601
    28.9334  31.3724  31.6843

     occupation numbers 
     1.0000   1.0000   1.0000   1.0000   1.0000   1.0000   1.0000   1.0000
     1.0000   1.0000   1.0000   1.0000   1.0000   1.0000   1.0000   1.0000
     1.0000   1.0000   1.0000   1.0000   1.0000   1.0000   1.0000   1.0000
     1.0000   1.0000   1.0000   1.0000   1.0000   1.0000   1.0000   1.0000
     1.0000   1.0000   1.0000   1.0000   1.0000  -0.0000  -0.0000  -0.0000
    -0.0000  -0.0000  -0.0000

          k = 0.0000 0.3333-0.5000 (  8374 PWs)   bands (ev):

   -83.8581 -83.8581 -83.8417 -83.8417 -44.3278 -44.3278 -44.3008 -44.3008
   -44.2709 -44.2709 -44.2007 -44.2007 -44.1747 -44.1747 -44.1470 -44.1470
    14.3663  14.3663  15.9213  15.9213  16.4026  16.4026  16.4056  16.4056
    16.5706  16.5706  17.1613  17.1613  18.2664  18.2664  18.2746  18.2746
    18.3445  18.3445  18.8600  18.8600  19.9576  19.9576  22.8823  22.8823
    30.1034  30.1034  32.2783

     occupation numbers 
     1.0000   1.0000   1.0000   1.0000   1.0000   1.0000   1.0000   1.0000
     1.0000   1.0000   1.0000   1.0000   1.0000   1.0000   1.0000   1.0000
     1.0000   1.0000   1.0000   1.0000   1.0000   1.0000   1.0000   1.0000
     1.0000   1.0000   1.0000   1.0000   1.0000   1.0000   1.0000   1.0000
     1.0000   1.0000   1.0000   1.0000   1.0059   1.0059  -0.0000  -0.0000
    -0.0000  -0.0000  -0.0000

          k = 0.0000 0.4167 0.4167 (  8388 PWs)   bands (ev):

   -83.8594 -83.8488 -83.8488 -83.8425 -44.3265 -44.3248 -44.3247 -44.2983
   -44.2731 -44.2348 -44.2348 -44.2005 -44.1678 -44.1600 -44.1600 -44.1393
    14.2589  15.3525  15.3525  15.8284  16.4080  16.4080  16.4740  16.5234
    16.7074  16.8034  16.8034  17.2255  18.0824  18.1673  18.2434  18.2897
    18.2897  18.5728  18.5728  18.7545  19.9574  21.1294  21.1294  22.7582
    29.9368  32.2130  32.3000

     occupation numbers 
     1.0000   1.0000   1.0000   1.0000   1.0000   1.0000   1.0000   1.0000
     1.0000   1.0000   1.0000   1.0000   1.0000   1.0000   1.0000   1.0000
     1.0000   1.0000   1.0000   1.0000   1.0000   1.0000   1.0000   1.0000
     1.0000   1.0000   1.0000   1.0000   1.0000   1.0000   1.0000   1.0000
     1.0000   1.0000   1.0000   1.0000   1.0056  -0.0000  -0.0000  -0.0000
    -0.0000  -0.0000  -0.0000

          k = 0.0000 0.4167-0.5000 (  8380 PWs)   bands (ev):

   -83.8541 -83.8541 -83.8456 -83.8456 -44.3277 -44.3277 -44.3136 -44.3136
   -44.2540 -44.2540 -44.2176 -44.2176 -44.1619 -44.1619 -44.1477 -44.1477
    14.8385  14.8385  15.6459  15.6459  16.4771  16.4771  16.5631  16.5631
    16.6539  16.6540  17.0366  17.0366  18.1355  18.1355  18.2022  18.2022
    18.3447  18.3447  18.6409  18.6409  20.4580  20.4580  21.8620  21.8620
    31.0649  31.0649  32.8879

     occupation numbers 
     1.0000   1.0000   1.0000   1.0000   1.0000   1.0000   1.0000   1.0000
     1.0000   1.0000   1.0000   1.0000   1.0000   1.0000   1.0000   1.0000
     1.0000   1.0000   1.0000   1.0000   1.0000   1.0000   1.0000   1.0000
     1.0000   1.0000   1.0000   1.0000   1.0000   1.0000   1.0000   1.0000
     1.0000   1.0000   1.0000   1.0000  -0.0000  -0.0000  -0.0000  -0.0000
    -0.0000  -0.0000  -0.0000

          k = 0.0000-0.5000-0.5000 (  8396 PWs)   bands (ev):

   -83.8499 -83.8499 -83.8499 -83.8499 -44.3229 -44.3229 -44.3229 -44.3229
   -44.2358 -44.2358 -44.2358 -44.2358 -44.1527 -44.1527 -44.1527 -44.1527
    15.2808  15.2808  15.2808  15.2808  16.5323  16.5323  16.5323  16.5323
    16.8786  16.8786  16.8786  16.8786  18.1067  18.1067  18.1067  18.1067
    18.4655  18.4655  18.4655  18.4655  21.0721  21.0721  21.0721  21.0721
    32.1539  32.1539  32.1539

     occupation numbers 
     1.0000   1.0000   1.0000   1.0000   1.0000   1.0000   1.0000   1.0000
     1.0000   1.0000   1.0000   1.0000   1.0000   1.0000   1.0000   1.0000
     1.0000   1.0000   1.0000   1.0000   1.0000   1.0000   1.0000   1.0000
     1.0000   1.0000   1.0000   1.0000   1.0000   1.0000   1.0000   1.0000
     1.0000   1.0000   1.0000   1.0000  -0.0000  -0.0000  -0.0000  -0.0000
    -0.0000  -0.0000  -0.0000

          k = 0.0833 0.0833 0.0833 (  8382 PWs)   bands (ev):

   -83.8956 -83.8348 -83.8348 -83.8347 -44.3809 -44.3809 -44.3809 -44.2271
   -44.2271 -44.2271 -44.2161 -44.2160 -44.2160 -44.1305 -44.1133 -44.1133
    10.5299  14.8433  14.8433  14.8433  15.3495  15.3495  15.3495  17.1917
    17.3383  17.3383  18.5852  18.5852  19.0249  19.0249  19.0249  19.2805
    19.2805  19.2805  19.4850  19.4850  19.4850  22.5156  22.5156  22.5156
    30.5948  30.5948  30.5948

     occupation numbers 
     1.0000   1.0000   1.0000   1.0000   1.0000   1.0000   1.0000   1.0000
     1.0000   1.0000   1.0000   1.0000   1.0000   1.0000   1.0000   1.0000
     1.0000   1.0000   1.0000   1.0000   1.0000   1.0000   1.0000   1.0000
     1.0000   1.0000   1.0000   1.0000   1.0000   1.0000   1.0000   1.0000
     1.0000   1.0000   1.0000   1.0000   1.0000  -0.0000  -0.0000  -0.0000
    -0.0000  -0.0000  -0.0000

          k = 0.0833 0.0833 0.1667 (  8379 PWs)   bands (ev):

   -83.8925 -83.8379 -83.8347 -83.8347 -44.3734 -44.3734 -44.3692 -44.2369
   -44.2369 -44.2205 -44.2142 -44.2142 -44.2107 -44.1473 -44.1186 -44.1158
    10.8141  14.8616  14.9920  14.9920  15.4387  15.4502  15.4502  17.1015
    17.4047  17.4115  18.4924  18.5475  18.5475  18.6342  18.8060  19.1315
    19.1682  19.1682  19.4530  19.4626  19.4626  21.4587  23.2032  23.2032
    30.6593  30.6593  32.1845

     occupation numbers 
     1.0000   1.0000   1.0000   1.0000   1.0000   1.0000   1.0000   1.0000
     1.0000   1.0000   1.0000   1.0000   1.0000   1.0000   1.0000   1.0000
     1.0000   1.0000   1.0000   1.0000   1.0000   1.0000   1.0000   1.0000
     1.0000   1.0000   1.0000   1.0000   1.0000   1.0000   1.0000   1.0000
     1.0000   1.0000   1.0000   1.0000   1.0000  -0.0000  -0.0000  -0.0000
    -0.0000  -0.0000  -0.0000

          k = 0.0833 0.0833 0.2500 (  8378 PWs)   bands (ev):

   -83.8875 -83.8429 -83.8347 -83.8347 -44.3615 -44.3615 -44.3502 -44.2502
   -44.2502 -44.2134 -44.2134 -44.2102 -44.2023 -44.1706 -44.1270 -44.1232
    11.2767  14.8278  15.2162  15.2162  15.5823  15.6173  15.6173  16.9425
    17.5244  17.5323  17.9858  17.9858  18.3598  18.4502  18.7120  18.9201
    18.9977  18.9977  19.3870  19.4415  19.4415  20.3708  24.0929  24.0929
    30.6024  30.6026  31.4534

     occupation numbers 
     1.0000   1.0000   1.0000   1.0000   1.0000   1.0000   1.0000   1.0000
     1.0000   1.0000   1.0000   1.0000   1.0000   1.0000   1.0000   1.0000
     1.0000   1.0000   1.0000   1.0000   1.0000   1.0000   1.0000   1.0000
     1.0000   1.0000   1.0000   1.0000   1.0000   1.0000   1.0000   1.0000
     1.0000   1.0000   1.0000   1.0000   1.0000  -0.0000  -0.0000  -0.0000
    -0.0000  -0.0000  -0.0000

          k = 0.0833 0.0833 0.3333 (  8387 PWs)   bands (ev):

   -83.8809 -83.8494 -83.8347 -83.8347 -44.3462 -44.3462 -44.3253 -44.2663
   -44.2663 -44.2133 -44.2133 -44.1989 -44.1968 -44.1913 -44.1381 -44.1346
    11.8981  14.6286  15.4772  15.4772  15.7723  15.8457  15.8457  16.7343
    17.4384  17.4384  17.6563  17.6983  18.0284  18.2444  18.6701  18.7844
    18.7844  18.8131  19.2929  19.4305  19.4306  19.5264  25.0868  25.0868
    29.6944  29.6944  31.3258

     occupation numbers 
     1.0000   1.0000   1.0000   1.0000   1.0000   1.0000   1.0000   1.0000
     1.0000   1.0000   1.0000   1.0000   1.0000   1.0000   1.0000   1.0000
     1.0000   1.0000   1.0000   1.0000   1.0000   1.0000   1.0000   1.0000
     1.0000   1.0000   1.0000   1.0000   1.0000   1.0000   1.0000   1.0000
     1.0000   1.0000   1.0000   1.0000   1.0000   1.0000  -0.0000  -0.0000
    -0.0000  -0.0000  -0.0000

          k = 0.0833 0.0833 0.4167 (  8394 PWs)   bands (ev):

   -83.8733 -83.8570 -83.8347 -83.8347 -44.3290 -44.3290 -44.2958 -44.2838
   -44.2838 -44.2306 -44.2134 -44.2134 -44.1813 -44.1785 -44.1509 -44.1490
[...]
    -0.0000  -0.0000  -0.0000

          k = 0.2500 0.2500-0.5000 (  8388 PWs)   bands (ev):

   -82.9910 -82.9910 -82.9742 -82.9742 -43.5278 -43.5278 -43.4897 -43.4897
   -43.3854 -43.3854 -43.3315 -43.3314 -43.3133 -43.3133 -43.3126 -43.3126
    14.4043  14.4043  16.0515  16.0515  16.8736  16.8736  17.2675  17.2675
    17.7710  17.7710  17.9265  17.9265  18.3950  18.3950  18.6309  18.6309
    19.9909  19.9909  20.0546  20.0546  20.0954  20.0954  23.7973  23.7973
    26.9593  26.9593  31.7438

     occupation numbers 
     1.0000   1.0000   1.0000   1.0000   1.0000   1.0000   1.0000   1.0000
     1.0000   1.0000   1.0000   1.0000   1.0000   1.0000   1.0000   1.0000
     1.0000   1.0000   1.0000   1.0000   1.0000   1.0000   1.0000   1.0000
     1.0000   1.0000   1.0000   1.0000   1.0000   1.0000   1.0000   1.0000
     0.2208   0.2208  -0.0000  -0.0000  -0.0000  -0.0000  -0.0000  -0.0000
    -0.0000  -0.0000  -0.0000

          k = 0.2500 0.3333 0.3333 (  8365 PWs)   bands (ev):

   -82.9987 -82.9784 -82.9784 -82.9749 -43.5313 -43.5256 -43.5256 -43.4691
   -43.3785 -43.3590 -43.3590 -43.3293 -43.3278 -43.3278 -43.2982 -43.2891
    13.5984  15.6112  15.6112  15.9004  16.8852  16.9780  16.9780  17.5624
    17.8182  17.8182  17.8956  18.1505  18.1886  18.5875  18.5875  18.6074
    19.4932  19.7730  20.1605  20.1756  20.1756  22.0132  22.0132  23.3511
    27.1912  28.7317  28.7317

     occupation numbers 
     1.0000   1.0000   1.0000   1.0000   1.0000   1.0000   1.0000   1.0000
     1.0000   1.0000   1.0000   1.0000   1.0000   1.0000   1.0000   1.0000
     1.0000   1.0000   1.0000   1.0000   1.0000   1.0000   1.0000   1.0000
     1.0000   1.0000   1.0000   1.0000   1.0000   1.0000   1.0000   1.0000
     1.0000   1.0000  -0.0000  -0.0000  -0.0000  -0.0000  -0.0000  -0.0000
    -0.0000  -0.0000  -0.0000

          k = 0.2500 0.3333 0.4167 (  8370 PWs)   bands (ev):

   -82.9938 -82.9833 -82.9775 -82.9757 -43.5364 -43.5335 -43.5211 -43.4917
   -43.3721 -43.3619 -43.3366 -43.3244 -43.3237 -43.3174 -43.3077 -43.2949
    14.1284  15.1827  15.7008  15.8415  17.0484  17.1113  17.2522  17.5692
    17.8437  17.8584  17.9383  18.0389  18.2018  18.4124  18.4887  18.4900
    19.6345  20.0319  20.0828  20.0975  20.1003  21.0462  22.4532  23.2436
    26.8674  27.7736  29.5294

     occupation numbers 
     1.0000   1.0000   1.0000   1.0000   1.0000   1.0000   1.0000   1.0000
     1.0000   1.0000   1.0000   1.0000   1.0000   1.0000   1.0000   1.0000
     1.0000   1.0000   1.0000   1.0000   1.0000   1.0000   1.0000   1.0000
     1.0000   1.0000   1.0000   1.0000   1.0000   1.0000   1.0000   1.0000
     1.0000  -0.0000  -0.0000  -0.0000  -0.0000  -0.0000  -0.0000  -0.0000
    -0.0000  -0.0000  -0.0000

          k = 0.2500 0.3333-0.5000 (  8362 PWs)   bands (ev):

   -82.9885 -82.9885 -82.9766 -82.9766 -43.5373 -43.5373 -43.5095 -43.5095
   -43.3664 -43.3664 -43.3224 -43.3224 -43.3199 -43.3199 -43.3054 -43.3054
    14.6741  14.6741  15.7745  15.7745  17.1363  17.1363  17.4737  17.4737
    17.9140  17.9140  17.9267  17.9267  18.2799  18.2799  18.4462  18.4462
    19.8858  19.8859  20.0645  20.0645  20.3961  20.3961  22.8977  22.8977
    27.1127  27.1127  30.4584

     occupation numbers 
     1.0000   1.0000   1.0000   1.0000   1.0000   1.0000   1.0000   1.0000
     1.0000   1.0000   1.0000   1.0000   1.0000   1.0000   1.0000   1.0000
     1.0000   1.0000   1.0000   1.0000   1.0000   1.0000   1.0000   1.0000
     1.0000   1.0000   1.0000   1.0000   1.0000   1.0000   1.0000   1.0000
     1.0000   1.0000  -0.0000  -0.0000  -0.0000  -0.0000  -0.0000  -0.0000
    -0.0000  -0.0000  -0.0000

          k = 0.2500 0.4167 0.4167 (  8352 PWs)   bands (ev):

   -82.9898 -82.9814 -82.9814 -82.9775 -43.5412 -43.5332 -43.5332 -43.5113
   -43.3608 -43.3430 -43.3430 -43.3172 -43.3170 -43.3130 -43.3130 -43.2963
    14.5415  15.3441  15.3441  15.6651  17.2651  17.4062  17.4062  17.7031
    17.9102  17.9102  17.9756  18.0310  18.1553  18.3265  18.3265  18.3525
    19.6620  19.9924  19.9924  20.0233  20.3596  21.4821  21.4821  22.6285
    27.0652  28.4800  28.4800

     occupation numbers 
     1.0000   1.0000   1.0000   1.0000   1.0000   1.0000   1.0000   1.0000
     1.0000   1.0000   1.0000   1.0000   1.0000   1.0000   1.0000   1.0000
     1.0000   1.0000   1.0000   1.0000   1.0000   1.0000   1.0000   1.0000
     1.0000   1.0000   1.0000   1.0000   1.0000   1.0000   1.0000   1.0000
     1.0000   0.1506   0.1505  -0.0004  -0.0000  -0.0000  -0.0000  -0.0000
    -0.0000  -0.0000  -0.0000

          k = 0.2500 0.4167-0.5000 (  8366 PWs)   bands (ev):

   -82.9856 -82.9856 -82.9795 -82.9795 -43.5402 -43.5402 -43.5256 -43.5256
   -43.3512 -43.3512 -43.3285 -43.3285 -43.3130 -43.3130 -43.3030 -43.3030
    14.9546  14.9546  15.5013  15.5013  17.4052  17.4052  17.6540  17.6540
    17.9247  17.9247  18.0155  18.0155  18.2051  18.2051  18.2949  18.2949
    19.8119  19.8119  19.9662  19.9662  20.8004  20.8004  22.0089  22.0089
    27.6444  27.6444  29.3442

     occupation numbers 
     1.0000   1.0000   1.0000   1.0000   1.0000   1.0000   1.0000   1.0000
     1.0000   1.0000   1.0000   1.0000   1.0000   1.0000   1.0000   1.0000
     1.0000   1.0000   1.0000   1.0000   1.0000   1.0000   1.0000   1.0000
     1.0000   1.0000   1.0000   1.0000   1.0000   1.0000   1.0000   1.0000
     1.0000   1.0000   1.0294   1.0294  -0.0000  -0.0000  -0.0000  -0.0000
    -0.0000  -0.0000  -0.0000

          k = 0.2500-0.5000-0.5000 (  8392 PWs)   bands (ev):

   -82.9825 -82.9825 -82.9825 -82.9825 -43.5361 -43.5361 -43.5361 -43.5361
   -43.3389 -43.3389 -43.3389 -43.3388 -43.3058 -43.3058 -43.3058 -43.3058
    15.2302  15.2302  15.2302  15.2302  17.6134  17.6134  17.6134  17.6134
    18.0072  18.0072  18.0072  18.0072  18.2017  18.2017  18.2017  18.2017
    19.8488  19.8488  19.8488  19.8488  21.3103  21.3103  21.3103  21.3103
    28.4030  28.4030  28.4030

     occupation numbers 
     1.0000   1.0000   1.0000   1.0000   1.0000   1.0000   1.0000   1.0000
     1.0000   1.0000   1.0000   1.0000   1.0000   1.0000   1.0000   1.0000
     1.0000   1.0000   1.0000   1.0000   1.0000   1.0000   1.0000   1.0000
     1.0000   1.0000   1.0000   1.0000   1.0000   1.0000   1.0000   1.0000
     1.0000   1.0000   1.0000   1.0000  -0.0000  -0.0000  -0.0000  -0.0000
    -0.0000  -0.0000  -0.0000

          k = 0.3333 0.3333 0.3333 (  8378 PWs)   bands (ev):

   -82.9952 -82.9784 -82.9784 -82.9784 -43.5385 -43.5385 -43.5385 -43.4936
   -43.3507 -43.3507 -43.3507 -43.3234 -43.3234 -43.3234 -43.2950 -43.2950
    13.9742  15.5761  15.5761  15.5761  17.1662  17.1662  17.1662  17.7245
    17.9759  17.9759  17.9759  18.1144  18.1144  18.4137  18.4137  18.4137
    19.7324  19.7324  20.2026  20.2026  20.2026  22.1395  22.1395  22.1395
    27.6835  27.6835  27.6835

     occupation numbers 
     1.0000   1.0000   1.0000   1.0000   1.0000   1.0000   1.0000   1.0000
     1.0000   1.0000   1.0000   1.0000   1.0000   1.0000   1.0000   1.0000
     1.0000   1.0000   1.0000   1.0000   1.0000   1.0000   1.0000   1.0000
     1.0000   1.0000   1.0000   1.0000   1.0000   1.0000   1.0000   1.0000
     1.0000   1.0000  -0.0000  -0.0000  -0.0000  -0.0000  -0.0000  -0.0000
    -0.0000  -0.0000  -0.0000

          k = 0.3333 0.3333 0.4167 (  8356 PWs)   bands (ev):

   -82.9911 -82.9824 -82.9783 -82.9783 -43.5470 -43.5470 -43.5380 -43.5145
   -43.3467 -43.3467 -43.3273 -43.3191 -43.3191 -43.3165 -43.3018 -43.2986
    14.3902  15.2100  15.5439  15.5439  17.3222  17.3222  17.4671  17.8489
    18.0289  18.0388  18.1013  18.1171  18.1171  18.2567  18.3065  18.3065
    19.8669  19.9356  20.1567  20.1568  20.1792  21.0914  22.2561  22.2561
    27.0053  27.0053  28.3786

     occupation numbers 
     1.0000   1.0000   1.0000   1.0000   1.0000   1.0000   1.0000   1.0000
     1.0000   1.0000   1.0000   1.0000   1.0000   1.0000   1.0000   1.0000
     1.0000   1.0000   1.0000   1.0000   1.0000   1.0000   1.0000   1.0000
     1.0000   1.0000   1.0000   1.0000   1.0000   1.0000   1.0000   1.0000
     1.0000   1.0000  -0.0000  -0.0000  -0.0000  -0.0000  -0.0000  -0.0000
    -0.0000  -0.0000  -0.0000

          k = 0.3333 0.3333-0.5000 (  8352 PWs)   bands (ev):

   -82.9868 -82.9868 -82.9783 -82.9783 -43.5500 -43.5500 -43.5297 -43.5297
   -43.3456 -43.3456 -43.3174 -43.3174 -43.3096 -43.3096 -43.3092 -43.3092
    14.8105  14.8105  15.5312  15.5312  17.3802  17.3802  17.7345  17.7345
    18.0360  18.0360  18.1499  18.1499  18.1863  18.1863  18.2643  18.2643
    20.0883  20.0883  20.1237  20.1237  20.3115  20.3115  22.3046  22.3046
    26.7686  26.7686  29.2342

     occupation numbers 
     1.0000   1.0000   1.0000   1.0000   1.0000   1.0000   1.0000   1.0000
     1.0000   1.0000   1.0000   1.0000   1.0000   1.0000   1.0000   1.0000
     1.0000   1.0000   1.0000   1.0000   1.0000   1.0000   1.0000   1.0000
     1.0000   1.0000   1.0000   1.0000   1.0000   1.0000   1.0000   1.0000
    -0.0000  -0.0000  -0.0000  -0.0000  -0.0000  -0.0000  -0.0000  -0.0000
    -0.0000  -0.0000  -0.0000

          k = 0.3333 0.4167 0.4167 (  8355 PWs)   bands (ev):

   -82.9880 -82.9814 -82.9814 -82.9793 -43.5548 -43.5500 -43.5500 -43.5329
   -43.3368 -43.3271 -43.3271 -43.3141 -43.3124 -43.3124 -43.3065 -43.2993
    14.6713  15.2483  15.2483  15.4105  17.5106  17.6020  17.6020  17.9774
    18.0370  18.1538  18.1538  18.1677  18.1795  18.2627  18.2627  18.3278
    19.8798  20.1338  20.1379  20.1379  20.1622  21.2804  21.2804  21.9331
    26.7382  27.4995  27.4995

     occupation numbers 
     1.0000   1.0000   1.0000   1.0000   1.0000   1.0000   1.0000   1.0000
     1.0000   1.0000   1.0000   1.0000   1.0000   1.0000   1.0000   1.0000
     1.0000   1.0000   1.0000   1.0000   1.0000   1.0000   1.0000   1.0000
     1.0000   1.0000   1.0000   1.0000   1.0000   1.0000   1.0000   1.0000
     1.0000  -0.0000  -0.0000  -0.0000  -0.0000  -0.0000  -0.0000  -0.0000
    -0.0000  -0.0000  -0.0000

          k = 0.3333 0.4167-0.5000 (  8366 PWs)   bands (ev):

   -82.9847 -82.9847 -82.9804 -82.9803 -43.5558 -43.5558 -43.5451 -43.5451
   -43.3307 -43.3307 -43.3145 -43.3145 -43.3112 -43.3112 -43.3046 -43.3046
    14.9580  14.9580  15.3121  15.3121  17.6146  17.6146  17.8348  17.8348
    18.0655  18.0655  18.1272  18.1272  18.3038  18.3038  18.3973  18.3973
    20.0211  20.0211  20.0993  20.0993  20.5519  20.5519  21.5772  21.5772
    26.9319  26.9319  28.2250

     occupation numbers 
     1.0000   1.0000   1.0000   1.0000   1.0000   1.0000   1.0000   1.0000
     1.0000   1.0000   1.0000   1.0000   1.0000   1.0000   1.0000   1.0000
     1.0000   1.0000   1.0000   1.0000   1.0000   1.0000   1.0000   1.0000
     1.0000   1.0000   1.0000   1.0000   1.0000   1.0000   1.0000   1.0000
    -0.0008  -0.0008  -0.0000  -0.0000  -0.0000  -0.0000  -0.0000  -0.0000
    -0.0000  -0.0000  -0.0000

          k = 0.3333-0.5000-0.5000 (  8352 PWs)   bands (ev):

   -82.9825 -82.9825 -82.9825 -82.9825 -43.5541 -43.5541 -43.5541 -43.5541
   -43.3211 -43.3211 -43.3211 -43.3211 -43.3058 -43.3058 -43.3058 -43.3058
    15.1223  15.1223  15.1223  15.1223  17.7826  17.7826  17.7826  17.7826
    18.0528  18.0528  18.0528  18.0528  18.4735  18.4735  18.4735  18.4735
    20.0204  20.0204  20.0204  20.0204  20.9619  20.9619  20.9619  20.9619
    27.4464  27.4464  27.4464

     occupation numbers 
     1.0000   1.0000   1.0000   1.0000   1.0000   1.0000   1.0000   1.0000
     1.0000   1.0000   1.0000   1.0000   1.0000   1.0000   1.0000   1.0000
     1.0000   1.0000   1.0000   1.0000   1.0000   1.0000   1.0000   1.0000
     1.0000   1.0000   1.0000   1.0000   1.0000   1.0000   1.0000   1.0000
    -0.0010  -0.0010  -0.0010  -0.0010  -0.0000  -0.0000  -0.0000  -0.0000
    -0.0000  -0.0000  -0.0000

          k = 0.4167 0.4167 0.4167 (  8354 PWs)   bands (ev):

   -82.9859 -82.9814 -82.9814 -82.9814 -43.5609 -43.5609 -43.5609 -43.5493
   -43.3183 -43.3183 -43.3183 -43.3105 -43.3105 -43.3105 -43.3029 -43.3029
    14.8171  15.1818  15.1818  15.1818  17.7371  17.7371  17.7371  17.9788
    17.9788  18.0532  18.0532  18.0532  18.6105  18.6105  18.6105  18.6183
    20.0469  20.0469  20.1783  20.1783  20.1783  21.0818  21.0818  21.0818
    26.8922  26.8922  26.8922

     occupation numbers 
     1.0000   1.0000   1.0000   1.0000   1.0000   1.0000   1.0000   1.0000
     1.0000   1.0000   1.0000   1.0000   1.0000   1.0000   1.0000   1.0000
     1.0000   1.0000   1.0000   1.0000   1.0000   1.0000   1.0000   1.0000
     1.0000   1.0000   1.0000   1.0000   1.0000   1.0000   1.0000   1.0000
    -0.0000  -0.0000  -0.0000  -0.0000  -0.0000  -0.0000  -0.0000  -0.0000
    -0.0000  -0.0000  -0.0000

          k = 0.4167 0.4167-0.5000 (  8348 PWs)   bands (ev):

   -82.9836 -82.9836 -82.9814 -82.9814 -43.5646 -43.5646 -43.5590 -43.5590
   -43.3165 -43.3165 -43.3087 -43.3087 -43.3068 -43.3068 -43.3067 -43.3067
    14.9849  14.9849  15.1582  15.1582  17.7868  17.7868  17.8982  17.8982
    17.9845  17.9845  18.0132  18.0132  18.7830  18.7830  18.7913  18.7913
    20.1491  20.1491  20.1570  20.1570  20.3395  20.3395  21.0002  21.0002
    26.6876  26.6876  27.3874

     occupation numbers 
     1.0000   1.0000   1.0000   1.0000   1.0000   1.0000   1.0000   1.0000
     1.0000   1.0000   1.0000   1.0000   1.0000   1.0000   1.0000   1.0000
     1.0000   1.0000   1.0000   1.0000   1.0000   1.0000   1.0000   1.0000
     1.0000   1.0000   1.0000   1.0000   1.0000   1.0000   1.0000   1.0000
    -0.0000  -0.0000  -0.0000  -0.0000  -0.0000  -0.0000  -0.0000  -0.0000
    -0.0000  -0.0000  -0.0000

          k = 0.4167-0.5000-0.5000 (  8360 PWs)   bands (ev):

   -82.9825 -82.9825 -82.9825 -82.9825 -43.5657 -43.5657 -43.5657 -43.5657
   -43.3097 -43.3097 -43.3097 -43.3097 -43.3058 -43.3058 -43.3058 -43.3058
    15.0491  15.0491  15.0491  15.0491  17.8896  17.8896  17.8896  17.8896
    17.9584  17.9584  17.9584  17.9584  19.0194  19.0194  19.0194  19.0194
    20.1314  20.1314  20.1314  20.1314  20.5023  20.5023  20.5023  20.5023
    26.8613  26.8613  26.8613

     occupation numbers 
     1.0000   1.0000   1.0000   1.0000   1.0000   1.0000   1.0000   1.0000
     1.0000   1.0000   1.0000   1.0000   1.0000   1.0000   1.0000   1.0000
     1.0000   1.0000   1.0000   1.0000   1.0000   1.0000   1.0000   1.0000
     1.0000   1.0000   1.0000   1.0000   1.0000   1.0000   1.0000   1.0000
    -0.0000  -0.0000  -0.0000  -0.0000  -0.0000  -0.0000  -0.0000  -0.0000
    -0.0000  -0.0000  -0.0000

          k =-0.5000-0.5000-0.5000 (  8240 PWs)   bands (ev):

   -82.9825 -82.9825 -82.9825 -82.9825 -43.5697 -43.5697 -43.5697 -43.5697
   -43.3057 -43.3057 -43.3057 -43.3057 -43.3057 -43.3057 -43.3057 -43.3057
    15.0233  15.0233  15.0233  15.0233  17.9262  17.9262  17.9262  17.9262
    17.9262  17.9262  17.9262  17.9262  19.3818  19.3818  19.3818  19.3818
    20.1698  20.1698  20.1698  20.1698  20.1698  20.1698  20.1698  20.1698
    26.6660  26.6660  26.6660

     occupation numbers 
     1.0000   1.0000   1.0000   1.0000   1.0000   1.0000   1.0000   1.0000
     1.0000   1.0000   1.0000   1.0000   1.0000   1.0000   1.0000   1.0000
     1.0000   1.0000   1.0000   1.0000   1.0000   1.0000   1.0000   1.0000
     1.0000   1.0000   1.0000   1.0000   1.0000   1.0000   1.0000   1.0000
    -0.0000  -0.0000  -0.0000  -0.0000  -0.0000  -0.0000  -0.0000  -0.0000
    -0.0000  -0.0000  -0.0000

     the Fermi energy is    19.9860 ev

!    total energy              =   -1716.64031128 Ry
     total all-electron energy =    -12166.368741 Ry
     estimated scf accuracy    <       0.00000003 Ry
     smearing contrib. (-TS)   =      -0.00000222 Ry
     internal energy E=F+TS    =   -1716.64030906 Ry

     The total energy is F=E-TS. E is the sum of the following terms:
     one-electron contribution =    -698.10169890 Ry
     hartree contribution      =     402.84604088 Ry
     xc contribution           =    -137.58361589 Ry
     ewald contribution        =    -919.40381991 Ry
     one-center paw contrib.   =    -364.39721525 Ry
      -> PAW hartree energy AE =     268.27794831 Ry
      -> PAW hartree energy PS =    -266.58660512 Ry
      -> PAW xc energy AE      =    -125.62663750 Ry
      -> PAW xc energy PS      =      32.83599103 Ry
      -> total E_H with PAW    =     404.53738407 Ry
      -> total E_XC with PAW   =    -230.37426236 Ry

     total magnetization       =     2.61 Bohr mag/cell
     absolute magnetization    =     2.94 Bohr mag/cell

     convergence has been achieved in  14 iterations

     Writing all to output data dir out/Ni.save/
 
     init_run     :      1.16s CPU     13.74s WALL (       1 calls)
     electrons    :    124.78s CPU    127.03s WALL (       1 calls)

     Called by init_run:
     wfcinit      :      0.91s CPU     13.30s WALL (       1 calls)
     potinit      :      0.14s CPU      0.31s WALL (       1 calls)
     hinit0       :      0.04s CPU      0.05s WALL (       1 calls)

     Called by electrons:
     c_bands      :    106.97s CPU    108.86s WALL (      14 calls)
     sum_band     :     15.53s CPU     15.80s WALL (      14 calls)
     v_of_rho     :      0.18s CPU      0.19s WALL (      15 calls)
     v_h          :      0.01s CPU      0.01s WALL (      15 calls)
     v_xc         :      0.17s CPU      0.18s WALL (      15 calls)
     newd         :      0.28s CPU      0.29s WALL (      15 calls)
     PAW_pot      :      1.87s CPU      1.95s WALL (      15 calls)
     mix_rho      :      0.05s CPU      0.05s WALL (      14 calls)

     Called by c_bands:
     init_us_2    :      0.88s CPU      0.92s WALL (    4704 calls)
     init_us_2:cp :      0.87s CPU      0.91s WALL (    4704 calls)
     cegterg      :    101.84s CPU    103.55s WALL (    2352 calls)

     Called by sum_band:
     sum_band:wei :      0.10s CPU      0.10s WALL (      14 calls)
     sum_band:loo :     14.84s CPU     15.10s WALL (      14 calls)
     sum_band:buf :      0.18s CPU      0.17s WALL (    2352 calls)
     sum_band:ini :      0.35s CPU      0.36s WALL (    2352 calls)
     sum_band:cal :      0.89s CPU      0.89s WALL (    2352 calls)
     sum_band:bec :      0.08s CPU      0.09s WALL (    2352 calls)
     addusdens    :      0.51s CPU      0.51s WALL (      14 calls)
                                        0.00s GPU  (      14 calls)
     addusd:skk   :      0.00s CPU      0.00s WALL (      14 calls)
                                        0.00s GPU  (      14 calls)

     Called by *egterg:
     cdiaghg      :     16.94s CPU     16.97s WALL (    8287 calls)
     cegterg:over :      4.04s CPU      4.08s WALL (    6103 calls)
     cegterg:upda :      1.60s CPU      1.64s WALL (    6103 calls)
     cegterg:last :      3.02s CPU      3.02s WALL (    4895 calls)
     h_psi        :     72.08s CPU     73.49s WALL (    8455 calls)
     s_psi        :      1.59s CPU      1.57s WALL (    8455 calls)
     g_psi        :      0.21s CPU      0.25s WALL (    6103 calls)

     Called by h_psi:
     h_psi:calbec :      3.10s CPU      3.06s WALL (    8455 calls)
     vloc_psi     :     66.76s CPU     68.11s WALL (    8455 calls)
     add_vuspsi   :      1.82s CPU      1.86s WALL (    8455 calls)

     General routines
     calbec       :      3.98s CPU      3.93s WALL (   10807 calls)
     fft          :      0.11s CPU      0.11s WALL (     369 calls)
     ffts         :      0.01s CPU      0.01s WALL (      58 calls)
     fftw         :     76.24s CPU     75.59s WALL (  633680 calls)
     interpolate  :      0.02s CPU      0.02s WALL (      30 calls)
 
     Parallel routines

     PAW routines
     PAW_pot      :      1.87s CPU      1.95s WALL (      15 calls)
     PAW_symme    :      0.03s CPU      0.03s WALL (      28 calls)
 
     PWSCF        :   2m 6.82s CPU   2m25.54s WALL

 
   This run was terminated on:   5:30:23  22Mar2024            

=------------------------------------------------------------------------------=
   JOB DONE.
=------------------------------------------------------------------------------=
