### Running on host: unam-asus

     Program PWSCF v.7.2 starts on 15Feb2024 at 16:38:47 

     This program is part of the open-source Quantum ESPRESSO suite
     for quantum simulation of materials; please cite
         "P. Giannozzi et al., J. Phys.:Condens. Matter 21 395502 (2009);
         "P. Giannozzi et al., J. Phys.:Condens. Matter 29 465901 (2017);
         "P. Giannozzi et al., J. Chem. Phys. 152 154105 (2020);
          URL http://www.quantum-espresso.org", 
     in publications or presentations arising from this work. More details at
     http://www.quantum-espresso.org/quote

     Parallel version (MPI), running on    10 processors

     MPI processes distributed on     1 nodes
     1288 MiB available memory on the printing compute node when the environment starts

     Reading input from scf.100.in

     Current dimensions of program PWSCF are:
     Max number of different atomic species (ntypx) = 10
     Max number of k-points (npk) =  40000
     Max angular momentum in pseudopotentials (lmaxx) =  4
     file Cu.pbe-spn-kjpaw_psl.1.0.0.UPF: wavefunction(s)  4S 3P 3D renormalized
     Found identity + (  0.0000 -0.5000 -0.5000) symmetry
     This is a supercell, fractional translations are disabled

     R & G space division:  proc/nbgrp/npool/nimage =      10
     Subspace diagonalization in iterative solution of the eigenvalue problem:
     a serial algorithm will be used


     Parallelization info
     --------------------
     sticks:   dense  smooth     PW     G-vecs:    dense   smooth      PW
     Min         145     145     42                 4183     4183     660
     Max         146     146     43                 4186     4186     665
     Sum        1457    1457    421                41851    41851    6619

     Using Slab Decomposition



     bravais-lattice index     =            1
     lattice parameter (alat)  =       6.7604  a.u.
     unit-cell volume          =     308.9657 (a.u.)^3
     number of atoms/cell      =            4
     number of atomic types    =            1
     number of electrons       =        76.00
     number of Kohn-Sham states=           46
     kinetic-energy cutoff     =     100.0000  Ry
     charge density cutoff     =     400.0000  Ry
     scf convergence threshold =      1.0E-08
     mixing beta               =       0.7000
     number of iterations used =            8  plain     mixing
     Exchange-correlation= SLA  PW   PBX  PBC
                           (   1   4   3   4   0   0   0)

     celldm(1)=   6.760364  celldm(2)=   0.000000  celldm(3)=   0.000000
     celldm(4)=   0.000000  celldm(5)=   0.000000  celldm(6)=   0.000000

     crystal axes: (cart. coord. in units of alat)
               a(1) = (   1.000000   0.000000   0.000000 )  
               a(2) = (   0.000000   1.000000   0.000000 )  
               a(3) = (   0.000000   0.000000   1.000000 )  

     reciprocal axes: (cart. coord. in units 2 pi/alat)
               b(1) = (  1.000000  0.000000  0.000000 )  
               b(2) = (  0.000000  1.000000  0.000000 )  
               b(3) = (  0.000000  0.000000  1.000000 )  


     PseudoPot. # 1 for Cu read from file:
     /home/abdul/git_repo/ZnS_Cu-Vacancy/pseudo/QE/Cu.pbe-spn-kjpaw_psl.1.0.0.UPF
     MD5 check sum: e7cbaad2f97193e5fe23251a619a52b0
     Pseudo is Projector augmented-wave + core cor, Zval = 19.0
     Generated using &quot;atomic&quot; code by A. Dal Corso  v.6.3
     Shape of augmentation charge: PSQ
     Using radial grid of 1199 points,  6 beta functions with: 
                l(1) =   0
                l(2) =   0
                l(3) =   1
                l(4) =   1
                l(5) =   2
                l(6) =   2
     Q(r) pseudized with 0 coefficients 


     atomic species   valence    mass     pseudopotential
        Cu            19.00    63.54600     Cu( 1.00)

     48 Sym. Ops., with inversion, found


                                    s                        frac. trans.

      isym =  1     identity                                     

 cryst.   s( 1) = (     1          0          0      )
                  (     0          1          0      )
                  (     0          0          1      )

 cart.    s( 1) = (  1.0000000  0.0000000  0.0000000 )
                  (  0.0000000  1.0000000  0.0000000 )
                  (  0.0000000  0.0000000  1.0000000 )


      isym =  2     180 deg rotation - cart. axis [0,0,1]        

 cryst.   s( 2) = (    -1          0          0      )
                  (     0         -1          0      )
                  (     0          0          1      )

 cart.    s( 2) = ( -1.0000000  0.0000000  0.0000000 )
                  (  0.0000000 -1.0000000  0.0000000 )
                  (  0.0000000  0.0000000  1.0000000 )


      isym =  3     180 deg rotation - cart. axis [0,1,0]        

 cryst.   s( 3) = (    -1          0          0      )
                  (     0          1          0      )
                  (     0          0         -1      )

 cart.    s( 3) = ( -1.0000000  0.0000000  0.0000000 )
                  (  0.0000000  1.0000000  0.0000000 )
                  (  0.0000000  0.0000000 -1.0000000 )


      isym =  4     180 deg rotation - cart. axis [1,0,0]        

 cryst.   s( 4) = (     1          0          0      )
                  (     0         -1          0      )
                  (     0          0         -1      )

 cart.    s( 4) = (  1.0000000  0.0000000  0.0000000 )
                  (  0.0000000 -1.0000000  0.0000000 )
                  (  0.0000000  0.0000000 -1.0000000 )


      isym =  5     180 deg rotation - cart. axis [1,1,0]        

 cryst.   s( 5) = (     0          1          0      )
                  (     1          0          0      )
                  (     0          0         -1      )

 cart.    s( 5) = (  0.0000000  1.0000000  0.0000000 )
                  (  1.0000000  0.0000000  0.0000000 )
                  (  0.0000000  0.0000000 -1.0000000 )


      isym =  6     180 deg rotation - cart. axis [1,-1,0]       

 cryst.   s( 6) = (     0         -1          0      )
                  (    -1          0          0      )
                  (     0          0         -1      )

 cart.    s( 6) = (  0.0000000 -1.0000000  0.0000000 )
                  ( -1.0000000  0.0000000  0.0000000 )
                  (  0.0000000  0.0000000 -1.0000000 )


      isym =  7      90 deg rotation - cart. axis [0,0,-1]       

 cryst.   s( 7) = (     0         -1          0      )
                  (     1          0          0      )
                  (     0          0          1      )

 cart.    s( 7) = (  0.0000000  1.0000000  0.0000000 )
                  ( -1.0000000  0.0000000  0.0000000 )
                  (  0.0000000  0.0000000  1.0000000 )


      isym =  8      90 deg rotation - cart. axis [0,0,1]        

 cryst.   s( 8) = (     0          1          0      )
                  (    -1          0          0      )
                  (     0          0          1      )

 cart.    s( 8) = (  0.0000000 -1.0000000  0.0000000 )
                  (  1.0000000  0.0000000  0.0000000 )
                  (  0.0000000  0.0000000  1.0000000 )


      isym =  9     180 deg rotation - cart. axis [1,0,1]        

 cryst.   s( 9) = (     0          0          1      )
                  (     0         -1          0      )
                  (     1          0          0      )

 cart.    s( 9) = (  0.0000000  0.0000000  1.0000000 )
                  (  0.0000000 -1.0000000  0.0000000 )
                  (  1.0000000  0.0000000  0.0000000 )


      isym = 10     180 deg rotation - cart. axis [-1,0,1]       

 cryst.   s(10) = (     0          0         -1      )
                  (     0         -1          0      )
                  (    -1          0          0      )

 cart.    s(10) = (  0.0000000  0.0000000 -1.0000000 )
                  (  0.0000000 -1.0000000  0.0000000 )
                  ( -1.0000000  0.0000000  0.0000000 )


      isym = 11      90 deg rotation - cart. axis [0,1,0]        

 cryst.   s(11) = (     0          0         -1      )
                  (     0          1          0      )
                  (     1          0          0      )

 cart.    s(11) = (  0.0000000  0.0000000  1.0000000 )
                  (  0.0000000  1.0000000  0.0000000 )
                  ( -1.0000000  0.0000000  0.0000000 )


      isym = 12      90 deg rotation - cart. axis [0,-1,0]       

 cryst.   s(12) = (     0          0          1      )
                  (     0          1          0      )
                  (    -1          0          0      )

 cart.    s(12) = (  0.0000000  0.0000000 -1.0000000 )
                  (  0.0000000  1.0000000  0.0000000 )
                  (  1.0000000  0.0000000  0.0000000 )


      isym = 13     180 deg rotation - cart. axis [0,1,1]        

 cryst.   s(13) = (    -1          0          0      )
                  (     0          0          1      )
                  (     0          1          0      )

 cart.    s(13) = ( -1.0000000  0.0000000  0.0000000 )
                  (  0.0000000  0.0000000  1.0000000 )
                  (  0.0000000  1.0000000  0.0000000 )


      isym = 14     180 deg rotation - cart. axis [0,1,-1]       

 cryst.   s(14) = (    -1          0          0      )
                  (     0          0         -1      )
                  (     0         -1          0      )

 cart.    s(14) = ( -1.0000000  0.0000000  0.0000000 )
                  (  0.0000000  0.0000000 -1.0000000 )
                  (  0.0000000 -1.0000000  0.0000000 )


      isym = 15      90 deg rotation - cart. axis [-1,0,0]       

 cryst.   s(15) = (     1          0          0      )
                  (     0          0         -1      )
                  (     0          1          0      )

 cart.    s(15) = (  1.0000000  0.0000000  0.0000000 )
                  (  0.0000000  0.0000000  1.0000000 )
                  (  0.0000000 -1.0000000  0.0000000 )


      isym = 16      90 deg rotation - cart. axis [1,0,0]        

 cryst.   s(16) = (     1          0          0      )
                  (     0          0          1      )
                  (     0         -1          0      )

 cart.    s(16) = (  1.0000000  0.0000000  0.0000000 )
                  (  0.0000000  0.0000000 -1.0000000 )
                  (  0.0000000  1.0000000  0.0000000 )


      isym = 17     120 deg rotation - cart. axis [-1,-1,-1]     

 cryst.   s(17) = (     0          0          1      )
                  (     1          0          0      )
                  (     0          1          0      )

 cart.    s(17) = (  0.0000000  1.0000000  0.0000000 )
                  (  0.0000000  0.0000000  1.0000000 )
                  (  1.0000000  0.0000000  0.0000000 )


      isym = 18     120 deg rotation - cart. axis [-1,1,1]       

 cryst.   s(18) = (     0          0         -1      )
                  (    -1          0          0      )
                  (     0          1          0      )

 cart.    s(18) = (  0.0000000 -1.0000000  0.0000000 )
                  (  0.0000000  0.0000000  1.0000000 )
                  ( -1.0000000  0.0000000  0.0000000 )


      isym = 19     120 deg rotation - cart. axis [1,1,-1]       

 cryst.   s(19) = (     0          0         -1      )
                  (     1          0          0      )
                  (     0         -1          0      )

 cart.    s(19) = (  0.0000000  1.0000000  0.0000000 )
                  (  0.0000000  0.0000000 -1.0000000 )
                  ( -1.0000000  0.0000000  0.0000000 )


      isym = 20     120 deg rotation - cart. axis [1,-1,1]       

 cryst.   s(20) = (     0          0          1      )
                  (    -1          0          0      )
                  (     0         -1          0      )

 cart.    s(20) = (  0.0000000 -1.0000000  0.0000000 )
                  (  0.0000000  0.0000000 -1.0000000 )
                  (  1.0000000  0.0000000  0.0000000 )


      isym = 21     120 deg rotation - cart. axis [1,1,1]        

 cryst.   s(21) = (     0          1          0      )
                  (     0          0          1      )
                  (     1          0          0      )

 cart.    s(21) = (  0.0000000  0.0000000  1.0000000 )
                  (  1.0000000  0.0000000  0.0000000 )
                  (  0.0000000  1.0000000  0.0000000 )


      isym = 22     120 deg rotation - cart. axis [-1,1,-1]      

 cryst.   s(22) = (     0         -1          0      )
                  (     0          0         -1      )
                  (     1          0          0      )

 cart.    s(22) = (  0.0000000  0.0000000  1.0000000 )
                  ( -1.0000000  0.0000000  0.0000000 )
                  (  0.0000000 -1.0000000  0.0000000 )


      isym = 23     120 deg rotation - cart. axis [1,-1,-1]      

 cryst.   s(23) = (     0         -1          0      )
                  (     0          0          1      )
                  (    -1          0          0      )

 cart.    s(23) = (  0.0000000  0.0000000 -1.0000000 )
                  ( -1.0000000  0.0000000  0.0000000 )
                  (  0.0000000  1.0000000  0.0000000 )


      isym = 24     120 deg rotation - cart. axis [-1,-1,1]      

 cryst.   s(24) = (     0          1          0      )
                  (     0          0         -1      )
                  (    -1          0          0      )

 cart.    s(24) = (  0.0000000  0.0000000 -1.0000000 )
                  (  1.0000000  0.0000000  0.0000000 )
                  (  0.0000000 -1.0000000  0.0000000 )


      isym = 25     inversion                                    

 cryst.   s(25) = (    -1          0          0      )
                  (     0         -1          0      )
                  (     0          0         -1      )

 cart.    s(25) = ( -1.0000000  0.0000000  0.0000000 )
                  (  0.0000000 -1.0000000  0.0000000 )
                  (  0.0000000  0.0000000 -1.0000000 )


      isym = 26     inv. 180 deg rotation - cart. axis [0,0,1]   

 cryst.   s(26) = (     1          0          0      )
                  (     0          1          0      )
                  (     0          0         -1      )

 cart.    s(26) = (  1.0000000  0.0000000  0.0000000 )
                  (  0.0000000  1.0000000  0.0000000 )
                  (  0.0000000  0.0000000 -1.0000000 )


      isym = 27     inv. 180 deg rotation - cart. axis [0,1,0]   

 cryst.   s(27) = (     1          0          0      )
                  (     0         -1          0      )
                  (     0          0          1      )

 cart.    s(27) = (  1.0000000  0.0000000  0.0000000 )
                  (  0.0000000 -1.0000000  0.0000000 )
                  (  0.0000000  0.0000000  1.0000000 )


      isym = 28     inv. 180 deg rotation - cart. axis [1,0,0]   

 cryst.   s(28) = (    -1          0          0      )
                  (     0          1          0      )
                  (     0          0          1      )

 cart.    s(28) = ( -1.0000000  0.0000000  0.0000000 )
                  (  0.0000000  1.0000000  0.0000000 )
                  (  0.0000000  0.0000000  1.0000000 )


      isym = 29     inv. 180 deg rotation - cart. axis [1,1,0]   

 cryst.   s(29) = (     0         -1          0      )
                  (    -1          0          0      )
                  (     0          0          1      )

 cart.    s(29) = (  0.0000000 -1.0000000  0.0000000 )
                  ( -1.0000000  0.0000000  0.0000000 )
                  (  0.0000000  0.0000000  1.0000000 )


      isym = 30     inv. 180 deg rotation - cart. axis [1,-1,0]  

 cryst.   s(30) = (     0          1          0      )
                  (     1          0          0      )
                  (     0          0          1      )

 cart.    s(30) = (  0.0000000  1.0000000  0.0000000 )
                  (  1.0000000  0.0000000  0.0000000 )
                  (  0.0000000  0.0000000  1.0000000 )


      isym = 31     inv.  90 deg rotation - cart. axis [0,0,-1]  

 cryst.   s(31) = (     0          1          0      )
                  (    -1          0          0      )
                  (     0          0         -1      )

 cart.    s(31) = (  0.0000000 -1.0000000  0.0000000 )
                  (  1.0000000  0.0000000  0.0000000 )
                  (  0.0000000  0.0000000 -1.0000000 )


      isym = 32     inv.  90 deg rotation - cart. axis [0,0,1]   

 cryst.   s(32) = (     0         -1          0      )
                  (     1          0          0      )
                  (     0          0         -1      )

 cart.    s(32) = (  0.0000000  1.0000000  0.0000000 )
                  ( -1.0000000  0.0000000  0.0000000 )
                  (  0.0000000  0.0000000 -1.0000000 )


      isym = 33     inv. 180 deg rotation - cart. axis [1,0,1]   

 cryst.   s(33) = (     0          0         -1      )
                  (     0          1          0      )
                  (    -1          0          0      )

 cart.    s(33) = (  0.0000000  0.0000000 -1.0000000 )
                  (  0.0000000  1.0000000  0.0000000 )
                  ( -1.0000000  0.0000000  0.0000000 )


      isym = 34     inv. 180 deg rotation - cart. axis [-1,0,1]  

 cryst.   s(34) = (     0          0          1      )
                  (     0          1          0      )
                  (     1          0          0      )

 cart.    s(34) = (  0.0000000  0.0000000  1.0000000 )
                  (  0.0000000  1.0000000  0.0000000 )
                  (  1.0000000  0.0000000  0.0000000 )


      isym = 35     inv.  90 deg rotation - cart. axis [0,1,0]   

 cryst.   s(35) = (     0          0          1      )
                  (     0         -1          0      )
                  (    -1          0          0      )

 cart.    s(35) = (  0.0000000  0.0000000 -1.0000000 )
                  (  0.0000000 -1.0000000  0.0000000 )
                  (  1.0000000  0.0000000  0.0000000 )


      isym = 36     inv.  90 deg rotation - cart. axis [0,-1,0]  

 cryst.   s(36) = (     0          0         -1      )
                  (     0         -1          0      )
                  (     1          0          0      )

 cart.    s(36) = (  0.0000000  0.0000000  1.0000000 )
                  (  0.0000000 -1.0000000  0.0000000 )
                  ( -1.0000000  0.0000000  0.0000000 )


      isym = 37     inv. 180 deg rotation - cart. axis [0,1,1]   

 cryst.   s(37) = (     1          0          0      )
                  (     0          0         -1      )
                  (     0         -1          0      )

 cart.    s(37) = (  1.0000000  0.0000000  0.0000000 )
                  (  0.0000000  0.0000000 -1.0000000 )
                  (  0.0000000 -1.0000000  0.0000000 )


      isym = 38     inv. 180 deg rotation - cart. axis [0,1,-1]  

 cryst.   s(38) = (     1          0          0      )
                  (     0          0          1      )
                  (     0          1          0      )

 cart.    s(38) = (  1.0000000  0.0000000  0.0000000 )
                  (  0.0000000  0.0000000  1.0000000 )
                  (  0.0000000  1.0000000  0.0000000 )


      isym = 39     inv.  90 deg rotation - cart. axis [-1,0,0]  

 cryst.   s(39) = (    -1          0          0      )
                  (     0          0          1      )
                  (     0         -1          0      )

 cart.    s(39) = ( -1.0000000  0.0000000  0.0000000 )
                  (  0.0000000  0.0000000 -1.0000000 )
                  (  0.0000000  1.0000000  0.0000000 )


      isym = 40     inv.  90 deg rotation - cart. axis [1,0,0]   

 cryst.   s(40) = (    -1          0          0      )
                  (     0          0         -1      )
                  (     0          1          0      )

 cart.    s(40) = ( -1.0000000  0.0000000  0.0000000 )
                  (  0.0000000  0.0000000  1.0000000 )
                  (  0.0000000 -1.0000000  0.0000000 )


      isym = 41     inv. 120 deg rotation - cart. axis [-1,-1,-1]

 cryst.   s(41) = (     0          0         -1      )
                  (    -1          0          0      )
                  (     0         -1          0      )

 cart.    s(41) = (  0.0000000 -1.0000000  0.0000000 )
                  (  0.0000000  0.0000000 -1.0000000 )
                  ( -1.0000000  0.0000000  0.0000000 )


      isym = 42     inv. 120 deg rotation - cart. axis [-1,1,1]  

 cryst.   s(42) = (     0          0          1      )
                  (     1          0          0      )
                  (     0         -1          0      )

 cart.    s(42) = (  0.0000000  1.0000000  0.0000000 )
                  (  0.0000000  0.0000000 -1.0000000 )
                  (  1.0000000  0.0000000  0.0000000 )


      isym = 43     inv. 120 deg rotation - cart. axis [1,1,-1]  

 cryst.   s(43) = (     0          0          1      )
                  (    -1          0          0      )
                  (     0          1          0      )

 cart.    s(43) = (  0.0000000 -1.0000000  0.0000000 )
                  (  0.0000000  0.0000000  1.0000000 )
                  (  1.0000000  0.0000000  0.0000000 )


      isym = 44     inv. 120 deg rotation - cart. axis [1,-1,1]  

 cryst.   s(44) = (     0          0         -1      )
                  (     1          0          0      )
                  (     0          1          0      )

 cart.    s(44) = (  0.0000000  1.0000000  0.0000000 )
                  (  0.0000000  0.0000000  1.0000000 )
                  ( -1.0000000  0.0000000  0.0000000 )


      isym = 45     inv. 120 deg rotation - cart. axis [1,1,1]   

 cryst.   s(45) = (     0         -1          0      )
                  (     0          0         -1      )
                  (    -1          0          0      )

 cart.    s(45) = (  0.0000000  0.0000000 -1.0000000 )
                  ( -1.0000000  0.0000000  0.0000000 )
                  (  0.0000000 -1.0000000  0.0000000 )


      isym = 46     inv. 120 deg rotation - cart. axis [-1,1,-1] 

 cryst.   s(46) = (     0          1          0      )
                  (     0          0          1      )
                  (    -1          0          0      )

 cart.    s(46) = (  0.0000000  0.0000000 -1.0000000 )
                  (  1.0000000  0.0000000  0.0000000 )
                  (  0.0000000  1.0000000  0.0000000 )


      isym = 47     inv. 120 deg rotation - cart. axis [1,-1,-1] 

 cryst.   s(47) = (     0          1          0      )
                  (     0          0         -1      )
                  (     1          0          0      )

 cart.    s(47) = (  0.0000000  0.0000000  1.0000000 )
                  (  1.0000000  0.0000000  0.0000000 )
                  (  0.0000000 -1.0000000  0.0000000 )


      isym = 48     inv. 120 deg rotation - cart. axis [-1,-1,1] 

 cryst.   s(48) = (     0         -1          0      )
                  (     0          0          1      )
                  (     1          0          0      )

 cart.    s(48) = (  0.0000000  0.0000000  1.0000000 )
                  ( -1.0000000  0.0000000  0.0000000 )
                  (  0.0000000  1.0000000  0.0000000 )


     point group O_h (m-3m) 
     there are 10 classes
     the character table:

       E     8C3   3C2   6C4   6C2'  i     8S6   3s_h  6S4   6s_d 
A_1g   1.00  1.00  1.00  1.00  1.00  1.00  1.00  1.00  1.00  1.00
A_2g   1.00  1.00  1.00 -1.00 -1.00  1.00  1.00  1.00 -1.00 -1.00
E_g    2.00 -1.00  2.00  0.00  0.00  2.00 -1.00  2.00  0.00  0.00
T_1g   3.00  0.00 -1.00  1.00 -1.00  3.00  0.00 -1.00  1.00 -1.00
T_2g   3.00  0.00 -1.00 -1.00  1.00  3.00  0.00 -1.00 -1.00  1.00
A_1u   1.00  1.00  1.00  1.00  1.00 -1.00 -1.00 -1.00 -1.00 -1.00
A_2u   1.00  1.00  1.00 -1.00 -1.00 -1.00 -1.00 -1.00  1.00  1.00
E_u    2.00 -1.00  2.00  0.00  0.00 -2.00  1.00 -2.00  0.00  0.00
T_1u   3.00  0.00 -1.00  1.00 -1.00 -3.00  0.00  1.00 -1.00  1.00
T_2u   3.00  0.00 -1.00 -1.00  1.00 -3.00  0.00  1.00  1.00 -1.00

     the symmetry operations in each class and the name of the first element:

     E        1
          identity                                               
     8C3     17   19   20   18   24   21   22   23
          120 deg rotation - cart. axis [-1,-1,-1]               
     3C2      2    4    3
          180 deg rotation - cart. axis [0,0,1]                  
     6C4      7    8   15   16   12   11
           90 deg rotation - cart. axis [0,0,-1]                 
     6C2'     5    6   14   13   10    9
          180 deg rotation - cart. axis [1,1,0]                  
     i       25
          inversion                                              
     8S6     41   43   44   42   48   45   46   47
          inv. 120 deg rotation - cart. axis [-1,-1,-1]          
     3s_h    26   28   27
          inv. 180 deg rotation - cart. axis [0,0,1]             
     6S4     31   32   39   40   36   35
          inv.  90 deg rotation - cart. axis [0,0,-1]            
     6s_d    29   30   38   37   34   33
          inv. 180 deg rotation - cart. axis [1,1,0]             

   Cartesian axes

     site n.     atom                  positions (alat units)
         1           Cu  tau(   1) = (   0.0000000   0.0000000   0.0000000  )
         2           Cu  tau(   2) = (   0.0000000   0.5000000   0.5000000  )
         3           Cu  tau(   3) = (   0.5000000   0.0000000   0.5000000  )
         4           Cu  tau(   4) = (   0.5000000   0.5000000   0.0000000  )

   Crystallographic axes

     site n.     atom                  positions (cryst. coord.)
         1           Cu  tau(   1) = (  0.0000000  0.0000000  0.0000000  )
         2           Cu  tau(   2) = (  0.0000000  0.5000000  0.5000000  )
         3           Cu  tau(   3) = (  0.5000000  0.0000000  0.5000000  )
         4           Cu  tau(   4) = (  0.5000000  0.5000000  0.0000000  )

     number of k points=   120  Gaussian smearing, width (Ry)=  0.0073
                       cart. coord. in units 2pi/alat
        k(    1) = (   0.0000000   0.0000000   0.0000000), wk =   0.0007289
        k(    2) = (   0.0000000   0.0000000   0.0714286), wk =   0.0043732
        k(    3) = (   0.0000000   0.0000000   0.1428571), wk =   0.0043732
        k(    4) = (   0.0000000   0.0000000   0.2142857), wk =   0.0043732
        k(    5) = (   0.0000000   0.0000000   0.2857143), wk =   0.0043732
        k(    6) = (   0.0000000   0.0000000   0.3571429), wk =   0.0043732
        k(    7) = (   0.0000000   0.0000000   0.4285714), wk =   0.0043732
        k(    8) = (   0.0000000   0.0000000  -0.5000000), wk =   0.0021866
        k(    9) = (   0.0000000   0.0714286   0.0714286), wk =   0.0087464
        k(   10) = (   0.0000000   0.0714286   0.1428571), wk =   0.0174927
        k(   11) = (   0.0000000   0.0714286   0.2142857), wk =   0.0174927
        k(   12) = (   0.0000000   0.0714286   0.2857143), wk =   0.0174927
        k(   13) = (   0.0000000   0.0714286   0.3571429), wk =   0.0174927
        k(   14) = (   0.0000000   0.0714286   0.4285714), wk =   0.0174927
        k(   15) = (   0.0000000   0.0714286  -0.5000000), wk =   0.0087464
        k(   16) = (   0.0000000   0.1428571   0.1428571), wk =   0.0087464
        k(   17) = (   0.0000000   0.1428571   0.2142857), wk =   0.0174927
        k(   18) = (   0.0000000   0.1428571   0.2857143), wk =   0.0174927
        k(   19) = (   0.0000000   0.1428571   0.3571429), wk =   0.0174927
        k(   20) = (   0.0000000   0.1428571   0.4285714), wk =   0.0174927
        k(   21) = (   0.0000000   0.1428571  -0.5000000), wk =   0.0087464
        k(   22) = (   0.0000000   0.2142857   0.2142857), wk =   0.0087464
        k(   23) = (   0.0000000   0.2142857   0.2857143), wk =   0.0174927
        k(   24) = (   0.0000000   0.2142857   0.3571429), wk =   0.0174927
        k(   25) = (   0.0000000   0.2142857   0.4285714), wk =   0.0174927
        k(   26) = (   0.0000000   0.2142857  -0.5000000), wk =   0.0087464
        k(   27) = (   0.0000000   0.2857143   0.2857143), wk =   0.0087464
        k(   28) = (   0.0000000   0.2857143   0.3571429), wk =   0.0174927
        k(   29) = (   0.0000000   0.2857143   0.4285714), wk =   0.0174927
        k(   30) = (   0.0000000   0.2857143  -0.5000000), wk =   0.0087464
        k(   31) = (   0.0000000   0.3571429   0.3571429), wk =   0.0087464
        k(   32) = (   0.0000000   0.3571429   0.4285714), wk =   0.0174927
        k(   33) = (   0.0000000   0.3571429  -0.5000000), wk =   0.0087464
        k(   34) = (   0.0000000   0.4285714   0.4285714), wk =   0.0087464
        k(   35) = (   0.0000000   0.4285714  -0.5000000), wk =   0.0087464
        k(   36) = (   0.0000000  -0.5000000  -0.5000000), wk =   0.0021866
        k(   37) = (   0.0714286   0.0714286   0.0714286), wk =   0.0058309
        k(   38) = (   0.0714286   0.0714286   0.1428571), wk =   0.0174927
        k(   39) = (   0.0714286   0.0714286   0.2142857), wk =   0.0174927
        k(   40) = (   0.0714286   0.0714286   0.2857143), wk =   0.0174927
        k(   41) = (   0.0714286   0.0714286   0.3571429), wk =   0.0174927
        k(   42) = (   0.0714286   0.0714286   0.4285714), wk =   0.0174927
        k(   43) = (   0.0714286   0.0714286  -0.5000000), wk =   0.0087464
        k(   44) = (   0.0714286   0.1428571   0.1428571), wk =   0.0174927
        k(   45) = (   0.0714286   0.1428571   0.2142857), wk =   0.0349854
        k(   46) = (   0.0714286   0.1428571   0.2857143), wk =   0.0349854
        k(   47) = (   0.0714286   0.1428571   0.3571429), wk =   0.0349854
        k(   48) = (   0.0714286   0.1428571   0.4285714), wk =   0.0349854
        k(   49) = (   0.0714286   0.1428571  -0.5000000), wk =   0.0174927
        k(   50) = (   0.0714286   0.2142857   0.2142857), wk =   0.0174927
        k(   51) = (   0.0714286   0.2142857   0.2857143), wk =   0.0349854
        k(   52) = (   0.0714286   0.2142857   0.3571429), wk =   0.0349854
        k(   53) = (   0.0714286   0.2142857   0.4285714), wk =   0.0349854
        k(   54) = (   0.0714286   0.2142857  -0.5000000), wk =   0.0174927
        k(   55) = (   0.0714286   0.2857143   0.2857143), wk =   0.0174927
        k(   56) = (   0.0714286   0.2857143   0.3571429), wk =   0.0349854
        k(   57) = (   0.0714286   0.2857143   0.4285714), wk =   0.0349854
        k(   58) = (   0.0714286   0.2857143  -0.5000000), wk =   0.0174927
        k(   59) = (   0.0714286   0.3571429   0.3571429), wk =   0.0174927
        k(   60) = (   0.0714286   0.3571429   0.4285714), wk =   0.0349854
        k(   61) = (   0.0714286   0.3571429  -0.5000000), wk =   0.0174927
        k(   62) = (   0.0714286   0.4285714   0.4285714), wk =   0.0174927
        k(   63) = (   0.0714286   0.4285714  -0.5000000), wk =   0.0174927
        k(   64) = (   0.0714286  -0.5000000  -0.5000000), wk =   0.0043732
        k(   65) = (   0.1428571   0.1428571   0.1428571), wk =   0.0058309
        k(   66) = (   0.1428571   0.1428571   0.2142857), wk =   0.0174927
        k(   67) = (   0.1428571   0.1428571   0.2857143), wk =   0.0174927
        k(   68) = (   0.1428571   0.1428571   0.3571429), wk =   0.0174927
        k(   69) = (   0.1428571   0.1428571   0.4285714), wk =   0.0174927
        k(   70) = (   0.1428571   0.1428571  -0.5000000), wk =   0.0087464
        k(   71) = (   0.1428571   0.2142857   0.2142857), wk =   0.0174927
        k(   72) = (   0.1428571   0.2142857   0.2857143), wk =   0.0349854
        k(   73) = (   0.1428571   0.2142857   0.3571429), wk =   0.0349854
        k(   74) = (   0.1428571   0.2142857   0.4285714), wk =   0.0349854
        k(   75) = (   0.1428571   0.2142857  -0.5000000), wk =   0.0174927
        k(   76) = (   0.1428571   0.2857143   0.2857143), wk =   0.0174927
        k(   77) = (   0.1428571   0.2857143   0.3571429), wk =   0.0349854
        k(   78) = (   0.1428571   0.2857143   0.4285714), wk =   0.0349854
        k(   79) = (   0.1428571   0.2857143  -0.5000000), wk =   0.0174927
        k(   80) = (   0.1428571   0.3571429   0.3571429), wk =   0.0174927
        k(   81) = (   0.1428571   0.3571429   0.4285714), wk =   0.0349854
        k(   82) = (   0.1428571   0.3571429  -0.5000000), wk =   0.0174927
        k(   83) = (   0.1428571   0.4285714   0.4285714), wk =   0.0174927
        k(   84) = (   0.1428571   0.4285714  -0.5000000), wk =   0.0174927
        k(   85) = (   0.1428571  -0.5000000  -0.5000000), wk =   0.0043732
        k(   86) = (   0.2142857   0.2142857   0.2142857), wk =   0.0058309
        k(   87) = (   0.2142857   0.2142857   0.2857143), wk =   0.0174927
        k(   88) = (   0.2142857   0.2142857   0.3571429), wk =   0.0174927
        k(   89) = (   0.2142857   0.2142857   0.4285714), wk =   0.0174927
        k(   90) = (   0.2142857   0.2142857  -0.5000000), wk =   0.0087464
        k(   91) = (   0.2142857   0.2857143   0.2857143), wk =   0.0174927
        k(   92) = (   0.2142857   0.2857143   0.3571429), wk =   0.0349854
        k(   93) = (   0.2142857   0.2857143   0.4285714), wk =   0.0349854
        k(   94) = (   0.2142857   0.2857143  -0.5000000), wk =   0.0174927
        k(   95) = (   0.2142857   0.3571429   0.3571429), wk =   0.0174927
        k(   96) = (   0.2142857   0.3571429   0.4285714), wk =   0.0349854
        k(   97) = (   0.2142857   0.3571429  -0.5000000), wk =   0.0174927
        k(   98) = (   0.2142857   0.4285714   0.4285714), wk =   0.0174927
        k(   99) = (   0.2142857   0.4285714  -0.5000000), wk =   0.0174927
        k(  100) = (   0.2142857  -0.5000000  -0.5000000), wk =   0.0043732
        k(  101) = (   0.2857143   0.2857143   0.2857143), wk =   0.0058309
        k(  102) = (   0.2857143   0.2857143   0.3571429), wk =   0.0174927
        k(  103) = (   0.2857143   0.2857143   0.4285714), wk =   0.0174927
        k(  104) = (   0.2857143   0.2857143  -0.5000000), wk =   0.0087464
        k(  105) = (   0.2857143   0.3571429   0.3571429), wk =   0.0174927
        k(  106) = (   0.2857143   0.3571429   0.4285714), wk =   0.0349854
        k(  107) = (   0.2857143   0.3571429  -0.5000000), wk =   0.0174927
        k(  108) = (   0.2857143   0.4285714   0.4285714), wk =   0.0174927
        k(  109) = (   0.2857143   0.4285714  -0.5000000), wk =   0.0174927
        k(  110) = (   0.2857143  -0.5000000  -0.5000000), wk =   0.0043732
        k(  111) = (   0.3571429   0.3571429   0.3571429), wk =   0.0058309
        k(  112) = (   0.3571429   0.3571429   0.4285714), wk =   0.0174927
        k(  113) = (   0.3571429   0.3571429  -0.5000000), wk =   0.0087464
        k(  114) = (   0.3571429   0.4285714   0.4285714), wk =   0.0174927
        k(  115) = (   0.3571429   0.4285714  -0.5000000), wk =   0.0174927
        k(  116) = (   0.3571429  -0.5000000  -0.5000000), wk =   0.0043732
        k(  117) = (   0.4285714   0.4285714   0.4285714), wk =   0.0058309
        k(  118) = (   0.4285714   0.4285714  -0.5000000), wk =   0.0087464
        k(  119) = (   0.4285714  -0.5000000  -0.5000000), wk =   0.0043732
        k(  120) = (  -0.5000000  -0.5000000  -0.5000000), wk =   0.0007289

                       cryst. coord.
        k(    1) = (   0.0000000   0.0000000   0.0000000), wk =   0.0007289
        k(    2) = (   0.0000000   0.0000000   0.0714286), wk =   0.0043732
        k(    3) = (   0.0000000   0.0000000   0.1428571), wk =   0.0043732
        k(    4) = (   0.0000000   0.0000000   0.2142857), wk =   0.0043732
        k(    5) = (   0.0000000   0.0000000   0.2857143), wk =   0.0043732
        k(    6) = (   0.0000000   0.0000000   0.3571429), wk =   0.0043732
        k(    7) = (   0.0000000   0.0000000   0.4285714), wk =   0.0043732
        k(    8) = (   0.0000000   0.0000000  -0.5000000), wk =   0.0021866
        k(    9) = (   0.0000000   0.0714286   0.0714286), wk =   0.0087464
        k(   10) = (   0.0000000   0.0714286   0.1428571), wk =   0.0174927
        k(   11) = (   0.0000000   0.0714286   0.2142857), wk =   0.0174927
        k(   12) = (   0.0000000   0.0714286   0.2857143), wk =   0.0174927
        k(   13) = (   0.0000000   0.0714286   0.3571429), wk =   0.0174927
        k(   14) = (   0.0000000   0.0714286   0.4285714), wk =   0.0174927
        k(   15) = (   0.0000000   0.0714286  -0.5000000), wk =   0.0087464
        k(   16) = (   0.0000000   0.1428571   0.1428571), wk =   0.0087464
        k(   17) = (   0.0000000   0.1428571   0.2142857), wk =   0.0174927
        k(   18) = (   0.0000000   0.1428571   0.2857143), wk =   0.0174927
        k(   19) = (   0.0000000   0.1428571   0.3571429), wk =   0.0174927
        k(   20) = (   0.0000000   0.1428571   0.4285714), wk =   0.0174927
        k(   21) = (   0.0000000   0.1428571  -0.5000000), wk =   0.0087464
        k(   22) = (   0.0000000   0.2142857   0.2142857), wk =   0.0087464
        k(   23) = (   0.0000000   0.2142857   0.2857143), wk =   0.0174927
        k(   24) = (   0.0000000   0.2142857   0.3571429), wk =   0.0174927
        k(   25) = (   0.0000000   0.2142857   0.4285714), wk =   0.0174927
        k(   26) = (   0.0000000   0.2142857  -0.5000000), wk =   0.0087464
        k(   27) = (   0.0000000   0.2857143   0.2857143), wk =   0.0087464
        k(   28) = (   0.0000000   0.2857143   0.3571429), wk =   0.0174927
        k(   29) = (   0.0000000   0.2857143   0.4285714), wk =   0.0174927
        k(   30) = (   0.0000000   0.2857143  -0.5000000), wk =   0.0087464
        k(   31) = (   0.0000000   0.3571429   0.3571429), wk =   0.0087464
        k(   32) = (   0.0000000   0.3571429   0.4285714), wk =   0.0174927
        k(   33) = (   0.0000000   0.3571429  -0.5000000), wk =   0.0087464
        k(   34) = (   0.0000000   0.4285714   0.4285714), wk =   0.0087464
        k(   35) = (   0.0000000   0.4285714  -0.5000000), wk =   0.0087464
        k(   36) = (   0.0000000  -0.5000000  -0.5000000), wk =   0.0021866
        k(   37) = (   0.0714286   0.0714286   0.0714286), wk =   0.0058309
        k(   38) = (   0.0714286   0.0714286   0.1428571), wk =   0.0174927
        k(   39) = (   0.0714286   0.0714286   0.2142857), wk =   0.0174927
        k(   40) = (   0.0714286   0.0714286   0.2857143), wk =   0.0174927
        k(   41) = (   0.0714286   0.0714286   0.3571429), wk =   0.0174927
        k(   42) = (   0.0714286   0.0714286   0.4285714), wk =   0.0174927
        k(   43) = (   0.0714286   0.0714286  -0.5000000), wk =   0.0087464
        k(   44) = (   0.0714286   0.1428571   0.1428571), wk =   0.0174927
        k(   45) = (   0.0714286   0.1428571   0.2142857), wk =   0.0349854
        k(   46) = (   0.0714286   0.1428571   0.2857143), wk =   0.0349854
        k(   47) = (   0.0714286   0.1428571   0.3571429), wk =   0.0349854
        k(   48) = (   0.0714286   0.1428571   0.4285714), wk =   0.0349854
        k(   49) = (   0.0714286   0.1428571  -0.5000000), wk =   0.0174927
        k(   50) = (   0.0714286   0.2142857   0.2142857), wk =   0.0174927
        k(   51) = (   0.0714286   0.2142857   0.2857143), wk =   0.0349854
        k(   52) = (   0.0714286   0.2142857   0.3571429), wk =   0.0349854
        k(   53) = (   0.0714286   0.2142857   0.4285714), wk =   0.0349854
        k(   54) = (   0.0714286   0.2142857  -0.5000000), wk =   0.0174927
        k(   55) = (   0.0714286   0.2857143   0.2857143), wk =   0.0174927
        k(   56) = (   0.0714286   0.2857143   0.3571429), wk =   0.0349854
        k(   57) = (   0.0714286   0.2857143   0.4285714), wk =   0.0349854
        k(   58) = (   0.0714286   0.2857143  -0.5000000), wk =   0.0174927
        k(   59) = (   0.0714286   0.3571429   0.3571429), wk =   0.0174927
        k(   60) = (   0.0714286   0.3571429   0.4285714), wk =   0.0349854
        k(   61) = (   0.0714286   0.3571429  -0.5000000), wk =   0.0174927
        k(   62) = (   0.0714286   0.4285714   0.4285714), wk =   0.0174927
        k(   63) = (   0.0714286   0.4285714  -0.5000000), wk =   0.0174927
        k(   64) = (   0.0714286  -0.5000000  -0.5000000), wk =   0.0043732
        k(   65) = (   0.1428571   0.1428571   0.1428571), wk =   0.0058309
        k(   66) = (   0.1428571   0.1428571   0.2142857), wk =   0.0174927
        k(   67) = (   0.1428571   0.1428571   0.2857143), wk =   0.0174927
        k(   68) = (   0.1428571   0.1428571   0.3571429), wk =   0.0174927
        k(   69) = (   0.1428571   0.1428571   0.4285714), wk =   0.0174927
        k(   70) = (   0.1428571   0.1428571  -0.5000000), wk =   0.0087464
        k(   71) = (   0.1428571   0.2142857   0.2142857), wk =   0.0174927
        k(   72) = (   0.1428571   0.2142857   0.2857143), wk =   0.0349854
        k(   73) = (   0.1428571   0.2142857   0.3571429), wk =   0.0349854
        k(   74) = (   0.1428571   0.2142857   0.4285714), wk =   0.0349854
        k(   75) = (   0.1428571   0.2142857  -0.5000000), wk =   0.0174927
        k(   76) = (   0.1428571   0.2857143   0.2857143), wk =   0.0174927
        k(   77) = (   0.1428571   0.2857143   0.3571429), wk =   0.0349854
        k(   78) = (   0.1428571   0.2857143   0.4285714), wk =   0.0349854
        k(   79) = (   0.1428571   0.2857143  -0.5000000), wk =   0.0174927
        k(   80) = (   0.1428571   0.3571429   0.3571429), wk =   0.0174927
        k(   81) = (   0.1428571   0.3571429   0.4285714), wk =   0.0349854
        k(   82) = (   0.1428571   0.3571429  -0.5000000), wk =   0.0174927
        k(   83) = (   0.1428571   0.4285714   0.4285714), wk =   0.0174927
        k(   84) = (   0.1428571   0.4285714  -0.5000000), wk =   0.0174927
        k(   85) = (   0.1428571  -0.5000000  -0.5000000), wk =   0.0043732
        k(   86) = (   0.2142857   0.2142857   0.2142857), wk =   0.0058309
        k(   87) = (   0.2142857   0.2142857   0.2857143), wk =   0.0174927
        k(   88) = (   0.2142857   0.2142857   0.3571429), wk =   0.0174927
        k(   89) = (   0.2142857   0.2142857   0.4285714), wk =   0.0174927
        k(   90) = (   0.2142857   0.2142857  -0.5000000), wk =   0.0087464
        k(   91) = (   0.2142857   0.2857143   0.2857143), wk =   0.0174927
        k(   92) = (   0.2142857   0.2857143   0.3571429), wk =   0.0349854
        k(   93) = (   0.2142857   0.2857143   0.4285714), wk =   0.0349854
        k(   94) = (   0.2142857   0.2857143  -0.5000000), wk =   0.0174927
        k(   95) = (   0.2142857   0.3571429   0.3571429), wk =   0.0174927
        k(   96) = (   0.2142857   0.3571429   0.4285714), wk =   0.0349854
        k(   97) = (   0.2142857   0.3571429  -0.5000000), wk =   0.0174927
        k(   98) = (   0.2142857   0.4285714   0.4285714), wk =   0.0174927
        k(   99) = (   0.2142857   0.4285714  -0.5000000), wk =   0.0174927
        k(  100) = (   0.2142857  -0.5000000  -0.5000000), wk =   0.0043732
        k(  101) = (   0.2857143   0.2857143   0.2857143), wk =   0.0058309
        k(  102) = (   0.2857143   0.2857143   0.3571429), wk =   0.0174927
        k(  103) = (   0.2857143   0.2857143   0.4285714), wk =   0.0174927
        k(  104) = (   0.2857143   0.2857143  -0.5000000), wk =   0.0087464
        k(  105) = (   0.2857143   0.3571429   0.3571429), wk =   0.0174927
        k(  106) = (   0.2857143   0.3571429   0.4285714), wk =   0.0349854
        k(  107) = (   0.2857143   0.3571429  -0.5000000), wk =   0.0174927
        k(  108) = (   0.2857143   0.4285714   0.4285714), wk =   0.0174927
        k(  109) = (   0.2857143   0.4285714  -0.5000000), wk =   0.0174927
        k(  110) = (   0.2857143  -0.5000000  -0.5000000), wk =   0.0043732
        k(  111) = (   0.3571429   0.3571429   0.3571429), wk =   0.0058309
        k(  112) = (   0.3571429   0.3571429   0.4285714), wk =   0.0174927
        k(  113) = (   0.3571429   0.3571429  -0.5000000), wk =   0.0087464
        k(  114) = (   0.3571429   0.4285714   0.4285714), wk =   0.0174927
        k(  115) = (   0.3571429   0.4285714  -0.5000000), wk =   0.0174927
        k(  116) = (   0.3571429  -0.5000000  -0.5000000), wk =   0.0043732
        k(  117) = (   0.4285714   0.4285714   0.4285714), wk =   0.0058309
        k(  118) = (   0.4285714   0.4285714  -0.5000000), wk =   0.0087464
        k(  119) = (   0.4285714  -0.5000000  -0.5000000), wk =   0.0043732
        k(  120) = (  -0.5000000  -0.5000000  -0.5000000), wk =   0.0007289

     Dense  grid:    41851 G-vectors     FFT dimensions: (  45,  45,  45)

     Dynamical RAM for                 wfc:       0.37 MB

     Dynamical RAM for     wfc (w. buffer):      44.25 MB

     Dynamical RAM for           str. fact:       0.06 MB

     Dynamical RAM for           local pot:       0.00 MB

     Dynamical RAM for          nlocal pot:       0.57 MB

     Dynamical RAM for                qrad:       1.61 MB

     Dynamical RAM for          rho,v,vnew:       0.42 MB

     Dynamical RAM for               rhoin:       0.14 MB

     Dynamical RAM for            rho*nmix:       1.02 MB

     Dynamical RAM for           G-vectors:       0.27 MB

     Dynamical RAM for          h,s,v(r/c):       0.39 MB

     Dynamical RAM for          <psi|beta>:       0.05 MB

     Dynamical RAM for                 psi:       0.73 MB

     Dynamical RAM for                hpsi:       0.73 MB

     Dynamical RAM for                spsi:       0.73 MB

     Dynamical RAM for      wfcinit/wfcrot:       0.78 MB

     Dynamical RAM for           addusdens:      12.14 MB

     Estimated static dynamical RAM per process >      47.84 MB

     Estimated max dynamical RAM per process >      61.00 MB

     Estimated total dynamical RAM >     609.98 MB

     Check: negative core charge=   -0.000003

     The initial density is read from file :
     ./out/Cu.save/charge-density

     Starting wfcs from file
     Checking if some PAW data can be deallocated... 

     total cpu time spent up to now is        1.4 secs

     Self-consistent Calculation

     iteration #  1     ecut=   100.00 Ry     beta= 0.70
     Davidson diagonalization with overlap

---- Real-time Memory Report at c_bands before calling an iterative solver
            84 MiB given to the printing process from OS
             0 MiB allocation reported by mallinfo(arena+hblkhd)
           726 MiB available memory on the node where the printing process lives
------------------
     ethr =  1.00E-05,  avg # of iterations =  2.0

     Threshold (ethr) on eigenvalues was too large:
     Diagonalizing with lowered threshold

     Davidson diagonalization with overlap

---- Real-time Memory Report at c_bands before calling an iterative solver
           100 MiB given to the printing process from OS
             0 MiB allocation reported by mallinfo(arena+hblkhd)
           560 MiB available memory on the node where the printing process lives
------------------
     ethr =  9.88E-09,  avg # of iterations =  3.1

     total cpu time spent up to now is       65.6 secs

     total energy              =   -1947.54442620 Ry
     estimated scf accuracy    <       0.00000687 Ry

     iteration #  2     ecut=   100.00 Ry     beta= 0.70
     Davidson diagonalization with overlap

---- Real-time Memory Report at c_bands before calling an iterative solver
           100 MiB given to the printing process from OS
             0 MiB allocation reported by mallinfo(arena+hblkhd)
           542 MiB available memory on the node where the printing process lives
------------------
     ethr =  9.04E-09,  avg # of iterations =  2.0

     total cpu time spent up to now is       95.6 secs

     total energy              =   -1947.54442683 Ry
     estimated scf accuracy    <       0.00000329 Ry

     iteration #  3     ecut=   100.00 Ry     beta= 0.70
     Davidson diagonalization with overlap

---- Real-time Memory Report at c_bands before calling an iterative solver
           100 MiB given to the printing process from OS
             0 MiB allocation reported by mallinfo(arena+hblkhd)
           551 MiB available memory on the node where the printing process lives
------------------
     ethr =  4.32E-09,  avg # of iterations =  2.0

     total cpu time spent up to now is      126.2 secs

     total energy              =   -1947.54442747 Ry
     estimated scf accuracy    <       0.00000684 Ry

     iteration #  4     ecut=   100.00 Ry     beta= 0.70
     Davidson diagonalization with overlap

---- Real-time Memory Report at c_bands before calling an iterative solver
           101 MiB given to the printing process from OS
             0 MiB allocation reported by mallinfo(arena+hblkhd)
           563 MiB available memory on the node where the printing process lives
------------------
     ethr =  4.32E-09,  avg # of iterations =  2.0

     total cpu time spent up to now is      155.2 secs

     total energy              =   -1947.54442823 Ry
     estimated scf accuracy    <       0.00000379 Ry

     iteration #  5     ecut=   100.00 Ry     beta= 0.70
     Davidson diagonalization with overlap

---- Real-time Memory Report at c_bands before calling an iterative solver
           101 MiB given to the printing process from OS
             0 MiB allocation reported by mallinfo(arena+hblkhd)
           578 MiB available memory on the node where the printing process lives
------------------
     ethr =  4.32E-09,  avg # of iterations =  1.7

     total cpu time spent up to now is      179.5 secs

     End of self-consistent calculation

          k = 0.0000 0.0000 0.0000 (  5185 PWs)   bands (ev):

   -95.7754 -95.7539 -95.7538 -95.7538 -53.1957 -53.1957 -53.1957 -53.1270
   -53.1270 -53.1270 -53.1269 -53.1269 -53.1269 -53.0803 -53.0803 -53.0803
     7.2466  11.8307  11.8307  11.8308  12.3225  12.3225  12.3225  13.8058
    13.8058  13.8058  14.6804  14.6804  15.2646  15.2646  15.2647  15.4360
    15.4360  15.4360  15.4361  15.4361  15.4361  18.3477  18.3477  18.3477
    24.2192  24.2192  24.2192  30.2279  30.2280  30.2280

     occupation numbers 
     1.0000   1.0000   1.0000   1.0000   1.0000   1.0000   1.0000   1.0000
     1.0000   1.0000   1.0000   1.0000   1.0000   1.0000   1.0000   1.0000
     1.0000   1.0000   1.0000   1.0000   1.0000   1.0000   1.0000   1.0000
     1.0000   1.0000   1.0000   1.0000   1.0000   1.0000   1.0000   1.0000
     1.0000   1.0000   1.0000   1.0000   1.0000   0.0000   0.0000   0.0000
     0.0000   0.0000   0.0000   0.0000   0.0000   0.0000

          k = 0.0000 0.0000 0.0714 (  5221 PWs)   bands (ev):

   -95.7751 -95.7541 -95.7539 -95.7538 -53.1948 -53.1948 -53.1943 -53.1278
   -53.1278 -53.1271 -53.1270 -53.1264 -53.1264 -53.0820 -53.0811 -53.0811
     7.3102  11.8302  11.8613  11.8614  12.3400  12.3409  12.3409  13.7860
    13.8213  13.8213  14.6625  14.6875  15.2415  15.2415  15.2572  15.3128
    15.3128  15.4087  15.4087  15.4360  15.4361  17.9585  18.5271  18.5271
    24.2411  24.2411  24.7321  29.7954  29.7954  29.9550

     occupation numbers 
     1.0000   1.0000   1.0000   1.0000   1.0000   1.0000   1.0000   1.0000
     1.0000   1.0000   1.0000   1.0000   1.0000   1.0000   1.0000   1.0000
     1.0000   1.0000   1.0000   1.0000   1.0000   1.0000   1.0000   1.0000
     1.0000   1.0000   1.0000   1.0000   1.0000   1.0000   1.0000   1.0000
     1.0000   1.0000   1.0000   1.0000   1.0000   0.0000   0.0000   0.0000
     0.0000   0.0000   0.0000   0.0000   0.0000   0.0000

          k = 0.0000 0.0000 0.1429 (  5201 PWs)   bands (ev):

   -95.7743 -95.7549 -95.7539 -95.7538 -53.1923 -53.1923 -53.1902 -53.1303
   -53.1303 -53.1271 -53.1270 -53.1246 -53.1246 -53.0863 -53.0827 -53.0827
     7.5004  11.8194  11.9500  11.9501  12.3918  12.3963  12.3963  13.7279
    13.8678  13.8678  14.6103  14.7087  15.0106  15.0106  15.1735  15.1735
    15.2350  15.3294  15.3294  15.4362  15.4363  17.0739  18.9974  18.9974
    24.3082  24.3083  25.9948  28.8281  28.8281  29.2845

     occupation numbers 
     1.0000   1.0000   1.0000   1.0000   1.0000   1.0000   1.0000   1.0000
     1.0000   1.0000   1.0000   1.0000   1.0000   1.0000   1.0000   1.0000
     1.0000   1.0000   1.0000   1.0000   1.0000   1.0000   1.0000   1.0000
     1.0000   1.0000   1.0000   1.0000   1.0000   1.0000   1.0000   1.0000
     1.0000   1.0000   1.0000   1.0000   1.0000   0.0377   0.0000   0.0000
     0.0000   0.0000   0.0000   0.0000   0.0000   0.0000

          k = 0.0000 0.0000 0.2143 (  5205 PWs)   bands (ev):

   -95.7730 -95.7562 -95.7539 -95.7538 -53.1881 -53.1881 -53.1834 -53.1345
   -53.1345 -53.1272 -53.1271 -53.1219 -53.1219 -53.0935 -53.0855 -53.0855
     7.8136  11.7669  12.0871  12.0872  12.4757  12.4893  12.4893  13.6349
    13.9443  13.9443  14.5283  14.6356  14.6356  14.7428  15.0661  15.0661
    15.1995  15.2061  15.2061  15.4363  15.4364  16.0799  19.6518  19.6518
    24.4255  24.4255  27.6455  27.6921  27.6921  28.4595

     occupation numbers 
     1.0000   1.0000   1.0000   1.0000   1.0000   1.0000   1.0000   1.0000
     1.0000   1.0000   1.0000   1.0000   1.0000   1.0000   1.0000   1.0000
     1.0000   1.0000   1.0000   1.0000   1.0000   1.0000   1.0000   1.0000
     1.0000   1.0000   1.0000   1.0000   1.0000   1.0000   1.0000   1.0000
     1.0000   1.0000   1.0000   1.0000   1.0000   1.0000   0.0000   0.0000
     0.0000   0.0000   0.0000   0.0000   0.0000   0.0000

          k = 0.0000 0.0000 0.2857 (  5194 PWs)   bands (ev):

   -95.7713 -95.7579 -95.7539 -95.7538 -53.1827 -53.1827 -53.1743 -53.1399
   -53.1399 -53.1273 -53.1272 -53.1182 -53.1182 -53.1028 -53.0892 -53.0892
     8.2437  11.6111  12.2549  12.2550  12.5881  12.6210  12.6210  13.5123
    14.0494  14.0494  14.2506  14.2506  14.4253  14.7882  14.9309  14.9310
    15.0500  15.0500  15.1524  15.2032  15.4365  15.4366  20.4258  20.4258
    24.5998  24.5998  26.5271  26.5271  27.6355  27.6355

     occupation numbers 
     1.0000   1.0000   1.0000   1.0000   1.0000   1.0000   1.0000   1.0000
     1.0000   1.0000   1.0000   1.0000   1.0000   1.0000   1.0000   1.0000
     1.0000   1.0000   1.0000   1.0000   1.0000   1.0000   1.0000   1.0000
     1.0000   1.0000   1.0000   1.0000   1.0000   1.0000   1.0000   1.0000
     1.0000   1.0000   1.0000   1.0000   1.0000   1.0000   0.0000   0.0000
     0.0000   0.0000   0.0000   0.0000   0.0000   0.0000

          k = 0.0000 0.0000 0.3571 (  5206 PWs)   bands (ev):

   -95.7693 -95.7599 -95.7539 -95.7538 -53.1761 -53.1761 -53.1636 -53.1465
   -53.1465 -53.1274 -53.1273 -53.1140 -53.1138 -53.1138 -53.0936 -53.0936
     8.7795  11.2726  12.4253  12.4253  12.7241  12.7924  12.7924  13.3672
    13.8850  13.8850  14.1807  14.1807  14.3154  14.5862  14.7896  14.7897
    14.8429  14.8736  14.8736  15.0963  15.4367  15.4368  21.2883  21.2883
    24.8388  24.8388  25.3821  25.3821  26.8906  26.8906

     occupation numbers 
     1.0000   1.0000   1.0000   1.0000   1.0000   1.0000   1.0000   1.0000
     1.0000   1.0000   1.0000   1.0000   1.0000   1.0000   1.0000   1.0000
     1.0000   1.0000   1.0000   1.0000   1.0000   1.0000   1.0000   1.0000
     1.0000   1.0000   1.0000   1.0000   1.0000   1.0000   1.0000   1.0000
     1.0000   1.0000   1.0000   1.0000   1.0000   1.0000   0.0000   0.0000
     0.0000   0.0000   0.0000   0.0000   0.0000   0.0000

          k = 0.0000 0.0000 0.4286 (  5210 PWs)   bands (ev):

   -95.7670 -95.7622 -95.7539 -95.7538 -53.1689 -53.1689 -53.1537 -53.1537
   -53.1518 -53.1274 -53.1273 -53.1262 -53.1090 -53.1090 -53.0986 -53.0986
     9.4018  10.7325  12.5583  12.5583  12.8776  13.0045  13.0045  13.2074
    13.5522  13.5522  14.2220  14.2720  14.3346  14.3346  14.6765  14.6766
    14.6888  14.6888  14.9041  15.0341  15.4368  15.4369  22.2233  22.2233
    24.2770  24.2770  25.1385  25.1385  26.2730  26.2730

     occupation numbers 
     1.0000   1.0000   1.0000   1.0000   1.0000   1.0000   1.0000   1.0000
     1.0000   1.0000   1.0000   1.0000   1.0000   1.0000   1.0000   1.0000
     1.0000   1.0000   1.0000   1.0000   1.0000   1.0000   1.0000   1.0000
     1.0000   1.0000   1.0000   1.0000   1.0000   1.0000   1.0000   1.0000
     1.0000   1.0000   1.0000   1.0000   1.0000   1.0000   0.0000   0.0000
     0.0000   0.0000   0.0000   0.0000   0.0000   0.0000

          k = 0.0000 0.0000-0.5000 (  5230 PWs)   bands (ev):

   -95.7646 -95.7645 -95.7539 -95.7538 -53.1615 -53.1615 -53.1614 -53.1614
   -53.1390 -53.1389 -53.1277 -53.1276 -53.1037 -53.1037 -53.1036 -53.1036
    10.0748  10.0748  12.6097  12.6098  13.0413  13.0414  13.2579  13.2579
    13.2579  13.2579  14.1846  14.1846  14.5062  14.5062  14.5063  14.5063
    14.6321  14.6322  14.9689  14.9690  15.4368  15.4369  23.2218  23.2218
    23.2218  23.2218  25.3636  25.3636  25.9395  25.9395

     occupation numbers 
     1.0000   1.0000   1.0000   1.0000   1.0000   1.0000   1.0000   1.0000
     1.0000   1.0000   1.0000   1.0000   1.0000   1.0000   1.0000   1.0000
     1.0000   1.0000   1.0000   1.0000   1.0000   1.0000   1.0000   1.0000
     1.0000   1.0000   1.0000   1.0000   1.0000   1.0000   1.0000   1.0000
     1.0000   1.0000   1.0000   1.0000   1.0000   1.0000   0.0000   0.0000
     0.0000   0.0000   0.0000   0.0000   0.0000   0.0000

          k = 0.0000 0.0714 0.0714 (  5225 PWs)   bands (ev):

   -95.7749 -95.7542 -95.7541 -95.7538 -53.1940 -53.1935 -53.1935 -53.1296
   -53.1273 -53.1272 -53.1264 -53.1264 -53.1261 -53.0843 -53.0817 -53.0809
     7.3738  11.8613  11.8613  11.8914  12.3582  12.3582  12.3588  13.7747
    13.8288  13.8357  14.6574  14.6830  15.2188  15.2190  15.2190  15.2191
    15.2951  15.2952  15.4087  15.4087  15.4187  18.1367  18.1367  18.6948
    24.2629  24.7605  24.7605  28.8845  29.8845  29.8845

     occupation numbers 
     1.0000   1.0000   1.0000   1.0000   1.0000   1.0000   1.0000   1.0000
     1.0000   1.0000   1.0000   1.0000   1.0000   1.0000   1.0000   1.0000
     1.0000   1.0000   1.0000   1.0000   1.0000   1.0000   1.0000   1.0000
     1.0000   1.0000   1.0000   1.0000   1.0000   1.0000   1.0000   1.0000
     1.0000   1.0000   1.0000   1.0000   1.0000   0.0000   0.0000   0.0000
     0.0000   0.0000   0.0000   0.0000   0.0000   0.0000

          k = 0.0000 0.0714 0.1429 (  5224 PWs)   bands (ev):

   -95.7741 -95.7549 -95.7541 -95.7539 -53.1915 -53.1912 -53.1895 -53.1327
   -53.1298 -53.1264 -53.1256 -53.1255 -53.1246 -53.0891 -53.0834 -53.0820
     7.5633  11.8521  11.9516  11.9786  12.4092  12.4127  12.4128  13.7219
    13.8709  13.8786  14.6116  14.7015  14.9491  14.9560  15.1367  15.1532
    15.1817  15.2567  15.3293  15.4086  15.4092  17.2625  18.5937  19.1424
    24.3298  24.8475  26.0323  27.7484  28.9108  29.3675

     occupation numbers 
     1.0000   1.0000   1.0000   1.0000   1.0000   1.0000   1.0000   1.0000
     1.0000   1.0000   1.0000   1.0000   1.0000   1.0000   1.0000   1.0000
     1.0000   1.0000   1.0000   1.0000   1.0000   1.0000   1.0000   1.0000
     1.0000   1.0000   1.0000   1.0000   1.0000   1.0000   1.0000   1.0000
     1.0000   1.0000   1.0000   1.0000   1.0000   0.0000   0.0000   0.0000
     0.0000   0.0000   0.0000   0.0000   0.0000   0.0000

          k = 0.0000 0.0714 0.2143 (  5217 PWs)   bands (ev):

   -95.7728 -95.7562 -95.7541 -95.7539 -53.1873 -53.1873 -53.1831 -53.1369
   -53.1339 -53.1264 -53.1253 -53.1227 -53.1217 -53.0963 -53.0862 -53.0845
     7.8754  11.8024  12.0913  12.1136  12.4919  12.5030  12.5045  13.6316
    13.9461  13.9480  14.5340  14.5825  14.5968  14.7383  14.9776  15.0490
    15.0724  15.2058  15.2072  15.4068  15.4085  16.3128  19.2146  19.7768
    24.4440  24.9989  26.6030  27.6878  27.7718  28.5349

     occupation numbers 
     1.0000   1.0000   1.0000   1.0000   1.0000   1.0000   1.0000   1.0000
     1.0000   1.0000   1.0000   1.0000   1.0000   1.0000   1.0000   1.0000
     1.0000   1.0000   1.0000   1.0000   1.0000   1.0000   1.0000   1.0000
     1.0000   1.0000   1.0000   1.0000   1.0000   1.0000   1.0000   1.0000
     1.0000   1.0000   1.0000   1.0000   1.0000   1.0000   0.0000   0.0000
     0.0000   0.0000   0.0000   0.0000   0.0000   0.0000

          k = 0.0000 0.0714 0.2857 (  5205 PWs)   bands (ev):

   -95.7711 -95.7578 -95.7541 -95.7539 -53.1822 -53.1819 -53.1745 -53.1421
   -53.1393 -53.1263 -53.1253 -53.1190 -53.1179 -53.1055 -53.0899 -53.0881
     8.3039  11.6503  12.2629  12.2794  12.6026  12.6295  12.6343  13.5116
    14.0388  14.0505  14.2014  14.2277  14.4408  14.7184  14.7882  14.9176
    14.9374  15.0496  15.1362  15.4064  15.4084  15.5601  19.9346  20.5361
    24.5945  25.2229  25.5214  26.6061  27.7045  28.7573

     occupation numbers 
     1.0000   1.0000   1.0000   1.0000   1.0000   1.0000   1.0000   1.0000
     1.0000   1.0000   1.0000   1.0000   1.0000   1.0000   1.0000   1.0000
     1.0000   1.0000   1.0000   1.0000   1.0000   1.0000   1.0000   1.0000
     1.0000   1.0000   1.0000   1.0000   1.0000   1.0000   1.0000   1.0000
     1.0000   1.0000   1.0000   1.0000   1.0000   1.0000   0.0000   0.0000
     0.0000   0.0000   0.0000   0.0000   0.0000   0.0000

          k = 0.0000 0.0714 0.3571 (  5206 PWs)   bands (ev):

   -95.7691 -95.7599 -95.7540 -95.7539 -53.1761 -53.1754 -53.1642 -53.1483
   -53.1458 -53.1262 -53.1255 -53.1164 -53.1146 -53.1133 -53.0944 -53.0925
     8.8376  11.3160  12.4381  12.4496  12.7366  12.7918  12.8030  13.3691
    13.8419  13.8734  14.1268  14.1813  14.3686  14.3879  14.7805  14.7957
    14.8486  14.8731  14.9853  15.1903  15.4066  15.4081  20.7235  21.3879
    24.3299  24.9823  25.4621  25.5251  26.9575  27.9357

     occupation numbers 
     1.0000   1.0000   1.0000   1.0000   1.0000   1.0000   1.0000   1.0000
     1.0000   1.0000   1.0000   1.0000   1.0000   1.0000   1.0000   1.0000
     1.0000   1.0000   1.0000   1.0000   1.0000   1.0000   1.0000   1.0000
     1.0000   1.0000   1.0000   1.0000   1.0000   1.0000   1.0000   1.0000
     1.0000   1.0000   1.0000   1.0000   1.0000   1.0000   0.0000   0.0000
     0.0000   0.0000   0.0000   0.0000   0.0000   0.0000

          k = 0.0000 0.0714 0.4286 (  5215 PWs)   bands (ev):

   -95.7669 -95.7621 -95.7540 -95.7539 -53.1694 -53.1682 -53.1551 -53.1530
   -53.1527 -53.1282 -53.1261 -53.1257 -53.1097 -53.1082 -53.0993 -53.0976
     9.4570  10.7802  12.5769  12.5836  12.8877  12.9912  13.0117  13.2120
    13.5167  13.5487  14.1345  14.1675  14.3348  14.4144  14.6720  14.6807
    14.6885  14.7613  14.9170  15.0724  15.4069  15.4078  21.5663  22.3153
    23.3891  24.3595  25.2575  25.8517  26.3925  27.1931

     occupation numbers 
     1.0000   1.0000   1.0000   1.0000   1.0000   1.0000   1.0000   1.0000
     1.0000   1.0000   1.0000   1.0000   1.0000   1.0000   1.0000   1.0000
     1.0000   1.0000   1.0000   1.0000   1.0000   1.0000   1.0000   1.0000
     1.0000   1.0000   1.0000   1.0000   1.0000   1.0000   1.0000   1.0000
     1.0000   1.0000   1.0000   1.0000   1.0000   1.0000   0.0000   0.0000
     0.0000   0.0000   0.0000   0.0000   0.0000   0.0000

          k = 0.0000 0.0714-0.5000 (  5220 PWs)   bands (ev):

   -95.7645 -95.7644 -95.7540 -95.7539 -53.1623 -53.1622 -53.1607 -53.1606
   -53.1405 -53.1404 -53.1260 -53.1259 -53.1045 -53.1044 -53.1030 -53.1029
    10.1265  10.1265  12.6334  12.6334  13.0488  13.0488  13.2321  13.2322
    13.2605  13.2605  14.1082  14.1082  14.5061  14.5062  14.5660  14.5660
    14.6323  14.6324  14.9912  14.9913  15.4074  15.4074  22.4562  22.4562
    23.3082  23.3082  25.6526  25.6526  26.5798  26.5798

     occupation numbers 
     1.0000   1.0000   1.0000   1.0000   1.0000   1.0000   1.0000   1.0000
     1.0000   1.0000   1.0000   1.0000   1.0000   1.0000   1.0000   1.0000
     1.0000   1.0000   1.0000   1.0000   1.0000   1.0000   1.0000   1.0000
     1.0000   1.0000   1.0000   1.0000   1.0000   1.0000   1.0000   1.0000
     1.0000   1.0000   1.0000   1.0000   1.0000   1.0000   0.0000   0.0000
     0.0000   0.0000   0.0000   0.0000   0.0000   0.0000

          k = 0.0000 0.1429 0.1429 (  5225 PWs)   bands (ev):

   -95.7733 -95.7549 -95.7548 -95.7539 -53.1890 -53.1877 -53.1876 -53.1367
   -53.1281 -53.1280 -53.1244 -53.1244 -53.1239 -53.0949 -53.0852 -53.0819
     7.7509  11.9472  11.9473  12.0614  12.4616  12.4616  12.4620  13.6882
    13.8965  13.9102  14.5942  14.7026  14.7603  14.8176  14.8177  15.0933
    15.1797  15.1797  15.3288  15.3288  15.3668  17.7124  17.7124  19.5427
    24.3926  26.1462  26.1462  26.4879  29.1554  29.1554

     occupation numbers 
     1.0000   1.0000   1.0000   1.0000   1.0000   1.0000   1.0000   1.0000
     1.0000   1.0000   1.0000   1.0000   1.0000   1.0000   1.0000   1.0000
     1.0000   1.0000   1.0000   1.0000   1.0000   1.0000   1.0000   1.0000
     1.0000   1.0000   1.0000   1.0000   1.0000   1.0000   1.0000   1.0000
     1.0000   1.0000   1.0000   1.0000   1.0000   0.0000   0.0000   0.0000
     0.0000   0.0000   0.0000   0.0000   0.0000   0.0000

          k = 0.0000 0.1429 0.2143 (  5214 PWs)   bands (ev):

   -95.7721 -95.7561 -95.7548 -95.7540 -53.1849 -53.1847 -53.1821 -53.1414
   -53.1321 -53.1252 -53.1240 -53.1225 -53.1212 -53.1026 -53.0880 -53.0833
     8.0598  11.9058  12.0951  12.1898  12.5405  12.5440  12.5494  13.6135
    13.9597  13.9603  14.4406  14.4775  14.5362  14.6119  14.7400  14.9981
    15.0749  15.1479  15.2050  15.3281  15.3421  16.7759  18.2889  20.1309
    24.4651  25.3281  26.3404  27.8148  28.0071  28.7606

     occupation numbers 
     1.0000   1.0000   1.0000   1.0000   1.0000   1.0000   1.0000   1.0000
     1.0000   1.0000   1.0000   1.0000   1.0000   1.0000   1.0000   1.0000
     1.0000   1.0000   1.0000   1.0000   1.0000   1.0000   1.0000   1.0000
     1.0000   1.0000   1.0000   1.0000   1.0000   1.0000   1.0000   1.0000
     1.0000   1.0000   1.0000   1.0000   1.0000   0.9926   0.0000   0.0000
     0.0000   0.0000   0.0000   0.0000   0.0000   0.0000

          k = 0.0000 0.1429 0.2857 (  5224 PWs)   bands (ev):

   -95.7705 -95.7577 -95.7547 -95.7540 -53.1807 -53.1796 -53.1746 -53.1468
   -53.1374 -53.1235 -53.1217 -53.1215 -53.1170 -53.1118 -53.0918 -53.0863
     8.4834  11.7648  12.2781  12.3494  12.6462  12.6560  12.6734  13.5050
    14.0164  14.0587  14.0696  14.1574  14.3532  14.4644  14.8027  14.8775
    14.9434  15.0485  15.0790  15.3272  15.3308  16.0119  18.9371  20.8536
    24.0017  24.8500  26.6156  26.8395  27.9167  29.6536

     occupation numbers 
     1.0000   1.0000   1.0000   1.0000   1.0000   1.0000   1.0000   1.0000
     1.0000   1.0000   1.0000   1.0000   1.0000   1.0000   1.0000   1.0000
     1.0000   1.0000   1.0000   1.0000   1.0000   1.0000   1.0000   1.0000
     1.0000   1.0000   1.0000   1.0000   1.0000   1.0000   1.0000   1.0000
     1.0000   1.0000   1.0000   1.0000   1.0000   1.0000   0.0000   0.0000
     0.0000   0.0000   0.0000   0.0000   0.0000   0.0000

          k = 0.0000 0.1429 0.3571 (  5218 PWs)   bands (ev):

   -95.7685 -95.7596 -95.7546 -95.7541 -53.1760 -53.1731 -53.1654 -53.1525
   -53.1439 -53.1231 -53.1221 -53.1215 -53.1170 -53.1120 -53.0963 -53.0904
     9.0104  11.4429  12.4686  12.5186  12.7738  12.7921  12.8344  13.3724
    13.7265  13.8374  14.0487  14.1118  14.1859  14.4289  14.7518  14.8030
    14.8721  14.8825  14.9615  15.3260  15.3262  15.5149  19.6390  21.6778
    23.0161  25.0584  25.6984  26.8693  27.2669  29.5799

     occupation numbers 
     1.0000   1.0000   1.0000   1.0000   1.0000   1.0000   1.0000   1.0000
     1.0000   1.0000   1.0000   1.0000   1.0000   1.0000   1.0000   1.0000
     1.0000   1.0000   1.0000   1.0000   1.0000   1.0000   1.0000   1.0000
     1.0000   1.0000   1.0000   1.0000   1.0000   1.0000   1.0000   1.0000
     1.0000   1.0000   1.0000   1.0000   1.0000   1.0000   0.0000   0.0000
     0.0000   0.0000   0.0000   0.0000   0.0000   0.0000

          k = 0.0000 0.1429 0.4286 (  5220 PWs)   bands (ev):

   -95.7664 -95.7618 -95.7545 -95.7542 -53.1705 -53.1660 -53.1585 -53.1552
   -53.1510 -53.1331 -53.1225 -53.1215 -53.1119 -53.1065 -53.1013 -53.0954
     9.6209  10.9201  12.6260  12.6572  12.9175  12.9528  13.0326  13.2248
    13.4208  13.5375  13.9836  14.0209  14.3371  14.4851  14.6553  14.6848
    14.6880  14.7942  14.9769  15.2450  15.3244  15.3251  20.3914  22.0724
    22.5845  24.6026  25.3988  26.3908  27.5590  28.8241

     occupation numbers 
     1.0000   1.0000   1.0000   1.0000   1.0000   1.0000   1.0000   1.0000
     1.0000   1.0000   1.0000   1.0000   1.0000   1.0000   1.0000   1.0000
     1.0000   1.0000   1.0000   1.0000   1.0000   1.0000   1.0000   1.0000
     1.0000   1.0000   1.0000   1.0000   1.0000   1.0000   1.0000   1.0000
     1.0000   1.0000   1.0000   1.0000   1.0000   1.0000   0.0000   0.0000
     0.0000   0.0000   0.0000   0.0000   0.0000   0.0000

          k = 0.0000 0.1429-0.5000 (  5220 PWs)   bands (ev):

   -95.7641 -95.7640 -95.7544 -95.7543 -53.1646 -53.1646 -53.1585 -53.1584
   -53.1444 -53.1443 -53.1220 -53.1219 -53.1067 -53.1066 -53.1009 -53.1008
    10.2792  10.2792  12.7006  12.7007  13.0703  13.0704  13.1599  13.1600
    13.2676  13.2677  13.9740  13.9741  14.5067  14.5068  14.6201  14.6201
    14.6276  14.6277  15.0901  15.0901  15.3244  15.3245  21.1996  21.1996
    23.5622  23.5622  25.8442  25.8442  28.1384  28.1384

     occupation numbers 
     1.0000   1.0000   1.0000   1.0000   1.0000   1.0000   1.0000   1.0000
     1.0000   1.0000   1.0000   1.0000   1.0000   1.0000   1.0000   1.0000
     1.0000   1.0000   1.0000   1.0000   1.0000   1.0000   1.0000   1.0000
     1.0000   1.0000   1.0000   1.0000   1.0000   1.0000   1.0000   1.0000
     1.0000   1.0000   1.0000   1.0000   1.0000   1.0000   0.0000   0.0000
     0.0000   0.0000   0.0000   0.0000   0.0000   0.0000

          k = 0.0000 0.2143 0.2143 (  5225 PWs)   bands (ev):

   -95.7709 -95.7560 -95.7559 -95.7541 -53.1810 -53.1805 -53.1804 -53.1465
   -53.1292 -53.1291 -53.1204 -53.1204 -53.1200 -53.1106 -53.0909 -53.0836
     8.3629  12.0674  12.0674  12.3075  12.6121  12.6219  12.6219  13.5652
    13.9783  14.0044  14.2390  14.2391  14.2827  14.5063  14.7803  14.9162
    15.0508  15.0508  15.2037  15.2037  15.2818  17.3157  17.3157  20.6686
    23.8767  24.8019  28.0198  28.0198  28.3882  28.3882

     occupation numbers 
     1.0000   1.0000   1.0000   1.0000   1.0000   1.0000   1.0000   1.0000
     1.0000   1.0000   1.0000   1.0000   1.0000   1.0000   1.0000   1.0000
     1.0000   1.0000   1.0000   1.0000   1.0000   1.0000   1.0000   1.0000
     1.0000   1.0000   1.0000   1.0000   1.0000   1.0000   1.0000   1.0000
     1.0000   1.0000   1.0000   1.0000   1.0000   0.0000   0.0000   0.0000
     0.0000   0.0000   0.0000   0.0000   0.0000   0.0000

          k = 0.0000 0.2143 0.2857 (  5221 PWs)   bands (ev):

   -95.7694 -95.7575 -95.7557 -95.7543 -53.1781 -53.1757 -53.1745 -53.1519
   -53.1345 -53.1253 -53.1197 -53.1193 -53.1182 -53.1156 -53.0948 -53.0855
     8.7780  11.9445  12.2697  12.4545  12.7028  12.7188  12.7365  13.4819
    13.8910  13.9949  14.0194  14.0378  14.0864  14.4554  14.8110  14.8626
    14.9259  14.9875  15.0471  15.2022  15.2419  16.4941  17.9032  21.3469
    22.7775  24.9578  27.2174  28.0779  28.5171  28.9009

     occupation numbers 
     1.0000   1.0000   1.0000   1.0000   1.0000   1.0000   1.0000   1.0000
     1.0000   1.0000   1.0000   1.0000   1.0000   1.0000   1.0000   1.0000
     1.0000   1.0000   1.0000   1.0000   1.0000   1.0000   1.0000   1.0000
     1.0000   1.0000   1.0000   1.0000   1.0000   1.0000   1.0000   1.0000
     1.0000   1.0000   1.0000   1.0000   1.0000   1.0000   0.0000   0.0000
     0.0000   0.0000   0.0000   0.0000   0.0000   0.0000

          k = 0.0000 0.2143 0.3571 (  5219 PWs)   bands (ev):

   -95.7676 -95.7593 -95.7555 -95.7545 -53.1750 -53.1694 -53.1672 -53.1572
   -53.1407 -53.1296 -53.1207 -53.1183 -53.1171 -53.1101 -53.0995 -53.0889
     9.2930  11.6428  12.4855  12.6186  12.8007  12.8354  12.8845  13.3708
    13.5767  13.7745  13.8562  13.9840  14.2025  14.4326  14.7011  14.7900
    14.8714  14.8799  14.9739  15.2010  15.2192  15.9021  18.5364  21.7457
    22.1352  25.2346  26.0806  27.3719  28.8290  29.5295

     occupation numbers 
     1.0000   1.0000   1.0000   1.0000   1.0000   1.0000   1.0000   1.0000
     1.0000   1.0000   1.0000   1.0000   1.0000   1.0000   1.0000   1.0000
     1.0000   1.0000   1.0000   1.0000   1.0000   1.0000   1.0000   1.0000
     1.0000   1.0000   1.0000   1.0000   1.0000   1.0000   1.0000   1.0000
     1.0000   1.0000   1.0000   1.0000   1.0000   1.0000   0.0000   0.0000
     0.0000   0.0000   0.0000   0.0000   0.0000   0.0000

          k = 0.0000 0.2143 0.4286 (  5209 PWs)   bands (ev):

   -95.7656 -95.7613 -95.7553 -95.7547 -53.1713 -53.1624 -53.1624 -53.1587
   -53.1477 -53.1396 -53.1174 -53.1166 -53.1155 -53.1046 -53.1043 -53.0933
     9.8876  11.1427  12.6759  12.7719  12.8932  12.9660  13.0653  13.2417
    13.2994  13.5162  13.8060  13.9255  14.3463  14.4800  14.6200  14.6709
    14.6891  14.7376  15.1104  15.2007  15.2075  15.5232  19.2233  20.8138
    23.0140  24.9951  25.6090  26.6763  29.3377  30.2592

     occupation numbers 
     1.0000   1.0000   1.0000   1.0000   1.0000   1.0000   1.0000   1.0000
     1.0000   1.0000   1.0000   1.0000   1.0000   1.0000   1.0000   1.0000
     1.0000   1.0000   1.0000   1.0000   1.0000   1.0000   1.0000   1.0000
     1.0000   1.0000   1.0000   1.0000   1.0000   1.0000   1.0000   1.0000
     1.0000   1.0000   1.0000   1.0000   1.0000   1.0000   0.0000   0.0000
     0.0000   0.0000   0.0000   0.0000   0.0000   0.0000

          k = 0.0000 0.2143-0.5000 (  5218 PWs)   bands (ev):

   -95.7635 -95.7634 -95.7550 -95.7549 -53.1671 -53.1671 -53.1551 -53.1550
   -53.1495 -53.1494 -53.1168 -53.1168 -53.1102 -53.1101 -53.0985 -53.0985
    10.5254  10.5254  12.7915  12.7915  13.0621  13.0621  13.1040  13.1040
    13.2772  13.2772  13.8480  13.8480  14.5110  14.5110  14.5918  14.5919
    14.6057  14.6058  15.2022  15.2023  15.2820  15.2821  19.9773  19.9773
    23.9702  23.9702  26.0874  26.0874  29.9493  29.9493

     occupation numbers 
     1.0000   1.0000   1.0000   1.0000   1.0000   1.0000   1.0000   1.0000
     1.0000   1.0000   1.0000   1.0000   1.0000   1.0000   1.0000   1.0000
     1.0000   1.0000   1.0000   1.0000   1.0000   1.0000   1.0000   1.0000
     1.0000   1.0000   1.0000   1.0000   1.0000   1.0000   1.0000   1.0000
     1.0000   1.0000   1.0000   1.0000   1.0000   1.0000   0.0000   0.0000
     0.0000   0.0000   0.0000   0.0000   0.0000   0.0000

          k = 0.0000 0.2857 0.2857 (  5213 PWs)   bands (ev):

   -95.7680 -95.7572 -95.7571 -95.7546 -53.1741 -53.1740 -53.1706 -53.1570
   -53.1305 -53.1304 -53.1285 -53.1152 -53.1140 -53.1140 -53.0988 -53.0863
     9.1802  12.1711  12.1711  12.5788  12.7702  12.8203  12.8204  13.4325
    13.7208  13.7209  13.8746  13.9736  14.1459  14.4150  14.7230  14.8695
    14.8695  14.9736  15.0460  15.0461  15.1658  17.0099  17.0099  21.6260
    21.9827  25.1814  27.7262  27.7262  28.6296  28.6296

     occupation numbers 
     1.0000   1.0000   1.0000   1.0000   1.0000   1.0000   1.0000   1.0000
     1.0000   1.0000   1.0000   1.0000   1.0000   1.0000   1.0000   1.0000
     1.0000   1.0000   1.0000   1.0000   1.0000   1.0000   1.0000   1.0000
     1.0000   1.0000   1.0000   1.0000   1.0000   1.0000   1.0000   1.0000
     1.0000   1.0000   1.0000   1.0000   1.0000   0.1914   0.1912   0.0000
     0.0000   0.0000   0.0000   0.0000   0.0000   0.0000

          k = 0.0000 0.2857 0.3571 (  5216 PWs)   bands (ev):

   -95.7664 -95.7588 -95.7567 -95.7550 -53.1733 -53.1688 -53.1645 -53.1617
   -53.1375 -53.1366 -53.1256 -53.1131 -53.1127 -53.1081 -53.1036 -53.0885
     9.6768  11.8964  12.4164  12.7065  12.8467  12.9204  12.9502  13.3554
    13.4591  13.6332  13.6830  13.9327  14.2416  14.3884  14.6291  14.7398
    14.7701  14.8725  15.0465  15.1121  15.1216  16.3269  17.5690  20.5923
    22.7343  25.4950  26.5948  27.7912  28.3514  29.2004

     occupation numbers 
     1.0000   1.0000   1.0000   1.0000   1.0000   1.0000   1.0000   1.0000
     1.0000   1.0000   1.0000   1.0000   1.0000   1.0000   1.0000   1.0000
     1.0000   1.0000   1.0000   1.0000   1.0000   1.0000   1.0000   1.0000
     1.0000   1.0000   1.0000   1.0000   1.0000   1.0000   1.0000   1.0000
     1.0000   1.0000   1.0000   1.0000   1.0000   1.0000   0.0000   0.0000
     0.0000   0.0000   0.0000   0.0000   0.0000   0.0000

          k = 0.0000 0.2857 0.4286 (  5233 PWs)   bands (ev):

   -95.7645 -95.7606 -95.7563 -95.7554 -53.1716 -53.1658 -53.1623 -53.1577
   -53.1465 -53.1434 -53.1203 -53.1118 -53.1117 -53.1091 -53.1023 -53.0921
    10.2459  11.4303  12.6394  12.8112  12.9183  13.0312  13.1065  13.2348
    13.2569  13.4815  13.6548  13.8514  14.3699  14.4194  14.5608  14.6236
    14.6405  14.6945  15.0502  15.0786  15.3031  15.8534  18.1872  19.6809
    23.5827  25.5215  25.9053  27.0499  29.0794  29.8728

     occupation numbers 
     1.0000   1.0000   1.0000   1.0000   1.0000   1.0000   1.0000   1.0000
     1.0000   1.0000   1.0000   1.0000   1.0000   1.0000   1.0000   1.0000
     1.0000   1.0000   1.0000   1.0000   1.0000   1.0000   1.0000   1.0000
     1.0000   1.0000   1.0000   1.0000   1.0000   1.0000   1.0000   1.0000
     1.0000   1.0000   1.0000   1.0000   1.0000   1.0000   0.0000   0.0000
     0.0000   0.0000   0.0000   0.0000   0.0000   0.0000

          k = 0.0000 0.2857-0.5000 (  5238 PWs)   bands (ev):

   -95.7626 -95.7625 -95.7559 -95.7558 -53.1691 -53.1691 -53.1549 -53.1549
   -53.1506 -53.1505 -53.1147 -53.1146 -53.1114 -53.1113 -53.0969 -53.0969
    10.8507  10.8507  12.7892  12.7893  13.0490  13.0490  13.1459  13.1460
    13.2858  13.2858  13.7449  13.7449  14.5119  14.5119  14.5237  14.5237
    14.5554  14.5555  15.0596  15.0597  15.5335  15.5335  18.8844  18.8844
    24.5149  24.5149  26.4213  26.4213  29.8993  30.6475

     occupation numbers 
     1.0000   1.0000   1.0000   1.0000   1.0000   1.0000   1.0000   1.0000
     1.0000   1.0000   1.0000   1.0000   1.0000   1.0000   1.0000   1.0000
     1.0000   1.0000   1.0000   1.0000   1.0000   1.0000   1.0000   1.0000
     1.0000   1.0000   1.0000   1.0000   1.0000   1.0000   1.0000   1.0000
     1.0000   1.0000   1.0000   1.0000   1.0000   1.0000   0.0000   0.0000
     0.0000   0.0000   0.0000   0.0000   0.0000   0.0000

          k = 0.0000 0.3571 0.3571 (  5231 PWs)   bands (ev):

   -95.7649 -95.7582 -95.7581 -95.7556 -53.1701 -53.1700 -53.1655 -53.1587
   -53.1456 -53.1316 -53.1315 -53.1098 -53.1087 -53.1069 -53.1068 -53.0897
    10.1463  12.1727  12.1727  12.7311  12.9560  13.0270  13.0271  13.3198
    13.4472  13.4473  13.5657  13.8763  14.3121  14.3432  14.5467  14.6482
    14.6483  14.8776  14.8777  15.0226  15.3099  16.7974  16.7974  19.5749
    23.4522  25.8461  27.2265  27.2265  28.3119  28.3120

     occupation numbers 
     1.0000   1.0000   1.0000   1.0000   1.0000   1.0000   1.0000   1.0000
     1.0000   1.0000   1.0000   1.0000   1.0000   1.0000   1.0000   1.0000
     1.0000   1.0000   1.0000   1.0000   1.0000   1.0000   1.0000   1.0000
     1.0000   1.0000   1.0000   1.0000   1.0000   1.0000   1.0000   1.0000
     1.0000   1.0000   1.0000   1.0000   1.0000   0.9835   0.9835   0.0000
     0.0000   0.0000   0.0000   0.0000   0.0000   0.0000

          k = 0.0000 0.3571 0.4286 (  5245 PWs)   bands (ev):

   -95.7633 -95.7598 -95.7576 -95.7562 -53.1705 -53.1682 -53.1656 -53.1533
   -53.1521 -53.1382 -53.1260 -53.1143 -53.1076 -53.1061 -53.1012 -53.0924
    10.6774  11.7545  12.4276  12.7063  13.0747  13.1095  13.1518  13.2633
    13.2993  13.4307  13.5340  13.7871  14.3471  14.4166  14.4829  14.5295
    14.5391  14.7085  14.8904  14.9575  15.5391  16.2310  17.3325  18.6989
    24.2713  26.1667  26.2966  27.5265  27.9626  28.9390

     occupation numbers 
     1.0000   1.0000   1.0000   1.0000   1.0000   1.0000   1.0000   1.0000
     1.0000   1.0000   1.0000   1.0000   1.0000   1.0000   1.0000   1.0000
     1.0000   1.0000   1.0000   1.0000   1.0000   1.0000   1.0000   1.0000
     1.0000   1.0000   1.0000   1.0000   1.0000   1.0000   1.0000   1.0000
     1.0000   1.0000   1.0000   1.0000   1.0000   1.0000   0.0000   0.0000
     0.0000   0.0000   0.0000   0.0000   0.0000   0.0000

          k = 0.0000 0.3571-0.5000 (  5222 PWs)   bands (ev):

   -95.7616 -95.7615 -95.7569 -95.7568 -53.1699 -53.1699 -53.1599 -53.1599
[...]
     1.0000   1.0000   1.0000   1.0000   1.0000   1.0000   1.0000   1.0000
     1.0000   1.0000   1.0000   1.0000   1.0000   1.0000   1.0000   1.0000
     1.0000   1.0000   1.0000   1.0000   1.0000   1.0000   0.0000   0.0000
     0.0000   0.0000   0.0000   0.0000   0.0000   0.0000

          k = 0.2857 0.3571 0.3571 (  5220 PWs)   bands (ev):

   -95.7631 -95.7582 -95.7581 -95.7573 -53.1903 -53.1881 -53.1881 -53.1714
   -53.1209 -53.1152 -53.1151 -53.1060 -53.1054 -53.1053 -53.0963 -53.0935
    10.7257  12.0210  12.0210  12.1871  13.3235  13.3825  13.3825  13.7369
    13.8236  13.8237  13.8829  13.9000  13.9011  14.1181  14.1181  14.1343
    14.9353  15.1044  15.2739  15.2885  15.2886  17.0509  17.0510  18.1269
    21.3351  22.5544  22.5544  25.7369  31.9645  33.4678

     occupation numbers 
     1.0000   1.0000   1.0000   1.0000   1.0000   1.0000   1.0000   1.0000
     1.0000   1.0000   1.0000   1.0000   1.0000   1.0000   1.0000   1.0000
     1.0000   1.0000   1.0000   1.0000   1.0000   1.0000   1.0000   1.0000
     1.0000   1.0000   1.0000   1.0000   1.0000   1.0000   1.0000   1.0000
     1.0000   1.0000   1.0000   1.0000   1.0000   0.0730   0.0730   0.0000
     0.0000   0.0000   0.0000   0.0000   0.0000   0.0000

          k = 0.2857 0.3571 0.4286 (  5212 PWs)   bands (ev):

   -95.7619 -95.7594 -95.7580 -95.7575 -53.1920 -53.1909 -53.1868 -53.1782
   -53.1187 -53.1157 -53.1080 -53.1044 -53.1041 -53.1022 -53.0992 -53.0953
    11.0833  11.7455  12.0473  12.1282  13.4055  13.4421  13.5562  13.8144
    13.8388  13.8543  13.9101  13.9310  13.9900  14.0238  14.0726  14.0756
    15.0273  15.2414  15.2470  15.2496  15.2900  16.2373  17.3999  18.0466
    21.0580  21.7787  23.1871  24.7797  32.5203  33.6976

     occupation numbers 
     1.0000   1.0000   1.0000   1.0000   1.0000   1.0000   1.0000   1.0000
     1.0000   1.0000   1.0000   1.0000   1.0000   1.0000   1.0000   1.0000
     1.0000   1.0000   1.0000   1.0000   1.0000   1.0000   1.0000   1.0000
     1.0000   1.0000   1.0000   1.0000   1.0000   1.0000   1.0000   1.0000
     1.0000   1.0000   1.0000   1.0000   1.0000   1.0000   0.0000   0.0000
     0.0000   0.0000   0.0000   0.0000   0.0000   0.0000

          k = 0.2857 0.3571-0.5000 (  5220 PWs)   bands (ev):

   -95.7607 -95.7606 -95.7578 -95.7577 -53.1923 -53.1922 -53.1835 -53.1834
   -53.1170 -53.1169 -53.1037 -53.1037 -53.1029 -53.1029 -53.0985 -53.0985
    11.4300  11.4300  12.0817  12.0817  13.4455  13.4456  13.7079  13.7080
    13.8658  13.8658  13.9544  13.9545  14.0068  14.0068  14.0545  14.0546
    15.1627  15.1627  15.2251  15.2251  15.6371  15.6372  17.7652  17.7652
    21.2438  21.2439  23.9297  23.9297  33.1541  33.1541

     occupation numbers 
     1.0000   1.0000   1.0000   1.0000   1.0000   1.0000   1.0000   1.0000
     1.0000   1.0000   1.0000   1.0000   1.0000   1.0000   1.0000   1.0000
     1.0000   1.0000   1.0000   1.0000   1.0000   1.0000   1.0000   1.0000
     1.0000   1.0000   1.0000   1.0000   1.0000   1.0000   1.0000   1.0000
     1.0000   1.0000   1.0000   1.0000   1.0000   1.0000   0.0000   0.0000
     0.0000   0.0000   0.0000   0.0000   0.0000   0.0000

          k = 0.2857 0.4286 0.4286 (  5211 PWs)   bands (ev):

   -95.7610 -95.7590 -95.7589 -95.7580 -53.1935 -53.1908 -53.1908 -53.1841
   -53.1151 -53.1099 -53.1098 -53.1022 -53.1020 -53.1009 -53.1008 -53.0957
    11.3445  11.8277  11.8277  12.0148  13.5065  13.5911  13.5912  13.7895
    13.8867  13.9581  13.9581  13.9989  14.0161  14.0488  14.0488  14.1073
    15.0261  15.1992  15.1993  15.2057  15.5461  16.5828  16.5829  17.5605
    21.1972  22.3382  22.3382  23.8465  33.0948  34.4897

     occupation numbers 
     1.0000   1.0000   1.0000   1.0000   1.0000   1.0000   1.0000   1.0000
     1.0000   1.0000   1.0000   1.0000   1.0000   1.0000   1.0000   1.0000
     1.0000   1.0000   1.0000   1.0000   1.0000   1.0000   1.0000   1.0000
     1.0000   1.0000   1.0000   1.0000   1.0000   1.0000   1.0000   1.0000
     1.0000   1.0000   1.0000   1.0000   1.0000   1.0000   1.0000   0.0000
     0.0000   0.0000   0.0000   0.0000   0.0000   0.0000

          k = 0.2857 0.4286-0.5000 (  5208 PWs)   bands (ev):

   -95.7600 -95.7599 -95.7585 -95.7584 -53.1931 -53.1930 -53.1884 -53.1884
   -53.1122 -53.1122 -53.1054 -53.1054 -53.1009 -53.1009 -53.0978 -53.0978
    11.5940  11.5941  11.9156  11.9156  13.5703  13.5703  13.7107  13.7108
    13.9096  13.9096  13.9637  13.9637  14.0814  14.0815  14.1362  14.1363
    15.1091  15.1091  15.1789  15.1790  15.9538  15.9538  17.0344  17.0344
    21.6596  21.6596  23.0315  23.0315  33.7608  33.7609

     occupation numbers 
     1.0000   1.0000   1.0000   1.0000   1.0000   1.0000   1.0000   1.0000
     1.0000   1.0000   1.0000   1.0000   1.0000   1.0000   1.0000   1.0000
     1.0000   1.0000   1.0000   1.0000   1.0000   1.0000   1.0000   1.0000
     1.0000   1.0000   1.0000   1.0000   1.0000   1.0000   1.0000   1.0000
     1.0000   1.0000   1.0000   1.0000   1.0000   1.0000   0.1114   0.1114
     0.0000   0.0000   0.0000   0.0000   0.0000   0.0000

          k = 0.2857-0.5000-0.5000 (  5220 PWs)   bands (ev):

   -95.7593 -95.7591 -95.7591 -95.7591 -53.1918 -53.1918 -53.1918 -53.1917
   -53.1086 -53.1084 -53.1084 -53.1084 -53.0988 -53.0988 -53.0987 -53.0987
    11.7545  11.7546  11.7546  11.7546  13.6622  13.6622  13.6623  13.6623
    13.9162  13.9163  13.9163  13.9163  14.1795  14.1795  14.1795  14.1795
    15.1199  15.1199  15.1199  15.1199  16.4120  16.4120  16.4121  16.4121
    22.2698  22.2698  22.2698  22.2698  34.4517  34.4517

     occupation numbers 
     1.0000   1.0000   1.0000   1.0000   1.0000   1.0000   1.0000   1.0000
     1.0000   1.0000   1.0000   1.0000   1.0000   1.0000   1.0000   1.0000
     1.0000   1.0000   1.0000   1.0000   1.0000   1.0000   1.0000   1.0000
     1.0000   1.0000   1.0000   1.0000   1.0000   1.0000   1.0000   1.0000
     1.0000   1.0000   1.0000   1.0000   1.0000   1.0000   1.0000   1.0000
     0.0000   0.0000   0.0000   0.0000   0.0000   0.0000

          k = 0.3571 0.3571 0.3571 (  5211 PWs)   bands (ev):

   -95.7622 -95.7583 -95.7581 -95.7581 -53.1924 -53.1924 -53.1923 -53.1789
   -53.1123 -53.1122 -53.1122 -53.1041 -53.1041 -53.1040 -53.0954 -53.0954
    10.9865  11.9743  11.9743  11.9743  13.4810  13.4810  13.4810  13.8623
    13.8623  13.9821  14.0115  14.0116  14.0116  14.0252  14.0252  14.0253
    15.0640  15.0640  15.2995  15.2995  15.2996  17.1873  17.1873  17.1873
    21.7097  21.7097  21.7097  24.6887  33.9315  33.9315

     occupation numbers 
     1.0000   1.0000   1.0000   1.0000   1.0000   1.0000   1.0000   1.0000
     1.0000   1.0000   1.0000   1.0000   1.0000   1.0000   1.0000   1.0000
     1.0000   1.0000   1.0000   1.0000   1.0000   1.0000   1.0000   1.0000
     1.0000   1.0000   1.0000   1.0000   1.0000   1.0000   1.0000   1.0000
     1.0000   1.0000   1.0000   1.0000   1.0000   0.0004   0.0004   0.0004
     0.0000   0.0000   0.0000   0.0000   0.0000   0.0000

          k = 0.3571 0.3571 0.4286 (  5221 PWs)   bands (ev):

   -95.7613 -95.7592 -95.7582 -95.7581 -53.1951 -53.1951 -53.1921 -53.1852
   -53.1110 -53.1109 -53.1051 -53.1028 -53.1027 -53.1019 -53.0975 -53.0965
    11.2519  11.7481  11.9431  11.9431  13.5392  13.5392  13.6261  13.8175
    13.8558  13.9395  13.9680  13.9681  14.1199  14.1776  14.1780  14.1781
    15.1696  15.1909  15.2755  15.2756  15.2905  16.3282  17.3097  17.3097
    21.1457  21.1457  22.2607  23.7584  34.4446  34.4446

     occupation numbers 
     1.0000   1.0000   1.0000   1.0000   1.0000   1.0000   1.0000   1.0000
     1.0000   1.0000   1.0000   1.0000   1.0000   1.0000   1.0000   1.0000
     1.0000   1.0000   1.0000   1.0000   1.0000   1.0000   1.0000   1.0000
     1.0000   1.0000   1.0000   1.0000   1.0000   1.0000   1.0000   1.0000
     1.0000   1.0000   1.0000   1.0000   1.0000   1.0000   0.0000   0.0000
     0.0000   0.0000   0.0000   0.0000   0.0000   0.0000

          k = 0.3571 0.3571-0.5000 (  5224 PWs)   bands (ev):

   -95.7603 -95.7602 -95.7582 -95.7581 -53.1960 -53.1959 -53.1897 -53.1897
   -53.1106 -53.1105 -53.1022 -53.1022 -53.0998 -53.0998 -53.0998 -53.0997
    11.5075  11.5075  11.9322  11.9323  13.5582  13.5582  13.7404  13.7404
    13.8820  13.8820  13.9489  13.9489  14.2016  14.2017  14.2475  14.2475
    15.2465  15.2465  15.2581  15.2582  15.6310  15.6310  17.3614  17.3614
    20.9436  20.9436  22.9477  22.9477  34.8133  34.8133

     occupation numbers 
     1.0000   1.0000   1.0000   1.0000   1.0000   1.0000   1.0000   1.0000
     1.0000   1.0000   1.0000   1.0000   1.0000   1.0000   1.0000   1.0000
     1.0000   1.0000   1.0000   1.0000   1.0000   1.0000   1.0000   1.0000
     1.0000   1.0000   1.0000   1.0000   1.0000   1.0000   1.0000   1.0000
     1.0000   1.0000   1.0000   1.0000   1.0000   1.0000   0.0000   0.0000
     0.0000   0.0000   0.0000   0.0000   0.0000   0.0000

          k = 0.3571 0.4286 0.4286 (  5221 PWs)   bands (ev):

   -95.7605 -95.7590 -95.7589 -95.7584 -53.1973 -53.1959 -53.1959 -53.1907
   -53.1078 -53.1050 -53.1050 -53.1012 -53.1008 -53.1007 -53.0989 -53.0968
    11.4221  11.7647  11.7647  11.8602  13.6125  13.6560  13.6560  13.8022
    13.8245  13.8896  13.8897  13.9033  14.3614  14.3615  14.3782  14.4820
    15.1397  15.2643  15.2699  15.2699  15.3832  16.5163  16.5163  17.0920
    20.9078  21.5367  21.5367  22.8709  35.0114  36.0915

     occupation numbers 
     1.0000   1.0000   1.0000   1.0000   1.0000   1.0000   1.0000   1.0000
     1.0000   1.0000   1.0000   1.0000   1.0000   1.0000   1.0000   1.0000
     1.0000   1.0000   1.0000   1.0000   1.0000   1.0000   1.0000   1.0000
     1.0000   1.0000   1.0000   1.0000   1.0000   1.0000   1.0000   1.0000
     1.0000   1.0000   1.0000   1.0000   1.0000   1.0000   1.0000   0.0210
     0.0000   0.0000   0.0000   0.0000   0.0000   0.0000

          k = 0.3571 0.4286-0.5000 (  5214 PWs)   bands (ev):

   -95.7598 -95.7597 -95.7587 -95.7586 -53.1977 -53.1976 -53.1943 -53.1943
   -53.1061 -53.1060 -53.1013 -53.1012 -53.1003 -53.1003 -53.0984 -53.0983
    11.5920  11.5921  11.8009  11.8009  13.6526  13.6527  13.7450  13.7450
    13.8403  13.8404  13.8756  13.8757  14.4640  14.4641  14.5070  14.5071
    15.2168  15.2168  15.2479  15.2480  15.8229  15.8229  16.7932  16.7932
    21.0623  21.0623  22.1253  22.1253  35.6195  35.6195

     occupation numbers 
     1.0000   1.0000   1.0000   1.0000   1.0000   1.0000   1.0000   1.0000
     1.0000   1.0000   1.0000   1.0000   1.0000   1.0000   1.0000   1.0000
     1.0000   1.0000   1.0000   1.0000   1.0000   1.0000   1.0000   1.0000
     1.0000   1.0000   1.0000   1.0000   1.0000   1.0000   1.0000   1.0000
     1.0000   1.0000   1.0000   1.0000   1.0000   1.0000   0.9858   0.9858
     0.0000   0.0000   0.0000   0.0000   0.0000   0.0000

          k = 0.3571-0.5000-0.5000 (  5200 PWs)   bands (ev):

   -95.7593 -95.7591 -95.7591 -95.7591 -53.1971 -53.1971 -53.1971 -53.1970
   -53.1032 -53.1031 -53.1031 -53.1031 -53.0987 -53.0987 -53.0987 -53.0987
    11.6883  11.6883  11.6883  11.6884  13.7184  13.7185  13.7185  13.7185
    13.8359  13.8359  13.8359  13.8360  14.5972  14.5972  14.5972  14.5972
    15.2089  15.2089  15.2089  15.2090  16.2309  16.2309  16.2309  16.2309
    21.4835  21.4835  21.4835  21.4835  36.2877  36.2877

     occupation numbers 
     1.0000   1.0000   1.0000   1.0000   1.0000   1.0000   1.0000   1.0000
     1.0000   1.0000   1.0000   1.0000   1.0000   1.0000   1.0000   1.0000
     1.0000   1.0000   1.0000   1.0000   1.0000   1.0000   1.0000   1.0000
     1.0000   1.0000   1.0000   1.0000   1.0000   1.0000   1.0000   1.0000
     1.0000   1.0000   1.0000   1.0000   1.0000   1.0000   1.0000   1.0000
     0.0000   0.0000   0.0000   0.0000   0.0000   0.0000

          k = 0.4286 0.4286 0.4286 (  5238 PWs)   bands (ev):

   -95.7600 -95.7590 -95.7589 -95.7589 -53.1991 -53.1991 -53.1991 -53.1956
   -53.1025 -53.1024 -53.1024 -53.1002 -53.1002 -53.1001 -53.0978 -53.0978
    11.5082  11.7242  11.7242  11.7242  13.6998  13.6998  13.6998  13.7945
    13.7945  13.8351  13.8351  13.8351  14.6527  14.6527  14.6527  15.0137
    15.2241  15.2241  15.2880  15.2880  15.2881  16.4446  16.4446  16.4446
    21.0205  21.0205  21.0205  22.0579  36.8290  36.8290

     occupation numbers 
     1.0000   1.0000   1.0000   1.0000   1.0000   1.0000   1.0000   1.0000
     1.0000   1.0000   1.0000   1.0000   1.0000   1.0000   1.0000   1.0000
     1.0000   1.0000   1.0000   1.0000   1.0000   1.0000   1.0000   1.0000
     1.0000   1.0000   1.0000   1.0000   1.0000   1.0000   1.0000   1.0000
     1.0000   1.0000   1.0000   1.0000   1.0000   1.0000   1.0000   1.0000
     0.0000   0.0000   0.0000   0.0000   0.0000   0.0000

          k = 0.4286 0.4286-0.5000 (  5238 PWs)   bands (ev):

   -95.7595 -95.7594 -95.7590 -95.7589 -53.2002 -53.2002 -53.1985 -53.1985
   -53.1019 -53.1018 -53.0997 -53.0996 -53.0991 -53.0990 -53.0990 -53.0990
    11.6075  11.6075  11.7102  11.7102  13.7166  13.7166  13.7611  13.7612
    13.7981  13.7982  13.8147  13.8148  14.7845  14.7845  14.9133  14.9133
    15.2745  15.2745  15.2772  15.2772  15.7478  15.7478  16.4106  16.4106
    20.8412  20.8412  21.4286  21.4286  37.1411  37.1411

     occupation numbers 
     1.0000   1.0000   1.0000   1.0000   1.0000   1.0000   1.0000   1.0000
     1.0000   1.0000   1.0000   1.0000   1.0000   1.0000   1.0000   1.0000
     1.0000   1.0000   1.0000   1.0000   1.0000   1.0000   1.0000   1.0000
     1.0000   1.0000   1.0000   1.0000   1.0000   1.0000   1.0000   1.0000
     1.0000   1.0000   1.0000   1.0000   1.0000   1.0000   1.0000   1.0000
     0.0000   0.0000   0.0000   0.0000   0.0000   0.0000

          k = 0.4286-0.5000-0.5000 (  5228 PWs)   bands (ev):

   -95.7593 -95.7591 -95.7591 -95.7591 -53.2005 -53.2005 -53.2005 -53.2004
   -53.1000 -53.0999 -53.0999 -53.0998 -53.0988 -53.0988 -53.0987 -53.0987
    11.6459  11.6459  11.6459  11.6460  13.7558  13.7559  13.7559  13.7559
    13.7859  13.7859  13.7859  13.7859  15.0220  15.0220  15.0221  15.0221
    15.2649  15.2649  15.2649  15.2650  15.9762  15.9762  15.9762  15.9762
    20.9825  20.9825  20.9825  20.9825  37.8326  37.8326

     occupation numbers 
     1.0000   1.0000   1.0000   1.0000   1.0000   1.0000   1.0000   1.0000
     1.0000   1.0000   1.0000   1.0000   1.0000   1.0000   1.0000   1.0000
     1.0000   1.0000   1.0000   1.0000   1.0000   1.0000   1.0000   1.0000
     1.0000   1.0000   1.0000   1.0000   1.0000   1.0000   1.0000   1.0000
     1.0000   1.0000   1.0000   1.0000   1.0000   1.0000   1.0000   1.0000
     0.0000   0.0000   0.0000   0.0000   0.0000   0.0000

          k =-0.5000-0.5000-0.5000 (  5232 PWs)   bands (ev):

   -95.7593 -95.7591 -95.7591 -95.7591 -53.2016 -53.2016 -53.2016 -53.2016
   -53.0988 -53.0988 -53.0988 -53.0987 -53.0987 -53.0987 -53.0987 -53.0987
    11.6314  11.6314  11.6314  11.6314  13.7689  13.7689  13.7689  13.7689
    13.7689  13.7690  13.7690  13.7690  15.2840  15.2840  15.2840  15.2840
    15.2840  15.2841  15.2841  15.2841  15.7762  15.7762  15.7762  15.7762
    20.8101  20.8101  20.8101  20.8101  38.2924  38.2924

     occupation numbers 
     1.0000   1.0000   1.0000   1.0000   1.0000   1.0000   1.0000   1.0000
     1.0000   1.0000   1.0000   1.0000   1.0000   1.0000   1.0000   1.0000
     1.0000   1.0000   1.0000   1.0000   1.0000   1.0000   1.0000   1.0000
     1.0000   1.0000   1.0000   1.0000   1.0000   1.0000   1.0000   1.0000
     1.0000   1.0000   1.0000   1.0000   1.0000   1.0000   1.0000   1.0000
     0.0000   0.0000   0.0000   0.0000   0.0000   0.0000

     the Fermi energy is    16.9482 ev

!    total energy              =   -1947.54442869 Ry
     total all-electron energy =    -13239.890843 Ry
     estimated scf accuracy    <          7.3E-09 Ry
     smearing contrib. (-TS)   =      -0.00031572 Ry
     internal energy E=F+TS    =   -1947.54411297 Ry

     The total energy is F=E-TS. E is the sum of the following terms:
     one-electron contribution =    -968.00367508 Ry
     hartree contribution      =     548.52899334 Ry
     xc contribution           =    -153.30484666 Ry
     ewald contribution        =    -979.31718513 Ry
     one-center paw contrib.   =    -395.44739945 Ry
      -> PAW hartree energy AE =     319.26161690 Ry
      -> PAW hartree energy PS =    -321.24036887 Ry
      -> PAW xc energy AE      =    -133.83486052 Ry
      -> PAW xc energy PS      =      36.95173514 Ry
      -> total E_H with PAW    =     546.55024137 Ry
      -> total E_XC with PAW   =    -250.18797203 Ry

     convergence has been achieved in   5 iterations

     Writing all to output data dir ./out/Cu.save/

     init_run     :      1.13s CPU      1.27s WALL (       1 calls)
     electrons    :    176.51s CPU    178.13s WALL (       1 calls)

     Called by init_run:
     wfcinit      :      0.72s CPU      0.84s WALL (       1 calls)
     potinit      :      0.17s CPU      0.19s WALL (       1 calls)
     hinit0       :      0.15s CPU      0.16s WALL (       1 calls)

     Called by electrons:
     c_bands      :    158.62s CPU    159.92s WALL (       6 calls)
     sum_band     :     16.72s CPU     17.03s WALL (       6 calls)
     v_of_rho     :      0.06s CPU      0.06s WALL (       6 calls)
     v_h          :      0.00s CPU      0.00s WALL (       6 calls)
     v_xc         :      0.06s CPU      0.06s WALL (       6 calls)
     newd         :      0.29s CPU      0.29s WALL (       6 calls)
     PAW_pot      :      1.01s CPU      1.03s WALL (       6 calls)
     mix_rho      :      0.01s CPU      0.01s WALL (       6 calls)

     Called by c_bands:
     init_us_2    :      0.70s CPU      0.71s WALL (    1440 calls)
     init_us_2:cp :      0.69s CPU      0.71s WALL (    1440 calls)
     cegterg      :    155.11s CPU    156.39s WALL (     720 calls)

     Called by sum_band:
     sum_band:wei :      0.02s CPU      0.02s WALL (       6 calls)
     sum_band:loo :     16.48s CPU     16.77s WALL (       6 calls)
     sum_band:buf :      0.21s CPU      0.21s WALL (     720 calls)
     sum_band:ini :      0.30s CPU      0.30s WALL (     720 calls)
     sum_band:cal :      5.23s CPU      5.33s WALL (     720 calls)
     sum_band:bec :      0.11s CPU      0.11s WALL (     720 calls)
     addusdens    :      0.20s CPU      0.21s WALL (       6 calls)
                                        0.00s GPU  (       6 calls)
     addusd:skk   :      0.00s CPU      0.00s WALL (       6 calls)
                                        0.00s GPU  (       6 calls)

     Called by *egterg:
     cdiaghg      :     11.52s CPU     11.58s WALL (    2016 calls)
     cegterg:over :     19.85s CPU     20.08s WALL (    1536 calls)
     cegterg:upda :      7.08s CPU      7.10s WALL (    1536 calls)
     cegterg:last :     17.29s CPU     17.36s WALL (    1402 calls)
     h_psi        :     74.84s CPU     75.62s WALL (    2256 calls)
     s_psi        :      9.58s CPU      9.63s WALL (    2256 calls)
     g_psi        :      0.30s CPU      0.31s WALL (    1536 calls)

     Called by h_psi:
     h_psi:calbec :     12.84s CPU     13.06s WALL (    2256 calls)
     vloc_psi     :     52.45s CPU     52.95s WALL (    2256 calls)
     add_vuspsi   :      9.27s CPU      9.32s WALL (    2256 calls)

     General routines
     calbec       :     18.06s CPU     18.38s WALL (    2976 calls)
     fft          :      0.11s CPU      0.11s WALL (      67 calls)
     ffts         :      0.00s CPU      0.00s WALL (       6 calls)
     fftw         :     58.29s CPU     58.94s WALL (  199956 calls)

     Parallel routines

     PAW routines
     PAW_pot      :      1.01s CPU      1.03s WALL (       6 calls)
     PAW_symme    :      0.01s CPU      0.01s WALL (      11 calls)

     PWSCF        :   2m58.40s CPU   3m 1.21s WALL


   This run was terminated on:  16:41:48  15Feb2024            

=------------------------------------------------------------------------------=
   JOB DONE.
=------------------------------------------------------------------------------=
