
     Program PWSCF v.7.2 starts on 21Mar2024 at 23:58:47 

     This program is part of the open-source Quantum ESPRESSO suite
     for quantum simulation of materials; please cite
         "P. Giannozzi et al., J. Phys.:Condens. Matter 21 395502 (2009);
         "P. Giannozzi et al., J. Phys.:Condens. Matter 29 465901 (2017);
         "P. Giannozzi et al., J. Chem. Phys. 152 154105 (2020);
          URL http://www.quantum-espresso.org", 
     in publications or presentations arising from this work. More details at
     http://www.quantum-espresso.org/quote

     Parallel version (MPI), running on    20 processors

     MPI processes distributed on     1 nodes
     257894 MiB available memory on the printing compute node when the environment starts
 
     Waiting for input...
     Reading input from standard input

     Current dimensions of program PWSCF are:
     Max number of different atomic species (ntypx) = 10
     Max number of k-points (npk) = 120000
     Max angular momentum in pseudopotentials (lmaxx) =  4
     file Ni.pbe-spn-kjpaw_psl.1.0.0.UPF: wavefunction(s)  3P 3D renormalized
     Found identity + (  0.0000 -0.5000 -0.5000) symmetry
     This is a supercell, fractional translations are disabled
     Message from routine setup:
     using ibrav=0 with symmetry is DISCOURAGED, use correct ibrav instead
 
     R & G space division:  proc/nbgrp/npool/nimage =      20
     Subspace diagonalization in iterative solution of the eigenvalue problem:
     a serial algorithm will be used

 
     Parallelization info
     --------------------
     sticks:   dense  smooth     PW     G-vecs:    dense   smooth      PW
     Min         137     123     34                 5407     4615     690
     Max         139     124     36                 5408     4619     691
     Sum        2749    2469    697               108143    92349   13805
 
     Using Slab Decomposition
 


     bravais-lattice index     =            0
     lattice parameter (alat)  =       6.5671  a.u.
     unit-cell volume          =     283.2147 (a.u.)^3
     number of atoms/cell      =            4
     number of atomic types    =            1
     number of electrons       =        72.00
     number of Kohn-Sham states=           43
     kinetic-energy cutoff     =     180.0000  Ry
     charge density cutoff     =     800.0000  Ry
     scf convergence threshold =      8.0E-08
     mixing beta               =       0.7000
     number of iterations used =            8  plain     mixing
     Exchange-correlation= SLA  PW   PBX  PBC
                           (   1   4   3   4   0   0   0)

     celldm(1)=   6.567074  celldm(2)=   0.000000  celldm(3)=   0.000000
     celldm(4)=   0.000000  celldm(5)=   0.000000  celldm(6)=   0.000000

     crystal axes: (cart. coord. in units of alat)
               a(1) = (   1.000000   0.000000   0.000000 )  
               a(2) = (   0.000000   1.000000   0.000000 )  
               a(3) = (   0.000000   0.000000   1.000000 )  

     reciprocal axes: (cart. coord. in units 2 pi/alat)
               b(1) = (  1.000000  0.000000  0.000000 )  
               b(2) = (  0.000000  1.000000  0.000000 )  
               b(3) = (  0.000000  0.000000  1.000000 )  


     PseudoPot. # 1 for Ni read from file:
     /truba/home/amuhaymin/ZnS/pseudo/QE/Ni.pbe-spn-kjpaw_psl.1.0.0.UPF
     MD5 check sum: 6e86b733589c3ad8389697b807d86aa7
     Pseudo is Projector augmented-wave + core cor, Zval = 18.0
     Generated using &quot;atomic&quot; code by A. Dal Corso  v.6.3
     Shape of augmentation charge: PSQ
     Using radial grid of 1195 points,  6 beta functions with: 
                l(1) =   0
                l(2) =   0
                l(3) =   1
                l(4) =   1
                l(5) =   2
                l(6) =   2
     Q(r) pseudized with 0 coefficients 


     atomic species   valence    mass     pseudopotential
        Ni            18.00    58.69340     Ni( 1.00)

     Starting magnetic structure 
     atomic species   magnetization
        Ni           0.278

     48 Sym. Ops., with inversion, found


                                    s                        frac. trans.

      isym =  1     identity                                     

 cryst.   s( 1) = (     1          0          0      )
                  (     0          1          0      )
                  (     0          0          1      )

 cart.    s( 1) = (  1.0000000  0.0000000  0.0000000 )
                  (  0.0000000  1.0000000  0.0000000 )
                  (  0.0000000  0.0000000  1.0000000 )


      isym =  2     180 deg rotation - cart. axis [0,0,1]        

 cryst.   s( 2) = (    -1          0          0      )
                  (     0         -1          0      )
                  (     0          0          1      )

 cart.    s( 2) = ( -1.0000000  0.0000000  0.0000000 )
                  (  0.0000000 -1.0000000  0.0000000 )
                  (  0.0000000  0.0000000  1.0000000 )


      isym =  3     180 deg rotation - cart. axis [0,1,0]        

 cryst.   s( 3) = (    -1          0          0      )
                  (     0          1          0      )
                  (     0          0         -1      )

 cart.    s( 3) = ( -1.0000000  0.0000000  0.0000000 )
                  (  0.0000000  1.0000000  0.0000000 )
                  (  0.0000000  0.0000000 -1.0000000 )


      isym =  4     180 deg rotation - cart. axis [1,0,0]        

 cryst.   s( 4) = (     1          0          0      )
                  (     0         -1          0      )
                  (     0          0         -1      )

 cart.    s( 4) = (  1.0000000  0.0000000  0.0000000 )
                  (  0.0000000 -1.0000000  0.0000000 )
                  (  0.0000000  0.0000000 -1.0000000 )


      isym =  5     180 deg rotation - cart. axis [1,1,0]        

 cryst.   s( 5) = (     0          1          0      )
                  (     1          0          0      )
                  (     0          0         -1      )

 cart.    s( 5) = (  0.0000000  1.0000000  0.0000000 )
                  (  1.0000000  0.0000000  0.0000000 )
                  (  0.0000000  0.0000000 -1.0000000 )


      isym =  6     180 deg rotation - cart. axis [1,-1,0]       

 cryst.   s( 6) = (     0         -1          0      )
                  (    -1          0          0      )
                  (     0          0         -1      )

 cart.    s( 6) = (  0.0000000 -1.0000000  0.0000000 )
                  ( -1.0000000  0.0000000  0.0000000 )
                  (  0.0000000  0.0000000 -1.0000000 )


      isym =  7      90 deg rotation - cart. axis [0,0,-1]       

 cryst.   s( 7) = (     0         -1          0      )
                  (     1          0          0      )
                  (     0          0          1      )

 cart.    s( 7) = (  0.0000000  1.0000000  0.0000000 )
                  ( -1.0000000  0.0000000  0.0000000 )
                  (  0.0000000  0.0000000  1.0000000 )


      isym =  8      90 deg rotation - cart. axis [0,0,1]        

 cryst.   s( 8) = (     0          1          0      )
                  (    -1          0          0      )
                  (     0          0          1      )

 cart.    s( 8) = (  0.0000000 -1.0000000  0.0000000 )
                  (  1.0000000  0.0000000  0.0000000 )
                  (  0.0000000  0.0000000  1.0000000 )


      isym =  9     180 deg rotation - cart. axis [1,0,1]        

 cryst.   s( 9) = (     0          0          1      )
                  (     0         -1          0      )
                  (     1          0          0      )

 cart.    s( 9) = (  0.0000000  0.0000000  1.0000000 )
                  (  0.0000000 -1.0000000  0.0000000 )
                  (  1.0000000  0.0000000  0.0000000 )


      isym = 10     180 deg rotation - cart. axis [-1,0,1]       

 cryst.   s(10) = (     0          0         -1      )
                  (     0         -1          0      )
                  (    -1          0          0      )

 cart.    s(10) = (  0.0000000  0.0000000 -1.0000000 )
                  (  0.0000000 -1.0000000  0.0000000 )
                  ( -1.0000000  0.0000000  0.0000000 )


      isym = 11      90 deg rotation - cart. axis [0,1,0]        

 cryst.   s(11) = (     0          0         -1      )
                  (     0          1          0      )
                  (     1          0          0      )

 cart.    s(11) = (  0.0000000  0.0000000  1.0000000 )
                  (  0.0000000  1.0000000  0.0000000 )
                  ( -1.0000000  0.0000000  0.0000000 )


      isym = 12      90 deg rotation - cart. axis [0,-1,0]       

 cryst.   s(12) = (     0          0          1      )
                  (     0          1          0      )
                  (    -1          0          0      )

 cart.    s(12) = (  0.0000000  0.0000000 -1.0000000 )
                  (  0.0000000  1.0000000  0.0000000 )
                  (  1.0000000  0.0000000  0.0000000 )


      isym = 13     180 deg rotation - cart. axis [0,1,1]        

 cryst.   s(13) = (    -1          0          0      )
                  (     0          0          1      )
                  (     0          1          0      )

 cart.    s(13) = ( -1.0000000  0.0000000  0.0000000 )
                  (  0.0000000  0.0000000  1.0000000 )
                  (  0.0000000  1.0000000  0.0000000 )


      isym = 14     180 deg rotation - cart. axis [0,1,-1]       

 cryst.   s(14) = (    -1          0          0      )
                  (     0          0         -1      )
                  (     0         -1          0      )

 cart.    s(14) = ( -1.0000000  0.0000000  0.0000000 )
                  (  0.0000000  0.0000000 -1.0000000 )
                  (  0.0000000 -1.0000000  0.0000000 )


      isym = 15      90 deg rotation - cart. axis [-1,0,0]       

 cryst.   s(15) = (     1          0          0      )
                  (     0          0         -1      )
                  (     0          1          0      )

 cart.    s(15) = (  1.0000000  0.0000000  0.0000000 )
                  (  0.0000000  0.0000000  1.0000000 )
                  (  0.0000000 -1.0000000  0.0000000 )


      isym = 16      90 deg rotation - cart. axis [1,0,0]        

 cryst.   s(16) = (     1          0          0      )
                  (     0          0          1      )
                  (     0         -1          0      )

 cart.    s(16) = (  1.0000000  0.0000000  0.0000000 )
                  (  0.0000000  0.0000000 -1.0000000 )
                  (  0.0000000  1.0000000  0.0000000 )


      isym = 17     120 deg rotation - cart. axis [-1,-1,-1]     

 cryst.   s(17) = (     0          0          1      )
                  (     1          0          0      )
                  (     0          1          0      )

 cart.    s(17) = (  0.0000000  1.0000000  0.0000000 )
                  (  0.0000000  0.0000000  1.0000000 )
                  (  1.0000000  0.0000000  0.0000000 )


      isym = 18     120 deg rotation - cart. axis [-1,1,1]       

 cryst.   s(18) = (     0          0         -1      )
                  (    -1          0          0      )
                  (     0          1          0      )

 cart.    s(18) = (  0.0000000 -1.0000000  0.0000000 )
                  (  0.0000000  0.0000000  1.0000000 )
                  ( -1.0000000  0.0000000  0.0000000 )


      isym = 19     120 deg rotation - cart. axis [1,1,-1]       

 cryst.   s(19) = (     0          0         -1      )
                  (     1          0          0      )
                  (     0         -1          0      )

 cart.    s(19) = (  0.0000000  1.0000000  0.0000000 )
                  (  0.0000000  0.0000000 -1.0000000 )
                  ( -1.0000000  0.0000000  0.0000000 )


      isym = 20     120 deg rotation - cart. axis [1,-1,1]       

 cryst.   s(20) = (     0          0          1      )
                  (    -1          0          0      )
                  (     0         -1          0      )

 cart.    s(20) = (  0.0000000 -1.0000000  0.0000000 )
                  (  0.0000000  0.0000000 -1.0000000 )
                  (  1.0000000  0.0000000  0.0000000 )


      isym = 21     120 deg rotation - cart. axis [1,1,1]        

 cryst.   s(21) = (     0          1          0      )
                  (     0          0          1      )
                  (     1          0          0      )

 cart.    s(21) = (  0.0000000  0.0000000  1.0000000 )
                  (  1.0000000  0.0000000  0.0000000 )
                  (  0.0000000  1.0000000  0.0000000 )


      isym = 22     120 deg rotation - cart. axis [-1,1,-1]      

 cryst.   s(22) = (     0         -1          0      )
                  (     0          0         -1      )
                  (     1          0          0      )

 cart.    s(22) = (  0.0000000  0.0000000  1.0000000 )
                  ( -1.0000000  0.0000000  0.0000000 )
                  (  0.0000000 -1.0000000  0.0000000 )


      isym = 23     120 deg rotation - cart. axis [1,-1,-1]      

 cryst.   s(23) = (     0         -1          0      )
                  (     0          0          1      )
                  (    -1          0          0      )

 cart.    s(23) = (  0.0000000  0.0000000 -1.0000000 )
                  ( -1.0000000  0.0000000  0.0000000 )
                  (  0.0000000  1.0000000  0.0000000 )


      isym = 24     120 deg rotation - cart. axis [-1,-1,1]      

 cryst.   s(24) = (     0          1          0      )
                  (     0          0         -1      )
                  (    -1          0          0      )

 cart.    s(24) = (  0.0000000  0.0000000 -1.0000000 )
                  (  1.0000000  0.0000000  0.0000000 )
                  (  0.0000000 -1.0000000  0.0000000 )


      isym = 25     inversion                                    

 cryst.   s(25) = (    -1          0          0      )
                  (     0         -1          0      )
                  (     0          0         -1      )

 cart.    s(25) = ( -1.0000000  0.0000000  0.0000000 )
                  (  0.0000000 -1.0000000  0.0000000 )
                  (  0.0000000  0.0000000 -1.0000000 )


      isym = 26     inv. 180 deg rotation - cart. axis [0,0,1]   

 cryst.   s(26) = (     1          0          0      )
                  (     0          1          0      )
                  (     0          0         -1      )

 cart.    s(26) = (  1.0000000  0.0000000  0.0000000 )
                  (  0.0000000  1.0000000  0.0000000 )
                  (  0.0000000  0.0000000 -1.0000000 )


      isym = 27     inv. 180 deg rotation - cart. axis [0,1,0]   

 cryst.   s(27) = (     1          0          0      )
                  (     0         -1          0      )
                  (     0          0          1      )

 cart.    s(27) = (  1.0000000  0.0000000  0.0000000 )
                  (  0.0000000 -1.0000000  0.0000000 )
                  (  0.0000000  0.0000000  1.0000000 )


      isym = 28     inv. 180 deg rotation - cart. axis [1,0,0]   

 cryst.   s(28) = (    -1          0          0      )
                  (     0          1          0      )
                  (     0          0          1      )

 cart.    s(28) = ( -1.0000000  0.0000000  0.0000000 )
                  (  0.0000000  1.0000000  0.0000000 )
                  (  0.0000000  0.0000000  1.0000000 )


      isym = 29     inv. 180 deg rotation - cart. axis [1,1,0]   

 cryst.   s(29) = (     0         -1          0      )
                  (    -1          0          0      )
                  (     0          0          1      )

 cart.    s(29) = (  0.0000000 -1.0000000  0.0000000 )
                  ( -1.0000000  0.0000000  0.0000000 )
                  (  0.0000000  0.0000000  1.0000000 )


      isym = 30     inv. 180 deg rotation - cart. axis [1,-1,0]  

 cryst.   s(30) = (     0          1          0      )
                  (     1          0          0      )
                  (     0          0          1      )

 cart.    s(30) = (  0.0000000  1.0000000  0.0000000 )
                  (  1.0000000  0.0000000  0.0000000 )
                  (  0.0000000  0.0000000  1.0000000 )


      isym = 31     inv.  90 deg rotation - cart. axis [0,0,-1]  

 cryst.   s(31) = (     0          1          0      )
                  (    -1          0          0      )
                  (     0          0         -1      )

 cart.    s(31) = (  0.0000000 -1.0000000  0.0000000 )
                  (  1.0000000  0.0000000  0.0000000 )
                  (  0.0000000  0.0000000 -1.0000000 )


      isym = 32     inv.  90 deg rotation - cart. axis [0,0,1]   

 cryst.   s(32) = (     0         -1          0      )
                  (     1          0          0      )
                  (     0          0         -1      )

 cart.    s(32) = (  0.0000000  1.0000000  0.0000000 )
                  ( -1.0000000  0.0000000  0.0000000 )
                  (  0.0000000  0.0000000 -1.0000000 )


      isym = 33     inv. 180 deg rotation - cart. axis [1,0,1]   

 cryst.   s(33) = (     0          0         -1      )
                  (     0          1          0      )
                  (    -1          0          0      )

 cart.    s(33) = (  0.0000000  0.0000000 -1.0000000 )
                  (  0.0000000  1.0000000  0.0000000 )
                  ( -1.0000000  0.0000000  0.0000000 )


      isym = 34     inv. 180 deg rotation - cart. axis [-1,0,1]  

 cryst.   s(34) = (     0          0          1      )
                  (     0          1          0      )
                  (     1          0          0      )

 cart.    s(34) = (  0.0000000  0.0000000  1.0000000 )
                  (  0.0000000  1.0000000  0.0000000 )
                  (  1.0000000  0.0000000  0.0000000 )


      isym = 35     inv.  90 deg rotation - cart. axis [0,1,0]   

 cryst.   s(35) = (     0          0          1      )
                  (     0         -1          0      )
                  (    -1          0          0      )

 cart.    s(35) = (  0.0000000  0.0000000 -1.0000000 )
                  (  0.0000000 -1.0000000  0.0000000 )
                  (  1.0000000  0.0000000  0.0000000 )


      isym = 36     inv.  90 deg rotation - cart. axis [0,-1,0]  

 cryst.   s(36) = (     0          0         -1      )
                  (     0         -1          0      )
                  (     1          0          0      )

 cart.    s(36) = (  0.0000000  0.0000000  1.0000000 )
                  (  0.0000000 -1.0000000  0.0000000 )
                  ( -1.0000000  0.0000000  0.0000000 )


      isym = 37     inv. 180 deg rotation - cart. axis [0,1,1]   

 cryst.   s(37) = (     1          0          0      )
                  (     0          0         -1      )
                  (     0         -1          0      )

 cart.    s(37) = (  1.0000000  0.0000000  0.0000000 )
                  (  0.0000000  0.0000000 -1.0000000 )
                  (  0.0000000 -1.0000000  0.0000000 )


      isym = 38     inv. 180 deg rotation - cart. axis [0,1,-1]  

 cryst.   s(38) = (     1          0          0      )
                  (     0          0          1      )
                  (     0          1          0      )

 cart.    s(38) = (  1.0000000  0.0000000  0.0000000 )
                  (  0.0000000  0.0000000  1.0000000 )
                  (  0.0000000  1.0000000  0.0000000 )


      isym = 39     inv.  90 deg rotation - cart. axis [-1,0,0]  

 cryst.   s(39) = (    -1          0          0      )
                  (     0          0          1      )
                  (     0         -1          0      )

 cart.    s(39) = ( -1.0000000  0.0000000  0.0000000 )
                  (  0.0000000  0.0000000 -1.0000000 )
                  (  0.0000000  1.0000000  0.0000000 )


      isym = 40     inv.  90 deg rotation - cart. axis [1,0,0]   

 cryst.   s(40) = (    -1          0          0      )
                  (     0          0         -1      )
                  (     0          1          0      )

 cart.    s(40) = ( -1.0000000  0.0000000  0.0000000 )
                  (  0.0000000  0.0000000  1.0000000 )
                  (  0.0000000 -1.0000000  0.0000000 )


      isym = 41     inv. 120 deg rotation - cart. axis [-1,-1,-1]

 cryst.   s(41) = (     0          0         -1      )
                  (    -1          0          0      )
                  (     0         -1          0      )

 cart.    s(41) = (  0.0000000 -1.0000000  0.0000000 )
                  (  0.0000000  0.0000000 -1.0000000 )
                  ( -1.0000000  0.0000000  0.0000000 )


      isym = 42     inv. 120 deg rotation - cart. axis [-1,1,1]  

 cryst.   s(42) = (     0          0          1      )
                  (     1          0          0      )
                  (     0         -1          0      )

 cart.    s(42) = (  0.0000000  1.0000000  0.0000000 )
                  (  0.0000000  0.0000000 -1.0000000 )
                  (  1.0000000  0.0000000  0.0000000 )


      isym = 43     inv. 120 deg rotation - cart. axis [1,1,-1]  

 cryst.   s(43) = (     0          0          1      )
                  (    -1          0          0      )
                  (     0          1          0      )

 cart.    s(43) = (  0.0000000 -1.0000000  0.0000000 )
                  (  0.0000000  0.0000000  1.0000000 )
                  (  1.0000000  0.0000000  0.0000000 )


      isym = 44     inv. 120 deg rotation - cart. axis [1,-1,1]  

 cryst.   s(44) = (     0          0         -1      )
                  (     1          0          0      )
                  (     0          1          0      )

 cart.    s(44) = (  0.0000000  1.0000000  0.0000000 )
                  (  0.0000000  0.0000000  1.0000000 )
                  ( -1.0000000  0.0000000  0.0000000 )


      isym = 45     inv. 120 deg rotation - cart. axis [1,1,1]   

 cryst.   s(45) = (     0         -1          0      )
                  (     0          0         -1      )
                  (    -1          0          0      )

 cart.    s(45) = (  0.0000000  0.0000000 -1.0000000 )
                  ( -1.0000000  0.0000000  0.0000000 )
                  (  0.0000000 -1.0000000  0.0000000 )


      isym = 46     inv. 120 deg rotation - cart. axis [-1,1,-1] 

 cryst.   s(46) = (     0          1          0      )
                  (     0          0          1      )
                  (    -1          0          0      )

 cart.    s(46) = (  0.0000000  0.0000000 -1.0000000 )
                  (  1.0000000  0.0000000  0.0000000 )
                  (  0.0000000  1.0000000  0.0000000 )


      isym = 47     inv. 120 deg rotation - cart. axis [1,-1,-1] 

 cryst.   s(47) = (     0          1          0      )
                  (     0          0         -1      )
                  (     1          0          0      )

 cart.    s(47) = (  0.0000000  0.0000000  1.0000000 )
                  (  1.0000000  0.0000000  0.0000000 )
                  (  0.0000000 -1.0000000  0.0000000 )


      isym = 48     inv. 120 deg rotation - cart. axis [-1,-1,1] 

 cryst.   s(48) = (     0         -1          0      )
                  (     0          0          1      )
                  (     1          0          0      )

 cart.    s(48) = (  0.0000000  0.0000000  1.0000000 )
                  ( -1.0000000  0.0000000  0.0000000 )
                  (  0.0000000  1.0000000  0.0000000 )


   Cartesian axes

     site n.     atom                  positions (alat units)
         1           Ni  tau(   1) = (   0.0000000   0.0000000   0.0000000  )
         2           Ni  tau(   2) = (   0.0000000   0.5000000   0.5000000  )
         3           Ni  tau(   3) = (   0.5000000   0.0000000   0.5000000  )
         4           Ni  tau(   4) = (   0.5000000   0.5000000   0.0000000  )

   Crystallographic axes

     site n.     atom                  positions (cryst. coord.)
         1           Ni  tau(   1) = (  0.0000000  0.0000000  0.0000000  )
         2           Ni  tau(   2) = (  0.0000000  0.5000000  0.5000000  )
         3           Ni  tau(   3) = (  0.5000000  0.0000000  0.5000000  )
         4           Ni  tau(   4) = (  0.5000000  0.5000000  0.0000000  )

     number of k points=    84  Methfessel-Paxton smearing, width (Ry)=  0.0220
                       cart. coord. in units 2pi/alat
        k(    1) = (   0.0000000   0.0000000   0.0000000), wk =   0.0005787
        k(    2) = (   0.0000000   0.0000000   0.0833333), wk =   0.0034722
        k(    3) = (   0.0000000   0.0000000   0.1666667), wk =   0.0034722
        k(    4) = (   0.0000000   0.0000000   0.2500000), wk =   0.0034722
        k(    5) = (   0.0000000   0.0000000   0.3333333), wk =   0.0034722
        k(    6) = (   0.0000000   0.0000000   0.4166667), wk =   0.0034722
        k(    7) = (   0.0000000   0.0000000  -0.5000000), wk =   0.0017361
        k(    8) = (   0.0000000   0.0833333   0.0833333), wk =   0.0069444
        k(    9) = (   0.0000000   0.0833333   0.1666667), wk =   0.0138889
        k(   10) = (   0.0000000   0.0833333   0.2500000), wk =   0.0138889
        k(   11) = (   0.0000000   0.0833333   0.3333333), wk =   0.0138889
        k(   12) = (   0.0000000   0.0833333   0.4166667), wk =   0.0138889
        k(   13) = (   0.0000000   0.0833333  -0.5000000), wk =   0.0069444
        k(   14) = (   0.0000000   0.1666667   0.1666667), wk =   0.0069444
        k(   15) = (   0.0000000   0.1666667   0.2500000), wk =   0.0138889
        k(   16) = (   0.0000000   0.1666667   0.3333333), wk =   0.0138889
        k(   17) = (   0.0000000   0.1666667   0.4166667), wk =   0.0138889
        k(   18) = (   0.0000000   0.1666667  -0.5000000), wk =   0.0069444
        k(   19) = (   0.0000000   0.2500000   0.2500000), wk =   0.0069444
        k(   20) = (   0.0000000   0.2500000   0.3333333), wk =   0.0138889
        k(   21) = (   0.0000000   0.2500000   0.4166667), wk =   0.0138889
        k(   22) = (   0.0000000   0.2500000  -0.5000000), wk =   0.0069444
        k(   23) = (   0.0000000   0.3333333   0.3333333), wk =   0.0069444
        k(   24) = (   0.0000000   0.3333333   0.4166667), wk =   0.0138889
        k(   25) = (   0.0000000   0.3333333  -0.5000000), wk =   0.0069444
        k(   26) = (   0.0000000   0.4166667   0.4166667), wk =   0.0069444
        k(   27) = (   0.0000000   0.4166667  -0.5000000), wk =   0.0069444
        k(   28) = (   0.0000000  -0.5000000  -0.5000000), wk =   0.0017361
        k(   29) = (   0.0833333   0.0833333   0.0833333), wk =   0.0046296
        k(   30) = (   0.0833333   0.0833333   0.1666667), wk =   0.0138889
        k(   31) = (   0.0833333   0.0833333   0.2500000), wk =   0.0138889
        k(   32) = (   0.0833333   0.0833333   0.3333333), wk =   0.0138889
        k(   33) = (   0.0833333   0.0833333   0.4166667), wk =   0.0138889
        k(   34) = (   0.0833333   0.0833333  -0.5000000), wk =   0.0069444
        k(   35) = (   0.0833333   0.1666667   0.1666667), wk =   0.0138889
        k(   36) = (   0.0833333   0.1666667   0.2500000), wk =   0.0277778
        k(   37) = (   0.0833333   0.1666667   0.3333333), wk =   0.0277778
        k(   38) = (   0.0833333   0.1666667   0.4166667), wk =   0.0277778
        k(   39) = (   0.0833333   0.1666667  -0.5000000), wk =   0.0138889
        k(   40) = (   0.0833333   0.2500000   0.2500000), wk =   0.0138889
        k(   41) = (   0.0833333   0.2500000   0.3333333), wk =   0.0277778
        k(   42) = (   0.0833333   0.2500000   0.4166667), wk =   0.0277778
        k(   43) = (   0.0833333   0.2500000  -0.5000000), wk =   0.0138889
        k(   44) = (   0.0833333   0.3333333   0.3333333), wk =   0.0138889
        k(   45) = (   0.0833333   0.3333333   0.4166667), wk =   0.0277778
        k(   46) = (   0.0833333   0.3333333  -0.5000000), wk =   0.0138889
        k(   47) = (   0.0833333   0.4166667   0.4166667), wk =   0.0138889
        k(   48) = (   0.0833333   0.4166667  -0.5000000), wk =   0.0138889
        k(   49) = (   0.0833333  -0.5000000  -0.5000000), wk =   0.0034722
        k(   50) = (   0.1666667   0.1666667   0.1666667), wk =   0.0046296
        k(   51) = (   0.1666667   0.1666667   0.2500000), wk =   0.0138889
        k(   52) = (   0.1666667   0.1666667   0.3333333), wk =   0.0138889
        k(   53) = (   0.1666667   0.1666667   0.4166667), wk =   0.0138889
        k(   54) = (   0.1666667   0.1666667  -0.5000000), wk =   0.0069444
        k(   55) = (   0.1666667   0.2500000   0.2500000), wk =   0.0138889
        k(   56) = (   0.1666667   0.2500000   0.3333333), wk =   0.0277778
        k(   57) = (   0.1666667   0.2500000   0.4166667), wk =   0.0277778
        k(   58) = (   0.1666667   0.2500000  -0.5000000), wk =   0.0138889
        k(   59) = (   0.1666667   0.3333333   0.3333333), wk =   0.0138889
        k(   60) = (   0.1666667   0.3333333   0.4166667), wk =   0.0277778
        k(   61) = (   0.1666667   0.3333333  -0.5000000), wk =   0.0138889
        k(   62) = (   0.1666667   0.4166667   0.4166667), wk =   0.0138889
        k(   63) = (   0.1666667   0.4166667  -0.5000000), wk =   0.0138889
        k(   64) = (   0.1666667  -0.5000000  -0.5000000), wk =   0.0034722
        k(   65) = (   0.2500000   0.2500000   0.2500000), wk =   0.0046296
        k(   66) = (   0.2500000   0.2500000   0.3333333), wk =   0.0138889
        k(   67) = (   0.2500000   0.2500000   0.4166667), wk =   0.0138889
        k(   68) = (   0.2500000   0.2500000  -0.5000000), wk =   0.0069444
        k(   69) = (   0.2500000   0.3333333   0.3333333), wk =   0.0138889
        k(   70) = (   0.2500000   0.3333333   0.4166667), wk =   0.0277778
        k(   71) = (   0.2500000   0.3333333  -0.5000000), wk =   0.0138889
        k(   72) = (   0.2500000   0.4166667   0.4166667), wk =   0.0138889
        k(   73) = (   0.2500000   0.4166667  -0.5000000), wk =   0.0138889
        k(   74) = (   0.2500000  -0.5000000  -0.5000000), wk =   0.0034722
        k(   75) = (   0.3333333   0.3333333   0.3333333), wk =   0.0046296
        k(   76) = (   0.3333333   0.3333333   0.4166667), wk =   0.0138889
        k(   77) = (   0.3333333   0.3333333  -0.5000000), wk =   0.0069444
        k(   78) = (   0.3333333   0.4166667   0.4166667), wk =   0.0138889
        k(   79) = (   0.3333333   0.4166667  -0.5000000), wk =   0.0138889
        k(   80) = (   0.3333333  -0.5000000  -0.5000000), wk =   0.0034722
        k(   81) = (   0.4166667   0.4166667   0.4166667), wk =   0.0046296
        k(   82) = (   0.4166667   0.4166667  -0.5000000), wk =   0.0069444
        k(   83) = (   0.4166667  -0.5000000  -0.5000000), wk =   0.0034722
        k(   84) = (  -0.5000000  -0.5000000  -0.5000000), wk =   0.0005787

                       cryst. coord.
        k(    1) = (   0.0000000   0.0000000   0.0000000), wk =   0.0005787
        k(    2) = (   0.0000000   0.0000000   0.0833333), wk =   0.0034722
        k(    3) = (   0.0000000   0.0000000   0.1666667), wk =   0.0034722
        k(    4) = (   0.0000000   0.0000000   0.2500000), wk =   0.0034722
        k(    5) = (   0.0000000   0.0000000   0.3333333), wk =   0.0034722
        k(    6) = (   0.0000000   0.0000000   0.4166667), wk =   0.0034722
        k(    7) = (   0.0000000   0.0000000  -0.5000000), wk =   0.0017361
        k(    8) = (   0.0000000   0.0833333   0.0833333), wk =   0.0069444
        k(    9) = (   0.0000000   0.0833333   0.1666667), wk =   0.0138889
        k(   10) = (   0.0000000   0.0833333   0.2500000), wk =   0.0138889
        k(   11) = (   0.0000000   0.0833333   0.3333333), wk =   0.0138889
        k(   12) = (   0.0000000   0.0833333   0.4166667), wk =   0.0138889
        k(   13) = (   0.0000000   0.0833333  -0.5000000), wk =   0.0069444
        k(   14) = (   0.0000000   0.1666667   0.1666667), wk =   0.0069444
        k(   15) = (   0.0000000   0.1666667   0.2500000), wk =   0.0138889
        k(   16) = (   0.0000000   0.1666667   0.3333333), wk =   0.0138889
        k(   17) = (   0.0000000   0.1666667   0.4166667), wk =   0.0138889
        k(   18) = (   0.0000000   0.1666667  -0.5000000), wk =   0.0069444
        k(   19) = (   0.0000000   0.2500000   0.2500000), wk =   0.0069444
        k(   20) = (   0.0000000   0.2500000   0.3333333), wk =   0.0138889
        k(   21) = (   0.0000000   0.2500000   0.4166667), wk =   0.0138889
        k(   22) = (   0.0000000   0.2500000  -0.5000000), wk =   0.0069444
        k(   23) = (   0.0000000   0.3333333   0.3333333), wk =   0.0069444
        k(   24) = (   0.0000000   0.3333333   0.4166667), wk =   0.0138889
        k(   25) = (   0.0000000   0.3333333  -0.5000000), wk =   0.0069444
        k(   26) = (   0.0000000   0.4166667   0.4166667), wk =   0.0069444
        k(   27) = (   0.0000000   0.4166667  -0.5000000), wk =   0.0069444
        k(   28) = (   0.0000000  -0.5000000  -0.5000000), wk =   0.0017361
        k(   29) = (   0.0833333   0.0833333   0.0833333), wk =   0.0046296
        k(   30) = (   0.0833333   0.0833333   0.1666667), wk =   0.0138889
        k(   31) = (   0.0833333   0.0833333   0.2500000), wk =   0.0138889
        k(   32) = (   0.0833333   0.0833333   0.3333333), wk =   0.0138889
        k(   33) = (   0.0833333   0.0833333   0.4166667), wk =   0.0138889
        k(   34) = (   0.0833333   0.0833333  -0.5000000), wk =   0.0069444
        k(   35) = (   0.0833333   0.1666667   0.1666667), wk =   0.0138889
        k(   36) = (   0.0833333   0.1666667   0.2500000), wk =   0.0277778
        k(   37) = (   0.0833333   0.1666667   0.3333333), wk =   0.0277778
        k(   38) = (   0.0833333   0.1666667   0.4166667), wk =   0.0277778
        k(   39) = (   0.0833333   0.1666667  -0.5000000), wk =   0.0138889
        k(   40) = (   0.0833333   0.2500000   0.2500000), wk =   0.0138889
        k(   41) = (   0.0833333   0.2500000   0.3333333), wk =   0.0277778
        k(   42) = (   0.0833333   0.2500000   0.4166667), wk =   0.0277778
        k(   43) = (   0.0833333   0.2500000  -0.5000000), wk =   0.0138889
        k(   44) = (   0.0833333   0.3333333   0.3333333), wk =   0.0138889
        k(   45) = (   0.0833333   0.3333333   0.4166667), wk =   0.0277778
        k(   46) = (   0.0833333   0.3333333  -0.5000000), wk =   0.0138889
        k(   47) = (   0.0833333   0.4166667   0.4166667), wk =   0.0138889
        k(   48) = (   0.0833333   0.4166667  -0.5000000), wk =   0.0138889
        k(   49) = (   0.0833333  -0.5000000  -0.5000000), wk =   0.0034722
        k(   50) = (   0.1666667   0.1666667   0.1666667), wk =   0.0046296
        k(   51) = (   0.1666667   0.1666667   0.2500000), wk =   0.0138889
        k(   52) = (   0.1666667   0.1666667   0.3333333), wk =   0.0138889
        k(   53) = (   0.1666667   0.1666667   0.4166667), wk =   0.0138889
        k(   54) = (   0.1666667   0.1666667  -0.5000000), wk =   0.0069444
        k(   55) = (   0.1666667   0.2500000   0.2500000), wk =   0.0138889
        k(   56) = (   0.1666667   0.2500000   0.3333333), wk =   0.0277778
        k(   57) = (   0.1666667   0.2500000   0.4166667), wk =   0.0277778
        k(   58) = (   0.1666667   0.2500000  -0.5000000), wk =   0.0138889
        k(   59) = (   0.1666667   0.3333333   0.3333333), wk =   0.0138889
        k(   60) = (   0.1666667   0.3333333   0.4166667), wk =   0.0277778
        k(   61) = (   0.1666667   0.3333333  -0.5000000), wk =   0.0138889
        k(   62) = (   0.1666667   0.4166667   0.4166667), wk =   0.0138889
        k(   63) = (   0.1666667   0.4166667  -0.5000000), wk =   0.0138889
        k(   64) = (   0.1666667  -0.5000000  -0.5000000), wk =   0.0034722
        k(   65) = (   0.2500000   0.2500000   0.2500000), wk =   0.0046296
        k(   66) = (   0.2500000   0.2500000   0.3333333), wk =   0.0138889
        k(   67) = (   0.2500000   0.2500000   0.4166667), wk =   0.0138889
        k(   68) = (   0.2500000   0.2500000  -0.5000000), wk =   0.0069444
        k(   69) = (   0.2500000   0.3333333   0.3333333), wk =   0.0138889
        k(   70) = (   0.2500000   0.3333333   0.4166667), wk =   0.0277778
        k(   71) = (   0.2500000   0.3333333  -0.5000000), wk =   0.0138889
        k(   72) = (   0.2500000   0.4166667   0.4166667), wk =   0.0138889
        k(   73) = (   0.2500000   0.4166667  -0.5000000), wk =   0.0138889
        k(   74) = (   0.2500000  -0.5000000  -0.5000000), wk =   0.0034722
        k(   75) = (   0.3333333   0.3333333   0.3333333), wk =   0.0046296
        k(   76) = (   0.3333333   0.3333333   0.4166667), wk =   0.0138889
        k(   77) = (   0.3333333   0.3333333  -0.5000000), wk =   0.0069444
        k(   78) = (   0.3333333   0.4166667   0.4166667), wk =   0.0138889
        k(   79) = (   0.3333333   0.4166667  -0.5000000), wk =   0.0138889
        k(   80) = (   0.3333333  -0.5000000  -0.5000000), wk =   0.0034722
        k(   81) = (   0.4166667   0.4166667   0.4166667), wk =   0.0046296
        k(   82) = (   0.4166667   0.4166667  -0.5000000), wk =   0.0069444
        k(   83) = (   0.4166667  -0.5000000  -0.5000000), wk =   0.0034722
        k(   84) = (  -0.5000000  -0.5000000  -0.5000000), wk =   0.0005787

     Dense  grid:   108143 G-vectors     FFT dimensions: (  60,  60,  60)

     Smooth grid:    92349 G-vectors     FFT dimensions: (  60,  60,  60)

     Dynamical RAM for                 wfc:       0.38 MB

     Dynamical RAM for     wfc (w. buffer):      63.98 MB

     Dynamical RAM for           str. fact:       0.08 MB

     Dynamical RAM for           local pot:       0.00 MB

     Dynamical RAM for          nlocal pot:       0.63 MB

     Dynamical RAM for                qrad:       2.27 MB

     Dynamical RAM for          rho,v,vnew:       0.99 MB

     Dynamical RAM for               rhoin:       0.33 MB

     Dynamical RAM for            rho*nmix:       2.64 MB

     Dynamical RAM for           G-vectors:       0.34 MB

     Dynamical RAM for          h,s,v(r/c):       0.34 MB

     Dynamical RAM for          <psi|beta>:       0.05 MB

     Dynamical RAM for                 psi:       0.76 MB

     Dynamical RAM for                hpsi:       0.76 MB

     Dynamical RAM for                spsi:       0.76 MB

     Dynamical RAM for      wfcinit/wfcrot:       0.80 MB

     Dynamical RAM for           addusdens:      15.76 MB

     Estimated static dynamical RAM per process >      69.29 MB

     Estimated max dynamical RAM per process >      87.69 MB

     Estimated total dynamical RAM >       1.71 GB
     Generating pointlists ...
     new r_m :   0.2917 (alat units)  1.9155 (a.u.) for type    1

     The initial density is read from file :
     out/Ni.save/charge-density

     Starting wfcs from file
     Checking if some PAW data can be deallocated... 

     total cpu time spent up to now is        2.2 secs

     Self-consistent Calculation

     iteration #  1     ecut=   180.00 Ry     beta= 0.70
     Davidson diagonalization with overlap

---- Real-time Memory Report at c_bands before calling an iterative solver
           111 MiB given to the printing process from OS
             0 MiB allocation reported by mallinfo(arena+hblkhd)
        255847 MiB available memory on the node where the printing process lives
------------------
     ethr =  1.00E-05,  avg # of iterations =  2.0

     Threshold (ethr) on eigenvalues was too large:
     Diagonalizing with lowered threshold

     Davidson diagonalization with overlap

---- Real-time Memory Report at c_bands before calling an iterative solver
           143 MiB given to the printing process from OS
             0 MiB allocation reported by mallinfo(arena+hblkhd)
        255070 MiB available memory on the node where the printing process lives
------------------
     ethr =  3.03E-09,  avg # of iterations =  1.3

     total cpu time spent up to now is       37.8 secs

     total energy              =   -1716.65519554 Ry
     estimated scf accuracy    <       0.00000231 Ry

     total magnetization       =     2.55 Bohr mag/cell
     absolute magnetization    =     2.90 Bohr mag/cell

     iteration #  2     ecut=   180.00 Ry     beta= 0.70
     Davidson diagonalization with overlap

---- Real-time Memory Report at c_bands before calling an iterative solver
           145 MiB given to the printing process from OS
             0 MiB allocation reported by mallinfo(arena+hblkhd)
        254855 MiB available memory on the node where the printing process lives
------------------
     ethr =  3.21E-09,  avg # of iterations =  3.6

     total cpu time spent up to now is       61.6 secs

     total energy              =   -1716.65518319 Ry
     estimated scf accuracy    <       0.00028170 Ry

     total magnetization       =     2.55 Bohr mag/cell
     absolute magnetization    =     2.90 Bohr mag/cell

     iteration #  3     ecut=   180.00 Ry     beta= 0.70
     Davidson diagonalization with overlap

---- Real-time Memory Report at c_bands before calling an iterative solver
           146 MiB given to the printing process from OS
             0 MiB allocation reported by mallinfo(arena+hblkhd)
        254851 MiB available memory on the node where the printing process lives
------------------
     ethr =  3.21E-09,  avg # of iterations =  3.4

     total cpu time spent up to now is       84.3 secs

     total energy              =   -1716.65519725 Ry
     estimated scf accuracy    <       0.00000089 Ry

     total magnetization       =     2.55 Bohr mag/cell
     absolute magnetization    =     2.90 Bohr mag/cell

     iteration #  4     ecut=   180.00 Ry     beta= 0.70
     Davidson diagonalization with overlap

---- Real-time Memory Report at c_bands before calling an iterative solver
           147 MiB given to the printing process from OS
             0 MiB allocation reported by mallinfo(arena+hblkhd)
        254887 MiB available memory on the node where the printing process lives
------------------
     ethr =  1.24E-09,  avg # of iterations =  2.0
 
     Magnetic moment per site  (integrated on atomic sphere of radius R)
     atom   1 (R=0.292)  charge= 16.6728  magn=  0.6748
     atom   2 (R=0.292)  charge= 16.6728  magn=  0.6748
     atom   3 (R=0.292)  charge= 16.6728  magn=  0.6748
     atom   4 (R=0.292)  charge= 16.6728  magn=  0.6748

     total cpu time spent up to now is      102.0 secs

     End of self-consistent calculation

 ------ SPIN UP ------------


          k = 0.0000 0.0000 0.0000 ( 11513 PWs)   bands (ev):

   -84.9437 -84.8912 -84.8912 -84.8912 -45.4179 -45.4179 -45.4179 -45.2753
   -45.2753 -45.2753 -45.2753 -45.2753 -45.2753 -45.1823 -45.1823 -45.1823
     9.4381  13.8982  13.8982  13.8982  14.3852  14.3852  14.3852  16.2663
    16.2663  16.2663  17.5206  17.5206  18.2775  18.2775  18.2775  18.3602
    18.3602  18.3602  18.3602  18.3602  18.3602  21.2015  21.2015  21.2015
    28.3071  28.3071  28.3071

     occupation numbers 
     1.0000   1.0000   1.0000   1.0000   1.0000   1.0000   1.0000   1.0000
     1.0000   1.0000   1.0000   1.0000   1.0000   1.0000   1.0000   1.0000
     1.0000   1.0000   1.0000   1.0000   1.0000   1.0000   1.0000   1.0000
     1.0000   1.0000   1.0000   1.0000   1.0138   1.0138   1.0138   1.0258
     1.0258   1.0258   1.0258   1.0258   1.0258  -0.0000  -0.0000  -0.0000
    -0.0000  -0.0000  -0.0000

          k = 0.0000 0.0000 0.0833 ( 11540 PWs)   bands (ev):

   -84.9428 -84.8921 -84.8912 -84.8912 -45.4155 -45.4155 -45.4140 -45.2778
   -45.2778 -45.2755 -45.2754 -45.2737 -45.2737 -45.1864 -45.1839 -45.1839
     9.5316  13.9056  13.9478  13.9478  14.4146  14.4176  14.4176  16.2313
    16.2932  16.2932  17.4883  17.5331  18.1335  18.1335  18.2354  18.2354
    18.2642  18.3115  18.3115  18.3603  18.3603  20.7222  21.5053  21.5053
    28.3275  28.3275  28.9455

     occupation numbers 
     1.0000   1.0000   1.0000   1.0000   1.0000   1.0000   1.0000   1.0000
     1.0000   1.0000   1.0000   1.0000   1.0000   1.0000   1.0000   1.0000
     1.0000   1.0000   1.0000   1.0000   1.0000   1.0000   1.0000   1.0000
     1.0000   1.0000   1.0000   1.0000   1.0027   1.0027   1.0091   1.0091
     1.0122   1.0184   1.0184   1.0258   1.0258  -0.0000  -0.0000  -0.0000
    -0.0000  -0.0000  -0.0000

          k = 0.0000 0.0000 0.1667 ( 11492 PWs)   bands (ev):

   -84.9402 -84.8947 -84.8912 -84.8912 -45.4084 -45.4084 -45.4027 -45.2849
   -45.2849 -45.2758 -45.2757 -45.2691 -45.2691 -45.1986 -45.1885 -45.1885
     9.8094  13.9108  14.0899  14.0900  14.5013  14.5152  14.5152  16.1293
    16.3732  16.3732  17.3950  17.5698  17.6313  17.6313  18.1133  18.1133
    18.1727  18.1727  18.2252  18.3605  18.3605  19.6513  22.2385  22.2385
    28.3913  28.3913  30.5040

     occupation numbers 
     1.0000   1.0000   1.0000   1.0000   1.0000   1.0000   1.0000   1.0000
     1.0000   1.0000   1.0000   1.0000   1.0000   1.0000   1.0000   1.0000
     1.0000   1.0000   1.0000   1.0000   1.0000   1.0000   1.0000   1.0000
     1.0000   1.0000   1.0000   1.0000   1.0000   1.0000   1.0021   1.0021
     1.0045   1.0045   1.0082   1.0258   1.0258  -0.0003  -0.0000  -0.0000
    -0.0000  -0.0000  -0.0000

          k = 0.0000 0.0000 0.2500 ( 11540 PWs)   bands (ev):

   -84.9360 -84.8989 -84.8912 -84.8912 -45.3971 -45.3971 -45.3845 -45.2963
   -45.2963 -45.2762 -45.2762 -45.2617 -45.2617 -45.2179 -45.1959 -45.1959
    10.2625  13.8558  14.3028  14.3028  14.6407  14.6788  14.6788  15.9690
    16.5045  16.5045  17.0623  17.0623  17.2528  17.6284  17.9266  17.9266
    17.9628  17.9628  18.1634  18.3608  18.3608  18.4929  23.1904  23.1904
    28.5042  28.5042  30.7806

     occupation numbers 
     1.0000   1.0000   1.0000   1.0000   1.0000   1.0000   1.0000   1.0000
     1.0000   1.0000   1.0000   1.0000   1.0000   1.0000   1.0000   1.0000
     1.0000   1.0000   1.0000   1.0000   1.0000   1.0000   1.0000   1.0000
     1.0000   1.0000   1.0000   1.0000   1.0000   1.0000   1.0001   1.0001
     1.0002   1.0002   1.0040   1.0258   1.0258   1.0326  -0.0000  -0.0000
    -0.0000  -0.0000  -0.0000

          k = 0.0000 0.0000 0.3333 ( 11520 PWs)   bands (ev):

   -84.9306 -84.9043 -84.8912 -84.8911 -45.3823 -45.3823 -45.3607 -45.3111
   -45.3111 -45.2766 -45.2766 -45.2521 -45.2521 -45.2429 -45.2055 -45.2055
    10.8733  13.6298  14.5451  14.5451  14.8252  14.9097  14.9097  15.7638
    16.5125  16.5125  16.6835  16.6835  17.0853  17.5589  17.7052  17.7072
    17.7072  17.7090  17.7091  18.0835  18.3611  18.3611  24.2722  24.2722
    28.6701  28.6701  29.3838

     occupation numbers 
     1.0000   1.0000   1.0000   1.0000   1.0000   1.0000   1.0000   1.0000
     1.0000   1.0000   1.0000   1.0000   1.0000   1.0000   1.0000   1.0000
     1.0000   1.0000   1.0000   1.0000   1.0000   1.0000   1.0000   1.0000
     1.0000   1.0000   1.0000   1.0000   1.0000   1.0000   1.0000   1.0000
     1.0000   1.0000   1.0000   1.0014   1.0259   1.0259  -0.0000  -0.0000
    -0.0000  -0.0000  -0.0000

          k = 0.0000 0.0000 0.4167 ( 11524 PWs)   bands (ev):

   -84.9242 -84.9106 -84.8911 -84.8911 -45.3652 -45.3652 -45.3327 -45.3283
   -45.3283 -45.2769 -45.2769 -45.2717 -45.2409 -45.2409 -45.2168 -45.2168
    11.6078  13.1281  14.7497  14.7497  15.0441  15.2091  15.2091  15.5297
    16.0134  16.0134  16.9043  16.9043  16.9336  17.0272  17.4314  17.4314
    17.5216  17.5216  17.7953  17.9911  18.3613  18.3613  25.4480  25.4480
    28.0165  28.0165  28.8687

     occupation numbers 
     1.0000   1.0000   1.0000   1.0000   1.0000   1.0000   1.0000   1.0000
     1.0000   1.0000   1.0000   1.0000   1.0000   1.0000   1.0000   1.0000
     1.0000   1.0000   1.0000   1.0000   1.0000   1.0000   1.0000   1.0000
     1.0000   1.0000   1.0000   1.0000   1.0000   1.0000   1.0000   1.0000
     1.0000   1.0000   1.0000   1.0003   1.0259   1.0259  -0.0000  -0.0000
    -0.0000  -0.0000  -0.0000

          k = 0.0000 0.0000-0.5000 ( 11524 PWs)   bands (ev):

   -84.9175 -84.9174 -84.8911 -84.8911 -45.3467 -45.3467 -45.3467 -45.3467
   -45.3024 -45.3023 -45.2771 -45.2770 -45.2288 -45.2288 -45.2288 -45.2288
    12.4005  12.4005  14.8327  14.8327  15.2841  15.2841  15.5774  15.5774
    15.5775  15.5775  16.8714  16.8714  17.1579  17.1579  17.1579  17.1579
    17.4447  17.4447  17.8927  17.8928  18.3613  18.3614  26.7002  26.7002
    26.7002  26.7002  28.9827

     occupation numbers 
     1.0000   1.0000   1.0000   1.0000   1.0000   1.0000   1.0000   1.0000
     1.0000   1.0000   1.0000   1.0000   1.0000   1.0000   1.0000   1.0000
     1.0000   1.0000   1.0000   1.0000   1.0000   1.0000   1.0000   1.0000
     1.0000   1.0000   1.0000   1.0000   1.0000   1.0000   1.0000   1.0000
     1.0000   1.0000   1.0001   1.0001   1.0259   1.0259  -0.0000  -0.0000
    -0.0000  -0.0000  -0.0000

          k = 0.0000 0.0833 0.0833 ( 11521 PWs)   bands (ev):

   -84.9420 -84.8921 -84.8921 -84.8912 -45.4130 -45.4118 -45.4118 -45.2826
   -45.2762 -45.2762 -45.2738 -45.2738 -45.2730 -45.1928 -45.1855 -45.1831
     9.6245  13.9561  13.9561  13.9961  14.4465  14.4465  14.4492  16.2113
    16.3058  16.3176  17.4792  17.5250  17.9711  18.0560  18.0560  18.1952
    18.2395  18.2395  18.3115  18.3115  18.3294  21.0272  21.0272  21.7761
    28.3459  28.9766  28.9766

     occupation numbers 
     1.0000   1.0000   1.0000   1.0000   1.0000   1.0000   1.0000   1.0000
     1.0000   1.0000   1.0000   1.0000   1.0000   1.0000   1.0000   1.0000
     1.0000   1.0000   1.0000   1.0000   1.0000   1.0000   1.0000   1.0000
     1.0000   1.0000   1.0000   1.0000   1.0002   1.0009   1.0009   1.0059
     1.0095   1.0095   1.0184   1.0184   1.0210  -0.0000  -0.0000  -0.0000
    -0.0000  -0.0000  -0.0000

          k = 0.0000 0.0833 0.1667 ( 11517 PWs)   bands (ev):

   -84.9394 -84.8946 -84.8920 -84.8912 -45.4060 -45.4054 -45.4011 -45.2912
   -45.2833 -45.2738 -45.2715 -45.2715 -45.2688 -45.2062 -45.1902 -45.1861
     9.9007  13.9641  14.1010  14.1345  14.5314  14.5422  14.5442  16.1194
    16.3781  16.3897  17.3981  17.5375  17.5468  17.5576  17.8605  18.0783
    18.1177  18.1723  18.2137  18.3113  18.3126  19.9868  21.7354  22.4582
    28.3976  29.0725  30.5476

     occupation numbers 
     1.0000   1.0000   1.0000   1.0000   1.0000   1.0000   1.0000   1.0000
     1.0000   1.0000   1.0000   1.0000   1.0000   1.0000   1.0000   1.0000
     1.0000   1.0000   1.0000   1.0000   1.0000   1.0000   1.0000   1.0000
     1.0000   1.0000   1.0000   1.0000   1.0000   1.0000   1.0000   1.0013
     1.0022   1.0045   1.0072   1.0183   1.0185  -0.0000  -0.0000  -0.0000
    -0.0000  -0.0000  -0.0000

          k = 0.0000 0.0833 0.2500 ( 11534 PWs)   bands (ev):

   -84.9353 -84.8987 -84.8919 -84.8913 -45.3952 -45.3948 -45.3840 -45.3027
   -45.2946 -45.2738 -45.2711 -45.2640 -45.2610 -45.2255 -45.1976 -45.1928
    10.3511  13.9135  14.3187  14.3426  14.6680  14.7020  14.7028  15.9651
    16.5047  16.5070  16.9819  17.0104  17.2666  17.5488  17.6222  17.8991
    17.9332  17.9622  18.1424  18.3085  18.3110  18.9340  22.6246  23.3732
    28.4361  29.2390  29.6181

     occupation numbers 
     1.0000   1.0000   1.0000   1.0000   1.0000   1.0000   1.0000   1.0000
     1.0000   1.0000   1.0000   1.0000   1.0000   1.0000   1.0000   1.0000
     1.0000   1.0000   1.0000   1.0000   1.0000   1.0000   1.0000   1.0000
     1.0000   1.0000   1.0000   1.0000   1.0000   1.0000   1.0000   1.0001
     1.0001   1.0002   1.0031   1.0179   1.0183   0.2086  -0.0000  -0.0000
    -0.0000  -0.0000  -0.0000

          k = 0.0000 0.0833 0.3333 ( 11544 PWs)   bands (ev):

   -84.9299 -84.9041 -84.8918 -84.8914 -45.3818 -45.3801 -45.3616 -45.3167
   -45.3093 -45.2736 -45.2715 -45.2543 -45.2508 -45.2497 -45.2073 -45.2024
    10.9578  13.6925  14.5681  14.5832  14.8486  14.9195  14.9292  15.7655
    16.4426  16.4870  16.6440  16.6848  17.1300  17.1353  17.6900  17.7064
    17.7081  17.7168  17.9642  18.2554  18.3079  18.3106  23.6088  24.4307
    27.9593  29.0108  29.4689

     occupation numbers 
     1.0000   1.0000   1.0000   1.0000   1.0000   1.0000   1.0000   1.0000
     1.0000   1.0000   1.0000   1.0000   1.0000   1.0000   1.0000   1.0000
     1.0000   1.0000   1.0000   1.0000   1.0000   1.0000   1.0000   1.0000
     1.0000   1.0000   1.0000   1.0000   1.0000   1.0000   1.0000   1.0000
     1.0000   1.0000   1.0002   1.0112   1.0179   1.0182  -0.0000  -0.0000
    -0.0000  -0.0000  -0.0000

          k = 0.0000 0.0833 0.4167 ( 11530 PWs)   bands (ev):

   -84.9237 -84.9103 -84.8917 -84.8915 -45.3663 -45.3630 -45.3351 -45.3327
   -45.3264 -45.2773 -45.2733 -45.2721 -45.2430 -45.2390 -45.2187 -45.2139
    11.6872  13.1956  14.7820  14.7915  15.0628  15.1951  15.2222  15.5373
    15.9575  16.0055  16.7259  16.8107  16.9047  17.1061  17.4308  17.5114
    17.5271  17.6015  17.8095  18.0445  18.3083  18.3099  24.6534  25.5903
    26.8664  28.1404  29.1740

     occupation numbers 
     1.0000   1.0000   1.0000   1.0000   1.0000   1.0000   1.0000   1.0000
     1.0000   1.0000   1.0000   1.0000   1.0000   1.0000   1.0000   1.0000
     1.0000   1.0000   1.0000   1.0000   1.0000   1.0000   1.0000   1.0000
     1.0000   1.0000   1.0000   1.0000   1.0000   1.0000   1.0000   1.0000
     1.0000   1.0000   1.0000   1.0008   1.0179   1.0181  -0.0000  -0.0000
    -0.0000  -0.0000  -0.0000

          k = 0.0000 0.0833-0.5000 ( 11546 PWs)   bands (ev):

   -84.9170 -84.9170 -84.8916 -84.8916 -45.3495 -45.3495 -45.3447 -45.3447
   -45.3064 -45.3064 -45.2728 -45.2727 -45.2308 -45.2308 -45.2264 -45.2264
    12.4737  12.4737  14.8735  14.8735  15.2975  15.2975  15.5394  15.5394
    15.5817  15.5818  16.7135  16.7135  17.1577  17.1577  17.2953  17.2953
    17.4435  17.4435  17.9214  17.9214  18.3091  18.3091  25.7428  25.7428
    26.8314  26.8314  29.4846

     occupation numbers 
     1.0000   1.0000   1.0000   1.0000   1.0000   1.0000   1.0000   1.0000
     1.0000   1.0000   1.0000   1.0000   1.0000   1.0000   1.0000   1.0000
     1.0000   1.0000   1.0000   1.0000   1.0000   1.0000   1.0000   1.0000
     1.0000   1.0000   1.0000   1.0000   1.0000   1.0000   1.0000   1.0000
     1.0000   1.0000   1.0001   1.0001   1.0180   1.0180  -0.0000  -0.0000
    -0.0000  -0.0000  -0.0000

          k = 0.0000 0.1667 0.1667 ( 11508 PWs)   bands (ev):

   -84.9369 -84.8945 -84.8944 -84.8914 -45.3991 -45.3967 -45.3967 -45.3021
   -45.2785 -45.2784 -45.2681 -45.2681 -45.2664 -45.2217 -45.1950 -45.1858
    10.1719  14.1174  14.1174  14.2620  14.6219  14.6219  14.6311  16.0634
    16.4211  16.4376  17.2571  17.3221  17.3221  17.3687  17.5635  17.9761
    18.1040  18.1040  18.1714  18.1714  18.2378  20.6736  20.6737  23.0465
    28.3401  29.4979  30.6767

     occupation numbers 
     1.0000   1.0000   1.0000   1.0000   1.0000   1.0000   1.0000   1.0000
     1.0000   1.0000   1.0000   1.0000   1.0000   1.0000   1.0000   1.0000
     1.0000   1.0000   1.0000   1.0000   1.0000   1.0000   1.0000   1.0000
     1.0000   1.0000   1.0000   1.0000   1.0000   1.0000   1.0000   1.0002
     1.0018   1.0018   1.0044   1.0044   1.0094  -0.0000  -0.0000  -0.0000
    -0.0000  -0.0000  -0.0000

          k = 0.0000 0.1667 0.2500 ( 11529 PWs)   bands (ev):

   -84.9330 -84.8983 -84.8942 -84.8917 -45.3895 -45.3880 -45.3826 -45.3147
   -45.2895 -45.2708 -45.2669 -45.2631 -45.2591 -45.2419 -45.2026 -45.1898
    10.6138  14.0800  14.3495  14.4547  14.7499  14.7729  14.7734  15.9399
    16.5091  16.5297  16.7714  16.8514  17.0048  17.2750  17.6349  17.8175
    17.9284  17.9605  18.0381  18.1698  18.1945  19.6043  21.4769  23.8819
    27.6174  28.9493  30.8678

     occupation numbers 
     1.0000   1.0000   1.0000   1.0000   1.0000   1.0000   1.0000   1.0000
     1.0000   1.0000   1.0000   1.0000   1.0000   1.0000   1.0000   1.0000
     1.0000   1.0000   1.0000   1.0000   1.0000   1.0000   1.0000   1.0000
     1.0000   1.0000   1.0000   1.0000   1.0000   1.0000   1.0000   1.0000
     1.0001   1.0002   1.0007   1.0043   1.0058  -0.0007  -0.0000  -0.0000
    -0.0000  -0.0000  -0.0000

          k = 0.0000 0.1667 0.3333 ( 11547 PWs)   bands (ev):

   -84.9279 -84.9034 -84.8938 -84.8920 -45.3799 -45.3736 -45.3638 -45.3282
   -45.3040 -45.2654 -45.2653 -45.2615 -45.2608 -45.2476 -45.2126 -45.1976
    11.2081  13.8736  14.6204  14.6871  14.9187  14.9547  14.9861  15.7641
    16.2626  16.4079  16.5727  16.6821  16.6967  17.1862  17.6312  17.7047
    17.7182  17.7498  17.8938  18.1681  18.1752  18.7994  22.3410  24.8815
    26.4254  29.0822  29.8544

     occupation numbers 
     1.0000   1.0000   1.0000   1.0000   1.0000   1.0000   1.0000   1.0000
     1.0000   1.0000   1.0000   1.0000   1.0000   1.0000   1.0000   1.0000
     1.0000   1.0000   1.0000   1.0000   1.0000   1.0000   1.0000   1.0000
     1.0000   1.0000   1.0000   1.0000   1.0000   1.0000   1.0000   1.0000
     1.0000   1.0000   1.0001   1.0042   1.0046   0.5655  -0.0000  -0.0000
    -0.0000  -0.0000  -0.0000

          k = 0.0000 0.1667 0.4167 ( 11543 PWs)   bands (ev):

   -84.9220 -84.9093 -84.8933 -84.8924 -45.3685 -45.3569 -45.3421 -45.3414
   -45.3208 -45.2908 -45.2637 -45.2614 -45.2492 -45.2346 -45.2243 -45.2084
    11.9209  13.3913  14.8641  14.9104  15.1182  15.1577  15.2600  15.5567
    15.8133  15.9797  16.4986  16.5621  16.9104  17.2131  17.4302  17.4755
    17.5265  17.6549  17.8942  18.1664  18.1677  18.3290  23.2560  25.2818
    26.0000  28.5018  29.3957

     occupation numbers 
     1.0000   1.0000   1.0000   1.0000   1.0000   1.0000   1.0000   1.0000
     1.0000   1.0000   1.0000   1.0000   1.0000   1.0000   1.0000   1.0000
     1.0000   1.0000   1.0000   1.0000   1.0000   1.0000   1.0000   1.0000
     1.0000   1.0000   1.0000   1.0000   1.0000   1.0000   1.0000   1.0000
     1.0000   1.0000   1.0001   1.0042   1.0042   1.0210  -0.0000  -0.0000
    -0.0000  -0.0000  -0.0000

          k = 0.0000 0.1667-0.5000 ( 11548 PWs)   bands (ev):

   -84.9157 -84.9157 -84.8929 -84.8929 -45.3557 -45.3557 -45.3388 -45.3388
   -45.3166 -45.3166 -45.2622 -45.2622 -45.2367 -45.2367 -45.2211 -45.2211
    12.6879  12.6879  14.9881  14.9881  15.3358  15.3358  15.4361  15.4361
    15.5930  15.5930  16.4939  16.4939  17.1594  17.1595  17.3925  17.3925
    17.4289  17.4290  18.0722  18.0722  18.1658  18.1658  24.2301  24.2301
    27.2122  27.2122  29.8434

     occupation numbers 
     1.0000   1.0000   1.0000   1.0000   1.0000   1.0000   1.0000   1.0000
     1.0000   1.0000   1.0000   1.0000   1.0000   1.0000   1.0000   1.0000
     1.0000   1.0000   1.0000   1.0000   1.0000   1.0000   1.0000   1.0000
     1.0000   1.0000   1.0000   1.0000   1.0000   1.0000   1.0000   1.0000
     1.0000   1.0000   1.0011   1.0011   1.0041   1.0041  -0.0000  -0.0000
    -0.0000  -0.0000  -0.0000

          k = 0.0000 0.2500 0.2500 ( 11562 PWs)   bands (ev):

   -84.9294 -84.8977 -84.8977 -84.8923 -45.3799 -45.3799 -45.3773 -45.3277
   -45.2816 -45.2816 -45.2622 -45.2564 -45.2563 -45.2563 -45.2106 -45.1906
    11.0408  14.3344  14.3344  14.6198  14.8862  14.8862  14.8913  15.8680
    16.5004  16.5004  16.5190  16.5927  16.6027  17.2262  17.6875  17.7246
    17.8733  17.8733  17.9583  17.9583  18.0887  20.3253  20.3253  24.6369
    26.2433  29.0371  31.8044

     occupation numbers 
     1.0000   1.0000   1.0000   1.0000   1.0000   1.0000   1.0000   1.0000
     1.0000   1.0000   1.0000   1.0000   1.0000   1.0000   1.0000   1.0000
     1.0000   1.0000   1.0000   1.0000   1.0000   1.0000   1.0000   1.0000
     1.0000   1.0000   1.0000   1.0000   1.0000   1.0000   1.0000   1.0000
     1.0000   1.0000   1.0002   1.0002   1.0015  -0.0000  -0.0000  -0.0000
    -0.0000  -0.0000  -0.0000

          k = 0.0000 0.2500 0.3333 ( 11530 PWs)   bands (ev):

   -84.9248 -84.9024 -84.8969 -84.8930 -45.3756 -45.3664 -45.3633 -45.3402
   -45.2956 -45.2845 -45.2712 -45.2533 -45.2518 -45.2434 -45.2210 -45.1956
    11.6129  14.1509  14.6375  14.8197  15.0342  15.0359  15.0764  15.7426
    16.0513  16.2705  16.2798  16.5114  16.7398  17.1640  17.5314  17.6735
    17.7037  17.7440  17.8868  17.9568  18.0199  19.4038  21.0886  24.9532
    25.5701  29.2934  30.4111

     occupation numbers 
     1.0000   1.0000   1.0000   1.0000   1.0000   1.0000   1.0000   1.0000
     1.0000   1.0000   1.0000   1.0000   1.0000   1.0000   1.0000   1.0000
     1.0000   1.0000   1.0000   1.0000   1.0000   1.0000   1.0000   1.0000
     1.0000   1.0000   1.0000   1.0000   1.0000   1.0000   1.0000   1.0000
     1.0000   1.0000   1.0000   1.0002   1.0005  -0.0098  -0.0000  -0.0000
    -0.0000  -0.0000  -0.0000

          k = 0.0000 0.2500 0.4167 ( 11548 PWs)   bands (ev):

   -84.9194 -84.9078 -84.8960 -84.8940 -45.3696 -45.3517 -45.3494 -45.3470
   -45.3120 -45.3074 -45.2591 -45.2508 -45.2495 -45.2331 -45.2295 -45.2043
    12.2952  13.6933  14.9259  15.0531  15.1404  15.2076  15.3182  15.5781
    15.6616  15.9305  16.2227  16.4379  16.9335  17.1886  17.4027  17.4331
    17.4851  17.5455  17.9578  17.9824  18.1004  18.7760  21.9060  23.8088
    26.6373  29.0740  29.6773

     occupation numbers 
     1.0000   1.0000   1.0000   1.0000   1.0000   1.0000   1.0000   1.0000
     1.0000   1.0000   1.0000   1.0000   1.0000   1.0000   1.0000   1.0000
     1.0000   1.0000   1.0000   1.0000   1.0000   1.0000   1.0000   1.0000
     1.0000   1.0000   1.0000   1.0000   1.0000   1.0000   1.0000   1.0000
     1.0000   1.0000   1.0002   1.0003   1.0017   0.6299  -0.0000  -0.0000
    -0.0000  -0.0000  -0.0000

          k = 0.0000 0.2500-0.5000 ( 11540 PWs)   bands (ev):

   -84.9136 -84.9136 -84.8950 -84.8950 -45.3616 -45.3616 -45.3295 -45.3295
   -45.3294 -45.3294 -45.2493 -45.2493 -45.2461 -45.2461 -45.2160 -45.2160
    13.0251  13.0251  15.1140  15.1140  15.3306  15.3306  15.3939  15.3939
    15.6064  15.6064  16.3105  16.3106  17.1700  17.1700  17.3335  17.3335
    17.3776  17.3776  17.9645  17.9645  18.3768  18.3768  22.8022  22.8022
    27.8112  27.8112  30.1981

     occupation numbers 
     1.0000   1.0000   1.0000   1.0000   1.0000   1.0000   1.0000   1.0000
     1.0000   1.0000   1.0000   1.0000   1.0000   1.0000   1.0000   1.0000
     1.0000   1.0000   1.0000   1.0000   1.0000   1.0000   1.0000   1.0000
     1.0000   1.0000   1.0000   1.0000   1.0000   1.0000   1.0000   1.0000
     1.0000   1.0000   1.0002   1.0002   1.0283   1.0283  -0.0000  -0.0000
    -0.0000  -0.0000  -0.0000

          k = 0.0000 0.3333 0.3333 ( 11580 PWs)   bands (ev):

   -84.9207 -84.9010 -84.9010 -84.8944 -45.3681 -45.3680 -45.3509 -45.3498
   -45.3048 -45.2847 -45.2847 -45.2441 -45.2395 -45.2395 -45.2320 -45.1975
    12.1505  14.4819  14.4819  14.9309  15.1775  15.1928  15.1928  15.6845
    15.9383  15.9383  16.0791  16.4507  16.8356  17.0987  17.4032  17.5580
    17.5580  17.7064  17.7064  17.8883  18.1105  20.0526  20.0526  23.6471
    26.4425  29.6186  31.1428

     occupation numbers 
     1.0000   1.0000   1.0000   1.0000   1.0000   1.0000   1.0000   1.0000
     1.0000   1.0000   1.0000   1.0000   1.0000   1.0000   1.0000   1.0000
     1.0000   1.0000   1.0000   1.0000   1.0000   1.0000   1.0000   1.0000
     1.0000   1.0000   1.0000   1.0000   1.0000   1.0000   1.0000   1.0000
     1.0000   1.0000   1.0000   1.0000   1.0020  -0.0000  -0.0000  -0.0000
    -0.0000  -0.0000  -0.0000

          k = 0.0000 0.3333 0.4167 ( 11566 PWs)   bands (ev):

   -84.9159 -84.9057 -84.8994 -84.8960 -45.3678 -45.3593 -45.3568 -45.3341
   -45.3244 -45.3004 -45.2720 -45.2447 -45.2390 -45.2370 -45.2257 -45.2036
    12.7838  14.0594  14.7943  15.0061  15.3257  15.3290  15.3894  15.5873
    15.6659  15.8518  16.0039  16.3429  16.9919  17.0934  17.2928  17.3798
    17.3816  17.4459  17.7176  17.7980  18.3993  19.2933  20.7650  22.5251
    27.4587  29.8244  30.0698

     occupation numbers 
     1.0000   1.0000   1.0000   1.0000   1.0000   1.0000   1.0000   1.0000
     1.0000   1.0000   1.0000   1.0000   1.0000   1.0000   1.0000   1.0000
     1.0000   1.0000   1.0000   1.0000   1.0000   1.0000   1.0000   1.0000
     1.0000   1.0000   1.0000   1.0000   1.0000   1.0000   1.0000   1.0000
     1.0000   1.0000   1.0000   1.0000   1.0313  -0.0245  -0.0000  -0.0000
    -0.0000  -0.0000  -0.0000

          k = 0.0000 0.3333-0.5000 ( 11554 PWs)   bands (ev):

   -84.9108 -84.9108 -84.8977 -84.8977 -45.3650 -45.3650 -45.3421 -45.3421
   -45.3173 -45.3173 -45.2584 -45.2583 -45.2367 -45.2367 -45.2133 -45.2133
    13.4515  13.4515  14.9871  14.9871  15.4623  15.4623  15.4704  15.4704
    15.6143  15.6143  16.1729  16.1729  17.2007  17.2008  17.2011  17.2011
    17.2748  17.2748  17.7447  17.7447  18.7717  18.7717  21.5754  21.5754
    28.5920  28.5920  30.6625

     occupation numbers 
     1.0000   1.0000   1.0000   1.0000   1.0000   1.0000   1.0000   1.0000
     1.0000   1.0000   1.0000   1.0000   1.0000   1.0000   1.0000   1.0000
     1.0000   1.0000   1.0000   1.0000   1.0000   1.0000   1.0000   1.0000
     1.0000   1.0000   1.0000   1.0000   1.0000   1.0000   1.0000   1.0000
     1.0000   1.0000   1.0000   1.0000   0.6415   0.6415  -0.0000  -0.0000
    -0.0000  -0.0000  -0.0000

          k = 0.0000 0.4167 0.4167 ( 11572 PWs)   bands (ev):

   -84.9119 -84.9034 -84.9034 -84.8983 -45.3638 -45.3623 -45.3623 -45.3400
   -45.3192 -45.2870 -45.2870 -45.2581 -45.2309 -45.2243 -45.2242 -45.2068
    13.3441  14.4240  14.4240  14.8972  15.4635  15.4635  15.5384  15.5718
    15.7419  15.8418  15.8418  16.2328  17.0306  17.1010  17.1807  17.2238
    17.2238  17.4780  17.4780  17.6467  18.7711  19.8846  19.8846  21.4548
    28.4289  30.5930  30.7237

     occupation numbers 
     1.0000   1.0000   1.0000   1.0000   1.0000   1.0000   1.0000   1.0000
     1.0000   1.0000   1.0000   1.0000   1.0000   1.0000   1.0000   1.0000
     1.0000   1.0000   1.0000   1.0000   1.0000   1.0000   1.0000   1.0000
     1.0000   1.0000   1.0000   1.0000   1.0000   1.0000   1.0000   1.0000
     1.0000   1.0000   1.0000   1.0000   0.6433  -0.0000  -0.0000  -0.0000
    -0.0000  -0.0000  -0.0000

          k = 0.0000 0.4167-0.5000 ( 11568 PWs)   bands (ev):

   -84.9077 -84.9076 -84.9008 -84.9008 -45.3648 -45.3648 -45.3529 -45.3529
   -45.3031 -45.3031 -45.2726 -45.2726 -45.2259 -45.2259 -45.2139 -45.2139
    13.9149  13.9149  14.7133  14.7133  15.5283  15.5283  15.6076  15.6076
    15.7050  15.7050  16.0586  16.0586  17.0801  17.0801  17.1424  17.1425
    17.2660  17.2660  17.5412  17.5412  19.2438  19.2438  20.5880  20.5880
    29.5229  29.5229  31.2612

     occupation numbers 
     1.0000   1.0000   1.0000   1.0000   1.0000   1.0000   1.0000   1.0000
     1.0000   1.0000   1.0000   1.0000   1.0000   1.0000   1.0000   1.0000
     1.0000   1.0000   1.0000   1.0000   1.0000   1.0000   1.0000   1.0000
     1.0000   1.0000   1.0000   1.0000   1.0000   1.0000   1.0000   1.0000
     1.0000   1.0000   1.0000   1.0000  -0.0316  -0.0316  -0.0000  -0.0000
    -0.0000  -0.0000  -0.0000

          k = 0.0000-0.5000-0.5000 ( 11576 PWs)   bands (ev):

   -84.9043 -84.9042 -84.9042 -84.9042 -45.3607 -45.3607 -45.3607 -45.3607
   -45.2879 -45.2878 -45.2878 -45.2878 -45.2181 -45.2181 -45.2181 -45.2181
    14.3514  14.3515  14.3515  14.3515  15.5792  15.5792  15.5792  15.5792
    15.9131  15.9131  15.9131  15.9131  17.0535  17.0535  17.0535  17.0535
    17.3782  17.3782  17.3782  17.3782  19.8287  19.8287  19.8287  19.8287
    30.5804  30.5804  30.5804

     occupation numbers 
     1.0000   1.0000   1.0000   1.0000   1.0000   1.0000   1.0000   1.0000
     1.0000   1.0000   1.0000   1.0000   1.0000   1.0000   1.0000   1.0000
     1.0000   1.0000   1.0000   1.0000   1.0000   1.0000   1.0000   1.0000
     1.0000   1.0000   1.0000   1.0000   1.0000   1.0000   1.0000   1.0000
     1.0000   1.0000   1.0000   1.0000  -0.0000  -0.0000  -0.0000  -0.0000
    -0.0000  -0.0000  -0.0000

          k = 0.0833 0.0833 0.0833 ( 11531 PWs)   bands (ev):

   -84.9411 -84.8921 -84.8921 -84.8921 -45.4097 -45.4097 -45.4097 -45.2807
   -45.2807 -45.2807 -45.2715 -45.2715 -45.2715 -45.1991 -45.1847 -45.1847
     9.7169  14.0051  14.0051  14.0051  14.4776  14.4776  14.4776  16.1927
    16.3287  16.3287  17.4947  17.4947  17.9031  17.9031  17.9031  18.1403
    18.1403  18.1403  18.3258  18.3258  18.3258  21.2916  21.2916  21.2916
    29.0053  29.0053  29.0053

     occupation numbers 
     1.0000   1.0000   1.0000   1.0000   1.0000   1.0000   1.0000   1.0000
     1.0000   1.0000   1.0000   1.0000   1.0000   1.0000   1.0000   1.0000
     1.0000   1.0000   1.0000   1.0000   1.0000   1.0000   1.0000   1.0000
     1.0000   1.0000   1.0000   1.0000   1.0001   1.0001   1.0001   1.0030
     1.0030   1.0030   1.0205   1.0205   1.0205  -0.0000  -0.0000  -0.0000
    -0.0000  -0.0000  -0.0000

          k = 0.0833 0.0833 0.1667 ( 11512 PWs)   bands (ev):

   -84.9386 -84.8946 -84.8921 -84.8920 -45.4034 -45.4034 -45.3997 -45.2890
   -45.2889 -45.2752 -45.2699 -45.2699 -45.2670 -45.2132 -45.1892 -45.1868
     9.9913  14.0153  14.1457  14.1457  14.5611  14.5710  14.5710  16.1093
    16.3907  16.3970  17.4090  17.4599  17.4599  17.5403  17.6995  18.0004
    18.0372  18.0372  18.2979  18.3045  18.3045  20.2489  21.9407  21.9407
    29.0854  29.0854  30.5851

     occupation numbers 
     1.0000   1.0000   1.0000   1.0000   1.0000   1.0000   1.0000   1.0000
     1.0000   1.0000   1.0000   1.0000   1.0000   1.0000   1.0000   1.0000
     1.0000   1.0000   1.0000   1.0000   1.0000   1.0000   1.0000   1.0000
     1.0000   1.0000   1.0000   1.0000   1.0000   1.0000   1.0000   1.0004
     1.0007   1.0007   1.0164   1.0174   1.0174  -0.0000  -0.0000  -0.0000
    -0.0000  -0.0000  -0.0000

          k = 0.0833 0.0833 0.2500 ( 11528 PWs)   bands (ev):

   -84.9345 -84.8986 -84.8920 -84.8920 -45.3934 -45.3934 -45.3838 -45.3001
   -45.3000 -45.2693 -45.2693 -45.2665 -45.2599 -45.2327 -45.1963 -45.1931
    10.4387  13.9680  14.3573  14.3573  14.6954  14.7261  14.7261  15.9620
    16.5025  16.5097  16.9357  16.9357  17.2862  17.3669  17.6126  17.8032
    17.8802  17.8802  18.2378  18.2844  18.2844  19.1872  22.7877  22.7877
    29.0890  29.0890  29.8393

     occupation numbers 
     1.0000   1.0000   1.0000   1.0000   1.0000   1.0000   1.0000   1.0000
     1.0000   1.0000   1.0000   1.0000   1.0000   1.0000   1.0000   1.0000
     1.0000   1.0000   1.0000   1.0000   1.0000   1.0000   1.0000   1.0000
     1.0000   1.0000   1.0000   1.0000   1.0000   1.0000   1.0000   1.0000
     1.0000   1.0000   1.0094   1.0146   1.0146  -0.0354  -0.0000  -0.0000
    -0.0000  -0.0000  -0.0000

          k = 0.0833 0.0833 0.3333 ( 11555 PWs)   bands (ev):

   -84.9293 -84.9039 -84.8920 -84.8920 -45.3805 -45.3805 -45.3628 -45.3135
   -45.3135 -45.2691 -45.2691 -45.2565 -45.2552 -45.2506 -45.2056 -45.2027
    11.0411  13.7511  14.6038  14.6038  14.8730  14.9383  14.9383  15.7688
    16.4239  16.4239  16.6267  16.6645  16.9714  17.1784  17.5703  17.6827
    17.6827  17.7065  18.1512  18.2741  18.2741  18.3754  23.7398  23.7398
    28.2106  28.2106  29.7236

     occupation numbers 
     1.0000   1.0000   1.0000   1.0000   1.0000   1.0000   1.0000   1.0000
     1.0000   1.0000   1.0000   1.0000   1.0000   1.0000   1.0000   1.0000
     1.0000   1.0000   1.0000   1.0000   1.0000   1.0000   1.0000   1.0000
     1.0000   1.0000   1.0000   1.0000   1.0000   1.0000   1.0000   1.0000
     1.0000   1.0000   1.0034   1.0133   1.0133   1.0281  -0.0000  -0.0000
    -0.0000  -0.0000  -0.0000

          k = 0.0833 0.0833 0.4167 ( 11537 PWs)   bands (ev):

   -84.9231 -84.9100 -84.8920 -84.8920 -45.3661 -45.3661 -45.3379 -45.3282
   -45.3282 -45.2831 -45.2692 -45.2692 -45.2421 -45.2397 -45.2165 -45.2148
    11.7645  13.2592  14.8226  14.8226  15.0831  15.1995  15.1995  15.5468
    15.9630  15.9630  16.6681  16.6974  16.8571  17.2144  17.3230  17.5063
    17.5063  17.8153  17.8291  18.0461  18.2696  18.2696  24.7452  24.7452
    27.0684  27.0684  30.0574

     occupation numbers 
     1.0000   1.0000   1.0000   1.0000   1.0000   1.0000   1.0000   1.0000
     1.0000   1.0000   1.0000   1.0000   1.0000   1.0000   1.0000   1.0000
     1.0000   1.0000   1.0000   1.0000   1.0000   1.0000   1.0000   1.0000
     1.0000   1.0000   1.0000   1.0000   1.0000   1.0000   1.0000   1.0000
     1.0000   1.0000   1.0000   1.0008   1.0128   1.0128  -0.0000  -0.0000
    -0.0000  -0.0000  -0.0000

          k = 0.0833 0.0833-0.5000 ( 11540 PWs)   bands (ev):

   -84.9166 -84.9165 -84.8920 -84.8920 -45.3563 -45.3563 -45.3382 -45.3381
   -45.3108 -45.3108 -45.2692 -45.2692 -45.2283 -45.2283 -45.2281 -45.2281
    12.5441  12.5441  14.9151  14.9151  15.3127  15.3127  15.4440  15.4440
    15.6462  15.6462  16.6333  16.6333  17.0802  17.0802  17.4328  17.4328
    17.4518  17.4518  17.9313  17.9313  18.2683  18.2683  25.5368  25.5368
    26.2285  26.2285  30.3262

     occupation numbers 
     1.0000   1.0000   1.0000   1.0000   1.0000   1.0000   1.0000   1.0000
     1.0000   1.0000   1.0000   1.0000   1.0000   1.0000   1.0000   1.0000
     1.0000   1.0000   1.0000   1.0000   1.0000   1.0000   1.0000   1.0000
     1.0000   1.0000   1.0000   1.0000   1.0000   1.0000   1.0000   1.0000
     1.0000   1.0000   1.0001   1.0001   1.0127   1.0127  -0.0000  -0.0000
    -0.0000  -0.0000  -0.0000

          k = 0.0833 0.1667 0.1667 ( 11529 PWs)   bands (ev):

   -84.9361 -84.8945 -84.8944 -84.8922 -45.3975 -45.3956 -45.3956 -45.2990
   -45.2825 -45.2825 -45.2652 -45.2652 -45.2651 -45.2288 -45.1929 -45.1872
    10.2604  14.1620  14.1620  14.2731  14.6503  14.6503  14.6572  16.0569
    16.4301  16.4398  17.1881  17.2444  17.2444  17.3954  17.5385  17.8965
    17.9128  17.9128  18.2687  18.2772  18.2772  20.8549  20.8549  22.4827
    28.9450  29.7478  30.6382

     occupation numbers 
     1.0000   1.0000   1.0000   1.0000   1.0000   1.0000   1.0000   1.0000
     1.0000   1.0000   1.0000   1.0000   1.0000   1.0000   1.0000   1.0000
     1.0000   1.0000   1.0000   1.0000   1.0000   1.0000   1.0000   1.0000
     1.0000   1.0000   1.0000   1.0000   1.0000   1.0000   1.0000   1.0001
     1.0001   1.0001   1.0127   1.0137   1.0137  -0.0000  -0.0000  -0.0000
    -0.0000  -0.0000  -0.0000

          k = 0.0833 0.1667 0.2500 ( 11538 PWs)   bands (ev):

   -84.9323 -84.8983 -84.8942 -84.8924 -45.3890 -45.3883 -45.3829 -45.3103
   -45.2927 -45.2726 -45.2638 -45.2617 -45.2577 -45.2490 -45.2000 -45.1910
    10.6985  14.1243  14.3835  14.4650  14.7781  14.7980  14.7983  15.9408
    16.5073  16.5237  16.7372  16.7908  16.9344  17.3110  17.6166  17.7210
    17.7502  17.8010  18.2174  18.2205  18.2244  19.7488  21.6094  23.2330
    27.8806  29.6139  29.8533

     occupation numbers 
     1.0000   1.0000   1.0000   1.0000   1.0000   1.0000   1.0000   1.0000
     1.0000   1.0000   1.0000   1.0000   1.0000   1.0000   1.0000   1.0000
     1.0000   1.0000   1.0000   1.0000   1.0000   1.0000   1.0000   1.0000
     1.0000   1.0000   1.0000   1.0000   1.0000   1.0000   1.0000   1.0000
     1.0000   1.0000   1.0075   1.0078   1.0081  -0.0001  -0.0000  -0.0000
    -0.0000  -0.0000  -0.0000

          k = 0.0833 0.1667 0.3333 ( 11545 PWs)   bands (ev):

   -84.9273 -84.9032 -84.8939 -84.8926 -45.3806 -45.3770 -45.3658 -45.3215
   -45.3051 -45.2723 -45.2624 -45.2602 -45.2600 -45.2476 -45.2096 -45.1988
    11.2870  13.9189  14.6447  14.6971  14.9467  14.9746  14.9974  15.7728
    16.2616  16.3640  16.5665  16.6256  16.6606  17.2502  17.4920  17.5862
    17.6389  17.7362  18.1067  18.1836  18.1850  18.8696  22.4392  24.0858
    26.6742  28.6155  29.8940

     occupation numbers 
     1.0000   1.0000   1.0000   1.0000   1.0000   1.0000   1.0000   1.0000
     1.0000   1.0000   1.0000   1.0000   1.0000   1.0000   1.0000   1.0000
     1.0000   1.0000   1.0000   1.0000   1.0000   1.0000   1.0000   1.0000
     1.0000   1.0000   1.0000   1.0000   1.0000   1.0000   1.0000   1.0000
     1.0000   1.0000   1.0019   1.0051   1.0052   0.3695  -0.0000  -0.0000
    -0.0000  -0.0000  -0.0000

          k = 0.0833 0.1667 0.4167 ( 11548 PWs)   bands (ev):

   -84.9215 -84.9090 -84.8936 -84.8929 -45.3714 -45.3667 -45.3451 -45.3301
   -45.3184 -45.2970 -45.2611 -45.2595 -45.2468 -45.2356 -45.2209 -45.2097
    11.9918  13.4424  14.8930  14.9331  15.1444  15.1453  15.2163  15.5726
    15.8600  15.9717  16.4601  16.5455  16.8298  17.2544  17.3327  17.4413
    17.4749  17.8796  17.8966  18.1640  18.1648  18.3144  23.3192  24.7677
    25.8270  27.4412  30.3330

     occupation numbers 
     1.0000   1.0000   1.0000   1.0000   1.0000   1.0000   1.0000   1.0000
     1.0000   1.0000   1.0000   1.0000   1.0000   1.0000   1.0000   1.0000
     1.0000   1.0000   1.0000   1.0000   1.0000   1.0000   1.0000   1.0000
     1.0000   1.0000   1.0000   1.0000   1.0000   1.0000   1.0000   1.0000
     1.0000   1.0000   1.0001   1.0040   1.0041   1.0188  -0.0000  -0.0000
    -0.0000  -0.0000  -0.0000

          k = 0.0833 0.1667-0.5000 ( 11570 PWs)   bands (ev):

   -84.9153 -84.9153 -84.8933 -84.8933 -45.3645 -45.3645 -45.3292 -45.3292
   -45.3217 -45.3217 -45.2600 -45.2600 -45.2335 -45.2335 -45.2224 -45.2224
    12.7489  12.7489  15.0312  15.0312  15.3013  15.3013  15.3578  15.3578
    15.7045  15.7045  16.4679  16.4679  17.0294  17.0294  17.3916  17.3916
    17.5813  17.5813  18.0493  18.0493  18.1585  18.1585  24.2221  24.2221
    26.3804  26.3804  30.9102

     occupation numbers 
     1.0000   1.0000   1.0000   1.0000   1.0000   1.0000   1.0000   1.0000
     1.0000   1.0000   1.0000   1.0000   1.0000   1.0000   1.0000   1.0000
     1.0000   1.0000   1.0000   1.0000   1.0000   1.0000   1.0000   1.0000
     1.0000   1.0000   1.0000   1.0000   1.0000   1.0000   1.0000   1.0000
     1.0000   1.0000   1.0008   1.0008   1.0038   1.0038  -0.0000  -0.0000
    -0.0000  -0.0000  -0.0000

          k = 0.0833 0.2500 0.2500 ( 11542 PWs)   bands (ev):

   -84.9288 -84.8977 -84.8977 -84.8929 -45.3812 -45.3812 -45.3808 -45.3203
   -45.2818 -45.2818 -45.2695 -45.2553 -45.2549 -45.2549 -45.2074 -45.1917
    11.1201  14.3594  14.3594  14.6202  14.9164  14.9164  14.9191  15.8769
    16.4801  16.4802  16.5170  16.5510  16.5794  17.2804  17.5978  17.6429
    17.6429  17.7031  18.1379  18.1379  18.1428  20.4212  20.4212  23.8537
    26.5069  29.8205  30.4378

     occupation numbers 
     1.0000   1.0000   1.0000   1.0000   1.0000   1.0000   1.0000   1.0000
     1.0000   1.0000   1.0000   1.0000   1.0000   1.0000   1.0000   1.0000
     1.0000   1.0000   1.0000   1.0000   1.0000   1.0000   1.0000   1.0000
     1.0000   1.0000   1.0000   1.0000   1.0000   1.0000   1.0000   1.0000
     1.0000   1.0000   1.0029   1.0029   1.0031  -0.0000  -0.0000  -0.0000
    -0.0000  -0.0000  -0.0000

          k = 0.0833 0.2500 0.3333 ( 11546 PWs)   bands (ev):

   -84.9242 -84.9023 -84.8970 -84.8936 -45.3784 -45.3731 -45.3695 -45.3272
   -45.2935 -45.2917 -45.2690 -45.2519 -45.2508 -45.2433 -45.2173 -45.1965
    11.6839  14.1698  14.6340  14.8020  15.0667  15.0713  15.1034  15.7616
    16.0729  16.2568  16.2726  16.5094  16.6824  17.2500  17.4310  17.4497
    17.5253  17.8648  18.0047  18.0620  18.0721  19.4486  21.1544  24.3332
    25.5570  29.1598  30.1737

     occupation numbers 
     1.0000   1.0000   1.0000   1.0000   1.0000   1.0000   1.0000   1.0000
     1.0000   1.0000   1.0000   1.0000   1.0000   1.0000   1.0000   1.0000
     1.0000   1.0000   1.0000   1.0000   1.0000   1.0000   1.0000   1.0000
     1.0000   1.0000   1.0000   1.0000   1.0000   1.0000   1.0000   1.0000
     1.0000   1.0000   1.0004   1.0010   1.0011  -0.0060  -0.0000  -0.0000
    -0.0000  -0.0000  -0.0000

          k = 0.0833 0.2500 0.4167 ( 11552 PWs)   bands (ev):

   -84.9189 -84.9076 -84.8962 -84.8944 -45.3748 -45.3693 -45.3541 -45.3271
   -45.3142 -45.3065 -45.2555 -45.2495 -45.2484 -45.2301 -45.2290 -45.2053
    12.3543  13.7199  14.8965  14.9978  15.1742  15.2475  15.2883  15.6069
    15.7641  15.9675  16.2212  16.4357  16.8212  17.2049  17.3322  17.3330
    17.3880  17.8000  18.0180  18.0249  18.0753  18.7703  21.9460  23.7294
    25.9531  27.9769  30.6724

     occupation numbers 
     1.0000   1.0000   1.0000   1.0000   1.0000   1.0000   1.0000   1.0000
     1.0000   1.0000   1.0000   1.0000   1.0000   1.0000   1.0000   1.0000
     1.0000   1.0000   1.0000   1.0000   1.0000   1.0000   1.0000   1.0000
[...]
    -0.0000  -0.0000  -0.0000

          k = 0.2500 0.2500-0.5000 ( 11572 PWs)   bands (ev):

   -84.0617 -84.0617 -84.0481 -84.0481 -44.5750 -44.5750 -44.5428 -44.5428
   -44.4556 -44.4556 -44.4104 -44.4104 -44.3949 -44.3949 -44.3944 -44.3944
    13.4921  13.4921  15.1362  15.1362  15.9301  15.9301  16.2958  16.2958
    16.7664  16.7664  16.9132  16.9132  17.3500  17.3500  17.5694  17.5694
    18.8341  18.8341  18.8972  18.8972  18.9334  18.9334  22.4977  22.4977
    25.4487  25.4487  30.1423

     occupation numbers 
     1.0000   1.0000   1.0000   1.0000   1.0000   1.0000   1.0000   1.0000
     1.0000   1.0000   1.0000   1.0000   1.0000   1.0000   1.0000   1.0000
     1.0000   1.0000   1.0000   1.0000   1.0000   1.0000   1.0000   1.0000
     1.0000   1.0000   1.0000   1.0000   1.0000   1.0000   1.0000   1.0000
     0.4680   0.4679   0.2969   0.2969   0.2101   0.2101  -0.0000  -0.0000
    -0.0000  -0.0000  -0.0000

          k = 0.2500 0.3333 0.3333 ( 11581 PWs)   bands (ev):

   -84.0679 -84.0515 -84.0515 -84.0487 -44.5779 -44.5731 -44.5731 -44.5254
   -44.4498 -44.4334 -44.4334 -44.4086 -44.4073 -44.4073 -44.3822 -44.3746
    12.6970  14.7039  14.7039  14.9939  15.9393  16.0257  16.0257  16.5707
    16.8083  16.8083  16.8819  17.1225  17.1578  17.5291  17.5291  17.5476
    18.3723  18.6317  18.9933  19.0070  19.0070  20.7586  20.7586  22.0620
    25.6819  27.1989  27.1989

     occupation numbers 
     1.0000   1.0000   1.0000   1.0000   1.0000   1.0000   1.0000   1.0000
     1.0000   1.0000   1.0000   1.0000   1.0000   1.0000   1.0000   1.0000
     1.0000   1.0000   1.0000   1.0000   1.0000   1.0000   1.0000   1.0000
     1.0000   1.0000   1.0000   1.0000   1.0000   1.0000   1.0000   1.0000
     1.0276   0.9357   0.0945   0.0737   0.0737  -0.0000  -0.0000  -0.0000
    -0.0000  -0.0000  -0.0000

          k = 0.2500 0.3333 0.4167 ( 11558 PWs)   bands (ev):

   -84.0639 -84.0555 -84.0508 -84.0494 -44.5822 -44.5797 -44.5693 -44.5444
   -44.4444 -44.4358 -44.4145 -44.4044 -44.4038 -44.3985 -44.3903 -44.3795
    13.2229  14.2754  14.7950  14.9360  16.0933  16.1517  16.2810  16.5749
    16.8333  16.8468  16.9226  17.0185  17.1700  17.3660  17.4371  17.4383
    18.5042  18.8731  18.9208  18.9350  18.9375  19.8334  21.1871  21.9654
    25.3537  26.2526  27.9745

     occupation numbers 
     1.0000   1.0000   1.0000   1.0000   1.0000   1.0000   1.0000   1.0000
     1.0000   1.0000   1.0000   1.0000   1.0000   1.0000   1.0000   1.0000
     1.0000   1.0000   1.0000   1.0000   1.0000   1.0000   1.0000   1.0000
     1.0000   1.0000   1.0000   1.0000   1.0000   1.0000   1.0000   1.0000
     1.0304   0.3600   0.2390   0.2065   0.2009  -0.0000  -0.0000  -0.0000
    -0.0000  -0.0000  -0.0000

          k = 0.2500 0.3333-0.5000 ( 11576 PWs)   bands (ev):

   -84.0597 -84.0597 -84.0501 -84.0501 -44.5829 -44.5829 -44.5595 -44.5595
   -44.4397 -44.4397 -44.4027 -44.4027 -44.4005 -44.4005 -44.3884 -44.3884
    13.7669  13.7669  14.8693  14.8693  16.1761  16.1761  16.4860  16.4860
    16.9009  16.9009  16.9115  16.9115  17.2426  17.2426  17.3974  17.3974
    18.7382  18.7382  18.9044  18.9044  19.2158  19.2158  21.6249  21.6249
    25.5968  25.5968  28.8808

     occupation numbers 
     1.0000   1.0000   1.0000   1.0000   1.0000   1.0000   1.0000   1.0000
     1.0000   1.0000   1.0000   1.0000   1.0000   1.0000   1.0000   1.0000
     1.0000   1.0000   1.0000   1.0000   1.0000   1.0000   1.0000   1.0000
     1.0000   1.0000   1.0000   1.0000   1.0000   1.0000   1.0000   1.0000
     0.7283   0.7283   0.2788   0.2788  -0.0345  -0.0345  -0.0000  -0.0000
    -0.0000  -0.0000  -0.0000

          k = 0.2500 0.4167 0.4167 ( 11554 PWs)   bands (ev):

   -84.0608 -84.0540 -84.0540 -84.0508 -44.5862 -44.5794 -44.5794 -44.5609
   -44.4350 -44.4200 -44.4200 -44.3984 -44.3981 -44.3949 -44.3949 -44.3807
    13.6379  14.4422  14.4422  14.7644  16.2968  16.4270  16.4270  16.6983
    16.8946  16.8946  16.9593  17.0093  17.1266  17.2860  17.2860  17.3102
    18.5299  18.8373  18.8373  18.8660  19.1801  20.2504  20.2504  21.3661
    25.5471  26.9421  26.9421

     occupation numbers 
     1.0000   1.0000   1.0000   1.0000   1.0000   1.0000   1.0000   1.0000
     1.0000   1.0000   1.0000   1.0000   1.0000   1.0000   1.0000   1.0000
     1.0000   1.0000   1.0000   1.0000   1.0000   1.0000   1.0000   1.0000
     1.0000   1.0000   1.0000   1.0000   1.0000   1.0000   1.0000   1.0000
     1.0224   0.4588   0.4588   0.3792  -0.0353  -0.0000  -0.0000  -0.0000
    -0.0000  -0.0000  -0.0000

          k = 0.2500 0.4167-0.5000 ( 11550 PWs)   bands (ev):

   -84.0574 -84.0574 -84.0524 -84.0524 -44.5853 -44.5853 -44.5730 -44.5730
   -44.4269 -44.4269 -44.4078 -44.4078 -44.3948 -44.3948 -44.3864 -44.3864
    14.0530  14.0530  14.6019  14.6019  16.4278  16.4278  16.6563  16.6563
    16.9088  16.9088  16.9938  16.9938  17.1728  17.1728  17.2565  17.2565
    18.6697  18.6697  18.8130  18.8130  19.5974  19.5974  20.7606  20.7606
    26.1188  26.1188  27.7870

     occupation numbers 
     1.0000   1.0000   1.0000   1.0000   1.0000   1.0000   1.0000   1.0000
     1.0000   1.0000   1.0000   1.0000   1.0000   1.0000   1.0000   1.0000
     1.0000   1.0000   1.0000   1.0000   1.0000   1.0000   1.0000   1.0000
     1.0000   1.0000   1.0000   1.0000   1.0000   1.0000   1.0000   1.0000
     0.8756   0.8756   0.5273   0.5273  -0.0008  -0.0008  -0.0000  -0.0000
    -0.0000  -0.0000  -0.0000

          k = 0.2500-0.5000-0.5000 ( 11568 PWs)   bands (ev):

   -84.0549 -84.0549 -84.0549 -84.0549 -44.5818 -44.5818 -44.5818 -44.5818
   -44.4165 -44.4165 -44.4165 -44.4165 -44.3888 -44.3888 -44.3888 -44.3888
    14.3319  14.3319  14.3319  14.3319  16.6217  16.6217  16.6217  16.6217
    16.9847  16.9847  16.9847  16.9847  17.1697  17.1697  17.1697  17.1697
    18.7039  18.7039  18.7039  18.7039  20.0851  20.0851  20.0851  20.0851
    26.8633  26.8633  26.8633

     occupation numbers 
     1.0000   1.0000   1.0000   1.0000   1.0000   1.0000   1.0000   1.0000
     1.0000   1.0000   1.0000   1.0000   1.0000   1.0000   1.0000   1.0000
     1.0000   1.0000   1.0000   1.0000   1.0000   1.0000   1.0000   1.0000
     1.0000   1.0000   1.0000   1.0000   1.0000   1.0000   1.0000   1.0000
     0.8078   0.8078   0.8078   0.8078  -0.0000  -0.0000  -0.0000  -0.0000
    -0.0000  -0.0000  -0.0000

          k = 0.3333 0.3333 0.3333 ( 11536 PWs)   bands (ev):

   -84.0651 -84.0515 -84.0515 -84.0515 -44.5839 -44.5839 -44.5839 -44.5460
   -44.4265 -44.4265 -44.4265 -44.4036 -44.4036 -44.4036 -44.3796 -44.3796
    13.0737  14.6765  14.6765  14.6765  16.2026  16.2026  16.2026  16.7186
    16.9563  16.9563  16.9563  17.0885  17.0885  17.3673  17.3673  17.3673
    18.5945  18.5945  19.0319  19.0319  19.0319  20.8904  20.8904  20.8904
    26.1618  26.1619  26.1619

     occupation numbers 
     1.0000   1.0000   1.0000   1.0000   1.0000   1.0000   1.0000   1.0000
     1.0000   1.0000   1.0000   1.0000   1.0000   1.0000   1.0000   1.0000
     1.0000   1.0000   1.0000   1.0000   1.0000   1.0000   1.0000   1.0000
     1.0000   1.0000   1.0000   1.0000   1.0000   1.0000   1.0000   1.0000
     0.9793   0.9793   0.0411   0.0411   0.0411  -0.0000  -0.0000  -0.0000
    -0.0000  -0.0000  -0.0000

          k = 0.3333 0.3333 0.4167 ( 11569 PWs)   bands (ev):

   -84.0618 -84.0548 -84.0515 -84.0515 -44.5911 -44.5911 -44.5834 -44.5636
   -44.4232 -44.4231 -44.4068 -44.4000 -44.4000 -44.3978 -44.3853 -44.3827
    13.4922  14.3141  14.6493  14.6493  16.3499  16.3499  16.4837  16.8342
    17.0050  17.0174  17.0762  17.0897  17.0897  17.2210  17.2674  17.2674
    18.7208  18.7833  18.9895  18.9895  19.0098  19.8836  21.0124  21.0124
    25.4860  25.4860  26.8405

     occupation numbers 
     1.0000   1.0000   1.0000   1.0000   1.0000   1.0000   1.0000   1.0000
     1.0000   1.0000   1.0000   1.0000   1.0000   1.0000   1.0000   1.0000
     1.0000   1.0000   1.0000   1.0000   1.0000   1.0000   1.0000   1.0000
     1.0000   1.0000   1.0000   1.0000   1.0000   1.0000   1.0000   1.0000
     0.7700   0.6102   0.1007   0.1007   0.0697  -0.0000  -0.0000  -0.0000
    -0.0000  -0.0000  -0.0000

          k = 0.3333 0.3333-0.5000 ( 11566 PWs)   bands (ev):

   -84.0583 -84.0583 -84.0515 -84.0515 -44.5936 -44.5936 -44.5764 -44.5764
   -44.4222 -44.4222 -44.3985 -44.3985 -44.3919 -44.3919 -44.3916 -44.3916
    13.9147  13.9147  14.6383  14.6383  16.4047  16.4047  16.7320  16.7320
    17.0114  17.0114  17.1215  17.1215  17.1554  17.1554  17.2280  17.2280
    18.9251  18.9251  18.9590  18.9590  19.1405  19.1405  21.0635  21.0635
    25.2485  25.2486  27.6773

     occupation numbers 
     1.0000   1.0000   1.0000   1.0000   1.0000   1.0000   1.0000   1.0000
     1.0000   1.0000   1.0000   1.0000   1.0000   1.0000   1.0000   1.0000
     1.0000   1.0000   1.0000   1.0000   1.0000   1.0000   1.0000   1.0000
     1.0000   1.0000   1.0000   1.0000   1.0000   1.0000   1.0000   1.0000
     0.2289   0.2289   0.1561   0.1561  -0.0302  -0.0302  -0.0000  -0.0000
    -0.0000  -0.0000  -0.0000

          k = 0.3333 0.4167 0.4167 ( 11565 PWs)   bands (ev):

   -84.0593 -84.0540 -84.0540 -84.0523 -44.5975 -44.5935 -44.5935 -44.5791
   -44.4148 -44.4066 -44.4066 -44.3958 -44.3944 -44.3943 -44.3894 -44.3833
    13.7804  14.3601  14.3602  14.5230  16.5267  16.6115  16.6115  16.9607
    17.0162  17.1250  17.1250  17.1331  17.1491  17.2259  17.2259  17.2890
    18.7321  18.9681  18.9719  18.9719  18.9961  20.0696  20.0696  20.7072
    25.2162  25.9710  25.9710

     occupation numbers 
     1.0000   1.0000   1.0000   1.0000   1.0000   1.0000   1.0000   1.0000
     1.0000   1.0000   1.0000   1.0000   1.0000   1.0000   1.0000   1.0000
     1.0000   1.0000   1.0000   1.0000   1.0000   1.0000   1.0000   1.0000
     1.0000   1.0000   1.0000   1.0000   1.0000   1.0000   1.0000   1.0000
     0.7431   0.1384   0.1314   0.1314   0.0902  -0.0000  -0.0000  -0.0000
    -0.0000  -0.0000  -0.0000

          k = 0.3333 0.4167-0.5000 ( 11548 PWs)   bands (ev):

   -84.0566 -84.0566 -84.0531 -84.0531 -44.5984 -44.5984 -44.5894 -44.5894
   -44.4097 -44.4097 -44.3960 -44.3960 -44.3933 -44.3933 -44.3878 -44.3878
    14.0710  14.0710  14.4268  14.4268  16.6238  16.6238  16.8284  16.8284
    17.0428  17.0428  17.1003  17.1004  17.2634  17.2634  17.3547  17.3547
    18.8637  18.8637  18.9362  18.9362  19.3676  19.3676  20.3605  20.3605
    25.4077  25.4077  26.6834

     occupation numbers 
     1.0000   1.0000   1.0000   1.0000   1.0000   1.0000   1.0000   1.0000
     1.0000   1.0000   1.0000   1.0000   1.0000   1.0000   1.0000   1.0000
     1.0000   1.0000   1.0000   1.0000   1.0000   1.0000   1.0000   1.0000
     1.0000   1.0000   1.0000   1.0000   1.0000   1.0000   1.0000   1.0000
     0.3856   0.3856   0.2039   0.2039  -0.0138  -0.0138  -0.0000  -0.0000
    -0.0000  -0.0000  -0.0000

          k = 0.3333-0.5000-0.5000 ( 11556 PWs)   bands (ev):

   -84.0549 -84.0549 -84.0549 -84.0548 -44.5969 -44.5969 -44.5969 -44.5969
   -44.4016 -44.4016 -44.4016 -44.4016 -44.3888 -44.3888 -44.3888 -44.3888
    14.2391  14.2391  14.2391  14.2391  16.7801  16.7801  16.7801  16.7801
    17.0309  17.0310  17.0310  17.0310  17.4263  17.4263  17.4263  17.4263
    18.8629  18.8629  18.8629  18.8629  19.7626  19.7626  19.7626  19.7626
    25.9156  25.9156  25.9156

     occupation numbers 
     1.0000   1.0000   1.0000   1.0000   1.0000   1.0000   1.0000   1.0000
     1.0000   1.0000   1.0000   1.0000   1.0000   1.0000   1.0000   1.0000
     1.0000   1.0000   1.0000   1.0000   1.0000   1.0000   1.0000   1.0000
     1.0000   1.0000   1.0000   1.0000   1.0000   1.0000   1.0000   1.0000
     0.3878   0.3878   0.3878   0.3878  -0.0000  -0.0000  -0.0000  -0.0000
    -0.0000  -0.0000  -0.0000

          k = 0.4167 0.4167 0.4167 ( 11554 PWs)   bands (ev):

   -84.0576 -84.0540 -84.0540 -84.0539 -44.6026 -44.6026 -44.6026 -44.5929
   -44.3993 -44.3993 -44.3993 -44.3927 -44.3927 -44.3927 -44.3863 -44.3863
    13.9358  14.3022  14.3022  14.3022  16.7378  16.7378  16.7378  16.9620
    16.9620  17.0313  17.0313  17.0313  17.5575  17.5575  17.5575  17.5632
    18.8870  18.8870  19.0092  19.0092  19.0092  19.8881  19.8881  19.8881
    25.3661  25.3662  25.3662

     occupation numbers 
     1.0000   1.0000   1.0000   1.0000   1.0000   1.0000   1.0000   1.0000
     1.0000   1.0000   1.0000   1.0000   1.0000   1.0000   1.0000   1.0000
     1.0000   1.0000   1.0000   1.0000   1.0000   1.0000   1.0000   1.0000
     1.0000   1.0000   1.0000   1.0000   1.0000   1.0000   1.0000   1.0000
     0.3231   0.3231   0.0706   0.0706   0.0706  -0.0000  -0.0000  -0.0000
    -0.0000  -0.0000  -0.0000

          k = 0.4167 0.4167-0.5000 ( 11560 PWs)   bands (ev):

   -84.0558 -84.0558 -84.0540 -84.0539 -44.6058 -44.6058 -44.6010 -44.6010
   -44.3977 -44.3977 -44.3912 -44.3912 -44.3896 -44.3896 -44.3895 -44.3895
    14.1075  14.1075  14.2815  14.2815  16.7839  16.7839  16.8872  16.8872
    16.9672  16.9672  16.9940  16.9940  17.7230  17.7230  17.7308  17.7308
    18.9819  18.9819  18.9895  18.9895  19.1700  19.1700  19.8118  19.8119
    25.1617  25.1617  25.8548

     occupation numbers 
     1.0000   1.0000   1.0000   1.0000   1.0000   1.0000   1.0000   1.0000
     1.0000   1.0000   1.0000   1.0000   1.0000   1.0000   1.0000   1.0000
     1.0000   1.0000   1.0000   1.0000   1.0000   1.0000   1.0000   1.0000
     1.0000   1.0000   1.0000   1.0000   1.0000   1.0000   1.0000   1.0000
     0.1136   0.1136   0.1008   0.1008  -0.0347  -0.0347  -0.0000  -0.0000
    -0.0000  -0.0000  -0.0000

          k = 0.4167-0.5000-0.5000 ( 11568 PWs)   bands (ev):

   -84.0549 -84.0549 -84.0549 -84.0548 -44.6067 -44.6067 -44.6067 -44.6067
   -44.3920 -44.3920 -44.3920 -44.3920 -44.3888 -44.3888 -44.3888 -44.3888
    14.1752  14.1752  14.1752  14.1752  16.8791  16.8791  16.8791  16.8791
    16.9430  16.9430  16.9430  16.9430  17.9516  17.9516  17.9516  17.9516
    18.9657  18.9657  18.9657  18.9657  19.3281  19.3281  19.3281  19.3281
    25.3330  25.3330  25.3330

     occupation numbers 
     1.0000   1.0000   1.0000   1.0000   1.0000   1.0000   1.0000   1.0000
     1.0000   1.0000   1.0000   1.0000   1.0000   1.0000   1.0000   1.0000
     1.0000   1.0000   1.0000   1.0000   1.0000   1.0000   1.0000   1.0000
     1.0000   1.0000   1.0000   1.0000   1.0002   1.0002   1.0002   1.0002
     0.1430   0.1430   0.1430   0.1430  -0.0192  -0.0192  -0.0192  -0.0192
    -0.0000  -0.0000  -0.0000

          k =-0.5000-0.5000-0.5000 ( 11536 PWs)   bands (ev):

   -84.0548 -84.0548 -84.0548 -84.0548 -44.6100 -44.6100 -44.6100 -44.6100
   -44.3888 -44.3888 -44.3888 -44.3888 -44.3888 -44.3887 -44.3887 -44.3887
    14.1526  14.1526  14.1526  14.1526  16.9129  16.9129  16.9129  16.9129
    16.9129  16.9129  16.9129  16.9129  18.3104  18.3104  18.3104  18.3104
    19.0012  19.0012  19.0012  19.0012  19.0012  19.0012  19.0012  19.0012
    25.1380  25.1380  25.1380

     occupation numbers 
     1.0000   1.0000   1.0000   1.0000   1.0000   1.0000   1.0000   1.0000
     1.0000   1.0000   1.0000   1.0000   1.0000   1.0000   1.0000   1.0000
     1.0000   1.0000   1.0000   1.0000   1.0000   1.0000   1.0000   1.0000
     1.0000   1.0000   1.0000   1.0000   1.0182   1.0182   1.0182   1.0182
     0.0823   0.0823   0.0823   0.0823   0.0823   0.0823   0.0823   0.0823
    -0.0000  -0.0000  -0.0000

     the Fermi energy is    18.8227 ev

!    total energy              =   -1716.65519740 Ry
     total all-electron energy =    -12166.383628 Ry
     estimated scf accuracy    <          1.7E-09 Ry
     smearing contrib. (-TS)   =      -0.00142264 Ry
     internal energy E=F+TS    =   -1716.65377476 Ry

     The total energy is F=E-TS. E is the sum of the following terms:
     one-electron contribution =    -721.93962637 Ry
     hartree contribution      =     411.92827075 Ry
     xc contribution           =    -137.44725299 Ry
     ewald contribution        =    -904.81412341 Ry
     one-center paw contrib.   =    -364.38104275 Ry
      -> PAW hartree energy AE =     268.05947174 Ry
      -> PAW hartree energy PS =    -266.36622340 Ry
      -> PAW xc energy AE      =    -125.61283726 Ry
      -> PAW xc energy PS      =      32.82432529 Ry
      -> total E_H with PAW    =     413.62151909 Ry
      -> total E_XC with PAW   =    -230.23576495 Ry

     total magnetization       =     2.55 Bohr mag/cell
     absolute magnetization    =     2.90 Bohr mag/cell

     convergence has been achieved in   4 iterations

     Writing all to output data dir out/Ni.save/
 
     init_run     :      1.51s CPU      1.92s WALL (       1 calls)
     electrons    :     98.79s CPU     99.90s WALL (       1 calls)

     Called by init_run:
     wfcinit      :      0.98s CPU      1.35s WALL (       1 calls)
     potinit      :      0.28s CPU      0.31s WALL (       1 calls)
     hinit0       :      0.10s CPU      0.10s WALL (       1 calls)

     Called by electrons:
     c_bands      :     84.31s CPU     85.15s WALL (       5 calls)
     sum_band     :     13.24s CPU     13.40s WALL (       5 calls)
     v_of_rho     :      0.11s CPU      0.11s WALL (       5 calls)
     v_h          :      0.00s CPU      0.00s WALL (       5 calls)
     v_xc         :      0.10s CPU      0.11s WALL (       5 calls)
     newd         :      0.18s CPU      0.19s WALL (       5 calls)
     PAW_pot      :      1.22s CPU      1.26s WALL (       5 calls)
     mix_rho      :      0.01s CPU      0.02s WALL (       5 calls)

     Called by c_bands:
     init_us_2    :      0.72s CPU      0.77s WALL (    1680 calls)
     init_us_2:cp :      0.72s CPU      0.77s WALL (    1680 calls)
     cegterg      :     79.34s CPU     80.03s WALL (     840 calls)

     Called by sum_band:
     sum_band:wei :      0.16s CPU      0.16s WALL (       5 calls)
     sum_band:loo :     12.75s CPU     12.90s WALL (       5 calls)
     sum_band:buf :      0.19s CPU      0.19s WALL (     840 calls)
     sum_band:ini :      0.34s CPU      0.36s WALL (     840 calls)
     sum_band:cal :      0.79s CPU      0.80s WALL (     840 calls)
     sum_band:bec :      0.04s CPU      0.04s WALL (     840 calls)
     addusdens    :      0.27s CPU      0.28s WALL (       5 calls)
                                        0.00s GPU  (       5 calls)
     addusd:skk   :      0.00s CPU      0.00s WALL (       5 calls)
                                        0.00s GPU  (       5 calls)

     Called by *egterg:
     cdiaghg      :      6.42s CPU      6.43s WALL (    2562 calls)
     cegterg:over :      3.73s CPU      3.76s WALL (    2058 calls)
     cegterg:upda :      1.65s CPU      1.65s WALL (    2058 calls)
     cegterg:last :      3.44s CPU      3.44s WALL (    1743 calls)
     h_psi        :     60.20s CPU     60.80s WALL (    2898 calls)
     s_psi        :      1.69s CPU      1.69s WALL (    2898 calls)
     g_psi        :      0.21s CPU      0.21s WALL (    2058 calls)

     Called by h_psi:
     h_psi:calbec :      2.35s CPU      2.36s WALL (    2898 calls)
     vloc_psi     :     55.59s CPU     56.14s WALL (    2898 calls)
     add_vuspsi   :      1.92s CPU      1.93s WALL (    2898 calls)

     General routines
     calbec       :      3.13s CPU      3.15s WALL (    3738 calls)
     fft          :      0.07s CPU      0.07s WALL (     121 calls)
     ffts         :      0.01s CPU      0.01s WALL (      20 calls)
     fftw         :     62.28s CPU     62.52s WALL (  224650 calls)
     interpolate  :      0.01s CPU      0.01s WALL (      10 calls)
 
     Parallel routines

     PAW routines
     PAW_pot      :      1.22s CPU      1.26s WALL (       5 calls)
     PAW_symme    :      0.02s CPU      0.02s WALL (       9 calls)
 
     PWSCF        :   1m41.52s CPU   1m46.53s WALL

 
   This run was terminated on:   0: 0:33  22Mar2024            

=------------------------------------------------------------------------------=
   JOB DONE.
=------------------------------------------------------------------------------=
