### Running on host: unam-asus

     Program PWSCF v.7.2 starts on 16Feb2024 at  9:24:21 

     This program is part of the open-source Quantum ESPRESSO suite
     for quantum simulation of materials; please cite
         "P. Giannozzi et al., J. Phys.:Condens. Matter 21 395502 (2009);
         "P. Giannozzi et al., J. Phys.:Condens. Matter 29 465901 (2017);
         "P. Giannozzi et al., J. Chem. Phys. 152 154105 (2020);
          URL http://www.quantum-espresso.org", 
     in publications or presentations arising from this work. More details at
     http://www.quantum-espresso.org/quote

     Parallel version (MPI), running on    10 processors

     MPI processes distributed on     1 nodes
     652 MiB available memory on the printing compute node when the environment starts

     Reading input from scf.m-p.degauss-0.004.in

     Current dimensions of program PWSCF are:
     Max number of different atomic species (ntypx) = 10
     Max number of k-points (npk) =  40000
     Max angular momentum in pseudopotentials (lmaxx) =  4
     file Zn.pbe-dnl-kjpaw_psl.1.0.0.UPF: wavefunction(s)  4S 3D renormalized
     Message from routine setup:
     using ibrav=0 with symmetry is DISCOURAGED, use correct ibrav instead

     R & G space division:  proc/nbgrp/npool/nimage =      10
     Subspace diagonalization in iterative solution of the eigenvalue problem:
     a serial algorithm will be used


     Parallelization info
     --------------------
     sticks:   dense  smooth     PW     G-vecs:    dense   smooth      PW
     Min          47      47     15                 1539     1539     263
     Max          48      48     16                 1543     1543     266
     Sum         475     475    151                15415    15415    2637

     Using Slab Decomposition



     bravais-lattice index     =            0
     lattice parameter (alat)  =       4.9404  a.u.
     unit-cell volume          =     194.6564 (a.u.)^3
     number of atoms/cell      =            2
     number of atomic types    =            1
     number of electrons       =        24.00
     number of Kohn-Sham states=           16
     kinetic-energy cutoff     =      70.0000  Ry
     charge density cutoff     =     280.0000  Ry
     scf convergence threshold =      4.0E-08
     mixing beta               =       0.7000
     number of iterations used =            8  plain     mixing
     Exchange-correlation= SLA  PW   PBX  PBC
                           (   1   4   3   4   0   0   0)

     celldm(1)=   4.940424  celldm(2)=   0.000000  celldm(3)=   0.000000
     celldm(4)=   0.000000  celldm(5)=   0.000000  celldm(6)=   0.000000

     crystal axes: (cart. coord. in units of alat)
               a(1) = (   1.000000   0.000000   0.000000 )  
               a(2) = (  -0.500000   0.866025   0.000000 )  
               a(3) = (   0.000000   0.000000   1.863998 )  

     reciprocal axes: (cart. coord. in units 2 pi/alat)
               b(1) = (  1.000000  0.577350 -0.000000 )  
               b(2) = (  0.000000  1.154701  0.000000 )  
               b(3) = (  0.000000 -0.000000  0.536481 )  


     PseudoPot. # 1 for Zn read from file:
     /home/abdul/git_repo/ZnS_Cu-Vacancy/pseudo/QE/Zn.pbe-dnl-kjpaw_psl.1.0.0.UPF
     MD5 check sum: c608214d9520ac179f507641260889e3
     Pseudo is Projector augmented-wave + core cor, Zval = 12.0
     Generated using &quot;atomic&quot; code by A. Dal Corso  v.6.2.2
     Shape of augmentation charge: PSQ
     Using radial grid of 1201 points,  6 beta functions with: 
                l(1) =   0
                l(2) =   0
                l(3) =   1
                l(4) =   1
                l(5) =   2
                l(6) =   2
     Q(r) pseudized with 0 coefficients 


     atomic species   valence    mass     pseudopotential
        Zn            12.00    65.38000     Zn( 1.00)

     24 Sym. Ops., with inversion, found (12 have fractional translation)


                                    s                        frac. trans.

      isym =  1     identity                                     

 cryst.   s( 1) = (     1          0          0      )
                  (     0          1          0      )
                  (     0          0          1      )

 cart.    s( 1) = (  1.0000000  0.0000000  0.0000000 )
                  (  0.0000000  1.0000000  0.0000000 )
                  (  0.0000000  0.0000000  1.0000000 )


      isym =  2     180 deg rotation - cart. axis [0,0,1]        

 cryst.   s( 2) = (    -1          0          0      )    f =(  0.0000000 )
                  (     0         -1          0      )       (  0.0000000 )
                  (     0          0          1      )       ( -0.5000000 )

 cart.    s( 2) = ( -1.0000000  0.0000000  0.0000000 )    f =(  0.0000000 )
                  (  0.0000000 -1.0000000  0.0000000 )       (  0.0000000 )
                  (  0.0000000  0.0000000  1.0000000 )       ( -0.9319989 )


      isym =  3     180 deg rotation - cart. axis [0,1,0]        

 cryst.   s( 3) = (    -1          0          0      )    f =(  0.0000000 )
                  (     1          1          0      )       (  0.0000000 )
                  (     0          0         -1      )       (  0.5000000 )

 cart.    s( 3) = ( -1.0000000  0.0000000  0.0000000 )    f =(  0.0000000 )
                  (  0.0000000  1.0000000  0.0000000 )       (  0.0000000 )
                  (  0.0000000  0.0000000 -1.0000000 )       (  0.9319989 )


      isym =  4     180 deg rotation - cart. axis [1,0,0]        

 cryst.   s( 4) = (     1          0          0      )
                  (    -1         -1          0      )
                  (     0          0         -1      )

 cart.    s( 4) = (  1.0000000  0.0000000  0.0000000 )
                  (  0.0000000 -1.0000000  0.0000000 )
                  (  0.0000000  0.0000000 -1.0000000 )


      isym =  5      60 deg rotation - cryst. axis [0,0,1]       

 cryst.   s( 5) = (     1          1          0      )    f =(  0.0000000 )
                  (    -1          0          0      )       ( -0.0000000 )
                  (     0          0          1      )       ( -0.5000000 )

 cart.    s( 5) = (  0.5000000 -0.8660254  0.0000000 )    f =(  0.0000000 )
                  (  0.8660254  0.5000000  0.0000000 )       ( -0.0000000 )
                  (  0.0000000  0.0000000  1.0000000 )       ( -0.9319989 )


      isym =  6      60 deg rotation - cryst. axis [0,0,-1]      

 cryst.   s( 6) = (     0         -1          0      )    f =(  0.0000000 )
                  (     1          1          0      )       ( -0.0000000 )
                  (     0          0          1      )       ( -0.5000000 )

 cart.    s( 6) = (  0.5000000  0.8660254  0.0000000 )    f =(  0.0000000 )
                  ( -0.8660254  0.5000000  0.0000000 )       ( -0.0000000 )
                  (  0.0000000  0.0000000  1.0000000 )       ( -0.9319989 )


      isym =  7     120 deg rotation - cryst. axis [0,0,1]       

 cryst.   s( 7) = (     0          1          0      )
                  (    -1         -1          0      )
                  (     0          0          1      )

 cart.    s( 7) = ( -0.5000000 -0.8660254  0.0000000 )
                  (  0.8660254 -0.5000000  0.0000000 )
                  (  0.0000000  0.0000000  1.0000000 )


      isym =  8     120 deg rotation - cryst. axis [0,0,-1]      

 cryst.   s( 8) = (    -1         -1          0      )
                  (     1          0          0      )
                  (     0          0          1      )

 cart.    s( 8) = ( -0.5000000  0.8660254  0.0000000 )
                  ( -0.8660254 -0.5000000  0.0000000 )
                  (  0.0000000  0.0000000  1.0000000 )


      isym =  9     180 deg rotation - cryst. axis [1,-1,0]      

 cryst.   s( 9) = (     0         -1          0      )    f =(  0.0000000 )
                  (    -1          0          0      )       (  0.0000000 )
                  (     0          0         -1      )       (  0.5000000 )

 cart.    s( 9) = (  0.5000000 -0.8660254  0.0000000 )    f =(  0.0000000 )
                  ( -0.8660254 -0.5000000  0.0000000 )       (  0.0000000 )
                  (  0.0000000  0.0000000 -1.0000000 )       (  0.9319989 )


      isym = 10     180 deg rotation - cryst. axis [2,1,0]       

 cryst.   s(10) = (     1          1          0      )    f =(  0.0000000 )
                  (     0         -1          0      )       ( -0.0000000 )
                  (     0          0         -1      )       (  0.5000000 )

 cart.    s(10) = (  0.5000000  0.8660254  0.0000000 )    f =(  0.0000000 )
                  (  0.8660254 -0.5000000  0.0000000 )       ( -0.0000000 )
                  (  0.0000000  0.0000000 -1.0000000 )       (  0.9319989 )


      isym = 11     180 deg rotation - cryst. axis [0,1,0]       

 cryst.   s(11) = (    -1         -1          0      )
                  (     0          1          0      )
                  (     0          0         -1      )

 cart.    s(11) = ( -0.5000000 -0.8660254  0.0000000 )
                  ( -0.8660254  0.5000000  0.0000000 )
                  (  0.0000000  0.0000000 -1.0000000 )


      isym = 12     180 deg rotation - cryst. axis [1,1,0]       

 cryst.   s(12) = (     0          1          0      )
                  (     1          0          0      )
                  (     0          0         -1      )

 cart.    s(12) = ( -0.5000000  0.8660254  0.0000000 )
                  (  0.8660254  0.5000000  0.0000000 )
                  (  0.0000000  0.0000000 -1.0000000 )


      isym = 13     inversion                                    

 cryst.   s(13) = (    -1          0          0      )
                  (     0         -1          0      )
                  (     0          0         -1      )

 cart.    s(13) = ( -1.0000000  0.0000000  0.0000000 )
                  (  0.0000000 -1.0000000  0.0000000 )
                  (  0.0000000  0.0000000 -1.0000000 )


      isym = 14     inv. 180 deg rotation - cart. axis [0,0,1]   

 cryst.   s(14) = (     1          0          0      )    f =(  0.0000000 )
                  (     0          1          0      )       (  0.0000000 )
                  (     0          0         -1      )       (  0.5000000 )

 cart.    s(14) = (  1.0000000  0.0000000  0.0000000 )    f =(  0.0000000 )
                  (  0.0000000  1.0000000  0.0000000 )       (  0.0000000 )
                  (  0.0000000  0.0000000 -1.0000000 )       (  0.9319989 )


      isym = 15     inv. 180 deg rotation - cart. axis [0,1,0]   

 cryst.   s(15) = (     1          0          0      )    f =(  0.0000000 )
                  (    -1         -1          0      )       (  0.0000000 )
                  (     0          0          1      )       ( -0.5000000 )

 cart.    s(15) = (  1.0000000  0.0000000  0.0000000 )    f =(  0.0000000 )
                  (  0.0000000 -1.0000000  0.0000000 )       (  0.0000000 )
                  (  0.0000000  0.0000000  1.0000000 )       ( -0.9319989 )


      isym = 16     inv. 180 deg rotation - cart. axis [1,0,0]   

 cryst.   s(16) = (    -1          0          0      )
                  (     1          1          0      )
                  (     0          0          1      )

 cart.    s(16) = ( -1.0000000  0.0000000  0.0000000 )
                  (  0.0000000  1.0000000  0.0000000 )
                  (  0.0000000  0.0000000  1.0000000 )


      isym = 17     inv.  60 deg rotation - cryst. axis [0,0,1]  

 cryst.   s(17) = (    -1         -1          0      )    f =(  0.0000000 )
                  (     1          0          0      )       (  0.0000000 )
                  (     0          0         -1      )       (  0.5000000 )

 cart.    s(17) = ( -0.5000000  0.8660254  0.0000000 )    f =(  0.0000000 )
                  ( -0.8660254 -0.5000000  0.0000000 )       (  0.0000000 )
                  (  0.0000000  0.0000000 -1.0000000 )       (  0.9319989 )


      isym = 18     inv.  60 deg rotation - cryst. axis [0,0,-1] 

 cryst.   s(18) = (     0          1          0      )    f =(  0.0000000 )
                  (    -1         -1          0      )       ( -0.0000000 )
                  (     0          0         -1      )       (  0.5000000 )

 cart.    s(18) = ( -0.5000000 -0.8660254  0.0000000 )    f =(  0.0000000 )
                  (  0.8660254 -0.5000000  0.0000000 )       ( -0.0000000 )
                  (  0.0000000  0.0000000 -1.0000000 )       (  0.9319989 )


      isym = 19     inv. 120 deg rotation - cryst. axis [0,0,1]  

 cryst.   s(19) = (     0         -1          0      )
                  (     1          1          0      )
                  (     0          0         -1      )

 cart.    s(19) = (  0.5000000  0.8660254  0.0000000 )
                  ( -0.8660254  0.5000000  0.0000000 )
                  (  0.0000000  0.0000000 -1.0000000 )


      isym = 20     inv. 120 deg rotation - cryst. axis [0,0,-1] 

 cryst.   s(20) = (     1          1          0      )
                  (    -1          0          0      )
                  (     0          0         -1      )

 cart.    s(20) = (  0.5000000 -0.8660254  0.0000000 )
                  (  0.8660254  0.5000000  0.0000000 )
                  (  0.0000000  0.0000000 -1.0000000 )


      isym = 21     inv. 180 deg rotation - cryst. axis [1,-1,0] 

 cryst.   s(21) = (     0          1          0      )    f =(  0.0000000 )
                  (     1          0          0      )       ( -0.0000000 )
                  (     0          0          1      )       ( -0.5000000 )

 cart.    s(21) = ( -0.5000000  0.8660254  0.0000000 )    f =(  0.0000000 )
                  (  0.8660254  0.5000000  0.0000000 )       ( -0.0000000 )
                  (  0.0000000  0.0000000  1.0000000 )       ( -0.9319989 )


      isym = 22     inv. 180 deg rotation - cryst. axis [2,1,0]  

 cryst.   s(22) = (    -1         -1          0      )    f =(  0.0000000 )
                  (     0          1          0      )       ( -0.0000000 )
                  (     0          0          1      )       ( -0.5000000 )

 cart.    s(22) = ( -0.5000000 -0.8660254  0.0000000 )    f =(  0.0000000 )
                  ( -0.8660254  0.5000000  0.0000000 )       ( -0.0000000 )
                  (  0.0000000  0.0000000  1.0000000 )       ( -0.9319989 )


      isym = 23     inv. 180 deg rotation - cryst. axis [0,1,0]  

 cryst.   s(23) = (     1          1          0      )
                  (     0         -1          0      )
                  (     0          0          1      )

 cart.    s(23) = (  0.5000000  0.8660254  0.0000000 )
                  (  0.8660254 -0.5000000  0.0000000 )
                  (  0.0000000  0.0000000  1.0000000 )


      isym = 24     inv. 180 deg rotation - cryst. axis [1,1,0]  

 cryst.   s(24) = (     0         -1          0      )
                  (    -1          0          0      )
                  (     0          0          1      )

 cart.    s(24) = (  0.5000000 -0.8660254  0.0000000 )
                  ( -0.8660254 -0.5000000  0.0000000 )
                  (  0.0000000  0.0000000  1.0000000 )


   Cartesian axes

     site n.     atom                  positions (alat units)
         1           Zn  tau(   1) = (  -0.0000000   0.5773503   0.4659995  )
         2           Zn  tau(   2) = (   0.5000000   0.2886751   1.3979984  )

   Crystallographic axes

     site n.     atom                  positions (cryst. coord.)
         1           Zn  tau(   1) = (  0.3333333  0.6666667  0.2500000  )
         2           Zn  tau(   2) = (  0.6666667  0.3333333  0.7500000  )

     number of k points=    96  Methfessel-Paxton smearing, width (Ry)=  0.0040
                       cart. coord. in units 2pi/alat
        k(    1) = (   0.0000000   0.0000000   0.0000000), wk =   0.0014577
        k(    2) = (   0.0000000   0.0000000   0.0766402), wk =   0.0029155
        k(    3) = (   0.0000000   0.0000000   0.1532804), wk =   0.0029155
        k(    4) = (   0.0000000   0.0000000   0.2299206), wk =   0.0029155
        k(    5) = (   0.0000000   0.0824786   0.0000000), wk =   0.0087464
        k(    6) = (   0.0000000   0.0824786   0.0766402), wk =   0.0174927
        k(    7) = (   0.0000000   0.0824786   0.1532804), wk =   0.0174927
        k(    8) = (   0.0000000   0.0824786   0.2299206), wk =   0.0174927
        k(    9) = (   0.0000000   0.1649572   0.0000000), wk =   0.0087464
        k(   10) = (   0.0000000   0.1649572   0.0766402), wk =   0.0174927
        k(   11) = (   0.0000000   0.1649572   0.1532804), wk =   0.0174927
        k(   12) = (   0.0000000   0.1649572   0.2299206), wk =   0.0174927
        k(   13) = (   0.0000000   0.2474358   0.0000000), wk =   0.0087464
        k(   14) = (   0.0000000   0.2474358   0.0766402), wk =   0.0174927
        k(   15) = (   0.0000000   0.2474358   0.1532804), wk =   0.0174927
        k(   16) = (   0.0000000   0.2474358   0.2299206), wk =   0.0174927
        k(   17) = (   0.0000000   0.3299144   0.0000000), wk =   0.0087464
        k(   18) = (   0.0000000   0.3299144   0.0766402), wk =   0.0174927
        k(   19) = (   0.0000000   0.3299144   0.1532804), wk =   0.0174927
        k(   20) = (   0.0000000   0.3299144   0.2299206), wk =   0.0174927
        k(   21) = (   0.0000000   0.4123930   0.0000000), wk =   0.0087464
        k(   22) = (   0.0000000   0.4123930   0.0766402), wk =   0.0174927
        k(   23) = (   0.0000000   0.4123930   0.1532804), wk =   0.0174927
        k(   24) = (   0.0000000   0.4123930   0.2299206), wk =   0.0174927
        k(   25) = (   0.0000000   0.4948717   0.0000000), wk =   0.0087464
        k(   26) = (   0.0000000   0.4948717   0.0766402), wk =   0.0174927
        k(   27) = (   0.0000000   0.4948717   0.1532804), wk =   0.0174927
        k(   28) = (   0.0000000   0.4948717   0.2299206), wk =   0.0174927
        k(   29) = (   0.0000000  -0.5773503   0.0000000), wk =   0.0043732
        k(   30) = (   0.0000000  -0.5773503   0.0766402), wk =   0.0087464
        k(   31) = (   0.0000000  -0.5773503   0.1532804), wk =   0.0087464
        k(   32) = (   0.0000000  -0.5773503   0.2299206), wk =   0.0087464
        k(   33) = (   0.0714286   0.1237179   0.0000000), wk =   0.0087464
        k(   34) = (   0.0714286   0.1237179   0.0766402), wk =   0.0174927
        k(   35) = (   0.0714286   0.1237179   0.1532804), wk =   0.0174927
        k(   36) = (   0.0714286   0.1237179   0.2299206), wk =   0.0174927
        k(   37) = (   0.0714286   0.2061965   0.0000000), wk =   0.0174927
        k(   38) = (   0.0714286   0.2061965   0.0766402), wk =   0.0349854
        k(   39) = (   0.0714286   0.2061965   0.1532804), wk =   0.0349854
        k(   40) = (   0.0714286   0.2061965   0.2299206), wk =   0.0349854
        k(   41) = (   0.0714286   0.2886751   0.0000000), wk =   0.0174927
        k(   42) = (   0.0714286   0.2886751   0.0766402), wk =   0.0349854
        k(   43) = (   0.0714286   0.2886751   0.1532804), wk =   0.0349854
        k(   44) = (   0.0714286   0.2886751   0.2299206), wk =   0.0349854
        k(   45) = (   0.0714286   0.3711537   0.0000000), wk =   0.0174927
        k(   46) = (   0.0714286   0.3711537   0.0766402), wk =   0.0349854
        k(   47) = (   0.0714286   0.3711537   0.1532804), wk =   0.0349854
        k(   48) = (   0.0714286   0.3711537   0.2299206), wk =   0.0349854
        k(   49) = (   0.0714286   0.4536324   0.0000000), wk =   0.0174927
        k(   50) = (   0.0714286   0.4536324   0.0766402), wk =   0.0349854
        k(   51) = (   0.0714286   0.4536324   0.1532804), wk =   0.0349854
        k(   52) = (   0.0714286   0.4536324   0.2299206), wk =   0.0349854
        k(   53) = (   0.0714286   0.5361110   0.0000000), wk =   0.0174927
        k(   54) = (   0.0714286   0.5361110   0.0766402), wk =   0.0349854
        k(   55) = (   0.0714286   0.5361110   0.1532804), wk =   0.0349854
        k(   56) = (   0.0714286   0.5361110   0.2299206), wk =   0.0349854
        k(   57) = (   0.1428571   0.2474358   0.0000000), wk =   0.0087464
        k(   58) = (   0.1428571   0.2474358   0.0766402), wk =   0.0174927
        k(   59) = (   0.1428571   0.2474358   0.1532804), wk =   0.0174927
        k(   60) = (   0.1428571   0.2474358   0.2299206), wk =   0.0174927
        k(   61) = (   0.1428571   0.3299144   0.0000000), wk =   0.0174927
        k(   62) = (   0.1428571   0.3299144   0.0766402), wk =   0.0349854
        k(   63) = (   0.1428571   0.3299144   0.1532804), wk =   0.0349854
        k(   64) = (   0.1428571   0.3299144   0.2299206), wk =   0.0349854
        k(   65) = (   0.1428571   0.4123930   0.0000000), wk =   0.0174927
        k(   66) = (   0.1428571   0.4123930   0.0766402), wk =   0.0349854
        k(   67) = (   0.1428571   0.4123930   0.1532804), wk =   0.0349854
        k(   68) = (   0.1428571   0.4123930   0.2299206), wk =   0.0349854
        k(   69) = (   0.1428571   0.4948717   0.0000000), wk =   0.0174927
        k(   70) = (   0.1428571   0.4948717   0.0766402), wk =   0.0349854
        k(   71) = (   0.1428571   0.4948717   0.1532804), wk =   0.0349854
        k(   72) = (   0.1428571   0.4948717   0.2299206), wk =   0.0349854
        k(   73) = (   0.1428571   0.5773503   0.0000000), wk =   0.0087464
        k(   74) = (   0.1428571   0.5773503   0.0766402), wk =   0.0174927
        k(   75) = (   0.1428571   0.5773503   0.1532804), wk =   0.0174927
        k(   76) = (   0.1428571   0.5773503   0.2299206), wk =   0.0174927
        k(   77) = (   0.2142857   0.3711537   0.0000000), wk =   0.0087464
        k(   78) = (   0.2142857   0.3711537   0.0766402), wk =   0.0174927
        k(   79) = (   0.2142857   0.3711537   0.1532804), wk =   0.0174927
        k(   80) = (   0.2142857   0.3711537   0.2299206), wk =   0.0174927
        k(   81) = (   0.2142857   0.4536324   0.0000000), wk =   0.0174927
        k(   82) = (   0.2142857   0.4536324   0.0766402), wk =   0.0349854
        k(   83) = (   0.2142857   0.4536324   0.1532804), wk =   0.0349854
        k(   84) = (   0.2142857   0.4536324   0.2299206), wk =   0.0349854
        k(   85) = (   0.2142857   0.5361110   0.0000000), wk =   0.0174927
        k(   86) = (   0.2142857   0.5361110   0.0766402), wk =   0.0349854
        k(   87) = (   0.2142857   0.5361110   0.1532804), wk =   0.0349854
        k(   88) = (   0.2142857   0.5361110   0.2299206), wk =   0.0349854
        k(   89) = (   0.2857143   0.4948717   0.0000000), wk =   0.0087464
        k(   90) = (   0.2857143   0.4948717   0.0766402), wk =   0.0174927
        k(   91) = (   0.2857143   0.4948717   0.1532804), wk =   0.0174927
        k(   92) = (   0.2857143   0.4948717   0.2299206), wk =   0.0174927
        k(   93) = (   0.2857143   0.5773503   0.0000000), wk =   0.0087464
        k(   94) = (   0.2857143   0.5773503   0.0766402), wk =   0.0174927
        k(   95) = (   0.2857143   0.5773503   0.1532804), wk =   0.0174927
        k(   96) = (   0.2857143   0.5773503   0.2299206), wk =   0.0174927

                       cryst. coord.
        k(    1) = (   0.0000000   0.0000000   0.0000000), wk =   0.0014577
        k(    2) = (   0.0000000   0.0000000   0.1428571), wk =   0.0029155
        k(    3) = (   0.0000000   0.0000000   0.2857143), wk =   0.0029155
        k(    4) = (   0.0000000   0.0000000   0.4285714), wk =   0.0029155
        k(    5) = (   0.0000000   0.0714286   0.0000000), wk =   0.0087464
        k(    6) = (   0.0000000   0.0714286   0.1428571), wk =   0.0174927
        k(    7) = (   0.0000000   0.0714286   0.2857143), wk =   0.0174927
        k(    8) = (   0.0000000   0.0714286   0.4285714), wk =   0.0174927
        k(    9) = (   0.0000000   0.1428571   0.0000000), wk =   0.0087464
        k(   10) = (   0.0000000   0.1428571   0.1428571), wk =   0.0174927
        k(   11) = (   0.0000000   0.1428571   0.2857143), wk =   0.0174927
        k(   12) = (   0.0000000   0.1428571   0.4285714), wk =   0.0174927
        k(   13) = (   0.0000000   0.2142857   0.0000000), wk =   0.0087464
        k(   14) = (   0.0000000   0.2142857   0.1428571), wk =   0.0174927
        k(   15) = (   0.0000000   0.2142857   0.2857143), wk =   0.0174927
        k(   16) = (   0.0000000   0.2142857   0.4285714), wk =   0.0174927
        k(   17) = (   0.0000000   0.2857143   0.0000000), wk =   0.0087464
        k(   18) = (   0.0000000   0.2857143   0.1428571), wk =   0.0174927
        k(   19) = (   0.0000000   0.2857143   0.2857143), wk =   0.0174927
        k(   20) = (   0.0000000   0.2857143   0.4285714), wk =   0.0174927
        k(   21) = (   0.0000000   0.3571429   0.0000000), wk =   0.0087464
        k(   22) = (   0.0000000   0.3571429   0.1428571), wk =   0.0174927
        k(   23) = (   0.0000000   0.3571429   0.2857143), wk =   0.0174927
        k(   24) = (   0.0000000   0.3571429   0.4285714), wk =   0.0174927
        k(   25) = (   0.0000000   0.4285714   0.0000000), wk =   0.0087464
        k(   26) = (   0.0000000   0.4285714   0.1428571), wk =   0.0174927
        k(   27) = (   0.0000000   0.4285714   0.2857143), wk =   0.0174927
        k(   28) = (   0.0000000   0.4285714   0.4285714), wk =   0.0174927
        k(   29) = (   0.0000000  -0.5000000   0.0000000), wk =   0.0043732
        k(   30) = (   0.0000000  -0.5000000   0.1428571), wk =   0.0087464
        k(   31) = (   0.0000000  -0.5000000   0.2857143), wk =   0.0087464
        k(   32) = (   0.0000000  -0.5000000   0.4285714), wk =   0.0087464
        k(   33) = (   0.0714286   0.0714286   0.0000000), wk =   0.0087464
        k(   34) = (   0.0714286   0.0714286   0.1428571), wk =   0.0174927
        k(   35) = (   0.0714286   0.0714286   0.2857143), wk =   0.0174927
        k(   36) = (   0.0714286   0.0714286   0.4285714), wk =   0.0174927
        k(   37) = (   0.0714286   0.1428571   0.0000000), wk =   0.0174927
        k(   38) = (   0.0714286   0.1428571   0.1428571), wk =   0.0349854
        k(   39) = (   0.0714286   0.1428571   0.2857143), wk =   0.0349854
        k(   40) = (   0.0714286   0.1428571   0.4285714), wk =   0.0349854
        k(   41) = (   0.0714286   0.2142857   0.0000000), wk =   0.0174927
        k(   42) = (   0.0714286   0.2142857   0.1428571), wk =   0.0349854
        k(   43) = (   0.0714286   0.2142857   0.2857143), wk =   0.0349854
        k(   44) = (   0.0714286   0.2142857   0.4285714), wk =   0.0349854
        k(   45) = (   0.0714286   0.2857143   0.0000000), wk =   0.0174927
        k(   46) = (   0.0714286   0.2857143   0.1428571), wk =   0.0349854
        k(   47) = (   0.0714286   0.2857143   0.2857143), wk =   0.0349854
        k(   48) = (   0.0714286   0.2857143   0.4285714), wk =   0.0349854
        k(   49) = (   0.0714286   0.3571429   0.0000000), wk =   0.0174927
        k(   50) = (   0.0714286   0.3571429   0.1428571), wk =   0.0349854
        k(   51) = (   0.0714286   0.3571429   0.2857143), wk =   0.0349854
        k(   52) = (   0.0714286   0.3571429   0.4285714), wk =   0.0349854
        k(   53) = (   0.0714286   0.4285714   0.0000000), wk =   0.0174927
        k(   54) = (   0.0714286   0.4285714   0.1428571), wk =   0.0349854
        k(   55) = (   0.0714286   0.4285714   0.2857143), wk =   0.0349854
        k(   56) = (   0.0714286   0.4285714   0.4285714), wk =   0.0349854
        k(   57) = (   0.1428571   0.1428571   0.0000000), wk =   0.0087464
        k(   58) = (   0.1428571   0.1428571   0.1428571), wk =   0.0174927
        k(   59) = (   0.1428571   0.1428571   0.2857143), wk =   0.0174927
        k(   60) = (   0.1428571   0.1428571   0.4285714), wk =   0.0174927
        k(   61) = (   0.1428571   0.2142857   0.0000000), wk =   0.0174927
        k(   62) = (   0.1428571   0.2142857   0.1428571), wk =   0.0349854
        k(   63) = (   0.1428571   0.2142857   0.2857143), wk =   0.0349854
        k(   64) = (   0.1428571   0.2142857   0.4285714), wk =   0.0349854
        k(   65) = (   0.1428571   0.2857143   0.0000000), wk =   0.0174927
        k(   66) = (   0.1428571   0.2857143   0.1428571), wk =   0.0349854
        k(   67) = (   0.1428571   0.2857143   0.2857143), wk =   0.0349854
        k(   68) = (   0.1428571   0.2857143   0.4285714), wk =   0.0349854
        k(   69) = (   0.1428571   0.3571429   0.0000000), wk =   0.0174927
        k(   70) = (   0.1428571   0.3571429   0.1428571), wk =   0.0349854
        k(   71) = (   0.1428571   0.3571429   0.2857143), wk =   0.0349854
        k(   72) = (   0.1428571   0.3571429   0.4285714), wk =   0.0349854
        k(   73) = (   0.1428571   0.4285714   0.0000000), wk =   0.0087464
        k(   74) = (   0.1428571   0.4285714   0.1428571), wk =   0.0174927
        k(   75) = (   0.1428571   0.4285714   0.2857143), wk =   0.0174927
        k(   76) = (   0.1428571   0.4285714   0.4285714), wk =   0.0174927
        k(   77) = (   0.2142857   0.2142857   0.0000000), wk =   0.0087464
        k(   78) = (   0.2142857   0.2142857   0.1428571), wk =   0.0174927
        k(   79) = (   0.2142857   0.2142857   0.2857143), wk =   0.0174927
        k(   80) = (   0.2142857   0.2142857   0.4285714), wk =   0.0174927
        k(   81) = (   0.2142857   0.2857143   0.0000000), wk =   0.0174927
        k(   82) = (   0.2142857   0.2857143   0.1428571), wk =   0.0349854
        k(   83) = (   0.2142857   0.2857143   0.2857143), wk =   0.0349854
        k(   84) = (   0.2142857   0.2857143   0.4285714), wk =   0.0349854
        k(   85) = (   0.2142857   0.3571429   0.0000000), wk =   0.0174927
        k(   86) = (   0.2142857   0.3571429   0.1428571), wk =   0.0349854
        k(   87) = (   0.2142857   0.3571429   0.2857143), wk =   0.0349854
        k(   88) = (   0.2142857   0.3571429   0.4285714), wk =   0.0349854
        k(   89) = (   0.2857143   0.2857143   0.0000000), wk =   0.0087464
        k(   90) = (   0.2857143   0.2857143   0.1428571), wk =   0.0174927
        k(   91) = (   0.2857143   0.2857143   0.2857143), wk =   0.0174927
        k(   92) = (   0.2857143   0.2857143   0.4285714), wk =   0.0174927
        k(   93) = (   0.2857143   0.3571429   0.0000000), wk =   0.0087464
        k(   94) = (   0.2857143   0.3571429   0.1428571), wk =   0.0174927
        k(   95) = (   0.2857143   0.3571429   0.2857143), wk =   0.0174927
        k(   96) = (   0.2857143   0.3571429   0.4285714), wk =   0.0174927

     Dense  grid:    15415 G-vectors     FFT dimensions: (  27,  27,  50)

     Dynamical RAM for                 wfc:       0.05 MB

     Dynamical RAM for     wfc (w. buffer):       4.55 MB

     Dynamical RAM for           str. fact:       0.02 MB

     Dynamical RAM for           local pot:       0.00 MB

     Dynamical RAM for          nlocal pot:       0.11 MB

     Dynamical RAM for                qrad:       1.34 MB

     Dynamical RAM for          rho,v,vnew:       0.15 MB

     Dynamical RAM for               rhoin:       0.05 MB

     Dynamical RAM for            rho*nmix:       0.38 MB

     Dynamical RAM for           G-vectors:       0.10 MB

     Dynamical RAM for          h,s,v(r/c):       0.05 MB

     Dynamical RAM for          <psi|beta>:       0.01 MB

     Dynamical RAM for                 psi:       0.09 MB

     Dynamical RAM for                hpsi:       0.09 MB

     Dynamical RAM for                spsi:       0.09 MB

     Dynamical RAM for      wfcinit/wfcrot:       0.10 MB

     Dynamical RAM for           addusdens:       4.43 MB

     Estimated static dynamical RAM per process >       6.51 MB

     Estimated max dynamical RAM per process >      11.31 MB

     Estimated total dynamical RAM >     113.14 MB

     Check: negative core charge=   -0.000003

     The initial density is read from file :
     ./out/Zn.save/charge-density

     Starting wfcs from file
     Checking if some PAW data can be deallocated... 

     total cpu time spent up to now is        0.6 secs

     Self-consistent Calculation

     iteration #  1     ecut=    70.00 Ry     beta= 0.70
     Davidson diagonalization with overlap

---- Real-time Memory Report at c_bands before calling an iterative solver
            46 MiB given to the printing process from OS
             0 MiB allocation reported by mallinfo(arena+hblkhd)
           454 MiB available memory on the node where the printing process lives
------------------
     ethr =  1.00E-05,  avg # of iterations =  1.0

     Threshold (ethr) on eigenvalues was too large:
     Diagonalizing with lowered threshold

     Davidson diagonalization with overlap

---- Real-time Memory Report at c_bands before calling an iterative solver
            47 MiB given to the printing process from OS
             0 MiB allocation reported by mallinfo(arena+hblkhd)
           431 MiB available memory on the node where the printing process lives
------------------
     ethr =  3.37E-10,  avg # of iterations =  1.0

     total cpu time spent up to now is        4.1 secs

     total energy              =    -487.44547171 Ry
     estimated scf accuracy    <       0.00000008 Ry

     iteration #  2     ecut=    70.00 Ry     beta= 0.70
     Davidson diagonalization with overlap

---- Real-time Memory Report at c_bands before calling an iterative solver
            53 MiB given to the printing process from OS
             0 MiB allocation reported by mallinfo(arena+hblkhd)
           427 MiB available memory on the node where the printing process lives
------------------
     ethr =  3.33E-10,  avg # of iterations =  2.0

     total cpu time spent up to now is        6.6 secs

     total energy              =    -487.44547172 Ry
     estimated scf accuracy    <       0.00000006 Ry

     iteration #  3     ecut=    70.00 Ry     beta= 0.70
     Davidson diagonalization with overlap

---- Real-time Memory Report at c_bands before calling an iterative solver
            53 MiB given to the printing process from OS
             0 MiB allocation reported by mallinfo(arena+hblkhd)
           447 MiB available memory on the node where the printing process lives
------------------
     ethr =  2.61E-10,  avg # of iterations =  2.0

     total cpu time spent up to now is        9.2 secs

     End of self-consistent calculation

          k = 0.0000 0.0000 0.0000 (  1933 PWs)   bands (ev):

     1.0669   3.0911   3.8960   4.1579   4.1579   4.2131   4.2131   4.5846
     4.5846   4.8113   4.8113   7.9807   8.8863  25.8235  29.4367  30.0635

     occupation numbers 
     1.0000   1.0000   1.0000   1.0000   1.0000   1.0000   1.0000   1.0000
     1.0000   1.0000   1.0000   1.0000   1.0000  -0.0000  -0.0000  -0.0000

          k = 0.0000 0.0000 0.0766 (  1951 PWs)   bands (ev):

     1.1944   3.0709   3.8979   4.1564   4.1564   4.2071   4.2071   4.6002
     4.6002   4.8034   4.8034   6.6465  10.5050  23.8301  30.1924  30.1924

     occupation numbers 
     1.0000   1.0000   1.0000   1.0000   1.0000   1.0000   1.0000   1.0000
     1.0000   1.0000   1.0000   1.0000   1.0000  -0.0000  -0.0000  -0.0000

          k = 0.0000 0.0000 0.1533 (  1962 PWs)   bands (ev):

     1.5642   2.9741   3.9180   4.1553   4.1553   4.1919   4.1919   4.6405
     4.6405   4.7797   4.7797   5.2856  12.7516  20.8659  30.5656  30.5656

     occupation numbers 
     1.0000   1.0000   1.0000   1.0000   1.0000   1.0000   1.0000   1.0000
     1.0000   1.0000   1.0000   1.0000  -0.0000  -0.0000  -0.0000  -0.0000

          k = 0.0000 0.0000 0.2299 (  1962 PWs)   bands (ev):

     2.1179   2.6723   4.0190   4.1606   4.1606   4.1740   4.1740   4.3898
     4.6918   4.6918   4.7411   4.7411  15.2507  17.9680  31.1221  31.1221

     occupation numbers 
     1.0000   1.0000   1.0000   1.0000   1.0000   1.0000   1.0000   1.0000
     1.0000   1.0000   1.0000   1.0000  -0.0000  -0.0000  -0.0000  -0.0000

          k = 0.0000 0.0825 0.0000 (  1947 PWs)   bands (ev):

     1.2244   3.1645   3.9135   4.1409   4.1947   4.1973   4.2506   4.5473
     4.5691   4.7095   4.8132   8.2463   8.9634  25.9986  27.3967  28.6878

     occupation numbers 
     1.0000   1.0000   1.0000   1.0000   1.0000   1.0000   1.0000   1.0000
     1.0000   1.0000   1.0000   1.0000   1.0000  -0.0000  -0.0000  -0.0000

          k = 0.0000 0.0825 0.0766 (  1940 PWs)   bands (ev):

     1.3510   3.1488   3.9142   4.1370   4.1871   4.1953   4.2444   4.5669
     4.5860   4.6908   4.8045   6.8530  10.6489  23.9774  27.5510  28.8235

     occupation numbers 
     1.0000   1.0000   1.0000   1.0000   1.0000   1.0000   1.0000   1.0000
     1.0000   1.0000   1.0000   1.0000   1.0000  -0.0000  -0.0000  -0.0000

          k = 0.0000 0.0825 0.1533 (  1956 PWs)   bands (ev):

     1.7176   3.0683   3.9278   4.1326   4.1677   4.1933   4.2289   4.5839
     4.6293   4.6425   4.7786   5.5354  12.8999  21.0106  27.9353  29.2266

     occupation numbers 
     1.0000   1.0000   1.0000   1.0000   1.0000   1.0000   1.0000   1.0000
     1.0000   1.0000   1.0000   1.0000  -0.0000  -0.0000  -0.0000  -0.0000

          k = 0.0000 0.0825 0.2299 (  1956 PWs)   bands (ev):

     2.2632   2.7959   4.0051   4.1376   4.1432   4.1979   4.2111   4.2995
     4.6842   4.7126   4.7369   4.8753  15.3982  18.1139  28.5615  29.8845

     occupation numbers 
     1.0000   1.0000   1.0000   1.0000   1.0000   1.0000   1.0000   1.0000
     1.0000   1.0000   1.0000   1.0000  -0.0000  -0.0000  -0.0000  -0.0000

          k = 0.0000 0.1650 0.0000 (  1943 PWs)   bands (ev):

     1.6862   3.3515   3.9445   4.1045   4.1770   4.3092   4.3569   4.3827
     4.5281   4.5480   4.8156   8.9560   9.2135  23.9050  26.4843  26.9424

     occupation numbers 
     1.0000   1.0000   1.0000   1.0000   1.0000   1.0000   1.0000   1.0000
     1.0000   1.0000   1.0000   1.0000   1.0000  -0.0000  -0.0000  -0.0000

          k = 0.0000 0.1650 0.0766 (  1936 PWs)   bands (ev):

     1.8090   3.3476   3.9460   4.0927   4.1566   4.3050   4.3498   4.3885
     4.5496   4.5562   4.8051   7.3703  11.0887  23.9457  24.5197  27.0862

     occupation numbers 
     1.0000   1.0000   1.0000   1.0000   1.0000   1.0000   1.0000   1.0000
     1.0000   1.0000   1.0000   1.0000   1.0000  -0.0000  -0.0000  -0.0000

          k = 0.0000 0.1650 0.1533 (  1939 PWs)   bands (ev):

     2.1614   3.3098   3.9489   4.0733   4.1152   4.2995   4.3334   4.3342
     4.6017   4.6228   4.7742   6.0196  13.3439  21.4250  24.4647  27.5143

     occupation numbers 
     1.0000   1.0000   1.0000   1.0000   1.0000   1.0000   1.0000   1.0000
     1.0000   1.0000   1.0000   1.0000  -0.0000  -0.0000  -0.0000  -0.0000

          k = 0.0000 0.1650 0.2299 (  1940 PWs)   bands (ev):

     2.6713   3.1240   3.9669   4.0351   4.1052   4.1916   4.3024   4.3152
     4.6650   4.7256   4.7853   5.1615  15.8367  18.5436  25.0985  25.9838

     occupation numbers 
     1.0000   1.0000   1.0000   1.0000   1.0000   1.0000   1.0000   1.0000
     1.0000   1.0000   1.0000   1.0000  -0.0000  -0.0000  -0.0000  -0.0000

          k = 0.0000 0.2474 0.0000 (  1937 PWs)   bands (ev):

     2.3988   3.5276   3.9821   4.0656   4.1238   4.2899   4.4327   4.4735
     4.4755   4.5140   4.8148   9.6889   9.9818  20.5581  25.4046  26.2865

     occupation numbers 
     1.0000   1.0000   1.0000   1.0000   1.0000   1.0000   1.0000   1.0000
     1.0000   1.0000   1.0000   1.0000   1.0000  -0.0000  -0.0000  -0.0000

          k = 0.0000 0.2474 0.0766 (  1928 PWs)   bands (ev):

     2.5063   3.5348   3.9797   4.0393   4.1141   4.2802   4.4472   4.4839
     4.4980   4.5291   4.8025   8.1049  11.8365  20.6813  25.0334  25.1430

     occupation numbers 
     1.0000   1.0000   1.0000   1.0000   1.0000   1.0000   1.0000   1.0000
     1.0000   1.0000   1.0000   1.0000   0.2182  -0.0000  -0.0000  -0.0000

          k = 0.0000 0.2474 0.1533 (  1930 PWs)   bands (ev):

     2.8026   3.5393   3.9541   3.9778   4.1138   4.2528   4.4379   4.4841
     4.5855   4.6387   4.7675   6.6857  14.0781  20.9826  22.2529  23.8103

     occupation numbers 
     1.0000   1.0000   1.0000   1.0000   1.0000   1.0000   1.0000   1.0000
     1.0000   1.0000   1.0000   1.0000  -0.0000  -0.0000  -0.0000  -0.0000

          k = 0.0000 0.2474 0.2299 (  1930 PWs)   bands (ev):

     3.1853   3.4611   3.9088   3.9215   4.1510   4.2061   4.4450   4.4630
     4.6509   4.7145   4.9661   5.6221  16.5494  19.2075  21.8186  22.6847

     occupation numbers 
     1.0000   1.0000   1.0000   1.0000   1.0000   1.0000   1.0000   1.0000
     1.0000   1.0000   1.0000   1.0000  -0.0000  -0.0000  -0.0000  -0.0000

          k = 0.0000 0.3299 0.0000 (  1929 PWs)   bands (ev):

     3.1138   3.5371   3.8949   4.0739   4.2024   4.3217   4.4169   4.6551
     4.6664   4.6940   4.8100  10.4529  11.2540  17.4474  23.2627  24.0539

     occupation numbers 
     1.0000   1.0000   1.0000   1.0000   1.0000   1.0000   1.0000   1.0000
     1.0000   1.0000   1.0000   1.0000   1.0000  -0.0000  -0.0000  -0.0000

          k = 0.0000 0.3299 0.0766 (  1923 PWs)   bands (ev):

     3.1615   3.5454   3.8883   4.0255   4.1754   4.4312   4.4714   4.6642
     4.6685   4.6862   4.7999   9.0720  12.8828  17.5747  22.0831  24.8399

     occupation numbers 
     1.0000   1.0000   1.0000   1.0000   1.0000   1.0000   1.0000   1.0000
     1.0000   1.0000   1.0000   1.0000  -0.0000  -0.0000  -0.0000  -0.0000

          k = 0.0000 0.3299 0.1533 (  1925 PWs)   bands (ev):

     3.2788   3.5562   3.8619   3.9094   4.2636   4.4713   4.5414   4.6444
     4.6922   4.7746   4.9168   7.6168  15.0750  17.9478  20.7579  23.0185

     occupation numbers 
     1.0000   1.0000   1.0000   1.0000   1.0000   1.0000   1.0000   1.0000
     1.0000   1.0000   1.0000   1.0000  -0.0000  -0.0000  -0.0000  -0.0000

          k = 0.0000 0.3299 0.2299 (  1930 PWs)   bands (ev):

     3.4148   3.5217   3.8274   3.8431   4.3784   4.4772   4.5290   4.5918
     4.7150   4.7440   5.5209   6.4247  17.4316  18.4830  19.7096  20.4082

     occupation numbers 
     1.0000   1.0000   1.0000   1.0000   1.0000   1.0000   1.0000   1.0000
     1.0000   1.0000   1.0000   1.0000  -0.0000  -0.0000  -0.0000  -0.0000

          k = 0.0000 0.4124 0.0000 (  1920 PWs)   bands (ev):

     3.3604   3.4710   3.7284   4.1971   4.2247   4.3683   4.4569   4.8034
     4.8433   4.8630   5.6798  11.4901  12.7350  14.6757  20.4234  21.4344

     occupation numbers 
     1.0000   1.0000   1.0000   1.0000   1.0000   1.0000   1.0000   1.0000
     1.0000   1.0000   1.0000   1.0000  -0.0000  -0.0000  -0.0000  -0.0000

          k = 0.0000 0.4124 0.0766 (  1923 PWs)   bands (ev):

     3.3569   3.4667   3.7484   4.0489   4.2888   4.3875   4.5838   4.7733
     4.8457   4.8694   5.7638  10.2897  14.1081  14.8413  19.3111  22.6666

     occupation numbers 
     1.0000   1.0000   1.0000   1.0000   1.0000   1.0000   1.0000   1.0000
     1.0000   1.0000   1.0000   1.0000  -0.0000  -0.0000  -0.0000  -0.0000

          k = 0.0000 0.4124 0.1533 (  1918 PWs)   bands (ev):

     3.3622   3.4670   3.7619   3.8743   4.4213   4.4418   4.7031   4.7042
     4.8522   4.8730   6.0824   8.8582  15.1002  16.1617  18.1856  23.3987

     occupation numbers 
     1.0000   1.0000   1.0000   1.0000   1.0000   1.0000   1.0000   1.0000
     1.0000   1.0000   1.0000   1.0000  -0.0000  -0.0000  -0.0000  -0.0000

          k = 0.0000 0.4124 0.2299 (  1928 PWs)   bands (ev):

     3.3986   3.4483   3.7533   3.7734   4.5224   4.5769   4.6153   4.6900
     4.8608   4.8689   6.7155   7.6520  15.7278  16.4858  19.0947  21.4575

     occupation numbers 
     1.0000   1.0000   1.0000   1.0000   1.0000   1.0000   1.0000   1.0000
     1.0000   1.0000   1.0000   1.0000  -0.0000  -0.0000  -0.0000  -0.0000

          k = 0.0000 0.4949 0.0000 (  1894 PWs)   bands (ev):

     3.3475   3.4286   3.6296   4.1582   4.2896   4.3357   4.6095   4.7979
     4.9666   4.9863   7.2985  11.4717  13.5867  14.3583  17.8978  19.1145

     occupation numbers 
     1.0000   1.0000   1.0000   1.0000   1.0000   1.0000   1.0000   1.0000
     1.0000   1.0000   1.0000   1.0000  -0.0000  -0.0000  -0.0000  -0.0000

          k = 0.0000 0.4949 0.0766 (  1913 PWs)   bands (ev):

     3.3505   3.3965   3.6653   4.0334   4.3528   4.3570   4.7002   4.7724
     4.9682   4.9863   7.3995  11.1710  12.8502  15.3825  17.2288  20.3362

     occupation numbers 
     1.0000   1.0000   1.0000   1.0000   1.0000   1.0000   1.0000   1.0000
     1.0000   1.0000   1.0000   1.0000  -0.0000  -0.0000  -0.0000  -0.0000

          k = 0.0000 0.4949 0.1533 (  1913 PWs)   bands (ev):

     3.3389   3.3869   3.6960   3.8476   4.4172   4.5011   4.7035   4.8038
     4.9721   4.9853   7.7258  10.2116  12.8026  15.0294  18.3460  22.0403

     occupation numbers 
     1.0000   1.0000   1.0000   1.0000   1.0000   1.0000   1.0000   1.0000
     1.0000   1.0000   1.0000   1.0000  -0.0000  -0.0000  -0.0000  -0.0000

          k = 0.0000 0.4949 0.2299 (  1918 PWs)   bands (ev):

     3.3499   3.3805   3.6986   3.7290   4.5062   4.6082   4.6759   4.7962
     4.9771   4.9819   8.3138   9.1639  13.2889  14.0696  20.4679  22.3889

     occupation numbers 
     1.0000   1.0000   1.0000   1.0000   1.0000   1.0000   1.0000   1.0000
     1.0000   1.0000   1.0000   1.0000  -0.0000  -0.0000  -0.0000  -0.0000

          k = 0.0000-0.5774 0.0000 (  1902 PWs)   bands (ev):

     3.3282   3.4136   3.5971   4.1345   4.3225   4.3243   4.6582   4.7958
     5.0105   5.0318   8.9169   9.7458  14.6343  15.5053  16.2977  17.7343

     occupation numbers 
     1.0000   1.0000   1.0000   1.0000   1.0000   1.0000   1.0000   1.0000
     1.0000   1.0000   1.0000   1.0000  -0.0000  -0.0000  -0.0000  -0.0000

          k = 0.0000-0.5774 0.0766 (  1910 PWs)   bands (ev):

     3.3372   3.3701   3.6377   4.0222   4.3462   4.3768   4.7420   4.7706
     5.0120   5.0309   9.0192   9.7921  13.9825  14.2832  17.8017  18.6164

     occupation numbers 
     1.0000   1.0000   1.0000   1.0000   1.0000   1.0000   1.0000   1.0000
     1.0000   1.0000   1.0000   1.0000  -0.0000  -0.0000  -0.0000  -0.0000

          k = 0.0000-0.5774 0.1533 (  1904 PWs)   bands (ev):

     3.3263   3.3551   3.6731   3.8369   4.4082   4.5254   4.7014   4.8398
     5.0155   5.0283   9.3142   9.9078  12.9427  13.0780  19.8360  20.3460

     occupation numbers 
     1.0000   1.0000   1.0000   1.0000   1.0000   1.0000   1.0000   1.0000
     1.0000   1.0000   1.0000   1.0000  -0.0000  -0.0000  -0.0000  -0.0000

          k = 0.0000-0.5774 0.2299 (  1930 PWs)   bands (ev):

     3.3295   3.3548   3.6791   3.7134   4.4997   4.6042   4.7053   4.8297
     5.0200   5.0245   9.7167   9.9612  12.2503  12.3157  21.8018  22.0439

     occupation numbers 
     1.0000   1.0000   1.0000   1.0000   1.0000   1.0000   1.0000   1.0000
     1.0000   1.0000   1.0000   1.0000  -0.0000  -0.0000  -0.0000  -0.0000

          k = 0.0714 0.1237 0.0000 (  1935 PWs)   bands (ev):

     1.5346   3.2969   3.9375   4.1169   4.1581   4.2780   4.3305   4.4671
     4.4939   4.6113   4.8113   8.7307   9.1273  25.6627  25.7585  26.3337

     occupation numbers 
     1.0000   1.0000   1.0000   1.0000   1.0000   1.0000   1.0000   1.0000
     1.0000   1.0000   1.0000   1.0000   1.0000  -0.0000  -0.0000  -0.0000

          k = 0.0714 0.1237 0.0766 (  1936 PWs)   bands (ev):

     1.6589   3.2895   3.9385   4.1052   4.1469   4.2743   4.3235   4.4623
     4.5259   4.6090   4.8018   7.2092  10.9411  24.2463  25.7954  25.9506

     occupation numbers 
     1.0000   1.0000   1.0000   1.0000   1.0000   1.0000   1.0000   1.0000
     1.0000   1.0000   1.0000   1.0000   1.0000  -0.0000  -0.0000  -0.0000

          k = 0.0714 0.1237 0.1533 (  1948 PWs)   bands (ev):

     2.0172   3.2387   3.9441   4.0896   4.1168   4.2688   4.3072   4.3951
     4.6107   4.6269   4.7743   5.8752  13.1962  21.2924  26.1908  26.3228

     occupation numbers 
     1.0000   1.0000   1.0000   1.0000   1.0000   1.0000   1.0000   1.0000
     1.0000   1.0000   1.0000   1.0000  -0.0000  -0.0000  -0.0000  -0.0000

          k = 0.0714 0.1237 0.2299 (  1943 PWs)   bands (ev):

     2.5417   3.0245   3.9793   4.0668   4.1019   4.2025   4.2809   4.2897
     4.6741   4.7201   4.7648   5.0736  15.6914  18.4022  26.8382  26.9453

     occupation numbers 
     1.0000   1.0000   1.0000   1.0000   1.0000   1.0000   1.0000   1.0000
     1.0000   1.0000   1.0000   1.0000  -0.0000  -0.0000  -0.0000  -0.0000

          k = 0.0714 0.2062 0.0000 (  1936 PWs)   bands (ev):

     2.1291   3.4986   3.9426   4.0817   4.1659   4.2301   4.4138   4.4283
     4.4890   4.5467   4.8057   9.4926   9.5887  22.2957  24.2153  26.8496

     occupation numbers 
     1.0000   1.0000   1.0000   1.0000   1.0000   1.0000   1.0000   1.0000
     1.0000   1.0000   1.0000   1.0000   1.0000  -0.0000  -0.0000  -0.0000

          k = 0.0714 0.2062 0.0766 (  1927 PWs)   bands (ev):

     2.2452   3.5038   3.9500   4.0580   4.1211   4.2404   4.4149   4.4612
     4.4845   4.5671   4.7960   7.8227  11.5375  22.4128  24.2893  24.9213

     occupation numbers 
     1.0000   1.0000   1.0000   1.0000   1.0000   1.0000   1.0000   1.0000
     1.0000   1.0000   1.0000   1.0000   1.0000  -0.0000  -0.0000  -0.0000

          k = 0.0714 0.2062 0.1533 (  1935 PWs)   bands (ev):

     2.5735   3.4992   3.9624   4.0057   4.0541   4.2094   4.4030   4.4606
     4.5936   4.6215   4.7706   6.4285  13.7869  21.7713  22.9204  24.7778

     occupation numbers 
     1.0000   1.0000   1.0000   1.0000   1.0000   1.0000   1.0000   1.0000
     1.0000   1.0000   1.0000   1.0000  -0.0000  -0.0000  -0.0000  -0.0000

          k = 0.0714 0.2062 0.2299 (  1940 PWs)   bands (ev):

     3.0266   3.3865   3.9369   3.9498   4.0586   4.1299   4.4136   4.4362
     4.6609   4.7097   4.8910   5.4372  16.2697  18.9601  23.5109  24.3964

     occupation numbers 
     1.0000   1.0000   1.0000   1.0000   1.0000   1.0000   1.0000   1.0000
     1.0000   1.0000   1.0000   1.0000  -0.0000  -0.0000  -0.0000  -0.0000

          k = 0.0714 0.2887 0.0000 (  1933 PWs)   bands (ev):

     2.8919   3.6022   3.9926   4.0104   4.0554   4.3252   4.3272   4.4729
     4.6150   4.7382   4.7983  10.1222  10.7281  19.0671  22.9543  24.8701

     occupation numbers 
     1.0000   1.0000   1.0000   1.0000   1.0000   1.0000   1.0000   1.0000
     1.0000   1.0000   1.0000   1.0000   1.0000  -0.0000  -0.0000  -0.0000

          k = 0.0714 0.2887 0.0766 (  1923 PWs)   bands (ev):

     2.9740   3.6137   3.9589   4.0131   4.0459   4.2955   4.4265   4.4700
     4.6317   4.7160   4.8089   8.6676  12.4410  19.1940  23.0800  23.6872

     occupation numbers 
     1.0000   1.0000   1.0000   1.0000   1.0000   1.0000   1.0000   1.0000
     1.0000   1.0000   1.0000   1.0000  -0.0000  -0.0000  -0.0000  -0.0000

          k = 0.0714 0.2887 0.1533 (  1927 PWs)   bands (ev):

     3.1848   3.6341   3.8945   3.9497   4.0995   4.2647   4.4735   4.6082
     4.6373   4.7114   4.8687   7.2247  14.6604  19.5575  22.3419  22.6506

     occupation numbers 
     1.0000   1.0000   1.0000   1.0000   1.0000   1.0000   1.0000   1.0000
     1.0000   1.0000   1.0000   1.0000  -0.0000  -0.0000  -0.0000  -0.0000

          k = 0.0714 0.2887 0.2299 (  1935 PWs)   bands (ev):

     3.4253   3.5931   3.8557   3.8926   4.1607   4.2184   4.5110   4.5711
     4.7008   4.7304   5.2718   6.0785  17.0995  19.5367  20.5566  21.2330

     occupation numbers 
     1.0000   1.0000   1.0000   1.0000   1.0000   1.0000   1.0000   1.0000
     1.0000   1.0000   1.0000   1.0000  -0.0000  -0.0000  -0.0000  -0.0000

          k = 0.0714 0.3712 0.0000 (  1923 PWs)   bands (ev):

     3.3794   3.5499   3.8053   4.1414   4.2449   4.2622   4.3990   4.6075
     4.7894   4.7932   5.3068  11.0607  12.1000  16.1032  21.8829  22.0000

     occupation numbers 
     1.0000   1.0000   1.0000   1.0000   1.0000   1.0000   1.0000   1.0000
     1.0000   1.0000   1.0000   1.0000  -0.0000  -0.0000  -0.0000  -0.0000

          k = 0.0714 0.3712 0.0766 (  1925 PWs)   bands (ev):

     3.3860   3.5561   3.8192   4.0287   4.2096   4.4064   4.4756   4.6015
     4.7598   4.8054   5.3646   9.7744  13.6209  16.2316  20.7553  22.1049

     occupation numbers 
     1.0000   1.0000   1.0000   1.0000   1.0000   1.0000   1.0000   1.0000
     1.0000   1.0000   1.0000   1.0000  -0.0000  -0.0000  -0.0000  -0.0000

          k = 0.0714 0.3712 0.1533 (  1924 PWs)   bands (ev):

     3.4159   3.5668   3.8203   3.8866   4.2915   4.4491   4.5570   4.6817
     4.7014   4.8256   5.6192   8.3277  15.7430  16.6161  19.4647  22.4829

     occupation numbers 
     1.0000   1.0000   1.0000   1.0000   1.0000   1.0000   1.0000   1.0000
     1.0000   1.0000   1.0000   1.0000  -0.0000  -0.0000  -0.0000  -0.0000

          k = 0.0714 0.3712 0.2299 (  1926 PWs)   bands (ev):

     3.4758   3.5433   3.7967   3.8175   4.4043   4.4875   4.5254   4.5954
     4.7978   4.8320   6.2076   7.1256  17.1904  17.6148  18.8962  20.9788

     occupation numbers 
     1.0000   1.0000   1.0000   1.0000   1.0000   1.0000   1.0000   1.0000
     1.0000   1.0000   1.0000   1.0000  -0.0000  -0.0000  -0.0000  -0.0000

          k = 0.0714 0.4536 0.0000 (  1925 PWs)   bands (ev):

     3.4173   3.4972   3.6806   4.1797   4.2541   4.3406   4.4912   4.7812
     4.8356   4.9230   6.6095  12.0423  13.6638  13.7250  19.2154  20.3250

     occupation numbers 
     1.0000   1.0000   1.0000   1.0000   1.0000   1.0000   1.0000   1.0000
     1.0000   1.0000   1.0000  -0.0000  -0.0000  -0.0000  -0.0000  -0.0000

          k = 0.0714 0.4536 0.0766 (  1917 PWs)   bands (ev):

     3.4151   3.4731   3.7184   4.0383   4.2977   4.3780   4.6032   4.7538
     4.8330   4.9267   6.7077  11.0626  13.5976  15.0496  18.1944  21.4188

     occupation numbers 
     1.0000   1.0000   1.0000   1.0000   1.0000   1.0000   1.0000   1.0000
     1.0000   1.0000   1.0000   1.0000  -0.0000  -0.0000  -0.0000  -0.0000

          k = 0.0714 0.4536 0.1533 (  1915 PWs)   bands (ev):

     3.4034   3.4706   3.7486   3.8613   4.3652   4.4890   4.6814   4.7255
     4.8353   4.9322   7.0346   9.7078  13.9484  16.1129  17.8876  21.8355

     occupation numbers 
     1.0000   1.0000   1.0000   1.0000   1.0000   1.0000   1.0000   1.0000
     1.0000   1.0000   1.0000   1.0000  -0.0000  -0.0000  -0.0000  -0.0000

          k = 0.0714 0.4536 0.2299 (  1921 PWs)   bands (ev):

     3.4219   3.4607   3.7424   3.7590   4.4672   4.5781   4.6189   4.7118
     4.8829   4.9217   7.6428   8.5431  14.5497  15.3631  19.8341  22.0134

     occupation numbers 
     1.0000   1.0000   1.0000   1.0000   1.0000   1.0000   1.0000   1.0000
     1.0000   1.0000   1.0000   1.0000  -0.0000  -0.0000  -0.0000  -0.0000

          k = 0.0714 0.5361 0.0000 (  1910 PWs)   bands (ev):

     3.3791   3.4699   3.6192   4.1434   4.3088   4.3169   4.6049   4.7763
     4.9521   4.9820   8.3787  10.6171  14.3204  15.2481  16.9417  18.2732

     occupation numbers 
     1.0000   1.0000   1.0000   1.0000   1.0000   1.0000   1.0000   1.0000
     1.0000   1.0000   1.0000   1.0000  -0.0000  -0.0000  -0.0000  -0.0000

          k = 0.0714 0.5361 0.0766 (  1913 PWs)   bands (ev):

     3.3877   3.4229   3.6678   4.0289   4.2993   4.3983   4.6952   4.7494
     4.9487   4.9811   8.4812  10.6323  13.3762  15.1415  17.4185  19.3883

     occupation numbers 
     1.0000   1.0000   1.0000   1.0000   1.0000   1.0000   1.0000   1.0000
     1.0000   1.0000   1.0000   1.0000  -0.0000  -0.0000  -0.0000  -0.0000

          k = 0.0714 0.5361 0.1533 (  1914 PWs)   bands (ev):

     3.3750   3.4113   3.7068   3.8476   4.3539   4.5428   4.6751   4.8119
     4.9372   4.9760   8.7957  10.5244  12.5031  14.0785  19.2486  21.1884

     occupation numbers 
     1.0000   1.0000   1.0000   1.0000   1.0000   1.0000   1.0000   1.0000
     1.0000   1.0000   1.0000   1.0000  -0.0000  -0.0000  -0.0000  -0.0000

          k = 0.0714 0.5361 0.2299 (  1915 PWs)   bands (ev):

     3.3816   3.4107   3.7075   3.7318   4.4544   4.5697   4.7061   4.8205
     4.9393   4.9615   9.3228   9.9952  12.4867  13.1115  21.3107  22.1432

     occupation numbers 
     1.0000   1.0000   1.0000   1.0000   1.0000   1.0000   1.0000   1.0000
     1.0000   1.0000   1.0000   1.0000  -0.0000  -0.0000  -0.0000  -0.0000

          k = 0.1429 0.2474 0.0000 (  1933 PWs)   bands (ev):

     2.8050   3.6820   3.8837   4.0426   4.0665   4.1906   4.3062   4.5134
     4.6086   4.7580   4.7828  10.0189  10.5492  20.8383  21.0393  26.6184

     occupation numbers 
     1.0000   1.0000   1.0000   1.0000   1.0000   1.0000   1.0000   1.0000
     1.0000   1.0000   1.0000   1.0000   1.0000  -0.0000  -0.0000  -0.0000

          k = 0.1429 0.2474 0.0766 (  1927 PWs)   bands (ev):

     2.8995   3.6975   3.8943   3.9849   4.0987   4.1197   4.4112   4.4886
     4.6384   4.7119   4.8167   8.5362  12.2947  20.9734  21.1563  25.3914

     occupation numbers 
     1.0000   1.0000   1.0000   1.0000   1.0000   1.0000   1.0000   1.0000
     1.0000   1.0000   1.0000   1.0000  -0.0000  -0.0000  -0.0000  -0.0000

          k = 0.1429 0.2474 0.1533 (  1929 PWs)   bands (ev):

     3.1515   3.7353   3.8958   3.9263   4.0238   4.0986   4.4715   4.5979
     4.6504   4.6842   4.8871   7.1023  14.5215  21.3758  21.3946  22.7514

     occupation numbers 
     1.0000   1.0000   1.0000   1.0000   1.0000   1.0000   1.0000   1.0000
     1.0000   1.0000   1.0000   1.0000  -0.0000  -0.0000  -0.0000  -0.0000

          k = 0.1429 0.2474 0.2299 (  1933 PWs)   bands (ev):

     3.4594   3.6920   3.8563   3.9288   3.9828   4.0489   4.5011   4.5641
     4.7184   4.7216   5.2266   5.9822  16.9769  19.6030  22.0371  22.3489

     occupation numbers 
     1.0000   1.0000   1.0000   1.0000   1.0000   1.0000   1.0000   1.0000
     1.0000   1.0000   1.0000   1.0000  -0.0000  -0.0000  -0.0000  -0.0000

          k = 0.1429 0.3299 0.0000 (  1929 PWs)   bands (ev):

     3.4683   3.7078   3.8734   3.9519   4.0945   4.2237   4.3236   4.4445
     4.7597   4.7832   5.2726  10.8523  11.7777  17.8416  19.8523  23.6756

     occupation numbers 
     1.0000   1.0000   1.0000   1.0000   1.0000   1.0000   1.0000   1.0000
     1.0000   1.0000   1.0000   1.0000   0.9683  -0.0000  -0.0000  -0.0000

          k = 0.1429 0.3299 0.0766 (  1932 PWs)   bands (ev):

     3.4929   3.7236   3.8546   3.9590   4.0604   4.2390   4.4153   4.4397
     4.7302   4.7982   5.3203   9.5257  13.3504  17.9714  19.9828  22.4842

     occupation numbers 
     1.0000   1.0000   1.0000   1.0000   1.0000   1.0000   1.0000   1.0000
     1.0000   1.0000   1.0000   1.0000  -0.0000  -0.0000  -0.0000  -0.0000

          k = 0.1429 0.3299 0.1533 (  1924 PWs)   bands (ev):

     3.5531   3.7639   3.7995   3.9638   4.0537   4.2137   4.4403   4.6322
     4.6565   4.8256   5.5210   8.0833  15.5254  18.3528  20.3581  21.1539

     occupation numbers 
     1.0000   1.0000   1.0000   1.0000   1.0000   1.0000   1.0000   1.0000
     1.0000   1.0000   1.0000   1.0000  -0.0000  -0.0000  -0.0000  -0.0000

          k = 0.1429 0.3299 0.2299 (  1925 PWs)   bands (ev):

     3.6287   3.7091   3.8439   3.9149   4.1048   4.1642   4.4840   4.5645
     4.7866   4.8345   6.0316   6.9030  17.8702  18.9136  20.0765  20.5131

     occupation numbers 
     1.0000   1.0000   1.0000   1.0000   1.0000   1.0000   1.0000   1.0000
     1.0000   1.0000   1.0000   1.0000  -0.0000  -0.0000  -0.0000  -0.0000

          k = 0.1429 0.4124 0.0000 (  1935 PWs)   bands (ev):

     3.5959   3.6532   3.7493   4.1705   4.2022   4.2484   4.3601   4.5413
     4.7408   4.8987   6.3122  11.9825  13.2345  15.0588  19.0400  20.8466

     occupation numbers 
     1.0000   1.0000   1.0000   1.0000   1.0000   1.0000   1.0000   1.0000
     1.0000   1.0000   1.0000  -0.0001  -0.0000  -0.0000  -0.0000  -0.0000

          k = 0.1429 0.4124 0.0766 (  1928 PWs)   bands (ev):

     3.5846   3.6325   3.8032   4.0083   4.2010   4.3744   4.4409   4.5373
     4.7118   4.9071   6.4038  10.7949  14.6044  15.2219  19.1702  19.7205

     occupation numbers 
     1.0000   1.0000   1.0000   1.0000   1.0000   1.0000   1.0000   1.0000
     1.0000   1.0000   1.0000   1.0000  -0.0000  -0.0000  -0.0000  -0.0000

          k = 0.1429 0.4124 0.1533 (  1920 PWs)   bands (ev):

     3.5598   3.6501   3.8222   3.8864   4.2334   4.4099   4.4983   4.6323
     4.6759   4.9193   6.7134   9.3814  15.5178  16.6381  18.5475  19.5771

     occupation numbers 
     1.0000   1.0000   1.0000   1.0000   1.0000   1.0000   1.0000   1.0000
     1.0000   1.0000   1.0000   1.0000  -0.0000  -0.0000  -0.0000  -0.0000

          k = 0.1429 0.4124 0.2299 (  1912 PWs)   bands (ev):

     3.5779   3.6310   3.7998   3.8420   4.3241   4.4138   4.4852   4.5437
     4.8287   4.9041   7.3053   8.2021  16.1508  16.9368  19.4149  20.1789

     occupation numbers 
     1.0000   1.0000   1.0000   1.0000   1.0000   1.0000   1.0000   1.0000
     1.0000   1.0000   1.0000   1.0000  -0.0000  -0.0000  -0.0000  -0.0000

          k = 0.1429 0.4949 0.0000 (  1918 PWs)   bands (ev):

     3.5259   3.6251   3.6759   4.1494   4.2854   4.2985   4.4326   4.7281
     4.7492   4.9319   7.8908  12.0327  13.9689  14.8562  18.2765  18.5746

     occupation numbers 
     1.0000   1.0000   1.0000   1.0000   1.0000   1.0000   1.0000   1.0000
     1.0000   1.0000   1.0000  -0.0000  -0.0000  -0.0000  -0.0000  -0.0000

          k = 0.1429 0.4949 0.0766 (  1924 PWs)   bands (ev):

     3.5336   3.5598   3.7560   4.0295   4.2349   4.3924   4.5426   4.6976
     4.7425   4.9348   7.9987  11.7836  13.1927  15.9002  17.5811  18.6857

     occupation numbers 
     1.0000   1.0000   1.0000   1.0000   1.0000   1.0000   1.0000   1.0000
     1.0000   1.0000   1.0000   0.9268  -0.0000  -0.0000  -0.0000  -0.0000

          k = 0.1429 0.4949 0.1533 (  1924 PWs)   bands (ev):

     3.5085   3.5678   3.8062   3.8657   4.2511   4.5062   4.6080   4.6980
     4.7265   4.9339   8.3356  10.8261  13.1597  15.4908  18.7194  19.0911

     occupation numbers 
     1.0000   1.0000   1.0000   1.0000   1.0000   1.0000   1.0000   1.0000
     1.0000   1.0000   1.0000   1.0000  -0.0000  -0.0000  -0.0000  -0.0000

          k = 0.1429 0.4949 0.2299 (  1915 PWs)   bands (ev):

     3.5218   3.5654   3.7775   3.7929   4.3508   4.4812   4.6103   4.6765
     4.8283   4.9047   8.9254   9.7727  13.6810  14.4926  19.7365  20.3961

     occupation numbers 
     1.0000   1.0000   1.0000   1.0000   1.0000   1.0000   1.0000   1.0000
     1.0000   1.0000   1.0000   1.0000  -0.0000  -0.0000  -0.0000  -0.0000

          k = 0.1429 0.5774 0.0000 (  1918 PWs)   bands (ev):

     3.4989   3.6090   3.6519   4.1486   4.2519   4.3307   4.4951   4.7236
     4.8692   4.8922   9.5796  10.1771  15.1526  16.0433  16.6294  18.0745

     occupation numbers 
     1.0000   1.0000   1.0000   1.0000   1.0000   1.0000   1.0000   1.0000
     1.0000   1.0000   1.0000   1.0000  -0.0000  -0.0000  -0.0000  -0.0000

          k = 0.1429 0.5774 0.0766 (  1926 PWs)   bands (ev):

     3.5110   3.5339   3.7375   4.0383   4.2157   4.4190   4.5841   4.6930
     4.8661   4.8901   9.6934  10.2455  14.4638  14.7147  18.2149  18.5318

     occupation numbers 
     1.0000   1.0000   1.0000   1.0000   1.0000   1.0000   1.0000   1.0000
     1.0000   1.0000   1.0000   1.0000  -0.0000  -0.0000  -0.0000  -0.0000

          k = 0.1429 0.5774 0.1533 (  1917 PWs)   bands (ev):

     3.4888   3.5379   3.7898   3.8689   4.2368   4.5639   4.6000   4.7089
     4.8563   4.8766  10.0166  10.4346  13.3680  13.4556  18.9195  20.2870

     occupation numbers 
     1.0000   1.0000   1.0000   1.0000   1.0000   1.0000   1.0000   1.0000
     1.0000   1.0000   1.0000   1.0000  -0.0000  -0.0000  -0.0000  -0.0000

          k = 0.1429 0.5774 0.2299 (  1912 PWs)   bands (ev):

     3.5008   3.5405   3.7713   3.7760   4.3410   4.4761   4.7050   4.7704
     4.8390   4.8392  10.4429  10.6189  12.5888  12.6338  19.5804  20.4361

     occupation numbers 
     1.0000   1.0000   1.0000   1.0000   1.0000   1.0000   1.0000   1.0000
     1.0000   1.0000   1.0000   1.0000  -0.0000  -0.0000  -0.0000  -0.0000

          k = 0.2143 0.3712 0.0000 (  1921 PWs)   bands (ev):

     3.7585   3.7853   3.8315   3.9766   4.1523   4.1630   4.3792   4.3870
     4.7169   4.8941   6.2422  11.9156  13.0899  16.7974  17.0206  22.6559

     occupation numbers 
     1.0000   1.0000   1.0000   1.0000   1.0000   1.0000   1.0000   1.0000
     1.0000   1.0000   1.0000  -0.0141  -0.0000  -0.0000  -0.0000  -0.0000

          k = 0.2143 0.3712 0.0766 (  1923 PWs)   bands (ev):

     3.7463   3.7729   3.8791   3.8884   4.1491   4.2223   4.3755   4.4610
     4.6878   4.9042   6.3306  10.6940  14.5416  16.9314  17.1498  21.4253

     occupation numbers 
     1.0000   1.0000   1.0000   1.0000   1.0000   1.0000   1.0000   1.0000
     1.0000   1.0000   1.0000   1.0000  -0.0000  -0.0000  -0.0000  -0.0000

          k = 0.2143 0.3712 0.1533 (  1928 PWs)   bands (ev):

     3.7110   3.7619   3.8320   3.9611   4.1161   4.2266   4.3835   4.6073
     4.6608   4.9186   6.6302   9.2744  16.6177  17.3343  17.5285  20.0506

     occupation numbers 
     1.0000   1.0000   1.0000   1.0000   1.0000   1.0000   1.0000   1.0000
     1.0000   1.0000   1.0000   1.0000  -0.0000  -0.0000  -0.0000  -0.0000

          k = 0.2143 0.3712 0.2299 (  1923 PWs)   bands (ev):

     3.6969   3.7111   3.8952   3.9617   4.1288   4.1850   4.4287   4.5121
     4.8239   4.9038   7.2096   8.0978  17.9785  18.1098  18.4104  18.8987

     occupation numbers 
     1.0000   1.0000   1.0000   1.0000   1.0000   1.0000   1.0000   1.0000
     1.0000   1.0000   1.0000   1.0000  -0.0000  -0.0000  -0.0000  -0.0000

          k = 0.2143 0.4536 0.0000 (  1925 PWs)   bands (ev):

     3.7252   3.7324   3.8162   4.1238   4.1911   4.2707   4.2922   4.5264
     4.6833   4.9147   7.6709  13.1284  14.4172  14.6265  16.2683  20.0573

     occupation numbers 
     1.0000   1.0000   1.0000   1.0000   1.0000   1.0000   1.0000   1.0000
     1.0000   1.0000   1.0000  -0.0000  -0.0000  -0.0000  -0.0000  -0.0000

          k = 0.2143 0.4536 0.0766 (  1927 PWs)   bands (ev):

     3.6943   3.7410   3.8720   3.9902   4.1869   4.3197   4.3638   4.5530
     4.6526   4.9217   7.7808  12.1097  14.3903  15.9640  16.4049  18.9744

     occupation numbers 
     1.0000   1.0000   1.0000   1.0000   1.0000   1.0000   1.0000   1.0000
     1.0000   1.0000   1.0000  -0.0000  -0.0000  -0.0000  -0.0000  -0.0000

          k = 0.2143 0.4536 0.1533 (  1926 PWs)   bands (ev):

     3.6643   3.7796   3.8373   3.9618   4.1465   4.3522   4.4149   4.5736
     4.6791   4.9279   8.1240  10.7570  14.7584  16.7764  17.0933  18.4382

     occupation numbers 
     1.0000   1.0000   1.0000   1.0000   1.0000   1.0000   1.0000   1.0000
     1.0000   1.0000   1.0000   1.0000  -0.0000  -0.0000  -0.0000  -0.0000

          k = 0.2143 0.4536 0.2299 (  1919 PWs)   bands (ev):

     3.6741   3.7277   3.8592   3.9318   4.2128   4.3143   4.4381   4.4909
     4.8192   4.9024   8.7288   9.6105  15.3846  16.2320  17.4456  18.2763

     occupation numbers 
     1.0000   1.0000   1.0000   1.0000   1.0000   1.0000   1.0000   1.0000
     1.0000   1.0000   1.0000   1.0000  -0.0000  -0.0000  -0.0000  -0.0000

          k = 0.2143 0.5361 0.0000 (  1920 PWs)   bands (ev):

     3.6847   3.7090   3.7985   4.1410   4.2085   4.2934   4.3317   4.6652
     4.6929   4.8524   9.4695  11.6097  15.2001  15.9302  16.2502  17.7513

     occupation numbers 
     1.0000   1.0000   1.0000   1.0000   1.0000   1.0000   1.0000   1.0000
     1.0000   1.0000   1.0000   1.0000  -0.0000  -0.0000  -0.0000  -0.0000

          k = 0.2143 0.5361 0.0766 (  1923 PWs)   bands (ev):

     3.6669   3.6993   3.8674   4.0353   4.1465   4.3709   4.4106   4.6331
     4.6988   4.8586   9.5843  11.6804  14.2014  15.9633  16.2108  18.1686

     occupation numbers 
     1.0000   1.0000   1.0000   1.0000   1.0000   1.0000   1.0000   1.0000
     1.0000   1.0000   1.0000   1.0011  -0.0000  -0.0000  -0.0000  -0.0000

          k = 0.2143 0.5361 0.1533 (  1922 PWs)   bands (ev):

     3.6394   3.7359   3.8883   3.9435   4.1092   4.4289   4.4992   4.5721
     4.7288   4.8660   9.9292  11.7406  13.1840  14.9432  16.4818  18.9818

     occupation numbers 
     1.0000   1.0000   1.0000   1.0000   1.0000   1.0000   1.0000   1.0000
     1.0000   1.0000   1.0000   1.0316  -0.0000  -0.0000  -0.0000  -0.0000

          k = 0.2143 0.5361 0.2299 (  1917 PWs)   bands (ev):

     3.6612   3.7265   3.8395   3.9019   4.2094   4.3488   4.5380   4.5619
     4.7943   4.8491  10.4987  11.2328  13.1858  13.9088  17.1286  18.0072

     occupation numbers 
     1.0000   1.0000   1.0000   1.0000   1.0000   1.0000   1.0000   1.0000
     1.0000   1.0000   1.0000   1.0000  -0.0000  -0.0000  -0.0000  -0.0000

          k = 0.2857 0.4949 0.0000 (  1935 PWs)   bands (ev):

     3.7420   3.8329   3.9014   4.1128   4.1511   4.2112   4.3173   4.5856
     4.6384   4.8437   9.3562  13.3947  13.7641  15.2515  16.2298  19.3730

     occupation numbers 
     1.0000   1.0000   1.0000   1.0000   1.0000   1.0000   1.0000   1.0000
     1.0000   1.0000   1.0000  -0.0000  -0.0000  -0.0000  -0.0000  -0.0000

          k = 0.2857 0.4949 0.0766 (  1929 PWs)   bands (ev):

     3.7397   3.8432   3.9329   3.9979   4.1668   4.2467   4.3424   4.6061
     4.6158   4.8528   9.4742  13.2450  13.8982  14.4006  17.2160  18.2813

     occupation numbers 
     1.0000   1.0000   1.0000   1.0000   1.0000   1.0000   1.0000   1.0000
     1.0000   1.0000   1.0000  -0.0000  -0.0000  -0.0000  -0.0000  -0.0000

          k = 0.2857 0.4949 0.1533 (  1921 PWs)   bands (ev):

     3.7415   3.8579   3.9044   4.0150   4.0873   4.2856   4.3765   4.5286
     4.7001   4.8654   9.8321  12.3433  14.2936  14.3293  16.8459  16.9035

     occupation numbers 
     1.0000   1.0000   1.0000   1.0000   1.0000   1.0000   1.0000   1.0000
     1.0000   1.0000   1.0000  -0.0000  -0.0000  -0.0000  -0.0000  -0.0000

          k = 0.2857 0.4949 0.2299 (  1919 PWs)   bands (ev):

     3.7587   3.8002   3.9380   4.0053   4.1295   4.2369   4.4086   4.4533
     4.7945   4.8524  10.4376  11.2898  14.8550  14.9117  15.8069  15.8735

     occupation numbers 
     1.0000   1.0000   1.0000   1.0000   1.0000   1.0000   1.0000   1.0000
     1.0000   1.0000   1.0000   1.0000  -0.0000  -0.0000  -0.0000  -0.0000

          k = 0.2857 0.5774 0.0000 (  1922 PWs)   bands (ev):

     3.7508   3.8717   3.9344   4.1191   4.1377   4.1494   4.3468   4.6216
     4.6743   4.7493  11.2771  11.4092  13.4784  16.6143  17.5807  17.7869

     occupation numbers 
     1.0000   1.0000   1.0000   1.0000   1.0000   1.0000   1.0000   1.0000
     1.0000   1.0000   1.0000   1.0000  -0.0000  -0.0000  -0.0000  -0.0000

          k = 0.2857 0.5774 0.0766 (  1921 PWs)   bands (ev):

     3.7603   3.8786   3.9380   4.0407   4.1257   4.2066   4.3629   4.5889
     4.6930   4.7650  11.4064  11.5094  13.5889  15.8735  16.0804  17.9683

     occupation numbers 
     1.0000   1.0000   1.0000   1.0000   1.0000   1.0000   1.0000   1.0000
     1.0000   1.0000   1.0000   1.0000  -0.0000  -0.0000  -0.0000  -0.0000

          k = 0.2857 0.5774 0.1533 (  1915 PWs)   bands (ev):

     3.7793   3.8876   3.9589   3.9608   4.1114   4.2375   4.3883   4.5098
     4.7408   4.7958  11.7753  11.8059  13.8323  14.6962  14.8876  16.7555

     occupation numbers 
     1.0000   1.0000   1.0000   1.0000   1.0000   1.0000   1.0000   1.0000
     1.0000   1.0000   0.9816   0.6702  -0.0000  -0.0000  -0.0000  -0.0000

          k = 0.2857 0.5774 0.2299 (  1915 PWs)   bands (ev):

     3.8047   3.8485   3.9550   3.9728   4.1422   4.2113   4.4069   4.4378
     4.7897   4.8104  12.2343  12.2633  13.5550  13.7228  14.8717  15.6762

     occupation numbers 
     1.0000   1.0000   1.0000   1.0000   1.0000   1.0000   1.0000   1.0000
     1.0000   1.0000  -0.0000  -0.0000  -0.0000  -0.0000  -0.0000  -0.0000

     the Fermi energy is    11.8171 ev

!    total energy              =    -487.44547173 Ry
     total all-electron energy =     -7184.239517 Ry
     estimated scf accuracy    <          1.0E-09 Ry
     smearing contrib. (-TS)   =      -0.00000757 Ry
     internal energy E=F+TS    =    -487.44546417 Ry

     The total energy is F=E-TS. E is the sum of the following terms:
     one-electron contribution =    -111.38931949 Ry
     hartree contribution      =      89.55054169 Ry
     xc contribution           =     -94.40414426 Ry
     ewald contribution        =    -180.32404734 Ry
     one-center paw contrib.   =    -190.87849476 Ry
      -> PAW hartree energy AE =     122.77707756 Ry
      -> PAW hartree energy PS =    -122.15620669 Ry
      -> PAW xc energy AE      =    -143.12957793 Ry
      -> PAW xc energy PS      =      47.06945968 Ry
      -> total E_H with PAW    =      90.17141256 Ry
      -> total E_XC with PAW   =    -190.46426252 Ry

     convergence has been achieved in   3 iterations

     Writing all to output data dir ./out/Zn.save/

     init_run     :      0.46s CPU      0.49s WALL (       1 calls)
     electrons    :      8.22s CPU      8.59s WALL (       1 calls)

     Called by init_run:
     wfcinit      :      0.18s CPU      0.18s WALL (       1 calls)
     potinit      :      0.12s CPU      0.14s WALL (       1 calls)
     hinit0       :      0.13s CPU      0.14s WALL (       1 calls)

     Called by electrons:
     c_bands      :      6.77s CPU      7.03s WALL (       4 calls)
     sum_band     :      1.03s CPU      1.08s WALL (       4 calls)
     v_of_rho     :      0.01s CPU      0.01s WALL (       4 calls)
     v_h          :      0.00s CPU      0.00s WALL (       4 calls)
     v_xc         :      0.01s CPU      0.01s WALL (       4 calls)
     newd         :      0.05s CPU      0.06s WALL (       4 calls)
     PAW_pot      :      0.47s CPU      0.54s WALL (       4 calls)
     mix_rho      :      0.00s CPU      0.00s WALL (       4 calls)

     Called by c_bands:
     init_us_2    :      0.09s CPU      0.09s WALL (     768 calls)
     init_us_2:cp :      0.09s CPU      0.09s WALL (     768 calls)
     cegterg      :      6.50s CPU      6.75s WALL (     384 calls)

     Called by sum_band:
     sum_band:wei :      0.01s CPU      0.01s WALL (       4 calls)
     sum_band:loo :      0.97s CPU      1.01s WALL (       4 calls)
     sum_band:buf :      0.01s CPU      0.01s WALL (     384 calls)
     sum_band:ini :      0.04s CPU      0.04s WALL (     384 calls)
     sum_band:cal :      0.16s CPU      0.17s WALL (     384 calls)
     sum_band:bec :      0.01s CPU      0.01s WALL (     384 calls)
     addusdens    :      0.05s CPU      0.05s WALL (       4 calls)
                                        0.00s GPU  (       4 calls)
     addusd:skk   :      0.00s CPU      0.00s WALL (       4 calls)
                                        0.00s GPU  (       4 calls)

     Called by *egterg:
     cdiaghg      :      0.41s CPU      0.43s WALL (     768 calls)
     cegterg:over :      0.57s CPU      0.59s WALL (     576 calls)
     cegterg:upda :      0.18s CPU      0.19s WALL (     576 calls)
     cegterg:last :      0.33s CPU      0.34s WALL (     576 calls)
     h_psi        :      4.24s CPU      4.41s WALL (     960 calls)
     s_psi        :      0.39s CPU      0.40s WALL (     960 calls)
     g_psi        :      0.03s CPU      0.03s WALL (     576 calls)

     Called by h_psi:
     h_psi:calbec :      0.45s CPU      0.47s WALL (     960 calls)
     vloc_psi     :      3.38s CPU      3.51s WALL (     960 calls)
     add_vuspsi   :      0.39s CPU      0.41s WALL (     960 calls)

     General routines
     calbec       :      0.61s CPU      0.64s WALL (    1344 calls)
     fft          :      0.07s CPU      0.08s WALL (      45 calls)
     ffts         :      0.00s CPU      0.00s WALL (       4 calls)
     fftw         :      3.71s CPU      3.86s WALL (   34878 calls)

     Parallel routines

     PAW routines
     PAW_pot      :      0.47s CPU      0.54s WALL (       4 calls)
     PAW_symme    :      0.00s CPU      0.00s WALL (       7 calls)

     PWSCF        :      8.92s CPU      9.40s WALL


   This run was terminated on:   9:24:31  16Feb2024            

=------------------------------------------------------------------------------=
   JOB DONE.
=------------------------------------------------------------------------------=
