### Running on host: unam-asus

     Program PWSCF v.7.2 starts on 16Feb2024 at  9:23:50 

     This program is part of the open-source Quantum ESPRESSO suite
     for quantum simulation of materials; please cite
         "P. Giannozzi et al., J. Phys.:Condens. Matter 21 395502 (2009);
         "P. Giannozzi et al., J. Phys.:Condens. Matter 29 465901 (2017);
         "P. Giannozzi et al., J. Chem. Phys. 152 154105 (2020);
          URL http://www.quantum-espresso.org", 
     in publications or presentations arising from this work. More details at
     http://www.quantum-espresso.org/quote

     Parallel version (MPI), running on    10 processors

     MPI processes distributed on     1 nodes
     638 MiB available memory on the printing compute node when the environment starts

     Reading input from scf.gauss.degauss-0.007.in

     Current dimensions of program PWSCF are:
     Max number of different atomic species (ntypx) = 10
     Max number of k-points (npk) =  40000
     Max angular momentum in pseudopotentials (lmaxx) =  4
     file Zn.pbe-dnl-kjpaw_psl.1.0.0.UPF: wavefunction(s)  4S 3D renormalized
     Message from routine setup:
     using ibrav=0 with symmetry is DISCOURAGED, use correct ibrav instead

     R & G space division:  proc/nbgrp/npool/nimage =      10
     Subspace diagonalization in iterative solution of the eigenvalue problem:
     a serial algorithm will be used


     Parallelization info
     --------------------
     sticks:   dense  smooth     PW     G-vecs:    dense   smooth      PW
     Min          47      47     15                 1539     1539     263
     Max          48      48     16                 1543     1543     266
     Sum         475     475    151                15415    15415    2637

     Using Slab Decomposition



     bravais-lattice index     =            0
     lattice parameter (alat)  =       4.9404  a.u.
     unit-cell volume          =     194.6564 (a.u.)^3
     number of atoms/cell      =            2
     number of atomic types    =            1
     number of electrons       =        24.00
     number of Kohn-Sham states=           16
     kinetic-energy cutoff     =      70.0000  Ry
     charge density cutoff     =     280.0000  Ry
     scf convergence threshold =      4.0E-08
     mixing beta               =       0.7000
     number of iterations used =            8  plain     mixing
     Exchange-correlation= SLA  PW   PBX  PBC
                           (   1   4   3   4   0   0   0)

     celldm(1)=   4.940424  celldm(2)=   0.000000  celldm(3)=   0.000000
     celldm(4)=   0.000000  celldm(5)=   0.000000  celldm(6)=   0.000000

     crystal axes: (cart. coord. in units of alat)
               a(1) = (   1.000000   0.000000   0.000000 )  
               a(2) = (  -0.500000   0.866025   0.000000 )  
               a(3) = (   0.000000   0.000000   1.863998 )  

     reciprocal axes: (cart. coord. in units 2 pi/alat)
               b(1) = (  1.000000  0.577350 -0.000000 )  
               b(2) = (  0.000000  1.154701  0.000000 )  
               b(3) = (  0.000000 -0.000000  0.536481 )  


     PseudoPot. # 1 for Zn read from file:
     /home/abdul/git_repo/ZnS_Cu-Vacancy/pseudo/QE/Zn.pbe-dnl-kjpaw_psl.1.0.0.UPF
     MD5 check sum: c608214d9520ac179f507641260889e3
     Pseudo is Projector augmented-wave + core cor, Zval = 12.0
     Generated using &quot;atomic&quot; code by A. Dal Corso  v.6.2.2
     Shape of augmentation charge: PSQ
     Using radial grid of 1201 points,  6 beta functions with: 
                l(1) =   0
                l(2) =   0
                l(3) =   1
                l(4) =   1
                l(5) =   2
                l(6) =   2
     Q(r) pseudized with 0 coefficients 


     atomic species   valence    mass     pseudopotential
        Zn            12.00    65.38000     Zn( 1.00)

     24 Sym. Ops., with inversion, found (12 have fractional translation)


                                    s                        frac. trans.

      isym =  1     identity                                     

 cryst.   s( 1) = (     1          0          0      )
                  (     0          1          0      )
                  (     0          0          1      )

 cart.    s( 1) = (  1.0000000  0.0000000  0.0000000 )
                  (  0.0000000  1.0000000  0.0000000 )
                  (  0.0000000  0.0000000  1.0000000 )


      isym =  2     180 deg rotation - cart. axis [0,0,1]        

 cryst.   s( 2) = (    -1          0          0      )    f =(  0.0000000 )
                  (     0         -1          0      )       (  0.0000000 )
                  (     0          0          1      )       ( -0.5000000 )

 cart.    s( 2) = ( -1.0000000  0.0000000  0.0000000 )    f =(  0.0000000 )
                  (  0.0000000 -1.0000000  0.0000000 )       (  0.0000000 )
                  (  0.0000000  0.0000000  1.0000000 )       ( -0.9319989 )


      isym =  3     180 deg rotation - cart. axis [0,1,0]        

 cryst.   s( 3) = (    -1          0          0      )    f =(  0.0000000 )
                  (     1          1          0      )       (  0.0000000 )
                  (     0          0         -1      )       (  0.5000000 )

 cart.    s( 3) = ( -1.0000000  0.0000000  0.0000000 )    f =(  0.0000000 )
                  (  0.0000000  1.0000000  0.0000000 )       (  0.0000000 )
                  (  0.0000000  0.0000000 -1.0000000 )       (  0.9319989 )


      isym =  4     180 deg rotation - cart. axis [1,0,0]        

 cryst.   s( 4) = (     1          0          0      )
                  (    -1         -1          0      )
                  (     0          0         -1      )

 cart.    s( 4) = (  1.0000000  0.0000000  0.0000000 )
                  (  0.0000000 -1.0000000  0.0000000 )
                  (  0.0000000  0.0000000 -1.0000000 )


      isym =  5      60 deg rotation - cryst. axis [0,0,1]       

 cryst.   s( 5) = (     1          1          0      )    f =(  0.0000000 )
                  (    -1          0          0      )       ( -0.0000000 )
                  (     0          0          1      )       ( -0.5000000 )

 cart.    s( 5) = (  0.5000000 -0.8660254  0.0000000 )    f =(  0.0000000 )
                  (  0.8660254  0.5000000  0.0000000 )       ( -0.0000000 )
                  (  0.0000000  0.0000000  1.0000000 )       ( -0.9319989 )


      isym =  6      60 deg rotation - cryst. axis [0,0,-1]      

 cryst.   s( 6) = (     0         -1          0      )    f =(  0.0000000 )
                  (     1          1          0      )       ( -0.0000000 )
                  (     0          0          1      )       ( -0.5000000 )

 cart.    s( 6) = (  0.5000000  0.8660254  0.0000000 )    f =(  0.0000000 )
                  ( -0.8660254  0.5000000  0.0000000 )       ( -0.0000000 )
                  (  0.0000000  0.0000000  1.0000000 )       ( -0.9319989 )


      isym =  7     120 deg rotation - cryst. axis [0,0,1]       

 cryst.   s( 7) = (     0          1          0      )
                  (    -1         -1          0      )
                  (     0          0          1      )

 cart.    s( 7) = ( -0.5000000 -0.8660254  0.0000000 )
                  (  0.8660254 -0.5000000  0.0000000 )
                  (  0.0000000  0.0000000  1.0000000 )


      isym =  8     120 deg rotation - cryst. axis [0,0,-1]      

 cryst.   s( 8) = (    -1         -1          0      )
                  (     1          0          0      )
                  (     0          0          1      )

 cart.    s( 8) = ( -0.5000000  0.8660254  0.0000000 )
                  ( -0.8660254 -0.5000000  0.0000000 )
                  (  0.0000000  0.0000000  1.0000000 )


      isym =  9     180 deg rotation - cryst. axis [1,-1,0]      

 cryst.   s( 9) = (     0         -1          0      )    f =(  0.0000000 )
                  (    -1          0          0      )       (  0.0000000 )
                  (     0          0         -1      )       (  0.5000000 )

 cart.    s( 9) = (  0.5000000 -0.8660254  0.0000000 )    f =(  0.0000000 )
                  ( -0.8660254 -0.5000000  0.0000000 )       (  0.0000000 )
                  (  0.0000000  0.0000000 -1.0000000 )       (  0.9319989 )


      isym = 10     180 deg rotation - cryst. axis [2,1,0]       

 cryst.   s(10) = (     1          1          0      )    f =(  0.0000000 )
                  (     0         -1          0      )       ( -0.0000000 )
                  (     0          0         -1      )       (  0.5000000 )

 cart.    s(10) = (  0.5000000  0.8660254  0.0000000 )    f =(  0.0000000 )
                  (  0.8660254 -0.5000000  0.0000000 )       ( -0.0000000 )
                  (  0.0000000  0.0000000 -1.0000000 )       (  0.9319989 )


      isym = 11     180 deg rotation - cryst. axis [0,1,0]       

 cryst.   s(11) = (    -1         -1          0      )
                  (     0          1          0      )
                  (     0          0         -1      )

 cart.    s(11) = ( -0.5000000 -0.8660254  0.0000000 )
                  ( -0.8660254  0.5000000  0.0000000 )
                  (  0.0000000  0.0000000 -1.0000000 )


      isym = 12     180 deg rotation - cryst. axis [1,1,0]       

 cryst.   s(12) = (     0          1          0      )
                  (     1          0          0      )
                  (     0          0         -1      )

 cart.    s(12) = ( -0.5000000  0.8660254  0.0000000 )
                  (  0.8660254  0.5000000  0.0000000 )
                  (  0.0000000  0.0000000 -1.0000000 )


      isym = 13     inversion                                    

 cryst.   s(13) = (    -1          0          0      )
                  (     0         -1          0      )
                  (     0          0         -1      )

 cart.    s(13) = ( -1.0000000  0.0000000  0.0000000 )
                  (  0.0000000 -1.0000000  0.0000000 )
                  (  0.0000000  0.0000000 -1.0000000 )


      isym = 14     inv. 180 deg rotation - cart. axis [0,0,1]   

 cryst.   s(14) = (     1          0          0      )    f =(  0.0000000 )
                  (     0          1          0      )       (  0.0000000 )
                  (     0          0         -1      )       (  0.5000000 )

 cart.    s(14) = (  1.0000000  0.0000000  0.0000000 )    f =(  0.0000000 )
                  (  0.0000000  1.0000000  0.0000000 )       (  0.0000000 )
                  (  0.0000000  0.0000000 -1.0000000 )       (  0.9319989 )


      isym = 15     inv. 180 deg rotation - cart. axis [0,1,0]   

 cryst.   s(15) = (     1          0          0      )    f =(  0.0000000 )
                  (    -1         -1          0      )       (  0.0000000 )
                  (     0          0          1      )       ( -0.5000000 )

 cart.    s(15) = (  1.0000000  0.0000000  0.0000000 )    f =(  0.0000000 )
                  (  0.0000000 -1.0000000  0.0000000 )       (  0.0000000 )
                  (  0.0000000  0.0000000  1.0000000 )       ( -0.9319989 )


      isym = 16     inv. 180 deg rotation - cart. axis [1,0,0]   

 cryst.   s(16) = (    -1          0          0      )
                  (     1          1          0      )
                  (     0          0          1      )

 cart.    s(16) = ( -1.0000000  0.0000000  0.0000000 )
                  (  0.0000000  1.0000000  0.0000000 )
                  (  0.0000000  0.0000000  1.0000000 )


      isym = 17     inv.  60 deg rotation - cryst. axis [0,0,1]  

 cryst.   s(17) = (    -1         -1          0      )    f =(  0.0000000 )
                  (     1          0          0      )       (  0.0000000 )
                  (     0          0         -1      )       (  0.5000000 )

 cart.    s(17) = ( -0.5000000  0.8660254  0.0000000 )    f =(  0.0000000 )
                  ( -0.8660254 -0.5000000  0.0000000 )       (  0.0000000 )
                  (  0.0000000  0.0000000 -1.0000000 )       (  0.9319989 )


      isym = 18     inv.  60 deg rotation - cryst. axis [0,0,-1] 

 cryst.   s(18) = (     0          1          0      )    f =(  0.0000000 )
                  (    -1         -1          0      )       ( -0.0000000 )
                  (     0          0         -1      )       (  0.5000000 )

 cart.    s(18) = ( -0.5000000 -0.8660254  0.0000000 )    f =(  0.0000000 )
                  (  0.8660254 -0.5000000  0.0000000 )       ( -0.0000000 )
                  (  0.0000000  0.0000000 -1.0000000 )       (  0.9319989 )


      isym = 19     inv. 120 deg rotation - cryst. axis [0,0,1]  

 cryst.   s(19) = (     0         -1          0      )
                  (     1          1          0      )
                  (     0          0         -1      )

 cart.    s(19) = (  0.5000000  0.8660254  0.0000000 )
                  ( -0.8660254  0.5000000  0.0000000 )
                  (  0.0000000  0.0000000 -1.0000000 )


      isym = 20     inv. 120 deg rotation - cryst. axis [0,0,-1] 

 cryst.   s(20) = (     1          1          0      )
                  (    -1          0          0      )
                  (     0          0         -1      )

 cart.    s(20) = (  0.5000000 -0.8660254  0.0000000 )
                  (  0.8660254  0.5000000  0.0000000 )
                  (  0.0000000  0.0000000 -1.0000000 )


      isym = 21     inv. 180 deg rotation - cryst. axis [1,-1,0] 

 cryst.   s(21) = (     0          1          0      )    f =(  0.0000000 )
                  (     1          0          0      )       ( -0.0000000 )
                  (     0          0          1      )       ( -0.5000000 )

 cart.    s(21) = ( -0.5000000  0.8660254  0.0000000 )    f =(  0.0000000 )
                  (  0.8660254  0.5000000  0.0000000 )       ( -0.0000000 )
                  (  0.0000000  0.0000000  1.0000000 )       ( -0.9319989 )


      isym = 22     inv. 180 deg rotation - cryst. axis [2,1,0]  

 cryst.   s(22) = (    -1         -1          0      )    f =(  0.0000000 )
                  (     0          1          0      )       ( -0.0000000 )
                  (     0          0          1      )       ( -0.5000000 )

 cart.    s(22) = ( -0.5000000 -0.8660254  0.0000000 )    f =(  0.0000000 )
                  ( -0.8660254  0.5000000  0.0000000 )       ( -0.0000000 )
                  (  0.0000000  0.0000000  1.0000000 )       ( -0.9319989 )


      isym = 23     inv. 180 deg rotation - cryst. axis [0,1,0]  

 cryst.   s(23) = (     1          1          0      )
                  (     0         -1          0      )
                  (     0          0          1      )

 cart.    s(23) = (  0.5000000  0.8660254  0.0000000 )
                  (  0.8660254 -0.5000000  0.0000000 )
                  (  0.0000000  0.0000000  1.0000000 )


      isym = 24     inv. 180 deg rotation - cryst. axis [1,1,0]  

 cryst.   s(24) = (     0         -1          0      )
                  (    -1          0          0      )
                  (     0          0          1      )

 cart.    s(24) = (  0.5000000 -0.8660254  0.0000000 )
                  ( -0.8660254 -0.5000000  0.0000000 )
                  (  0.0000000  0.0000000  1.0000000 )


   Cartesian axes

     site n.     atom                  positions (alat units)
         1           Zn  tau(   1) = (  -0.0000000   0.5773503   0.4659995  )
         2           Zn  tau(   2) = (   0.5000000   0.2886751   1.3979984  )

   Crystallographic axes

     site n.     atom                  positions (cryst. coord.)
         1           Zn  tau(   1) = (  0.3333333  0.6666667  0.2500000  )
         2           Zn  tau(   2) = (  0.6666667  0.3333333  0.7500000  )

     number of k points=    96  Gaussian smearing, width (Ry)=  0.0070
                       cart. coord. in units 2pi/alat
        k(    1) = (   0.0000000   0.0000000   0.0000000), wk =   0.0014577
        k(    2) = (   0.0000000   0.0000000   0.0766402), wk =   0.0029155
        k(    3) = (   0.0000000   0.0000000   0.1532804), wk =   0.0029155
        k(    4) = (   0.0000000   0.0000000   0.2299206), wk =   0.0029155
        k(    5) = (   0.0000000   0.0824786   0.0000000), wk =   0.0087464
        k(    6) = (   0.0000000   0.0824786   0.0766402), wk =   0.0174927
        k(    7) = (   0.0000000   0.0824786   0.1532804), wk =   0.0174927
        k(    8) = (   0.0000000   0.0824786   0.2299206), wk =   0.0174927
        k(    9) = (   0.0000000   0.1649572   0.0000000), wk =   0.0087464
        k(   10) = (   0.0000000   0.1649572   0.0766402), wk =   0.0174927
        k(   11) = (   0.0000000   0.1649572   0.1532804), wk =   0.0174927
        k(   12) = (   0.0000000   0.1649572   0.2299206), wk =   0.0174927
        k(   13) = (   0.0000000   0.2474358   0.0000000), wk =   0.0087464
        k(   14) = (   0.0000000   0.2474358   0.0766402), wk =   0.0174927
        k(   15) = (   0.0000000   0.2474358   0.1532804), wk =   0.0174927
        k(   16) = (   0.0000000   0.2474358   0.2299206), wk =   0.0174927
        k(   17) = (   0.0000000   0.3299144   0.0000000), wk =   0.0087464
        k(   18) = (   0.0000000   0.3299144   0.0766402), wk =   0.0174927
        k(   19) = (   0.0000000   0.3299144   0.1532804), wk =   0.0174927
        k(   20) = (   0.0000000   0.3299144   0.2299206), wk =   0.0174927
        k(   21) = (   0.0000000   0.4123930   0.0000000), wk =   0.0087464
        k(   22) = (   0.0000000   0.4123930   0.0766402), wk =   0.0174927
        k(   23) = (   0.0000000   0.4123930   0.1532804), wk =   0.0174927
        k(   24) = (   0.0000000   0.4123930   0.2299206), wk =   0.0174927
        k(   25) = (   0.0000000   0.4948717   0.0000000), wk =   0.0087464
        k(   26) = (   0.0000000   0.4948717   0.0766402), wk =   0.0174927
        k(   27) = (   0.0000000   0.4948717   0.1532804), wk =   0.0174927
        k(   28) = (   0.0000000   0.4948717   0.2299206), wk =   0.0174927
        k(   29) = (   0.0000000  -0.5773503   0.0000000), wk =   0.0043732
        k(   30) = (   0.0000000  -0.5773503   0.0766402), wk =   0.0087464
        k(   31) = (   0.0000000  -0.5773503   0.1532804), wk =   0.0087464
        k(   32) = (   0.0000000  -0.5773503   0.2299206), wk =   0.0087464
        k(   33) = (   0.0714286   0.1237179   0.0000000), wk =   0.0087464
        k(   34) = (   0.0714286   0.1237179   0.0766402), wk =   0.0174927
        k(   35) = (   0.0714286   0.1237179   0.1532804), wk =   0.0174927
        k(   36) = (   0.0714286   0.1237179   0.2299206), wk =   0.0174927
        k(   37) = (   0.0714286   0.2061965   0.0000000), wk =   0.0174927
        k(   38) = (   0.0714286   0.2061965   0.0766402), wk =   0.0349854
        k(   39) = (   0.0714286   0.2061965   0.1532804), wk =   0.0349854
        k(   40) = (   0.0714286   0.2061965   0.2299206), wk =   0.0349854
        k(   41) = (   0.0714286   0.2886751   0.0000000), wk =   0.0174927
        k(   42) = (   0.0714286   0.2886751   0.0766402), wk =   0.0349854
        k(   43) = (   0.0714286   0.2886751   0.1532804), wk =   0.0349854
        k(   44) = (   0.0714286   0.2886751   0.2299206), wk =   0.0349854
        k(   45) = (   0.0714286   0.3711537   0.0000000), wk =   0.0174927
        k(   46) = (   0.0714286   0.3711537   0.0766402), wk =   0.0349854
        k(   47) = (   0.0714286   0.3711537   0.1532804), wk =   0.0349854
        k(   48) = (   0.0714286   0.3711537   0.2299206), wk =   0.0349854
        k(   49) = (   0.0714286   0.4536324   0.0000000), wk =   0.0174927
        k(   50) = (   0.0714286   0.4536324   0.0766402), wk =   0.0349854
        k(   51) = (   0.0714286   0.4536324   0.1532804), wk =   0.0349854
        k(   52) = (   0.0714286   0.4536324   0.2299206), wk =   0.0349854
        k(   53) = (   0.0714286   0.5361110   0.0000000), wk =   0.0174927
        k(   54) = (   0.0714286   0.5361110   0.0766402), wk =   0.0349854
        k(   55) = (   0.0714286   0.5361110   0.1532804), wk =   0.0349854
        k(   56) = (   0.0714286   0.5361110   0.2299206), wk =   0.0349854
        k(   57) = (   0.1428571   0.2474358   0.0000000), wk =   0.0087464
        k(   58) = (   0.1428571   0.2474358   0.0766402), wk =   0.0174927
        k(   59) = (   0.1428571   0.2474358   0.1532804), wk =   0.0174927
        k(   60) = (   0.1428571   0.2474358   0.2299206), wk =   0.0174927
        k(   61) = (   0.1428571   0.3299144   0.0000000), wk =   0.0174927
        k(   62) = (   0.1428571   0.3299144   0.0766402), wk =   0.0349854
        k(   63) = (   0.1428571   0.3299144   0.1532804), wk =   0.0349854
        k(   64) = (   0.1428571   0.3299144   0.2299206), wk =   0.0349854
        k(   65) = (   0.1428571   0.4123930   0.0000000), wk =   0.0174927
        k(   66) = (   0.1428571   0.4123930   0.0766402), wk =   0.0349854
        k(   67) = (   0.1428571   0.4123930   0.1532804), wk =   0.0349854
        k(   68) = (   0.1428571   0.4123930   0.2299206), wk =   0.0349854
        k(   69) = (   0.1428571   0.4948717   0.0000000), wk =   0.0174927
        k(   70) = (   0.1428571   0.4948717   0.0766402), wk =   0.0349854
        k(   71) = (   0.1428571   0.4948717   0.1532804), wk =   0.0349854
        k(   72) = (   0.1428571   0.4948717   0.2299206), wk =   0.0349854
        k(   73) = (   0.1428571   0.5773503   0.0000000), wk =   0.0087464
        k(   74) = (   0.1428571   0.5773503   0.0766402), wk =   0.0174927
        k(   75) = (   0.1428571   0.5773503   0.1532804), wk =   0.0174927
        k(   76) = (   0.1428571   0.5773503   0.2299206), wk =   0.0174927
        k(   77) = (   0.2142857   0.3711537   0.0000000), wk =   0.0087464
        k(   78) = (   0.2142857   0.3711537   0.0766402), wk =   0.0174927
        k(   79) = (   0.2142857   0.3711537   0.1532804), wk =   0.0174927
        k(   80) = (   0.2142857   0.3711537   0.2299206), wk =   0.0174927
        k(   81) = (   0.2142857   0.4536324   0.0000000), wk =   0.0174927
        k(   82) = (   0.2142857   0.4536324   0.0766402), wk =   0.0349854
        k(   83) = (   0.2142857   0.4536324   0.1532804), wk =   0.0349854
        k(   84) = (   0.2142857   0.4536324   0.2299206), wk =   0.0349854
        k(   85) = (   0.2142857   0.5361110   0.0000000), wk =   0.0174927
        k(   86) = (   0.2142857   0.5361110   0.0766402), wk =   0.0349854
        k(   87) = (   0.2142857   0.5361110   0.1532804), wk =   0.0349854
        k(   88) = (   0.2142857   0.5361110   0.2299206), wk =   0.0349854
        k(   89) = (   0.2857143   0.4948717   0.0000000), wk =   0.0087464
        k(   90) = (   0.2857143   0.4948717   0.0766402), wk =   0.0174927
        k(   91) = (   0.2857143   0.4948717   0.1532804), wk =   0.0174927
        k(   92) = (   0.2857143   0.4948717   0.2299206), wk =   0.0174927
        k(   93) = (   0.2857143   0.5773503   0.0000000), wk =   0.0087464
        k(   94) = (   0.2857143   0.5773503   0.0766402), wk =   0.0174927
        k(   95) = (   0.2857143   0.5773503   0.1532804), wk =   0.0174927
        k(   96) = (   0.2857143   0.5773503   0.2299206), wk =   0.0174927

                       cryst. coord.
        k(    1) = (   0.0000000   0.0000000   0.0000000), wk =   0.0014577
        k(    2) = (   0.0000000   0.0000000   0.1428571), wk =   0.0029155
        k(    3) = (   0.0000000   0.0000000   0.2857143), wk =   0.0029155
        k(    4) = (   0.0000000   0.0000000   0.4285714), wk =   0.0029155
        k(    5) = (   0.0000000   0.0714286   0.0000000), wk =   0.0087464
        k(    6) = (   0.0000000   0.0714286   0.1428571), wk =   0.0174927
        k(    7) = (   0.0000000   0.0714286   0.2857143), wk =   0.0174927
        k(    8) = (   0.0000000   0.0714286   0.4285714), wk =   0.0174927
        k(    9) = (   0.0000000   0.1428571   0.0000000), wk =   0.0087464
        k(   10) = (   0.0000000   0.1428571   0.1428571), wk =   0.0174927
        k(   11) = (   0.0000000   0.1428571   0.2857143), wk =   0.0174927
        k(   12) = (   0.0000000   0.1428571   0.4285714), wk =   0.0174927
        k(   13) = (   0.0000000   0.2142857   0.0000000), wk =   0.0087464
        k(   14) = (   0.0000000   0.2142857   0.1428571), wk =   0.0174927
        k(   15) = (   0.0000000   0.2142857   0.2857143), wk =   0.0174927
        k(   16) = (   0.0000000   0.2142857   0.4285714), wk =   0.0174927
        k(   17) = (   0.0000000   0.2857143   0.0000000), wk =   0.0087464
        k(   18) = (   0.0000000   0.2857143   0.1428571), wk =   0.0174927
        k(   19) = (   0.0000000   0.2857143   0.2857143), wk =   0.0174927
        k(   20) = (   0.0000000   0.2857143   0.4285714), wk =   0.0174927
        k(   21) = (   0.0000000   0.3571429   0.0000000), wk =   0.0087464
        k(   22) = (   0.0000000   0.3571429   0.1428571), wk =   0.0174927
        k(   23) = (   0.0000000   0.3571429   0.2857143), wk =   0.0174927
        k(   24) = (   0.0000000   0.3571429   0.4285714), wk =   0.0174927
        k(   25) = (   0.0000000   0.4285714   0.0000000), wk =   0.0087464
        k(   26) = (   0.0000000   0.4285714   0.1428571), wk =   0.0174927
        k(   27) = (   0.0000000   0.4285714   0.2857143), wk =   0.0174927
        k(   28) = (   0.0000000   0.4285714   0.4285714), wk =   0.0174927
        k(   29) = (   0.0000000  -0.5000000   0.0000000), wk =   0.0043732
        k(   30) = (   0.0000000  -0.5000000   0.1428571), wk =   0.0087464
        k(   31) = (   0.0000000  -0.5000000   0.2857143), wk =   0.0087464
        k(   32) = (   0.0000000  -0.5000000   0.4285714), wk =   0.0087464
        k(   33) = (   0.0714286   0.0714286   0.0000000), wk =   0.0087464
        k(   34) = (   0.0714286   0.0714286   0.1428571), wk =   0.0174927
        k(   35) = (   0.0714286   0.0714286   0.2857143), wk =   0.0174927
        k(   36) = (   0.0714286   0.0714286   0.4285714), wk =   0.0174927
        k(   37) = (   0.0714286   0.1428571   0.0000000), wk =   0.0174927
        k(   38) = (   0.0714286   0.1428571   0.1428571), wk =   0.0349854
        k(   39) = (   0.0714286   0.1428571   0.2857143), wk =   0.0349854
        k(   40) = (   0.0714286   0.1428571   0.4285714), wk =   0.0349854
        k(   41) = (   0.0714286   0.2142857   0.0000000), wk =   0.0174927
        k(   42) = (   0.0714286   0.2142857   0.1428571), wk =   0.0349854
        k(   43) = (   0.0714286   0.2142857   0.2857143), wk =   0.0349854
        k(   44) = (   0.0714286   0.2142857   0.4285714), wk =   0.0349854
        k(   45) = (   0.0714286   0.2857143   0.0000000), wk =   0.0174927
        k(   46) = (   0.0714286   0.2857143   0.1428571), wk =   0.0349854
        k(   47) = (   0.0714286   0.2857143   0.2857143), wk =   0.0349854
        k(   48) = (   0.0714286   0.2857143   0.4285714), wk =   0.0349854
        k(   49) = (   0.0714286   0.3571429   0.0000000), wk =   0.0174927
        k(   50) = (   0.0714286   0.3571429   0.1428571), wk =   0.0349854
        k(   51) = (   0.0714286   0.3571429   0.2857143), wk =   0.0349854
        k(   52) = (   0.0714286   0.3571429   0.4285714), wk =   0.0349854
        k(   53) = (   0.0714286   0.4285714   0.0000000), wk =   0.0174927
        k(   54) = (   0.0714286   0.4285714   0.1428571), wk =   0.0349854
        k(   55) = (   0.0714286   0.4285714   0.2857143), wk =   0.0349854
        k(   56) = (   0.0714286   0.4285714   0.4285714), wk =   0.0349854
        k(   57) = (   0.1428571   0.1428571   0.0000000), wk =   0.0087464
        k(   58) = (   0.1428571   0.1428571   0.1428571), wk =   0.0174927
        k(   59) = (   0.1428571   0.1428571   0.2857143), wk =   0.0174927
        k(   60) = (   0.1428571   0.1428571   0.4285714), wk =   0.0174927
        k(   61) = (   0.1428571   0.2142857   0.0000000), wk =   0.0174927
        k(   62) = (   0.1428571   0.2142857   0.1428571), wk =   0.0349854
        k(   63) = (   0.1428571   0.2142857   0.2857143), wk =   0.0349854
        k(   64) = (   0.1428571   0.2142857   0.4285714), wk =   0.0349854
        k(   65) = (   0.1428571   0.2857143   0.0000000), wk =   0.0174927
        k(   66) = (   0.1428571   0.2857143   0.1428571), wk =   0.0349854
        k(   67) = (   0.1428571   0.2857143   0.2857143), wk =   0.0349854
        k(   68) = (   0.1428571   0.2857143   0.4285714), wk =   0.0349854
        k(   69) = (   0.1428571   0.3571429   0.0000000), wk =   0.0174927
        k(   70) = (   0.1428571   0.3571429   0.1428571), wk =   0.0349854
        k(   71) = (   0.1428571   0.3571429   0.2857143), wk =   0.0349854
        k(   72) = (   0.1428571   0.3571429   0.4285714), wk =   0.0349854
        k(   73) = (   0.1428571   0.4285714   0.0000000), wk =   0.0087464
        k(   74) = (   0.1428571   0.4285714   0.1428571), wk =   0.0174927
        k(   75) = (   0.1428571   0.4285714   0.2857143), wk =   0.0174927
        k(   76) = (   0.1428571   0.4285714   0.4285714), wk =   0.0174927
        k(   77) = (   0.2142857   0.2142857   0.0000000), wk =   0.0087464
        k(   78) = (   0.2142857   0.2142857   0.1428571), wk =   0.0174927
        k(   79) = (   0.2142857   0.2142857   0.2857143), wk =   0.0174927
        k(   80) = (   0.2142857   0.2142857   0.4285714), wk =   0.0174927
        k(   81) = (   0.2142857   0.2857143   0.0000000), wk =   0.0174927
        k(   82) = (   0.2142857   0.2857143   0.1428571), wk =   0.0349854
        k(   83) = (   0.2142857   0.2857143   0.2857143), wk =   0.0349854
        k(   84) = (   0.2142857   0.2857143   0.4285714), wk =   0.0349854
        k(   85) = (   0.2142857   0.3571429   0.0000000), wk =   0.0174927
        k(   86) = (   0.2142857   0.3571429   0.1428571), wk =   0.0349854
        k(   87) = (   0.2142857   0.3571429   0.2857143), wk =   0.0349854
        k(   88) = (   0.2142857   0.3571429   0.4285714), wk =   0.0349854
        k(   89) = (   0.2857143   0.2857143   0.0000000), wk =   0.0087464
        k(   90) = (   0.2857143   0.2857143   0.1428571), wk =   0.0174927
        k(   91) = (   0.2857143   0.2857143   0.2857143), wk =   0.0174927
        k(   92) = (   0.2857143   0.2857143   0.4285714), wk =   0.0174927
        k(   93) = (   0.2857143   0.3571429   0.0000000), wk =   0.0087464
        k(   94) = (   0.2857143   0.3571429   0.1428571), wk =   0.0174927
        k(   95) = (   0.2857143   0.3571429   0.2857143), wk =   0.0174927
        k(   96) = (   0.2857143   0.3571429   0.4285714), wk =   0.0174927

     Dense  grid:    15415 G-vectors     FFT dimensions: (  27,  27,  50)

     Dynamical RAM for                 wfc:       0.05 MB

     Dynamical RAM for     wfc (w. buffer):       4.55 MB

     Dynamical RAM for           str. fact:       0.02 MB

     Dynamical RAM for           local pot:       0.00 MB

     Dynamical RAM for          nlocal pot:       0.11 MB

     Dynamical RAM for                qrad:       1.34 MB

     Dynamical RAM for          rho,v,vnew:       0.15 MB

     Dynamical RAM for               rhoin:       0.05 MB

     Dynamical RAM for            rho*nmix:       0.38 MB

     Dynamical RAM for           G-vectors:       0.10 MB

     Dynamical RAM for          h,s,v(r/c):       0.05 MB

     Dynamical RAM for          <psi|beta>:       0.01 MB

     Dynamical RAM for                 psi:       0.09 MB

     Dynamical RAM for                hpsi:       0.09 MB

     Dynamical RAM for                spsi:       0.09 MB

     Dynamical RAM for      wfcinit/wfcrot:       0.10 MB

     Dynamical RAM for           addusdens:       4.43 MB

     Estimated static dynamical RAM per process >       6.51 MB

     Estimated max dynamical RAM per process >      11.31 MB

     Estimated total dynamical RAM >     113.14 MB

     Check: negative core charge=   -0.000003

     The initial density is read from file :
     ./out/Zn.save/charge-density

     Starting wfcs from file
     Checking if some PAW data can be deallocated... 

     total cpu time spent up to now is        0.5 secs

     Self-consistent Calculation

     iteration #  1     ecut=    70.00 Ry     beta= 0.70
     Davidson diagonalization with overlap

---- Real-time Memory Report at c_bands before calling an iterative solver
            46 MiB given to the printing process from OS
             0 MiB allocation reported by mallinfo(arena+hblkhd)
           458 MiB available memory on the node where the printing process lives
------------------
     ethr =  1.00E-05,  avg # of iterations =  1.0

     Threshold (ethr) on eigenvalues was too large:
     Diagonalizing with lowered threshold

     Davidson diagonalization with overlap

---- Real-time Memory Report at c_bands before calling an iterative solver
            47 MiB given to the printing process from OS
             0 MiB allocation reported by mallinfo(arena+hblkhd)
           466 MiB available memory on the node where the printing process lives
------------------
     ethr =  4.92E-10,  avg # of iterations =  1.0

     total cpu time spent up to now is        3.1 secs

     total energy              =    -487.44557932 Ry
     estimated scf accuracy    <       0.00000012 Ry

     iteration #  2     ecut=    70.00 Ry     beta= 0.70
     Davidson diagonalization with overlap

---- Real-time Memory Report at c_bands before calling an iterative solver
            53 MiB given to the printing process from OS
             0 MiB allocation reported by mallinfo(arena+hblkhd)
           453 MiB available memory on the node where the printing process lives
------------------
     ethr =  4.95E-10,  avg # of iterations =  1.1

     total cpu time spent up to now is        4.4 secs

     End of self-consistent calculation

          k = 0.0000 0.0000 0.0000 (  1933 PWs)   bands (ev):

     1.0671   3.0918   3.8969   4.1584   4.1584   4.2136   4.2136   4.5854
     4.5854   4.8121   4.8121   7.9809   8.8867  25.8236  29.4371  30.0637

     occupation numbers 
     1.0000   1.0000   1.0000   1.0000   1.0000   1.0000   1.0000   1.0000
     1.0000   1.0000   1.0000   1.0000   1.0000   0.0000   0.0000   0.0000

          k = 0.0000 0.0000 0.0766 (  1951 PWs)   bands (ev):

     1.1946   3.0716   3.8988   4.1569   4.1569   4.2076   4.2076   4.6009
     4.6009   4.8042   4.8042   6.6468  10.5053  23.8302  30.1927  30.1927

     occupation numbers 
     1.0000   1.0000   1.0000   1.0000   1.0000   1.0000   1.0000   1.0000
     1.0000   1.0000   1.0000   1.0000   1.0000   0.0000   0.0000   0.0000

          k = 0.0000 0.0000 0.1533 (  1962 PWs)   bands (ev):

     1.5644   2.9747   3.9189   4.1558   4.1558   4.1923   4.1923   4.6412
     4.6412   4.7805   4.7805   5.2861  12.7519  20.8661  30.5659  30.5659

     occupation numbers 
     1.0000   1.0000   1.0000   1.0000   1.0000   1.0000   1.0000   1.0000
     1.0000   1.0000   1.0000   1.0000   0.0000   0.0000   0.0000   0.0000

          k = 0.0000 0.0000 0.2299 (  1962 PWs)   bands (ev):

     2.1182   2.6727   4.0199   4.1611   4.1611   4.1745   4.1745   4.3905
     4.6925   4.6925   4.7419   4.7419  15.2510  17.9683  31.1223  31.1223

     occupation numbers 
     1.0000   1.0000   1.0000   1.0000   1.0000   1.0000   1.0000   1.0000
     1.0000   1.0000   1.0000   1.0000   0.0000   0.0000   0.0000   0.0000

          k = 0.0000 0.0825 0.0000 (  1947 PWs)   bands (ev):

     1.2246   3.1652   3.9143   4.1414   4.1952   4.1978   4.2511   4.5481
     4.5698   4.7102   4.8139   8.2466   8.9637  25.9987  27.3969  28.6880

     occupation numbers 
     1.0000   1.0000   1.0000   1.0000   1.0000   1.0000   1.0000   1.0000
     1.0000   1.0000   1.0000   1.0000   1.0000   0.0000   0.0000   0.0000

          k = 0.0000 0.0825 0.0766 (  1940 PWs)   bands (ev):

     1.3512   3.1495   3.9151   4.1375   4.1876   4.1957   4.2449   4.5677
     4.5867   4.6916   4.8052   6.8533  10.6491  23.9776  27.5512  28.8237

     occupation numbers 
     1.0000   1.0000   1.0000   1.0000   1.0000   1.0000   1.0000   1.0000
     1.0000   1.0000   1.0000   1.0000   1.0000   0.0000   0.0000   0.0000

          k = 0.0000 0.0825 0.1533 (  1956 PWs)   bands (ev):

     1.7178   3.0689   3.9287   4.1331   4.1682   4.1937   4.2294   4.5846
     4.6301   4.6432   4.7793   5.5359  12.9001  21.0108  27.9355  29.2269

     occupation numbers 
     1.0000   1.0000   1.0000   1.0000   1.0000   1.0000   1.0000   1.0000
     1.0000   1.0000   1.0000   1.0000   0.0000   0.0000   0.0000   0.0000

          k = 0.0000 0.0825 0.2299 (  1956 PWs)   bands (ev):

     2.2634   2.7963   4.0059   4.1381   4.1436   4.1984   4.2116   4.3002
     4.6849   4.7134   4.7377   4.8760  15.3985  18.1141  28.5617  29.8848

     occupation numbers 
     1.0000   1.0000   1.0000   1.0000   1.0000   1.0000   1.0000   1.0000
     1.0000   1.0000   1.0000   1.0000   0.0000   0.0000   0.0000   0.0000

          k = 0.0000 0.1650 0.0000 (  1943 PWs)   bands (ev):

     1.6864   3.3522   3.9453   4.1050   4.1775   4.3097   4.3573   4.3834
     4.5288   4.5487   4.8164   8.9563   9.2138  23.9052  26.4844  26.9427

     occupation numbers 
     1.0000   1.0000   1.0000   1.0000   1.0000   1.0000   1.0000   1.0000
     1.0000   1.0000   1.0000   1.0000   1.0000   0.0000   0.0000   0.0000

          k = 0.0000 0.1650 0.0766 (  1936 PWs)   bands (ev):

     1.8092   3.3483   3.9468   4.0932   4.1571   4.3054   4.3503   4.3893
     4.5503   4.5570   4.8059   7.3706  11.0890  23.9459  24.5198  27.0864

     occupation numbers 
     1.0000   1.0000   1.0000   1.0000   1.0000   1.0000   1.0000   1.0000
     1.0000   1.0000   1.0000   1.0000   1.0000   0.0000   0.0000   0.0000

          k = 0.0000 0.1650 0.1533 (  1939 PWs)   bands (ev):

     2.1616   3.3105   3.9498   4.0738   4.1157   4.3000   4.3339   4.3349
     4.6024   4.6236   4.7749   6.0201  13.3442  21.4252  24.4649  27.5145

     occupation numbers 
     1.0000   1.0000   1.0000   1.0000   1.0000   1.0000   1.0000   1.0000
     1.0000   1.0000   1.0000   1.0000   0.0000   0.0000   0.0000   0.0000

          k = 0.0000 0.1650 0.2299 (  1940 PWs)   bands (ev):

     2.6715   3.1245   3.9678   4.0357   4.1056   4.1922   4.3028   4.3156
     4.6658   4.7264   4.7861   5.1621  15.8370  18.5439  25.0987  28.2169

     occupation numbers 
     1.0000   1.0000   1.0000   1.0000   1.0000   1.0000   1.0000   1.0000
     1.0000   1.0000   1.0000   1.0000   0.0000   0.0000   0.0000   0.0000

          k = 0.0000 0.2474 0.0000 (  1937 PWs)   bands (ev):

     2.3991   3.5283   3.9828   4.0661   4.1245   4.2906   4.4334   4.4742
     4.4760   4.5144   4.8155   9.6892   9.9822  20.5583  25.4048  26.2866

     occupation numbers 
     1.0000   1.0000   1.0000   1.0000   1.0000   1.0000   1.0000   1.0000
     1.0000   1.0000   1.0000   1.0000   1.0000   0.0000   0.0000   0.0000

          k = 0.0000 0.2474 0.0766 (  1928 PWs)   bands (ev):

     2.5065   3.5355   3.9805   4.0398   4.1148   4.2808   4.4478   4.4846
     4.4985   4.5297   4.8033   8.1052  11.8368  20.6815  25.0336  25.1433

     occupation numbers 
     1.0000   1.0000   1.0000   1.0000   1.0000   1.0000   1.0000   1.0000
     1.0000   1.0000   1.0000   1.0000   0.5846   0.0000   0.0000   0.0000

          k = 0.0000 0.2474 0.1533 (  1930 PWs)   bands (ev):

     2.8029   3.5400   3.9549   3.9784   4.1143   4.2534   4.4384   4.4846
     4.5862   4.6394   4.7682   6.6861  14.0784  20.9829  22.2531  23.8105

     occupation numbers 
     1.0000   1.0000   1.0000   1.0000   1.0000   1.0000   1.0000   1.0000
     1.0000   1.0000   1.0000   1.0000   0.0000   0.0000   0.0000   0.0000

          k = 0.0000 0.2474 0.2299 (  1930 PWs)   bands (ev):

     3.1856   3.4616   3.9096   3.9223   4.1516   4.2066   4.4455   4.4636
     4.6516   4.7152   4.9667   5.6226  16.5497  19.2077  21.8189  22.6849

     occupation numbers 
     1.0000   1.0000   1.0000   1.0000   1.0000   1.0000   1.0000   1.0000
     1.0000   1.0000   1.0000   1.0000   0.0000   0.0000   0.0000   0.0000

          k = 0.0000 0.3299 0.0000 (  1929 PWs)   bands (ev):

     3.1141   3.5377   3.8956   4.0747   4.2030   4.3224   4.4176   4.6557
     4.6669   4.6944   4.8107  10.4531  11.2544  17.4477  23.2629  24.0542

     occupation numbers 
     1.0000   1.0000   1.0000   1.0000   1.0000   1.0000   1.0000   1.0000
     1.0000   1.0000   1.0000   1.0000   1.0000   0.0000   0.0000   0.0000

          k = 0.0000 0.3299 0.0766 (  1923 PWs)   bands (ev):

     3.1618   3.5460   3.8890   4.0261   4.1761   4.4319   4.4722   4.6648
     4.6690   4.6867   4.8006   9.0722  12.8831  17.5749  22.0833  24.8402

     occupation numbers 
     1.0000   1.0000   1.0000   1.0000   1.0000   1.0000   1.0000   1.0000
     1.0000   1.0000   1.0000   1.0000   0.0000   0.0000   0.0000   0.0000

          k = 0.0000 0.3299 0.1533 (  1925 PWs)   bands (ev):

     3.2792   3.5568   3.8626   3.9101   4.2644   4.4720   4.5421   4.6450
     4.6926   4.7753   4.9172   7.6171  15.0753  17.9481  20.7581  23.0187

     occupation numbers 
     1.0000   1.0000   1.0000   1.0000   1.0000   1.0000   1.0000   1.0000
     1.0000   1.0000   1.0000   1.0000   0.0000   0.0000   0.0000   0.0000

          k = 0.0000 0.3299 0.2299 (  1930 PWs)   bands (ev):

     3.4152   3.5221   3.8282   3.8438   4.3791   4.4779   4.5297   4.5924
     4.7156   4.7445   5.5213   6.4251  17.4318  18.4832  19.7098  20.4084

     occupation numbers 
     1.0000   1.0000   1.0000   1.0000   1.0000   1.0000   1.0000   1.0000
     1.0000   1.0000   1.0000   1.0000   0.0000   0.0000   0.0000   0.0000

          k = 0.0000 0.4124 0.0000 (  1920 PWs)   bands (ev):

     3.3608   3.4715   3.7291   4.1980   4.2254   4.3691   4.4577   4.8042
     4.8438   4.8635   5.6802  11.4903  12.7354  14.6759  20.4236  21.4347

     occupation numbers 
     1.0000   1.0000   1.0000   1.0000   1.0000   1.0000   1.0000   1.0000
     1.0000   1.0000   1.0000   1.0000   0.0000   0.0000   0.0000   0.0000

          k = 0.0000 0.4124 0.0766 (  1923 PWs)   bands (ev):

     3.3573   3.4672   3.7491   4.0496   4.2897   4.3882   4.5845   4.7740
     4.8462   4.8699   5.7641  10.2899  14.1084  14.8415  19.3113  22.6668

     occupation numbers 
     1.0000   1.0000   1.0000   1.0000   1.0000   1.0000   1.0000   1.0000
     1.0000   1.0000   1.0000   1.0000   0.0000   0.0000   0.0000   0.0000

          k = 0.0000 0.4124 0.1533 (  1918 PWs)   bands (ev):

     3.3626   3.4675   3.7625   3.8750   4.4221   4.4426   4.7039   4.7050
     4.8526   4.8735   6.0827   8.8585  15.1005  16.1619  18.1858  23.3989

     occupation numbers 
     1.0000   1.0000   1.0000   1.0000   1.0000   1.0000   1.0000   1.0000
     1.0000   1.0000   1.0000   1.0000   0.0000   0.0000   0.0000   0.0000

          k = 0.0000 0.4124 0.2299 (  1928 PWs)   bands (ev):

     3.3991   3.4488   3.7541   3.7742   4.5231   4.5777   4.6160   4.6908
     4.8613   4.8694   6.7158   7.6522  15.7280  16.4860  19.0949  21.4577

     occupation numbers 
     1.0000   1.0000   1.0000   1.0000   1.0000   1.0000   1.0000   1.0000
     1.0000   1.0000   1.0000   1.0000   0.0000   0.0000   0.0000   0.0000

          k = 0.0000 0.4949 0.0000 (  1894 PWs)   bands (ev):

     3.3480   3.4291   3.6303   4.1589   4.2905   4.3365   4.6103   4.7987
     4.9671   4.9867   7.2988  11.4719  13.5869  14.3586  17.8980  19.1148

     occupation numbers 
     1.0000   1.0000   1.0000   1.0000   1.0000   1.0000   1.0000   1.0000
     1.0000   1.0000   1.0000   1.0000   0.0000   0.0000   0.0000   0.0000

          k = 0.0000 0.4949 0.0766 (  1913 PWs)   bands (ev):

     3.3510   3.3970   3.6659   4.0342   4.3537   4.3577   4.7010   4.7732
     4.9686   4.9868   7.3998  11.1712  12.8504  15.3827  17.2291  20.3365

     occupation numbers 
     1.0000   1.0000   1.0000   1.0000   1.0000   1.0000   1.0000   1.0000
     1.0000   1.0000   1.0000   1.0000   0.0000   0.0000   0.0000   0.0000

          k = 0.0000 0.4949 0.1533 (  1913 PWs)   bands (ev):

     3.3394   3.3874   3.6966   3.8484   4.4180   4.5019   4.7043   4.8047
     4.9725   4.9858   7.7260  10.2118  12.8029  15.0296  18.3462  22.0405

     occupation numbers 
     1.0000   1.0000   1.0000   1.0000   1.0000   1.0000   1.0000   1.0000
     1.0000   1.0000   1.0000   1.0000   0.0000   0.0000   0.0000   0.0000

          k = 0.0000 0.4949 0.2299 (  1918 PWs)   bands (ev):

     3.3504   3.3809   3.6993   3.7297   4.5070   4.6089   4.6767   4.7970
     4.9776   4.9824   8.3141   9.1641  13.2892  14.0698  20.4681  22.3891

     occupation numbers 
     1.0000   1.0000   1.0000   1.0000   1.0000   1.0000   1.0000   1.0000
     1.0000   1.0000   1.0000   1.0000   0.0000   0.0000   0.0000   0.0000

          k = 0.0000-0.5774 0.0000 (  1902 PWs)   bands (ev):

     3.3287   3.4140   3.5978   4.1352   4.3234   4.3250   4.6591   4.7966
     5.0110   5.0323   8.9171   9.7461  14.6344  15.5056  16.2979  17.7347

     occupation numbers 
     1.0000   1.0000   1.0000   1.0000   1.0000   1.0000   1.0000   1.0000
     1.0000   1.0000   1.0000   1.0000   0.0000   0.0000   0.0000   0.0000

          k = 0.0000-0.5774 0.0766 (  1910 PWs)   bands (ev):

     3.3377   3.3706   3.6384   4.0230   4.3469   4.3777   4.7429   4.7713
     5.0125   5.0314   9.0194   9.7924  13.9827  14.2835  17.8019  18.6167

     occupation numbers 
     1.0000   1.0000   1.0000   1.0000   1.0000   1.0000   1.0000   1.0000
     1.0000   1.0000   1.0000   1.0000   0.0000   0.0000   0.0000   0.0000

          k = 0.0000-0.5774 0.1533 (  1904 PWs)   bands (ev):

     3.3268   3.3556   3.6737   3.8377   4.4089   4.5263   4.7021   4.8406
     5.0160   5.0288   9.3144   9.9080  12.9430  13.0783  19.8362  20.3462

     occupation numbers 
     1.0000   1.0000   1.0000   1.0000   1.0000   1.0000   1.0000   1.0000
     1.0000   1.0000   1.0000   1.0000   0.0000   0.0000   0.0000   0.0000

          k = 0.0000-0.5774 0.2299 (  1930 PWs)   bands (ev):

     3.3300   3.3553   3.6798   3.7141   4.5005   4.6050   4.7061   4.8305
     5.0204   5.0249   9.7169   9.9614  12.2506  12.3160  21.8020  22.0441

     occupation numbers 
     1.0000   1.0000   1.0000   1.0000   1.0000   1.0000   1.0000   1.0000
     1.0000   1.0000   1.0000   1.0000   0.0000   0.0000   0.0000   0.0000

          k = 0.0714 0.1237 0.0000 (  1935 PWs)   bands (ev):

     1.5348   3.2976   3.9383   4.1175   4.1586   4.2785   4.3309   4.4678
     4.4947   4.6120   4.8120   8.7310   9.1276  25.6630  25.7587  26.3338

     occupation numbers 
     1.0000   1.0000   1.0000   1.0000   1.0000   1.0000   1.0000   1.0000
     1.0000   1.0000   1.0000   1.0000   1.0000   0.0000   0.0000   0.0000

          k = 0.0714 0.1237 0.0766 (  1936 PWs)   bands (ev):

     1.6591   3.2902   3.9394   4.1057   4.1474   4.2748   4.3239   4.4630
     4.5267   4.6097   4.8026   7.2096  10.9414  24.2464  25.7956  25.9508

     occupation numbers 
     1.0000   1.0000   1.0000   1.0000   1.0000   1.0000   1.0000   1.0000
     1.0000   1.0000   1.0000   1.0000   1.0000   0.0000   0.0000   0.0000

          k = 0.0714 0.1237 0.1533 (  1948 PWs)   bands (ev):

     2.0174   3.2394   3.9450   4.0901   4.1173   4.2693   4.3077   4.3958
     4.6115   4.6276   4.7751   5.8757  13.1965  21.2926  26.1911  26.3230

     occupation numbers 
     1.0000   1.0000   1.0000   1.0000   1.0000   1.0000   1.0000   1.0000
     1.0000   1.0000   1.0000   1.0000   0.0000   0.0000   0.0000   0.0000

          k = 0.0714 0.1237 0.2299 (  1943 PWs)   bands (ev):

     2.5420   3.0250   3.9801   4.0673   4.1024   4.2031   4.2814   4.2902
     4.6749   4.7209   4.7655   5.0743  15.6917  18.4025  26.8385  26.9456

     occupation numbers 
     1.0000   1.0000   1.0000   1.0000   1.0000   1.0000   1.0000   1.0000
     1.0000   1.0000   1.0000   1.0000   0.0000   0.0000   0.0000   0.0000

          k = 0.0714 0.2062 0.0000 (  1936 PWs)   bands (ev):

     2.1293   3.4994   3.9432   4.0822   4.1665   4.2308   4.4145   4.4288
     4.4895   4.5474   4.8064   9.4929   9.5890  22.2959  24.2155  26.8497

     occupation numbers 
     1.0000   1.0000   1.0000   1.0000   1.0000   1.0000   1.0000   1.0000
     1.0000   1.0000   1.0000   1.0000   1.0000   0.0000   0.0000   0.0000

          k = 0.0714 0.2062 0.0766 (  1927 PWs)   bands (ev):

     2.2454   3.5045   3.9507   4.0585   4.1217   4.2410   4.4154   4.4619
     4.4850   4.5678   4.7967   7.8231  11.5378  22.4130  24.2895  24.9214

     occupation numbers 
     1.0000   1.0000   1.0000   1.0000   1.0000   1.0000   1.0000   1.0000
     1.0000   1.0000   1.0000   1.0000   1.0000   0.0000   0.0000   0.0000

          k = 0.0714 0.2062 0.1533 (  1935 PWs)   bands (ev):

     2.5737   3.4998   3.9632   4.0063   4.0547   4.2100   4.4035   4.4611
     4.5943   4.6222   4.7713   6.4289  13.7872  21.7715  22.9206  24.7780

     occupation numbers 
     1.0000   1.0000   1.0000   1.0000   1.0000   1.0000   1.0000   1.0000
     1.0000   1.0000   1.0000   1.0000   0.0000   0.0000   0.0000   0.0000

          k = 0.0714 0.2062 0.2299 (  1940 PWs)   bands (ev):

     3.0269   3.3870   3.9377   3.9505   4.0591   4.1305   4.4142   4.4368
     4.6616   4.7105   4.8917   5.4377  16.2700  18.9604  23.5112  24.3966

     occupation numbers 
     1.0000   1.0000   1.0000   1.0000   1.0000   1.0000   1.0000   1.0000
     1.0000   1.0000   1.0000   1.0000   0.0000   0.0000   0.0000   0.0000

          k = 0.0714 0.2887 0.0000 (  1933 PWs)   bands (ev):

     2.8921   3.6028   3.9933   4.0111   4.0559   4.3258   4.3280   4.4736
     4.6155   4.7387   4.7990  10.1224  10.7285  19.0674  22.9545  24.8702

     occupation numbers 
     1.0000   1.0000   1.0000   1.0000   1.0000   1.0000   1.0000   1.0000
     1.0000   1.0000   1.0000   1.0000   1.0000   0.0000   0.0000   0.0000

          k = 0.0714 0.2887 0.0766 (  1923 PWs)   bands (ev):

     2.9743   3.6143   3.9596   4.0137   4.0465   4.2962   4.4272   4.4708
     4.6323   4.7166   4.8096   8.6679  12.4413  19.1942  23.0802  23.6874

     occupation numbers 
     1.0000   1.0000   1.0000   1.0000   1.0000   1.0000   1.0000   1.0000
     1.0000   1.0000   1.0000   1.0000   0.0000   0.0000   0.0000   0.0000

          k = 0.0714 0.2887 0.1533 (  1927 PWs)   bands (ev):

     3.1852   3.6347   3.8952   3.9504   4.1001   4.2653   4.4742   4.6089
     4.6379   4.7121   4.8693   7.2251  14.6606  19.5578  22.3421  22.6508

     occupation numbers 
     1.0000   1.0000   1.0000   1.0000   1.0000   1.0000   1.0000   1.0000
     1.0000   1.0000   1.0000   1.0000   0.0000   0.0000   0.0000   0.0000

          k = 0.0714 0.2887 0.2299 (  1935 PWs)   bands (ev):

     3.4257   3.5936   3.8564   3.8933   4.1613   4.2190   4.5117   4.5718
     4.7014   4.7311   5.2723   6.0789  17.0998  19.5369  20.5568  21.2332

     occupation numbers 
     1.0000   1.0000   1.0000   1.0000   1.0000   1.0000   1.0000   1.0000
     1.0000   1.0000   1.0000   1.0000   0.0000   0.0000   0.0000   0.0000

          k = 0.0714 0.3712 0.0000 (  1923 PWs)   bands (ev):

     3.3798   3.5505   3.8060   4.1422   4.2456   4.2629   4.3997   4.6080
     4.7902   4.7937   5.3072  11.0608  12.1003  16.1035  21.8831  22.0002

     occupation numbers 
     1.0000   1.0000   1.0000   1.0000   1.0000   1.0000   1.0000   1.0000
     1.0000   1.0000   1.0000   1.0000   0.0001   0.0000   0.0000   0.0000

          k = 0.0714 0.3712 0.0766 (  1925 PWs)   bands (ev):

     3.3864   3.5566   3.8199   4.0294   4.2104   4.4071   4.4763   4.6021
     4.7606   4.8059   5.3650   9.7747  13.6212  16.2319  20.7555  22.1051

     occupation numbers 
     1.0000   1.0000   1.0000   1.0000   1.0000   1.0000   1.0000   1.0000
     1.0000   1.0000   1.0000   1.0000   0.0000   0.0000   0.0000   0.0000

          k = 0.0714 0.3712 0.1533 (  1924 PWs)   bands (ev):

     3.4163   3.5673   3.8210   3.8873   4.2923   4.4499   4.5577   4.6824
     4.7021   4.8262   5.6195   8.3280  15.7433  16.6164  19.4649  22.4831

     occupation numbers 
     1.0000   1.0000   1.0000   1.0000   1.0000   1.0000   1.0000   1.0000
     1.0000   1.0000   1.0000   1.0000   0.0000   0.0000   0.0000   0.0000

          k = 0.0714 0.3712 0.2299 (  1926 PWs)   bands (ev):

     3.4763   3.5438   3.7975   3.8182   4.4050   4.4882   4.5261   4.5961
     4.7984   4.8326   6.2079   7.1259  17.1906  17.6150  18.8964  20.9790

     occupation numbers 
     1.0000   1.0000   1.0000   1.0000   1.0000   1.0000   1.0000   1.0000
     1.0000   1.0000   1.0000   1.0000   0.0000   0.0000   0.0000   0.0000

          k = 0.0714 0.4536 0.0000 (  1925 PWs)   bands (ev):

     3.4177   3.4976   3.6813   4.1804   4.2550   4.3414   4.4920   4.7820
     4.8361   4.9235   6.6098  12.0424  13.6642  13.7253  19.2155  20.3254

     occupation numbers 
     1.0000   1.0000   1.0000   1.0000   1.0000   1.0000   1.0000   1.0000
     1.0000   1.0000   1.0000   0.0023   0.0000   0.0000   0.0000   0.0000

          k = 0.0714 0.4536 0.0766 (  1917 PWs)   bands (ev):

     3.4156   3.4736   3.7191   4.0391   4.2985   4.3787   4.6039   4.7545
     4.8335   4.9272   6.7080  11.0628  13.5978  15.0498  18.1947  21.4190

     occupation numbers 
     1.0000   1.0000   1.0000   1.0000   1.0000   1.0000   1.0000   1.0000
     1.0000   1.0000   1.0000   1.0000   0.0000   0.0000   0.0000   0.0000

          k = 0.0714 0.4536 0.1533 (  1915 PWs)   bands (ev):

     3.4039   3.4711   3.7492   3.8620   4.3660   4.4898   4.6821   4.7263
     4.8358   4.9327   7.0349   9.7080  13.9487  16.1131  17.8879  21.8357

     occupation numbers 
     1.0000   1.0000   1.0000   1.0000   1.0000   1.0000   1.0000   1.0000
     1.0000   1.0000   1.0000   1.0000   0.0000   0.0000   0.0000   0.0000

          k = 0.0714 0.4536 0.2299 (  1921 PWs)   bands (ev):

     3.4224   3.4612   3.7431   3.7598   4.4680   4.5788   4.6197   4.7126
     4.8834   4.9223   7.6431   8.5433  14.5500  15.3633  19.8344  22.0136

     occupation numbers 
     1.0000   1.0000   1.0000   1.0000   1.0000   1.0000   1.0000   1.0000
     1.0000   1.0000   1.0000   1.0000   0.0000   0.0000   0.0000   0.0000

          k = 0.0714 0.5361 0.0000 (  1910 PWs)   bands (ev):

     3.3796   3.4704   3.6199   4.1442   4.3095   4.3178   4.6057   4.7770
     4.9526   4.9825   8.3789  10.6173  14.3205  15.2484  16.9418  18.2735

     occupation numbers 
     1.0000   1.0000   1.0000   1.0000   1.0000   1.0000   1.0000   1.0000
     1.0000   1.0000   1.0000   1.0000   0.0000   0.0000   0.0000   0.0000

          k = 0.0714 0.5361 0.0766 (  1913 PWs)   bands (ev):

     3.3882   3.4234   3.6685   4.0296   4.3000   4.3991   4.6960   4.7502
     4.9492   4.9817   8.4814  10.6325  13.3765  15.1417  17.4187  19.3885

     occupation numbers 
     1.0000   1.0000   1.0000   1.0000   1.0000   1.0000   1.0000   1.0000
     1.0000   1.0000   1.0000   1.0000   0.0000   0.0000   0.0000   0.0000

          k = 0.0714 0.5361 0.1533 (  1914 PWs)   bands (ev):

     3.3755   3.4118   3.7074   3.8484   4.3547   4.5437   4.6758   4.8127
     4.9377   4.9765   8.7959  10.5246  12.5034  14.0787  19.2488  21.1887

     occupation numbers 
     1.0000   1.0000   1.0000   1.0000   1.0000   1.0000   1.0000   1.0000
     1.0000   1.0000   1.0000   1.0000   0.0000   0.0000   0.0000   0.0000

          k = 0.0714 0.5361 0.2299 (  1915 PWs)   bands (ev):

     3.3821   3.4112   3.7082   3.7326   4.4551   4.5704   4.7069   4.8213
     4.9397   4.9620   9.3230   9.9954  12.4870  13.1117  21.3109  22.1435

     occupation numbers 
     1.0000   1.0000   1.0000   1.0000   1.0000   1.0000   1.0000   1.0000
     1.0000   1.0000   1.0000   1.0000   0.0000   0.0000   0.0000   0.0000

          k = 0.1429 0.2474 0.0000 (  1933 PWs)   bands (ev):

     2.8052   3.6828   3.8843   4.0433   4.0670   4.1913   4.3069   4.5141
     4.6091   4.7585   4.7836  10.0192  10.5495  20.8386  21.0395  26.6187

     occupation numbers 
     1.0000   1.0000   1.0000   1.0000   1.0000   1.0000   1.0000   1.0000
     1.0000   1.0000   1.0000   1.0000   1.0000   0.0000   0.0000   0.0000

          k = 0.1429 0.2474 0.0766 (  1927 PWs)   bands (ev):

     2.8997   3.6983   3.8948   3.9855   4.0993   4.1204   4.4120   4.4893
     4.6390   4.7125   4.8174   8.5365  12.2950  20.9736  21.1565  25.3928

     occupation numbers 
     1.0000   1.0000   1.0000   1.0000   1.0000   1.0000   1.0000   1.0000
     1.0000   1.0000   1.0000   1.0000   0.0000   0.0000   0.0000   0.0000

          k = 0.1429 0.2474 0.1533 (  1929 PWs)   bands (ev):

     3.1518   3.7360   3.8963   3.9268   4.0245   4.0991   4.4722   4.5986
     4.6511   4.6848   4.8876   7.1026  14.5218  21.3760  21.3948  22.7516

     occupation numbers 
     1.0000   1.0000   1.0000   1.0000   1.0000   1.0000   1.0000   1.0000
     1.0000   1.0000   1.0000   1.0000   0.0000   0.0000   0.0000   0.0000

          k = 0.1429 0.2474 0.2299 (  1933 PWs)   bands (ev):

     3.4598   3.6925   3.8570   3.9294   3.9834   4.0495   4.5018   4.5647
     4.7191   4.7223   5.2271   5.9826  16.9772  19.6032  22.0373  22.3491

     occupation numbers 
     1.0000   1.0000   1.0000   1.0000   1.0000   1.0000   1.0000   1.0000
     1.0000   1.0000   1.0000   1.0000   0.0000   0.0000   0.0000   0.0000

          k = 0.1429 0.3299 0.0000 (  1929 PWs)   bands (ev):

     3.4687   3.7084   3.8741   3.9524   4.0951   4.2244   4.3244   4.4452
     4.7604   4.7838   5.2730  10.8525  11.7780  17.8418  19.8525  23.6758

     occupation numbers 
     1.0000   1.0000   1.0000   1.0000   1.0000   1.0000   1.0000   1.0000
     1.0000   1.0000   1.0000   1.0000   0.8615   0.0000   0.0000   0.0000

          k = 0.1429 0.3299 0.0766 (  1932 PWs)   bands (ev):

     3.4932   3.7242   3.8553   3.9595   4.0611   4.2396   4.4161   4.4404
     4.7310   4.7988   5.3208   9.5260  13.3507  17.9716  19.9830  22.4844

     occupation numbers 
     1.0000   1.0000   1.0000   1.0000   1.0000   1.0000   1.0000   1.0000
     1.0000   1.0000   1.0000   1.0000   0.0000   0.0000   0.0000   0.0000

          k = 0.1429 0.3299 0.1533 (  1924 PWs)   bands (ev):

     3.5535   3.7645   3.8002   3.9643   4.0544   4.2143   4.4410   4.6329
     4.6572   4.8263   5.5214   8.0836  15.5256  18.3531  20.3583  21.1541

     occupation numbers 
     1.0000   1.0000   1.0000   1.0000   1.0000   1.0000   1.0000   1.0000
     1.0000   1.0000   1.0000   1.0000   0.0000   0.0000   0.0000   0.0000

          k = 0.1429 0.3299 0.2299 (  1925 PWs)   bands (ev):

     3.6292   3.7096   3.8445   3.9155   4.1055   4.1648   4.4847   4.5653
     4.7873   4.8351   6.0320   6.9034  17.8705  18.9138  20.0767  20.5133

     occupation numbers 
     1.0000   1.0000   1.0000   1.0000   1.0000   1.0000   1.0000   1.0000
     1.0000   1.0000   1.0000   1.0000   0.0000   0.0000   0.0000   0.0000

          k = 0.1429 0.4124 0.0000 (  1935 PWs)   bands (ev):

     3.5964   3.6536   3.7499   4.1712   4.2030   4.2490   4.3609   4.5419
     4.7416   4.8993   6.3125  11.9826  13.2348  15.0590  19.0402  20.8467

     occupation numbers 
     1.0000   1.0000   1.0000   1.0000   1.0000   1.0000   1.0000   1.0000
     1.0000   1.0000   1.0000   0.0255   0.0000   0.0000   0.0000   0.0000

          k = 0.1429 0.4124 0.0766 (  1928 PWs)   bands (ev):

     3.5851   3.6330   3.8038   4.0090   4.2017   4.3751   4.4415   4.5380
     4.7125   4.9077   6.4041  10.7952  14.6047  15.2222  19.1704  19.7207

     occupation numbers 
     1.0000   1.0000   1.0000   1.0000   1.0000   1.0000   1.0000   1.0000
     1.0000   1.0000   1.0000   1.0000   0.0000   0.0000   0.0000   0.0000

          k = 0.1429 0.4124 0.1533 (  1920 PWs)   bands (ev):

     3.5604   3.6506   3.8229   3.8870   4.2341   4.4106   4.4988   4.6331
     4.6767   4.9199   6.7136   9.3817  15.5180  16.6384  18.5478  19.5774

     occupation numbers 
     1.0000   1.0000   1.0000   1.0000   1.0000   1.0000   1.0000   1.0000
     1.0000   1.0000   1.0000   1.0000   0.0000   0.0000   0.0000   0.0000

          k = 0.1429 0.4124 0.2299 (  1912 PWs)   bands (ev):

     3.5784   3.6315   3.8004   3.8426   4.3248   4.4145   4.4859   4.5444
     4.8294   4.9048   7.3056   8.2024  16.1511  16.9370  19.4151  20.1791

     occupation numbers 
     1.0000   1.0000   1.0000   1.0000   1.0000   1.0000   1.0000   1.0000
     1.0000   1.0000   1.0000   1.0000   0.0000   0.0000   0.0000   0.0000

          k = 0.1429 0.4949 0.0000 (  1918 PWs)   bands (ev):

     3.5264   3.6255   3.6766   4.1501   4.2861   4.2993   4.4333   4.7289
     4.7498   4.9325   7.8911  12.0329  13.9690  14.8565  18.2767  18.5748

     occupation numbers 
     1.0000   1.0000   1.0000   1.0000   1.0000   1.0000   1.0000   1.0000
     1.0000   1.0000   1.0000   0.0035   0.0000   0.0000   0.0000   0.0000

          k = 0.1429 0.4949 0.0766 (  1924 PWs)   bands (ev):

     3.5342   3.5604   3.7565   4.0303   4.2357   4.3932   4.5433   4.6983
     4.7431   4.9355   7.9990  11.7838  13.1930  15.9005  17.5814  18.6859

     occupation numbers 
     1.0000   1.0000   1.0000   1.0000   1.0000   1.0000   1.0000   1.0000
     1.0000   1.0000   1.0000   0.8415   0.0000   0.0000   0.0000   0.0000

          k = 0.1429 0.4949 0.1533 (  1924 PWs)   bands (ev):

     3.5090   3.5683   3.8068   3.8665   4.2519   4.5069   4.6087   4.6985
     4.7272   4.9346   8.3359  10.8263  13.1599  15.4910  18.7197  19.0913

     occupation numbers 
     1.0000   1.0000   1.0000   1.0000   1.0000   1.0000   1.0000   1.0000
     1.0000   1.0000   1.0000   1.0000   0.0000   0.0000   0.0000   0.0000

          k = 0.1429 0.4949 0.2299 (  1915 PWs)   bands (ev):

     3.5224   3.5659   3.7782   3.7935   4.3515   4.4820   4.6110   4.6771
     4.8290   4.9054   8.9256   9.7729  13.6813  14.4928  19.7367  20.3963

     occupation numbers 
     1.0000   1.0000   1.0000   1.0000   1.0000   1.0000   1.0000   1.0000
     1.0000   1.0000   1.0000   1.0000   0.0000   0.0000   0.0000   0.0000

          k = 0.1429 0.5774 0.0000 (  1918 PWs)   bands (ev):

     3.4994   3.6094   3.6525   4.1493   4.2527   4.3315   4.4958   4.7244
     4.8697   4.8928   9.5798  10.1774  15.1527  16.0436  16.6296  18.0748

     occupation numbers 
     1.0000   1.0000   1.0000   1.0000   1.0000   1.0000   1.0000   1.0000
     1.0000   1.0000   1.0000   1.0000   0.0000   0.0000   0.0000   0.0000

          k = 0.1429 0.5774 0.0766 (  1926 PWs)   bands (ev):

     3.5115   3.5344   3.7381   4.0390   4.2164   4.4198   4.5848   4.6937
     4.8666   4.8907   9.6936  10.2458  14.4639  14.7150  18.2151  18.5320

     occupation numbers 
     1.0000   1.0000   1.0000   1.0000   1.0000   1.0000   1.0000   1.0000
     1.0000   1.0000   1.0000   1.0000   0.0000   0.0000   0.0000   0.0000

          k = 0.1429 0.5774 0.1533 (  1917 PWs)   bands (ev):

     3.4893   3.5384   3.7904   3.8696   4.2376   4.5647   4.6007   4.7094
     4.8569   4.8773  10.0168  10.4348  13.3682  13.4559  18.9197  20.2872

     occupation numbers 
     1.0000   1.0000   1.0000   1.0000   1.0000   1.0000   1.0000   1.0000
     1.0000   1.0000   1.0000   1.0000   0.0000   0.0000   0.0000   0.0000

          k = 0.1429 0.5774 0.2299 (  1912 PWs)   bands (ev):

     3.5014   3.5409   3.7720   3.7766   4.3417   4.4768   4.7057   4.7709
     4.8399   4.8399  10.4431  10.6191  12.5891  12.6341  19.5806  20.4364

     occupation numbers 
     1.0000   1.0000   1.0000   1.0000   1.0000   1.0000   1.0000   1.0000
     1.0000   1.0000   1.0000   1.0000   0.0000   0.0000   0.0000   0.0000

          k = 0.2143 0.3712 0.0000 (  1921 PWs)   bands (ev):

     3.7590   3.7860   3.8320   3.9770   4.1530   4.1636   4.3800   4.3878
     4.7177   4.8947   6.2426  11.9157  13.0903  16.7976  17.0208  22.6561

     occupation numbers 
     1.0000   1.0000   1.0000   1.0000   1.0000   1.0000   1.0000   1.0000
     1.0000   1.0000   1.0000   0.1690   0.0000   0.0000   0.0000   0.0000

          k = 0.2143 0.3712 0.0766 (  1923 PWs)   bands (ev):

     3.7470   3.7734   3.8796   3.8890   4.1497   4.2229   4.3762   4.4619
     4.6885   4.9048   6.3310  10.6943  14.5419  16.9316  17.1500  21.4256

     occupation numbers 
     1.0000   1.0000   1.0000   1.0000   1.0000   1.0000   1.0000   1.0000
     1.0000   1.0000   1.0000   1.0000   0.0000   0.0000   0.0000   0.0000

          k = 0.2143 0.3712 0.1533 (  1928 PWs)   bands (ev):

     3.7116   3.7625   3.8324   3.9616   4.1168   4.2272   4.3842   4.6080
     4.6615   4.9193   6.6305   9.2747  16.6180  17.3346  17.5287  20.0513

     occupation numbers 
     1.0000   1.0000   1.0000   1.0000   1.0000   1.0000   1.0000   1.0000
     1.0000   1.0000   1.0000   1.0000   0.0000   0.0000   0.0000   0.0000

          k = 0.2143 0.3712 0.2299 (  1923 PWs)   bands (ev):

     3.6976   3.7117   3.8957   3.9622   4.1295   4.1856   4.4294   4.5128
     4.8247   4.9045   7.2098   8.0980  17.9788  18.1100  18.4106  18.8990

     occupation numbers 
     1.0000   1.0000   1.0000   1.0000   1.0000   1.0000   1.0000   1.0000
     1.0000   1.0000   1.0000   1.0000   0.0000   0.0000   0.0000   0.0000

          k = 0.2143 0.4536 0.0000 (  1925 PWs)   bands (ev):

     3.7257   3.7331   3.8167   4.1245   4.1916   4.2713   4.2929   4.5271
     4.6841   4.9154   7.6712  13.1285  14.4175  14.6268  16.2686  20.0574

     occupation numbers 
     1.0000   1.0000   1.0000   1.0000   1.0000   1.0000   1.0000   1.0000
     1.0000   1.0000   1.0000   0.0000   0.0000   0.0000   0.0000   0.0000

          k = 0.2143 0.4536 0.0766 (  1927 PWs)   bands (ev):

     3.6949   3.7415   3.8725   3.9908   4.1876   4.3203   4.3643   4.5538
     4.6534   4.9224   7.7811  12.1099  14.3905  15.9643  16.4051  18.9746

     occupation numbers 
     1.0000   1.0000   1.0000   1.0000   1.0000   1.0000   1.0000   1.0000
     1.0000   1.0000   1.0000   0.0001   0.0000   0.0000   0.0000   0.0000

          k = 0.2143 0.4536 0.1533 (  1926 PWs)   bands (ev):

     3.6649   3.7801   3.8380   3.9623   4.1473   4.3528   4.4154   4.5743
     4.6799   4.9287   8.1243  10.7573  14.7587  16.7766  17.0935  18.4385

     occupation numbers 
     1.0000   1.0000   1.0000   1.0000   1.0000   1.0000   1.0000   1.0000
     1.0000   1.0000   1.0000   1.0000   0.0000   0.0000   0.0000   0.0000

          k = 0.2143 0.4536 0.2299 (  1919 PWs)   bands (ev):

     3.6747   3.7283   3.8598   3.9323   4.2134   4.3150   4.4388   4.4916
     4.8200   4.9032   8.7291   9.6107  15.3848  16.2322  17.4458  18.2766

     occupation numbers 
     1.0000   1.0000   1.0000   1.0000   1.0000   1.0000   1.0000   1.0000
     1.0000   1.0000   1.0000   1.0000   0.0000   0.0000   0.0000   0.0000

          k = 0.2143 0.5361 0.0000 (  1920 PWs)   bands (ev):

     3.6852   3.7096   3.7989   4.1417   4.2092   4.2940   4.3324   4.6660
     4.6935   4.8531   9.4697  11.6100  15.2003  15.9305  16.2505  17.7514

     occupation numbers 
     1.0000   1.0000   1.0000   1.0000   1.0000   1.0000   1.0000   1.0000
     1.0000   1.0000   1.0000   0.9998   0.0000   0.0000   0.0000   0.0000

          k = 0.2143 0.5361 0.0766 (  1923 PWs)   bands (ev):

     3.6675   3.6998   3.8680   4.0361   4.1472   4.3715   4.4112   4.6339
     4.6995   4.8594   9.5845  11.6807  14.2016  15.9636  16.2110  18.1688

     occupation numbers 
     1.0000   1.0000   1.0000   1.0000   1.0000   1.0000   1.0000   1.0000
     1.0000   1.0000   1.0000   0.9943   0.0000   0.0000   0.0000   0.0000

          k = 0.2143 0.5361 0.1533 (  1922 PWs)   bands (ev):

     3.6400   3.7364   3.8891   3.9440   4.1099   4.4294   4.4998   4.5728
     4.7296   4.8668   9.9295  11.7408  13.1843  14.9434  16.4821  18.9821

     occupation numbers 
     1.0000   1.0000   1.0000   1.0000   1.0000   1.0000   1.0000   1.0000
     1.0000   1.0000   1.0000   0.9494   0.0000   0.0000   0.0000   0.0000

          k = 0.2143 0.5361 0.2299 (  1917 PWs)   bands (ev):

     3.6618   3.7271   3.8401   3.9025   4.2101   4.3495   4.5385   4.5624
     4.7951   4.8500  10.4989  11.2330  13.1860  13.9090  17.1289  18.0075

     occupation numbers 
     1.0000   1.0000   1.0000   1.0000   1.0000   1.0000   1.0000   1.0000
     1.0000   1.0000   1.0000   1.0000   0.0000   0.0000   0.0000   0.0000

          k = 0.2857 0.4949 0.0000 (  1935 PWs)   bands (ev):

     3.7427   3.8334   3.9020   4.1135   4.1516   4.2119   4.3179   4.5864
     4.6392   4.8444   9.3565  13.3950  13.7643  15.2516  16.2302  19.3732

     occupation numbers 
     1.0000   1.0000   1.0000   1.0000   1.0000   1.0000   1.0000   1.0000
     1.0000   1.0000   1.0000   0.0000   0.0000   0.0000   0.0000   0.0000

          k = 0.2857 0.4949 0.0766 (  1929 PWs)   bands (ev):

     3.7404   3.8438   3.9335   3.9985   4.1674   4.2472   4.3430   4.6068
     4.6167   4.8535   9.4745  13.2452  13.8984  14.4008  17.2162  18.2816

     occupation numbers 
     1.0000   1.0000   1.0000   1.0000   1.0000   1.0000   1.0000   1.0000
     1.0000   1.0000   1.0000   0.0000   0.0000   0.0000   0.0000   0.0000

          k = 0.2857 0.4949 0.1533 (  1921 PWs)   bands (ev):

     3.7422   3.8586   3.9049   4.0157   4.0879   4.2861   4.3771   4.5293
     4.7010   4.8662   9.8323  12.3435  14.2938  14.3296  16.8461  16.9038

     occupation numbers 
     1.0000   1.0000   1.0000   1.0000   1.0000   1.0000   1.0000   1.0000
     1.0000   1.0000   1.0000   0.0000   0.0000   0.0000   0.0000   0.0000

          k = 0.2857 0.4949 0.2299 (  1919 PWs)   bands (ev):

     3.7594   3.8009   3.9385   4.0058   4.1301   4.2375   4.4092   4.4539
     4.7953   4.8533  10.4378  11.2900  14.8552  14.9119  15.8071  15.8737

     occupation numbers 
     1.0000   1.0000   1.0000   1.0000   1.0000   1.0000   1.0000   1.0000
     1.0000   1.0000   1.0000   1.0000   0.0000   0.0000   0.0000   0.0000

          k = 0.2857 0.5774 0.0000 (  1922 PWs)   bands (ev):

     3.7515   3.8723   3.9349   4.1196   4.1385   4.1502   4.3473   4.6223
     4.6750   4.7501  11.2774  11.4095  13.4786  16.6144  17.5810  17.7871

     occupation numbers 
     1.0000   1.0000   1.0000   1.0000   1.0000   1.0000   1.0000   1.0000
     1.0000   1.0000   1.0000   1.0000   0.0000   0.0000   0.0000   0.0000

          k = 0.2857 0.5774 0.0766 (  1921 PWs)   bands (ev):

     3.7610   3.8792   3.9386   4.0413   4.1264   4.2072   4.3635   4.5896
     4.6938   4.7658  11.4066  11.5097  13.5892  15.8737  16.0807  17.9685

     occupation numbers 
     1.0000   1.0000   1.0000   1.0000   1.0000   1.0000   1.0000   1.0000
     1.0000   1.0000   1.0000   1.0000   0.0000   0.0000   0.0000   0.0000

          k = 0.2857 0.5774 0.1533 (  1915 PWs)   bands (ev):

     3.7800   3.8883   3.9596   3.9613   4.1119   4.2381   4.3888   4.5105
     4.7416   4.7967  11.7755  11.8062  13.8326  14.6964  14.8879  16.7557

     occupation numbers 
     1.0000   1.0000   1.0000   1.0000   1.0000   1.0000   1.0000   1.0000
     1.0000   1.0000   0.8696   0.7482   0.0000   0.0000   0.0000   0.0000

          k = 0.2857 0.5774 0.2299 (  1915 PWs)   bands (ev):

     3.8054   3.8492   3.9556   3.9735   4.1427   4.2118   4.4074   4.4384
     4.7906   4.8113  12.2345  12.2635  13.5553  13.7230  14.8719  15.6764

     occupation numbers 
     1.0000   1.0000   1.0000   1.0000   1.0000   1.0000   1.0000   1.0000
     1.0000   1.0000   0.0000   0.0000   0.0000   0.0000   0.0000   0.0000

     the Fermi energy is    11.8512 ev

!    total energy              =    -487.44557932 Ry
     total all-electron energy =     -7184.239625 Ry
     estimated scf accuracy    <       0.00000001 Ry
     smearing contrib. (-TS)   =      -0.00017931 Ry
     internal energy E=F+TS    =    -487.44540001 Ry

     The total energy is F=E-TS. E is the sum of the following terms:
     one-electron contribution =    -111.39117682 Ry
     hartree contribution      =      89.55295256 Ry
     xc contribution           =     -94.40447119 Ry
     ewald contribution        =    -180.32404734 Ry
     one-center paw contrib.   =    -190.87865722 Ry
      -> PAW hartree energy AE =     122.78063027 Ry
      -> PAW hartree energy PS =    -122.15983065 Ry
      -> PAW xc energy AE      =    -143.12988717 Ry
      -> PAW xc energy PS      =      47.06975894 Ry
      -> total E_H with PAW    =      90.17375218 Ry
      -> total E_XC with PAW   =    -190.46459942 Ry

     convergence has been achieved in   2 iterations

     Writing all to output data dir ./out/Zn.save/

     init_run     :      0.35s CPU      0.39s WALL (       1 calls)
     electrons    :      3.71s CPU      3.88s WALL (       1 calls)

     Called by init_run:
     wfcinit      :      0.10s CPU      0.11s WALL (       1 calls)
     potinit      :      0.10s CPU      0.12s WALL (       1 calls)
     hinit0       :      0.12s CPU      0.13s WALL (       1 calls)

     Called by electrons:
     c_bands      :      2.94s CPU      3.01s WALL (       3 calls)
     sum_band     :      0.56s CPU      0.59s WALL (       3 calls)
     v_of_rho     :      0.01s CPU      0.01s WALL (       3 calls)
     v_h          :      0.00s CPU      0.00s WALL (       3 calls)
     v_xc         :      0.01s CPU      0.01s WALL (       3 calls)
     newd         :      0.03s CPU      0.04s WALL (       3 calls)
     PAW_pot      :      0.28s CPU      0.33s WALL (       3 calls)
     mix_rho      :      0.00s CPU      0.00s WALL (       3 calls)

     Called by c_bands:
     init_us_2    :      0.05s CPU      0.05s WALL (     576 calls)
     init_us_2:cp :      0.05s CPU      0.05s WALL (     576 calls)
     cegterg      :      2.80s CPU      2.86s WALL (     288 calls)

     Called by sum_band:
     sum_band:wei :      0.00s CPU      0.00s WALL (       3 calls)
     sum_band:loo :      0.53s CPU      0.55s WALL (       3 calls)
     sum_band:buf :      0.01s CPU      0.01s WALL (     288 calls)
     sum_band:ini :      0.02s CPU      0.02s WALL (     288 calls)
     sum_band:cal :      0.10s CPU      0.10s WALL (     288 calls)
     sum_band:bec :      0.01s CPU      0.01s WALL (     288 calls)
     addusdens    :      0.03s CPU      0.04s WALL (       3 calls)
                                        0.00s GPU  (       3 calls)
     addusd:skk   :      0.00s CPU      0.00s WALL (       3 calls)
                                        0.00s GPU  (       3 calls)

     Called by *egterg:
     cdiaghg      :      0.16s CPU      0.16s WALL (     391 calls)
     cegterg:over :      0.20s CPU      0.20s WALL (     295 calls)
     cegterg:upda :      0.07s CPU      0.08s WALL (     295 calls)
     cegterg:last :      0.08s CPU      0.08s WALL (     295 calls)
     h_psi        :      1.95s CPU      1.99s WALL (     583 calls)
     s_psi        :      0.18s CPU      0.18s WALL (     583 calls)
     g_psi        :      0.01s CPU      0.01s WALL (     295 calls)

     Called by h_psi:
     h_psi:calbec :      0.21s CPU      0.22s WALL (     583 calls)
     vloc_psi     :      1.55s CPU      1.58s WALL (     583 calls)
     add_vuspsi   :      0.18s CPU      0.18s WALL (     583 calls)

     General routines
     calbec       :      0.31s CPU      0.32s WALL (     871 calls)
     fft          :      0.06s CPU      0.06s WALL (      34 calls)
     ffts         :      0.00s CPU      0.00s WALL (       3 calls)
     fftw         :      1.68s CPU      1.72s WALL (   23056 calls)

     Parallel routines

     PAW routines
     PAW_pot      :      0.28s CPU      0.33s WALL (       3 calls)
     PAW_symme    :      0.00s CPU      0.00s WALL (       5 calls)

     PWSCF        :      4.31s CPU      4.64s WALL


   This run was terminated on:   9:23:54  16Feb2024            

=------------------------------------------------------------------------------=
   JOB DONE.
=------------------------------------------------------------------------------=
