# E (eV) pdos(E) 
 -7.452  0.458E+00
 -7.442  0.140E+01
 -7.432  0.263E+01
 -7.422  0.344E+01
 -7.412  0.379E+01
 -7.402  0.378E+01
 -7.392  0.378E+01
 -7.382  0.386E+01
 -7.372  0.400E+01
 -7.362  0.438E+01
 -7.352  0.493E+01
 -7.342  0.546E+01
 -7.332  0.617E+01
 -7.322  0.704E+01
 -7.312  0.783E+01
 -7.302  0.825E+01
 -7.292  0.865E+01
 -7.282  0.930E+01
 -7.272  0.105E+02
 -7.262  0.113E+02
 -7.252  0.113E+02
 -7.242  0.114E+02
 -7.232  0.114E+02
 -7.222  0.113E+02
 -7.212  0.110E+02
 -7.202  0.107E+02
 -7.192  0.106E+02
 -7.182  0.107E+02
 -7.172  0.114E+02
 -7.162  0.121E+02
 -7.152  0.126E+02
 -7.142  0.149E+02
 -7.132  0.170E+02
 -7.122  0.173E+02
 -7.112  0.164E+02
 -7.102  0.149E+02
 -7.092  0.151E+02
 -7.082  0.155E+02
 -7.072  0.161E+02
 -7.062  0.168E+02
 -7.052  0.171E+02
 -7.042  0.171E+02
 -7.032  0.167E+02
 -7.022  0.169E+02
 -7.012  0.175E+02
 -7.002  0.183E+02
 -6.992  0.188E+02
 -6.982  0.188E+02
 -6.972  0.195E+02
 -6.962  0.233E+02
 -6.952  0.301E+02
 -6.942  0.334E+02
 -6.932  0.361E+02
 -6.922  0.356E+02
 -6.912  0.327E+02
 -6.902  0.316E+02
 -6.892  0.305E+02
 -6.882  0.296E+02
 -6.872  0.340E+02
 -6.862  0.336E+02
 -6.852  0.287E+02
 -6.842  0.250E+02
 -6.832  0.223E+02
 -6.822  0.209E+02
 -6.812  0.209E+02
 -6.802  0.389E+02
 -6.792  0.356E+02
 -6.782  0.469E+02
 -6.772  0.368E+02
 -6.762  0.645E+02
 -6.752  0.595E+02
 -6.742  0.514E+02
 -6.732  0.482E+02
 -6.722  0.635E+02
 -6.712  0.663E+02
 -6.702  0.682E+02
 -6.692  0.838E+02
 -6.682  0.802E+02
 -6.672  0.748E+02
 -6.662  0.722E+02
 -6.652  0.852E+02
 -6.642  0.817E+02
 -6.632  0.798E+02
 -6.622  0.797E+02
 -6.612  0.851E+02
 -6.602  0.110E+03
 -6.592  0.151E+03
 -6.582  0.105E+03
 -6.572  0.908E+02
 -6.562  0.994E+02
 -6.552  0.129E+03
 -6.542  0.139E+03
 -6.532  0.910E+02
 -6.522  0.835E+02
 -6.512  0.814E+02
 -6.502  0.896E+02
 -6.492  0.934E+02
 -6.482  0.118E+03
 -6.472  0.227E+03
 -6.462  0.171E+03
 -6.452  0.148E+03
 -6.442  0.123E+03
 -6.432  0.574E+02
 -6.422  0.437E-01
 -6.412  0.000E+00
 -6.402  0.000E+00
 -6.392  0.000E+00
 -6.382  0.000E+00
 -6.372  0.000E+00
 -6.362  0.000E+00
 -6.352  0.000E+00
 -6.342  0.000E+00
 -6.332  0.000E+00
 -6.322  0.000E+00
 -6.312  0.000E+00
 -6.302  0.000E+00
 -6.292  0.000E+00
 -6.282  0.000E+00
 -6.272  0.000E+00
 -6.262  0.000E+00
 -6.252  0.000E+00
 -6.242  0.000E+00
 -6.232  0.000E+00
 -6.222  0.000E+00
 -6.212  0.000E+00
 -6.202  0.000E+00
 -6.192  0.000E+00
 -6.182  0.000E+00
 -6.172  0.000E+00
 -6.162  0.000E+00
 -6.152  0.000E+00
 -6.142  0.000E+00
 -6.132  0.000E+00
 -6.122  0.000E+00
 -6.112  0.000E+00
 -6.102  0.000E+00
 -6.092  0.000E+00
 -6.082  0.000E+00
 -6.072  0.000E+00
 -6.062  0.000E+00
 -6.052  0.000E+00
 -6.042  0.000E+00
 -6.032  0.000E+00
 -6.022  0.000E+00
 -6.012  0.000E+00
 -6.002  0.000E+00
 -5.992  0.000E+00
 -5.982  0.000E+00
 -5.972  0.000E+00
 -5.962  0.000E+00
 -5.952  0.000E+00
 -5.942  0.000E+00
 -5.932  0.000E+00
 -5.922  0.000E+00
 -5.912  0.000E+00
 -5.902  0.000E+00
 -5.892  0.000E+00
 -5.882  0.000E+00
 -5.872  0.000E+00
 -5.862  0.000E+00
 -5.852  0.000E+00
 -5.842  0.000E+00
 -5.832  0.000E+00
 -5.822  0.000E+00
 -5.812  0.000E+00
 -5.802  0.000E+00
 -5.792  0.000E+00
 -5.782  0.000E+00
 -5.772  0.000E+00
 -5.762  0.000E+00
 -5.752  0.000E+00
 -5.742  0.000E+00
 -5.732  0.000E+00
 -5.722  0.000E+00
 -5.712  0.000E+00
 -5.702  0.000E+00
 -5.692  0.000E+00
 -5.682  0.000E+00
 -5.672  0.000E+00
 -5.662  0.000E+00
 -5.652  0.000E+00
 -5.642  0.000E+00
 -5.632  0.000E+00
 -5.622  0.000E+00
 -5.612  0.000E+00
 -5.602  0.000E+00
 -5.592  0.000E+00
 -5.582  0.000E+00
 -5.572  0.000E+00
 -5.562  0.000E+00
 -5.552  0.000E+00
 -5.542  0.000E+00
 -5.532  0.000E+00
 -5.522  0.000E+00
 -5.512  0.000E+00
 -5.502  0.000E+00
 -5.492  0.000E+00
 -5.482  0.000E+00
 -5.472  0.000E+00
 -5.462  0.000E+00
 -5.452  0.000E+00
 -5.442  0.000E+00
 -5.432  0.000E+00
 -5.422  0.000E+00
 -5.412  0.000E+00
 -5.402  0.000E+00
 -5.392  0.000E+00
 -5.382  0.000E+00
 -5.372  0.000E+00
 -5.362  0.000E+00
 -5.352  0.000E+00
 -5.342  0.000E+00
 -5.332  0.000E+00
 -5.322  0.000E+00
 -5.312  0.000E+00
 -5.302  0.000E+00
 -5.292  0.000E+00
 -5.282  0.000E+00
 -5.272  0.000E+00
 -5.262  0.000E+00
 -5.252  0.000E+00
 -5.242  0.000E+00
 -5.232  0.000E+00
 -5.222  0.000E+00
 -5.212  0.000E+00
 -5.202  0.000E+00
 -5.192  0.000E+00
 -5.182  0.000E+00
 -5.172  0.000E+00
 -5.162  0.000E+00
 -5.152  0.000E+00
 -5.142  0.000E+00
 -5.132  0.000E+00
 -5.122  0.000E+00
 -5.112  0.000E+00
 -5.102  0.000E+00
 -5.092  0.000E+00
 -5.082  0.000E+00
 -5.072  0.000E+00
 -5.062  0.000E+00
 -5.052  0.000E+00
 -5.042  0.000E+00
 -5.032  0.000E+00
 -5.022  0.000E+00
 -5.012  0.000E+00
 -5.002  0.000E+00
 -4.992  0.000E+00
 -4.982  0.000E+00
 -4.972  0.000E+00
 -4.962  0.000E+00
 -4.952  0.000E+00
 -4.942  0.000E+00
 -4.932  0.000E+00
 -4.922  0.000E+00
 -4.912  0.000E+00
 -4.902  0.000E+00
 -4.892  0.000E+00
 -4.882  0.000E+00
 -4.872  0.000E+00
 -4.862  0.000E+00
 -4.852  0.000E+00
 -4.842  0.000E+00
 -4.832  0.000E+00
 -4.822  0.000E+00
 -4.812  0.000E+00
 -4.802  0.000E+00
 -4.792  0.000E+00
 -4.782  0.000E+00
 -4.772  0.000E+00
 -4.762  0.000E+00
 -4.752  0.000E+00
 -4.742  0.000E+00
 -4.732  0.000E+00
 -4.722  0.000E+00
 -4.712  0.000E+00
 -4.702  0.000E+00
 -4.692  0.000E+00
 -4.682  0.000E+00
 -4.672  0.000E+00
 -4.662  0.000E+00
 -4.652  0.000E+00
 -4.642  0.000E+00
 -4.632  0.000E+00
 -4.622  0.000E+00
 -4.612  0.000E+00
 -4.602  0.000E+00
 -4.592  0.000E+00
 -4.582  0.000E+00
 -4.572  0.000E+00
 -4.562  0.000E+00
 -4.552  0.000E+00
 -4.542  0.000E+00
 -4.532  0.000E+00
 -4.522  0.000E+00
 -4.512  0.000E+00
 -4.502  0.000E+00
 -4.492  0.000E+00
 -4.482  0.000E+00
 -4.472  0.000E+00
 -4.462  0.000E+00
 -4.452  0.000E+00
 -4.442  0.000E+00
 -4.432  0.000E+00
 -4.422  0.000E+00
 -4.412  0.000E+00
 -4.402  0.000E+00
 -4.392  0.000E+00
 -4.382  0.000E+00
 -4.372  0.000E+00
 -4.362  0.000E+00
 -4.352  0.000E+00
 -4.342  0.000E+00
 -4.332  0.000E+00
 -4.322  0.000E+00
 -4.312  0.000E+00
 -4.302  0.000E+00
 -4.292  0.000E+00
 -4.282  0.000E+00
 -4.272  0.000E+00
 -4.262  0.000E+00
 -4.252  0.000E+00
 -4.242  0.000E+00
 -4.232  0.000E+00
 -4.222  0.000E+00
 -4.212  0.000E+00
 -4.202  0.000E+00
 -4.192  0.000E+00
 -4.182  0.000E+00
 -4.172  0.000E+00
 -4.162  0.000E+00
 -4.152  0.000E+00
 -4.142  0.000E+00
 -4.132  0.000E+00
 -4.122  0.000E+00
 -4.112  0.000E+00
 -4.102  0.000E+00
 -4.092  0.000E+00
 -4.082  0.000E+00
 -4.072  0.000E+00
 -4.062  0.000E+00
 -4.052  0.000E+00
 -4.042  0.000E+00
 -4.032  0.000E+00
 -4.022  0.000E+00
 -4.012  0.000E+00
 -4.002  0.000E+00
 -3.992  0.000E+00
 -3.982  0.000E+00
 -3.972  0.000E+00
 -3.962  0.000E+00
 -3.952  0.000E+00
 -3.942  0.000E+00
 -3.932  0.000E+00
 -3.922  0.000E+00
 -3.912  0.000E+00
 -3.902  0.000E+00
 -3.892  0.000E+00
 -3.882  0.000E+00
 -3.872  0.000E+00
 -3.862  0.000E+00
 -3.852  0.000E+00
 -3.842  0.000E+00
 -3.832  0.000E+00
 -3.822  0.000E+00
 -3.812  0.000E+00
 -3.802  0.000E+00
 -3.792  0.000E+00
 -3.782  0.000E+00
 -3.772  0.000E+00
 -3.762  0.000E+00
 -3.752  0.000E+00
 -3.742  0.000E+00
 -3.732  0.000E+00
 -3.722  0.000E+00
 -3.712  0.000E+00
 -3.702  0.000E+00
 -3.692  0.000E+00
 -3.682  0.000E+00
 -3.672  0.000E+00
 -3.662  0.000E+00
 -3.652  0.000E+00
 -3.642  0.000E+00
 -3.632  0.000E+00
 -3.622  0.000E+00
 -3.612  0.000E+00
 -3.602  0.000E+00
 -3.592  0.000E+00
 -3.582  0.000E+00
 -3.572  0.000E+00
 -3.562  0.000E+00
 -3.552  0.000E+00
 -3.542  0.000E+00
 -3.532  0.000E+00
 -3.522  0.000E+00
 -3.512  0.000E+00
 -3.502  0.000E+00
 -3.492  0.000E+00
 -3.482  0.000E+00
 -3.472  0.000E+00
 -3.462  0.000E+00
 -3.452  0.000E+00
 -3.442  0.000E+00
 -3.432  0.000E+00
 -3.422  0.000E+00
 -3.412  0.000E+00
 -3.402  0.000E+00
 -3.392  0.000E+00
 -3.382  0.000E+00
 -3.372  0.000E+00
 -3.362  0.000E+00
 -3.352  0.000E+00
 -3.342  0.000E+00
 -3.332  0.000E+00
 -3.322  0.000E+00
 -3.312  0.000E+00
 -3.302  0.000E+00
 -3.292  0.000E+00
 -3.282  0.000E+00
 -3.272  0.000E+00
 -3.262  0.000E+00
 -3.252  0.000E+00
 -3.242  0.000E+00
 -3.232  0.000E+00
 -3.222  0.000E+00
 -3.212  0.000E+00
 -3.202  0.000E+00
 -3.192  0.000E+00
 -3.182  0.000E+00
 -3.172  0.000E+00
 -3.162  0.000E+00
 -3.152  0.000E+00
 -3.142  0.000E+00
 -3.132  0.000E+00
 -3.122  0.000E+00
 -3.112  0.000E+00
 -3.102  0.000E+00
 -3.092  0.000E+00
 -3.082  0.000E+00
 -3.072  0.000E+00
 -3.062  0.000E+00
 -3.052  0.000E+00
 -3.042  0.000E+00
 -3.032  0.000E+00
 -3.022  0.000E+00
 -3.012  0.000E+00
 -3.002  0.000E+00
 -2.992  0.000E+00
 -2.982  0.000E+00
 -2.972  0.000E+00
 -2.962  0.000E+00
 -2.952  0.000E+00
 -2.942  0.000E+00
 -2.932  0.000E+00
 -2.922  0.000E+00
 -2.912  0.000E+00
 -2.902  0.000E+00
 -2.892  0.000E+00
 -2.882  0.000E+00
 -2.872  0.000E+00
 -2.862  0.000E+00
 -2.852  0.000E+00
 -2.842  0.000E+00
 -2.832  0.000E+00
 -2.822  0.000E+00
 -2.812  0.000E+00
 -2.802  0.000E+00
 -2.792  0.000E+00
 -2.782  0.000E+00
 -2.772  0.370E+00
 -2.762  0.544E+01
 -2.752  0.122E+02
 -2.742  0.103E+02
 -2.732  0.951E+01
 -2.722  0.272E+02
 -2.712  0.184E+02
 -2.702  0.381E+02
 -2.692  0.495E+02
 -2.682  0.554E+02
 -2.672  0.726E+02
 -2.662  0.621E+02
 -2.652  0.454E+02
 -2.642  0.453E+02
 -2.632  0.189E+02
 -2.622  0.270E+02
 -2.612  0.212E+02
 -2.602  0.326E+02
 -2.592  0.103E+02
 -2.582  0.121E+02
 -2.572  0.610E+01
 -2.562  0.905E+01
 -2.552  0.182E+02
 -2.542  0.101E+02
 -2.532  0.726E+01
 -2.522  0.657E+01
 -2.512  0.606E+01
 -2.502  0.416E+01
 -2.492  0.210E+01
 -2.482  0.279E+01
 -2.472  0.318E+01
 -2.462  0.425E+01
 -2.452  0.424E+01
 -2.442  0.204E+01
 -2.432  0.751E+00
 -2.422  0.724E+00
 -2.412  0.609E+01
 -2.402  0.171E+01
 -2.392  0.187E+01
 -2.382  0.837E+00
 -2.372  0.966E+00
 -2.362  0.142E+01
 -2.352  0.345E+01
 -2.342  0.351E+01
 -2.332  0.373E+01
 -2.322  0.414E+01
 -2.312  0.407E+01
 -2.302  0.326E+01
 -2.292  0.292E+01
 -2.282  0.268E+01
 -2.272  0.251E+01
 -2.262  0.245E+01
 -2.252  0.256E+01
 -2.242  0.351E+01
 -2.232  0.704E+01
 -2.222  0.680E+01
 -2.212  0.492E+01
 -2.202  0.417E+01
 -2.192  0.383E+01
 -2.182  0.385E+01
 -2.172  0.434E+01
 -2.162  0.492E+01
 -2.152  0.500E+01
 -2.142  0.532E+01
 -2.132  0.562E+01
 -2.122  0.731E+01
 -2.112  0.941E+01
 -2.102  0.821E+01
 -2.092  0.728E+01
 -2.082  0.852E+01
 -2.072  0.861E+01
 -2.062  0.823E+01
 -2.052  0.824E+01
 -2.042  0.804E+01
 -2.032  0.876E+01
 -2.022  0.140E+02
 -2.012  0.130E+02
 -2.002  0.819E+01
 -1.992  0.500E+01
 -1.982  0.758E+01
 -1.972  0.103E+02
 -1.962  0.157E+02
 -1.952  0.119E+02
 -1.942  0.704E+01
 -1.932  0.484E+01
 -1.922  0.392E+01
 -1.912  0.154E+01
 -1.902  0.245E+00
 -1.892  0.105E-02
 -1.882  0.000E+00
 -1.872  0.000E+00
 -1.862  0.000E+00
 -1.852  0.000E+00
 -1.842  0.000E+00
 -1.832  0.000E+00
 -1.822  0.000E+00
 -1.812  0.000E+00
 -1.802  0.000E+00
 -1.792  0.000E+00
 -1.782  0.000E+00
 -1.772  0.000E+00
 -1.762  0.000E+00
 -1.752  0.000E+00
 -1.742  0.000E+00
 -1.732  0.000E+00
 -1.722  0.000E+00
 -1.712  0.000E+00
 -1.702  0.000E+00
 -1.692  0.000E+00
 -1.682  0.000E+00
 -1.672  0.000E+00
 -1.662  0.000E+00
 -1.652  0.000E+00
 -1.642  0.000E+00
 -1.632  0.000E+00
 -1.622  0.000E+00
 -1.612  0.000E+00
 -1.602  0.000E+00
 -1.592  0.000E+00
 -1.582  0.000E+00
 -1.572  0.000E+00
 -1.562  0.000E+00
 -1.552  0.000E+00
 -1.542  0.000E+00
 -1.532  0.000E+00
 -1.522  0.000E+00
 -1.512  0.000E+00
 -1.502  0.000E+00
 -1.492  0.000E+00
 -1.482  0.000E+00
 -1.472  0.000E+00
 -1.462  0.000E+00
 -1.452  0.000E+00
 -1.442  0.000E+00
 -1.432  0.000E+00
 -1.422  0.000E+00
 -1.412  0.000E+00
 -1.402  0.000E+00
 -1.392  0.000E+00
 -1.382  0.000E+00
 -1.372  0.000E+00
 -1.362  0.000E+00
 -1.352  0.000E+00
 -1.342  0.000E+00
 -1.332  0.000E+00
 -1.322  0.000E+00
 -1.312  0.000E+00
 -1.302  0.000E+00
 -1.292  0.000E+00
 -1.282  0.000E+00
 -1.272  0.000E+00
 -1.262  0.000E+00
 -1.252  0.000E+00
 -1.242  0.000E+00
 -1.232  0.000E+00
 -1.222  0.000E+00
 -1.212  0.000E+00
 -1.202  0.000E+00
 -1.192  0.000E+00
 -1.182  0.000E+00
 -1.172  0.000E+00
 -1.162  0.000E+00
 -1.152  0.000E+00
 -1.142  0.000E+00
 -1.132  0.000E+00
 -1.122  0.000E+00
 -1.112  0.000E+00
 -1.102  0.000E+00
 -1.092  0.000E+00
 -1.082  0.000E+00
 -1.072  0.000E+00
 -1.062  0.000E+00
 -1.052  0.000E+00
 -1.042  0.000E+00
 -1.032  0.000E+00
 -1.022  0.000E+00
 -1.012  0.000E+00
 -1.002  0.000E+00
 -0.992  0.000E+00
 -0.982  0.000E+00
 -0.972  0.000E+00
 -0.962  0.000E+00
 -0.952  0.000E+00
 -0.942  0.000E+00
 -0.932  0.000E+00
 -0.922  0.000E+00
 -0.912  0.000E+00
 -0.902  0.000E+00
 -0.892  0.000E+00
 -0.882  0.000E+00
 -0.872  0.000E+00
 -0.862  0.000E+00
 -0.852  0.000E+00
 -0.842  0.000E+00
 -0.832  0.000E+00
 -0.822  0.000E+00
 -0.812  0.000E+00
 -0.802  0.000E+00
 -0.792  0.000E+00
 -0.782  0.000E+00
 -0.772  0.000E+00
 -0.762  0.000E+00
 -0.752  0.000E+00
 -0.742  0.000E+00
 -0.732  0.000E+00
 -0.722  0.000E+00
 -0.712  0.000E+00
 -0.702  0.000E+00
 -0.692  0.000E+00
 -0.682  0.000E+00
 -0.672  0.000E+00
 -0.662  0.000E+00
 -0.652  0.000E+00
 -0.642  0.000E+00
 -0.632  0.000E+00
 -0.622  0.000E+00
 -0.612  0.000E+00
 -0.602  0.000E+00
 -0.592  0.000E+00
 -0.582  0.000E+00
 -0.572  0.000E+00
 -0.562  0.000E+00
 -0.552  0.000E+00
 -0.542  0.000E+00
 -0.532  0.000E+00
 -0.522  0.000E+00
 -0.512  0.000E+00
 -0.502  0.000E+00
 -0.492  0.000E+00
 -0.482  0.000E+00
 -0.472  0.000E+00
 -0.462  0.000E+00
 -0.452  0.000E+00
 -0.442  0.000E+00
 -0.432  0.000E+00
 -0.422  0.000E+00
 -0.412  0.000E+00
 -0.402  0.000E+00
 -0.392  0.000E+00
 -0.382  0.000E+00
 -0.372  0.000E+00
 -0.362  0.000E+00
 -0.352  0.000E+00
 -0.342  0.000E+00
 -0.332  0.000E+00
 -0.322  0.000E+00
 -0.312  0.000E+00
 -0.302  0.000E+00
 -0.292  0.000E+00
 -0.282  0.000E+00
 -0.272  0.000E+00
 -0.262  0.000E+00
 -0.252  0.000E+00
 -0.242  0.000E+00
 -0.232  0.000E+00
 -0.222  0.000E+00
 -0.212  0.000E+00
 -0.202  0.000E+00
 -0.192  0.000E+00
 -0.182  0.000E+00
 -0.172  0.000E+00
 -0.162  0.000E+00
 -0.152  0.000E+00
 -0.142  0.000E+00
 -0.132  0.000E+00
 -0.122  0.000E+00
 -0.112  0.000E+00
 -0.102  0.000E+00
 -0.092  0.000E+00
 -0.082  0.000E+00
 -0.072  0.000E+00
 -0.062  0.000E+00
 -0.052  0.000E+00
 -0.042  0.000E+00
 -0.032  0.000E+00
 -0.022  0.000E+00
 -0.012  0.000E+00
 -0.002  0.000E+00
  0.008  0.000E+00
  0.018  0.000E+00
  0.028  0.000E+00
  0.038  0.000E+00
  0.048  0.000E+00
  0.058  0.000E+00
  0.068  0.000E+00
  0.078  0.000E+00
  0.088  0.000E+00
  0.098  0.000E+00
  0.108  0.000E+00
  0.118  0.000E+00
  0.128  0.000E+00
  0.138  0.000E+00
  0.148  0.000E+00
  0.158  0.000E+00
  0.168  0.000E+00
  0.178  0.000E+00
  0.188  0.000E+00
  0.198  0.000E+00
  0.208  0.000E+00
  0.218  0.000E+00
  0.228  0.000E+00
  0.238  0.000E+00
  0.248  0.000E+00
  0.258  0.000E+00
  0.268  0.000E+00
  0.278  0.000E+00
  0.288  0.000E+00
  0.298  0.000E+00
  0.308  0.000E+00
  0.318  0.000E+00
  0.328  0.000E+00
  0.338  0.000E+00
  0.348  0.271E-04
  0.358  0.435E-02
  0.368  0.328E-01
  0.378  0.111E+00
  0.388  0.243E+00
  0.398  0.426E+00
  0.408  0.664E+00
  0.418  0.954E+00
  0.428  0.130E+01
  0.438  0.169E+01
  0.448  0.214E+01
  0.458  0.271E+01
  0.468  0.584E+01
  0.478  0.914E+01
  0.488  0.546E+01
  0.498  0.467E+01
  0.508  0.485E+01
  0.518  0.509E+01
  0.528  0.538E+01
  0.538  0.572E+01
  0.548  0.611E+01
  0.558  0.655E+01
  0.568  0.704E+01
  0.578  0.758E+01
  0.588  0.816E+01
  0.598  0.874E+01
  0.608  0.940E+01
  0.618  0.102E+02
  0.628  0.113E+02
  0.638  0.126E+02
  0.648  0.141E+02
  0.658  0.157E+02
  0.668  0.168E+02
  0.678  0.166E+02
  0.688  0.181E+02
  0.698  0.193E+02
  0.708  0.193E+02
  0.718  0.187E+02
  0.728  0.178E+02
  0.738  0.170E+02
  0.748  0.165E+02
  0.758  0.157E+02
  0.768  0.148E+02
  0.778  0.140E+02
  0.788  0.134E+02
  0.798  0.133E+02
  0.808  0.146E+02
  0.818  0.166E+02
  0.828  0.229E+02
  0.838  0.296E+02
  0.848  0.350E+02
  0.858  0.387E+02
  0.868  0.415E+02
  0.878  0.437E+02
  0.888  0.432E+02
  0.898  0.412E+02
  0.908  0.429E+02
  0.918  0.527E+02
  0.928  0.656E+02
  0.938  0.673E+02
  0.948  0.686E+02
  0.958  0.668E+02
  0.968  0.672E+02
  0.978  0.757E+02
  0.988  0.152E+03
  0.998  0.967E+02
  1.008  0.643E+02
  1.018  0.279E+02
  1.028  0.231E+02
  1.038  0.254E+02
  1.048  0.320E+02
  1.058  0.401E+02
  1.068  0.430E+02
  1.078  0.441E+02
  1.088  0.439E+02
  1.098  0.423E+02
  1.108  0.394E+02
  1.118  0.352E+02
  1.128  0.327E+02
  1.138  0.306E+02
  1.148  0.286E+02
  1.158  0.267E+02
  1.168  0.250E+02
  1.178  0.235E+02
  1.188  0.222E+02
  1.198  0.211E+02
  1.208  0.201E+02
  1.218  0.195E+02
  1.228  0.196E+02
  1.238  0.204E+02
  1.248  0.214E+02
  1.258  0.220E+02
  1.268  0.222E+02
  1.278  0.221E+02
  1.288  0.216E+02
  1.298  0.207E+02
  1.308  0.195E+02
  1.318  0.180E+02
  1.328  0.166E+02
  1.338  0.151E+02
  1.348  0.143E+02
  1.358  0.141E+02
  1.368  0.140E+02
  1.378  0.140E+02
  1.388  0.140E+02
  1.398  0.141E+02
  1.408  0.144E+02
  1.418  0.152E+02
  1.428  0.152E+02
  1.438  0.148E+02
  1.448  0.143E+02
  1.458  0.136E+02
  1.468  0.132E+02
  1.478  0.126E+02
  1.488  0.120E+02
  1.498  0.113E+02
  1.508  0.105E+02
  1.518  0.955E+01
  1.528  0.862E+01
  1.538  0.790E+01
  1.548  0.739E+01
  1.558  0.720E+01
  1.568  0.771E+01
  1.578  0.852E+01
  1.588  0.937E+01
  1.598  0.102E+02
  1.608  0.110E+02
  1.618  0.116E+02
  1.628  0.121E+02
  1.638  0.125E+02
  1.648  0.127E+02
  1.658  0.129E+02
  1.668  0.128E+02
  1.678  0.127E+02
  1.688  0.124E+02
  1.698  0.120E+02
  1.708  0.115E+02
  1.718  0.110E+02
  1.728  0.107E+02
  1.738  0.104E+02
  1.748  0.101E+02
  1.758  0.976E+01
  1.768  0.952E+01
  1.778  0.931E+01
  1.788  0.911E+01
  1.798  0.895E+01
  1.808  0.880E+01
  1.818  0.867E+01
  1.828  0.856E+01
  1.838  0.849E+01
  1.848  0.847E+01
  1.858  0.846E+01
  1.868  0.848E+01
  1.878  0.854E+01
  1.888  0.862E+01
  1.898  0.868E+01
  1.908  0.875E+01
  1.918  0.882E+01
  1.928  0.885E+01
  1.938  0.888E+01
  1.948  0.888E+01
  1.958  0.891E+01
  1.968  0.889E+01
  1.978  0.894E+01
  1.988  0.929E+01
  1.998  0.124E+02
  2.008  0.118E+02
  2.018  0.104E+02
  2.028  0.897E+01
  2.038  0.797E+01
  2.048  0.736E+01
  2.058  0.726E+01
  2.068  0.722E+01
  2.078  0.715E+01
  2.088  0.709E+01
  2.098  0.704E+01
  2.108  0.698E+01
  2.118  0.692E+01
  2.128  0.686E+01
  2.138  0.678E+01
  2.148  0.671E+01
  2.158  0.663E+01
  2.168  0.657E+01
  2.178  0.650E+01
  2.188  0.642E+01
  2.198  0.636E+01
  2.208  0.629E+01
  2.218  0.626E+01
  2.228  0.624E+01
  2.238  0.623E+01
  2.248  0.623E+01
  2.258  0.626E+01
  2.268  0.632E+01
  2.278  0.641E+01
  2.288  0.651E+01
  2.298  0.662E+01
  2.308  0.675E+01
  2.318  0.690E+01
  2.328  0.705E+01
  2.338  0.724E+01
  2.348  0.745E+01
  2.358  0.785E+01
  2.368  0.869E+01
  2.378  0.103E+02
  2.388  0.117E+02
  2.398  0.126E+02
  2.408  0.134E+02
  2.418  0.141E+02
  2.428  0.146E+02
  2.438  0.148E+02
  2.448  0.148E+02
  2.458  0.148E+02
  2.468  0.147E+02
  2.478  0.147E+02
  2.488  0.146E+02
  2.498  0.145E+02
  2.508  0.146E+02
  2.518  0.166E+02
  2.528  0.194E+02
  2.538  0.225E+02
  2.548  0.257E+02
  2.558  0.293E+02
  2.568  0.352E+02
  2.578  0.501E+02
  2.588  0.498E+02
  2.598  0.516E+02
  2.608  0.535E+02
  2.618  0.542E+02
  2.628  0.486E+02
  2.638  0.395E+02
  2.648  0.319E+02
  2.658  0.264E+02
  2.668  0.221E+02
  2.678  0.189E+02
  2.688  0.176E+02
  2.698  0.193E+02
  2.708  0.230E+02
  2.718  0.257E+02
  2.728  0.284E+02
  2.738  0.365E+02
  2.748  0.285E+02
  2.758  0.233E+02
  2.768  0.210E+02
  2.778  0.190E+02
  2.788  0.183E+02
  2.798  0.178E+02
  2.808  0.176E+02
  2.818  0.186E+02
  2.828  0.208E+02
  2.838  0.227E+02
  2.848  0.241E+02
  2.858  0.251E+02
  2.868  0.261E+02
  2.878  0.270E+02
  2.888  0.279E+02
  2.898  0.287E+02
  2.908  0.297E+02
  2.918  0.313E+02
  2.928  0.335E+02
  2.938  0.353E+02
  2.948  0.369E+02
  2.958  0.384E+02
  2.968  0.397E+02
  2.978  0.408E+02
  2.988  0.412E+02
  2.998  0.408E+02
  3.008  0.401E+02
  3.018  0.400E+02
  3.028  0.401E+02
  3.038  0.402E+02
  3.048  0.342E+02
  3.058  0.310E+02
  3.068  0.261E+02
  3.078  0.266E+02
  3.088  0.267E+02
  3.098  0.270E+02
  3.108  0.268E+02
  3.118  0.256E+02
  3.128  0.241E+02
  3.138  0.227E+02
  3.148  0.222E+02
  3.158  0.227E+02
  3.168  0.243E+02
  3.178  0.266E+02
  3.188  0.302E+02
  3.198  0.362E+02
  3.208  0.408E+02
  3.218  0.430E+02
  3.228  0.438E+02
  3.238  0.482E+02
  3.248  0.561E+02
  3.258  0.549E+02
  3.268  0.515E+02
  3.278  0.481E+02
  3.288  0.468E+02
  3.298  0.453E+02
  3.308  0.438E+02
  3.318  0.424E+02
  3.328  0.413E+02
  3.338  0.413E+02
  3.348  0.421E+02
  3.358  0.424E+02
  3.368  0.442E+02
  3.378  0.460E+02
  3.388  0.456E+02
  3.398  0.456E+02
  3.408  0.458E+02
  3.418  0.461E+02
  3.428  0.466E+02
  3.438  0.470E+02
  3.448  0.476E+02
  3.458  0.482E+02
  3.468  0.495E+02
  3.478  0.508E+02
  3.488  0.512E+02
  3.498  0.500E+02
  3.508  0.486E+02
  3.518  0.473E+02
  3.528  0.460E+02
  3.538  0.452E+02
  3.548  0.465E+02
  3.558  0.459E+02
  3.568  0.414E+02
  3.578  0.388E+02
  3.588  0.374E+02
  3.598  0.396E+02
  3.608  0.405E+02
  3.618  0.400E+02
  3.628  0.400E+02
  3.638  0.403E+02
  3.648  0.409E+02
  3.658  0.465E+02
  3.668  0.448E+02
  3.678  0.527E+02
  3.688  0.533E+02
  3.698  0.571E+02
  3.708  0.609E+02
  3.718  0.606E+02
  3.728  0.609E+02
  3.738  0.634E+02
  3.748  0.536E+02
  3.758  0.535E+02
  3.768  0.536E+02
  3.778  0.538E+02
  3.788  0.557E+02
  3.798  0.558E+02
  3.808  0.529E+02
  3.818  0.482E+02
  3.828  0.430E+02
  3.838  0.379E+02
  3.848  0.353E+02
  3.858  0.339E+02
  3.868  0.332E+02
  3.878  0.331E+02
  3.888  0.335E+02
  3.898  0.341E+02
  3.908  0.353E+02
  3.918  0.366E+02
  3.928  0.384E+02
  3.938  0.408E+02
  3.948  0.442E+02
  3.958  0.477E+02
  3.968  0.499E+02
  3.978  0.505E+02
  3.988  0.500E+02
  3.998  0.504E+02
  4.008  0.518E+02
  4.018  0.534E+02
  4.028  0.546E+02
  4.038  0.601E+02
  4.048  0.603E+02
  4.058  0.525E+02
  4.068  0.511E+02
  4.078  0.491E+02
  4.088  0.473E+02
  4.098  0.472E+02
  4.108  0.479E+02
  4.118  0.443E+02
  4.128  0.428E+02
  4.138  0.432E+02
  4.148  0.440E+02
  4.158  0.457E+02
  4.168  0.477E+02
  4.178  0.509E+02
  4.188  0.553E+02
  4.198  0.626E+02
  4.208  0.700E+02
  4.218  0.742E+02
  4.228  0.767E+02
  4.238  0.756E+02
  4.248  0.758E+02
  4.258  0.563E+02
  4.268  0.463E+02
  4.278  0.414E+02
  4.288  0.399E+02
  4.298  0.400E+02
  4.308  0.394E+02
  4.318  0.341E+02
  4.328  0.315E+02
  4.338  0.314E+02
  4.348  0.320E+02
  4.358  0.328E+02
  4.368  0.342E+02
  4.378  0.359E+02
  4.388  0.363E+02
  4.398  0.359E+02
  4.408  0.367E+02
  4.418  0.380E+02
  4.428  0.391E+02
  4.438  0.402E+02
  4.448  0.414E+02
  4.458  0.425E+02
  4.468  0.454E+02
  4.478  0.509E+02
  4.488  0.538E+02
  4.498  0.573E+02
  4.508  0.561E+02
  4.518  0.588E+02
  4.528  0.596E+02
  4.538  0.592E+02
  4.548  0.566E+02
  4.558  0.540E+02
  4.568  0.487E+02
  4.578  0.499E+02
  4.588  0.533E+02
  4.598  0.565E+02
  4.608  0.695E+02
  4.618  0.796E+02
  4.628  0.752E+02
  4.638  0.580E+02
  4.648  0.486E+02
  4.658  0.412E+02
  4.668  0.368E+02
  4.678  0.340E+02
  4.688  0.322E+02
  4.698  0.310E+02
  4.708  0.302E+02
  4.718  0.296E+02
  4.728  0.291E+02
  4.738  0.285E+02
  4.748  0.280E+02
  4.758  0.274E+02
  4.768  0.268E+02
  4.778  0.263E+02
  4.788  0.261E+02
  4.798  0.267E+02
  4.808  0.290E+02
  4.818  0.308E+02
  4.828  0.310E+02
  4.838  0.295E+02
  4.848  0.268E+02
  4.858  0.261E+02
  4.868  0.259E+02
  4.878  0.255E+02
  4.888  0.249E+02
  4.898  0.243E+02
  4.908  0.241E+02
  4.918  0.231E+02
  4.928  0.210E+02
  4.938  0.191E+02
  4.948  0.228E+02
  4.958  0.264E+02
  4.968  0.249E+02
  4.978  0.229E+02
  4.988  0.205E+02
  4.998  0.178E+02
  5.008  0.142E+02
  5.018  0.116E+02
  5.028  0.108E+02
  5.038  0.107E+02
  5.048  0.107E+02
  5.058  0.107E+02
  5.068  0.108E+02
  5.078  0.109E+02
  5.088  0.117E+02
  5.098  0.138E+02
  5.108  0.179E+02
  5.118  0.215E+02
  5.128  0.233E+02
  5.138  0.242E+02
  5.148  0.280E+02
  5.158  0.283E+02
  5.168  0.254E+02
  5.178  0.228E+02
  5.188  0.208E+02
  5.198  0.183E+02
  5.208  0.158E+02
  5.218  0.135E+02
  5.228  0.115E+02
  5.238  0.992E+01
  5.248  0.865E+01
  5.258  0.770E+01
  5.268  0.684E+01
  5.278  0.605E+01
  5.288  0.544E+01
  5.298  0.517E+01
  5.308  0.557E+01
  5.318  0.589E+01
  5.328  0.586E+01
  5.338  0.552E+01
  5.348  0.483E+01
  5.358  0.379E+01
  5.368  0.241E+01
  5.378  0.102E+01
  5.388  0.485E+00
  5.398  0.217E+00
  5.408  0.582E-01
  5.418  0.461E-02
  5.428  0.590E-03
  5.438  0.273E-04
  5.448  0.000E+00
  5.458  0.000E+00
  5.468  0.000E+00
  5.478  0.000E+00
  5.488  0.000E+00
  5.498  0.000E+00
  5.508  0.000E+00
  5.518  0.000E+00
  5.528  0.000E+00
  5.538  0.000E+00
  5.548  0.000E+00
  5.558  0.000E+00
  5.568  0.000E+00
  5.578  0.000E+00
  5.588  0.000E+00
  5.598  0.000E+00
  5.608  0.000E+00
  5.618  0.000E+00
  5.628  0.000E+00
  5.638  0.000E+00
  5.648  0.000E+00
  5.658  0.000E+00
  5.668  0.000E+00
  5.678  0.000E+00
  5.688  0.000E+00
  5.698  0.000E+00
  5.708  0.000E+00
  5.718  0.000E+00
  5.728  0.000E+00
  5.738  0.000E+00
  5.748  0.000E+00
  5.758  0.000E+00
  5.768  0.000E+00
  5.778  0.000E+00
  5.788  0.000E+00
  5.798  0.000E+00
  5.808  0.000E+00
  5.818  0.000E+00
  5.828  0.000E+00
  5.838  0.000E+00
  5.848  0.000E+00
  5.858  0.000E+00
  5.868  0.000E+00
  5.878  0.000E+00
  5.888  0.000E+00
  5.898  0.000E+00
  5.908  0.000E+00
  5.918  0.000E+00
  5.928  0.000E+00
  5.938  0.000E+00
  5.948  0.000E+00
  5.958  0.000E+00
  5.968  0.000E+00
  5.978  0.000E+00
  5.988  0.000E+00
  5.998  0.000E+00
  6.008  0.000E+00
  6.018  0.000E+00
  6.028  0.000E+00
  6.038  0.000E+00
  6.048  0.000E+00
  6.058  0.000E+00
  6.068  0.000E+00
  6.078  0.000E+00
  6.088  0.000E+00
  6.098  0.000E+00
  6.108  0.000E+00
  6.118  0.000E+00
  6.128  0.000E+00
  6.138  0.000E+00
  6.148  0.000E+00
  6.158  0.000E+00
  6.168  0.000E+00
  6.178  0.000E+00
  6.188  0.000E+00
  6.198  0.000E+00
  6.208  0.000E+00
  6.218  0.000E+00
  6.228  0.000E+00
  6.238  0.000E+00
  6.248  0.000E+00
  6.258  0.000E+00
  6.268  0.000E+00
  6.278  0.000E+00
  6.288  0.000E+00
  6.298  0.000E+00
  6.308  0.000E+00
  6.318  0.000E+00
  6.328  0.000E+00
  6.338  0.000E+00
  6.348  0.000E+00
  6.358  0.000E+00
  6.368  0.000E+00
  6.378  0.000E+00
  6.388  0.000E+00
  6.398  0.000E+00
  6.408  0.000E+00
  6.418  0.000E+00
  6.428  0.000E+00
  6.438  0.000E+00
  6.448  0.000E+00
  6.458  0.000E+00
  6.468  0.000E+00
  6.478  0.000E+00
  6.488  0.000E+00
  6.498  0.000E+00
  6.508  0.000E+00
  6.518  0.000E+00
  6.528  0.000E+00
  6.538  0.000E+00
  6.548  0.000E+00
  6.558  0.000E+00
  6.568  0.000E+00
  6.578  0.000E+00
  6.588  0.000E+00
  6.598  0.000E+00
  6.608  0.000E+00
  6.618  0.000E+00
  6.628  0.000E+00
  6.638  0.000E+00
  6.648  0.000E+00
  6.658  0.000E+00
  6.668  0.000E+00
  6.678  0.000E+00
  6.688  0.000E+00
  6.698  0.000E+00
  6.708  0.000E+00
  6.718  0.000E+00
  6.728  0.000E+00
  6.738  0.000E+00
  6.748  0.000E+00
  6.758  0.000E+00
  6.768  0.000E+00
  6.778  0.000E+00
  6.788  0.000E+00
  6.798  0.000E+00
  6.808  0.000E+00
  6.818  0.000E+00
  6.828  0.000E+00
  6.838  0.000E+00
  6.848  0.000E+00
  6.858  0.000E+00
  6.868  0.000E+00
  6.878  0.000E+00
  6.888  0.000E+00
  6.898  0.000E+00
  6.908  0.000E+00
  6.918  0.000E+00
  6.928  0.000E+00
  6.938  0.000E+00
  6.948  0.000E+00
  6.958  0.000E+00
  6.968  0.000E+00
  6.978  0.000E+00
  6.988  0.000E+00
  6.998  0.000E+00
  7.008  0.000E+00
  7.018  0.000E+00
  7.028  0.000E+00
  7.038  0.000E+00
  7.048  0.000E+00
  7.058  0.000E+00
  7.068  0.000E+00
  7.078  0.000E+00
  7.088  0.000E+00
  7.098  0.000E+00
  7.108  0.000E+00
  7.118  0.000E+00
  7.128  0.000E+00
  7.138  0.000E+00
  7.148  0.000E+00
  7.158  0.000E+00
  7.168  0.000E+00
  7.178  0.000E+00
  7.188  0.000E+00
  7.198  0.000E+00
  7.208  0.000E+00
  7.218  0.000E+00
  7.228  0.000E+00
  7.238  0.000E+00
  7.248  0.000E+00
  7.258  0.000E+00
  7.268  0.000E+00
  7.278  0.000E+00
  7.288  0.000E+00
  7.298  0.000E+00
  7.308  0.000E+00
  7.318  0.000E+00
  7.328  0.000E+00
  7.338  0.000E+00
  7.348  0.000E+00
  7.358  0.000E+00
  7.368  0.000E+00
  7.378  0.000E+00
  7.388  0.000E+00
  7.398  0.000E+00
  7.408  0.000E+00
  7.418  0.000E+00
  7.428  0.000E+00
  7.438  0.000E+00
  7.448  0.574E-05
  7.458  0.492E-04
  7.468  0.136E-03
  7.478  0.274E-03
  7.488  0.557E-03
  7.498  0.101E-02
  7.508  0.164E-02
  7.518  0.245E-02
  7.528  0.343E-02
  7.538  0.462E-02
  7.548  0.598E-02
  7.558  0.752E-02
  7.568  0.928E-02
  7.578  0.112E-01
  7.588  0.133E-01
  7.598  0.157E-01
  7.608  0.182E-01
  7.618  0.210E-01
  7.628  0.239E-01
  7.638  0.271E-01
  7.648  0.304E-01
  7.658  0.340E-01
  7.668  0.378E-01
  7.678  0.419E-01
  7.688  0.461E-01
  7.698  0.507E-01
  7.708  0.553E-01
  7.718  0.602E-01
  7.728  0.655E-01
  7.738  0.708E-01
  7.748  0.765E-01
  7.758  0.824E-01
  7.768  0.885E-01
  7.778  0.949E-01
  7.788  0.102E+00
  7.798  0.109E+00
  7.808  0.116E+00
  7.818  0.123E+00
  7.828  0.131E+00
  7.838  0.139E+00
  7.848  0.146E+00
  7.858  0.154E+00
  7.868  0.162E+00
  7.878  0.172E+00
  7.888  0.183E+00
  7.898  0.195E+00
  7.908  0.205E+00
  7.918  0.216E+00
  7.928  0.225E+00
  7.938  0.235E+00
  7.948  0.244E+00
  7.958  0.253E+00
  7.968  0.261E+00
  7.978  0.270E+00
  7.988  0.278E+00
  7.998  0.286E+00
  8.008  0.294E+00
  8.018  0.301E+00
  8.028  0.309E+00
  8.038  0.316E+00
  8.048  0.323E+00
  8.058  0.331E+00
  8.068  0.337E+00
  8.078  0.344E+00
  8.088  0.351E+00
  8.098  0.357E+00
  8.108  0.363E+00
  8.118  0.369E+00
  8.128  0.374E+00
  8.138  0.377E+00
  8.148  0.379E+00
  8.158  0.379E+00
  8.168  0.379E+00
  8.178  0.380E+00
  8.188  0.382E+00
  8.198  0.385E+00
  8.208  0.388E+00
  8.218  0.391E+00
  8.228  0.393E+00
  8.238  0.396E+00
  8.248  0.399E+00
  8.258  0.403E+00
  8.268  0.406E+00
  8.278  0.411E+00
  8.288  0.417E+00
  8.298  0.423E+00
  8.308  0.430E+00
  8.318  0.438E+00