
     Program PWSCF v.7.2 starts on  1Jul2024 at 13:55:52 

     This program is part of the open-source Quantum ESPRESSO suite
     for quantum simulation of materials; please cite
         "P. Giannozzi et al., J. Phys.:Condens. Matter 21 395502 (2009);
         "P. Giannozzi et al., J. Phys.:Condens. Matter 29 465901 (2017);
         "P. Giannozzi et al., J. Chem. Phys. 152 154105 (2020);
          URL http://www.quantum-espresso.org", 
     in publications or presentations arising from this work. More details at
     http://www.quantum-espresso.org/quote

     Parallel version (MPI), running on  1120 processors

     MPI processes distributed on    10 nodes
     234346 MiB available memory on the printing compute node when the environment starts
 
     Waiting for input...
     Reading input from standard input

     Current dimensions of program PWSCF are:
     Max number of different atomic species (ntypx) = 10
     Max number of k-points (npk) =  40000
     Max angular momentum in pseudopotentials (lmaxx) =  4
     file S.pbe-n-kjpaw_psl.1.0.0.UPF: wavefunction(s)  3S 3P renormalized
     file Zn.pbe-dnl-kjpaw_psl.1.0.0.UPF: wavefunction(s)  4S 3D renormalized
     Found identity + (  0.0000  0.2500  0.2500) symmetry
     This is a supercell, fractional translations are disabled
 
     K-points division:     npool     =      10
     R & G space division:  proc/nbgrp/npool/nimage =     112
     Subspace diagonalization in iterative solution of the eigenvalue problem:
     one sub-group per band group will be used
     scalapack distributed-memory algorithm (size of sub-group:  3*  3 procs)

 
     Parallelization info
     --------------------
     sticks:   dense  smooth     PW     G-vecs:    dense   smooth      PW
     Min         126     126     33                11287    11287    1523
     Max         128     128     34                11292    11292    1528
     Sum       14137   14137   3721              1264415  1264415  170709
 
     Using Slab Decomposition
 


     bravais-lattice index     =            1
     lattice parameter (alat)  =      20.5686  a.u.
     unit-cell volume          =    8701.8437 (a.u.)^3
     number of atoms/cell      =           64
     number of atomic types    =            2
     number of electrons       =       576.00
     number of Kohn-Sham states=          345
     kinetic-energy cutoff     =     105.0000  Ry
     charge density cutoff     =     420.0000  Ry
     scf convergence threshold =      1.0E-06
     mixing beta               =       0.7000
     number of iterations used =            8  plain     mixing
     Exchange-correlation= SLA  PW   PBX  PBC
                           (   1   4   3   4   0   0   0)
     Hubbard projectors: ortho-atomic
     Hubbard parameters of DFT+U (Dudarev formulation) in eV:
     U(Zn-3d) = 10.0000

     Internal variables: lda_plus_u = T, lda_plus_u_kind = 0

     celldm(1)=  20.568554  celldm(2)=   0.000000  celldm(3)=   0.000000
     celldm(4)=   0.000000  celldm(5)=   0.000000  celldm(6)=   0.000000

     crystal axes: (cart. coord. in units of alat)
               a(1) = (   1.000000   0.000000   0.000000 )  
               a(2) = (   0.000000   1.000000   0.000000 )  
               a(3) = (   0.000000   0.000000   1.000000 )  

     reciprocal axes: (cart. coord. in units 2 pi/alat)
               b(1) = (  1.000000  0.000000  0.000000 )  
               b(2) = (  0.000000  1.000000  0.000000 )  
               b(3) = (  0.000000  0.000000  1.000000 )  


     PseudoPot. # 1 for S  read from file:
     /arf/home/amuhaymin/pseudo/S.pbe-n-kjpaw_psl.1.0.0.UPF
     MD5 check sum: fb45dfebcf3e72a4e1bd4a866ec2e262
     Pseudo is Projector augmented-wave + core cor, Zval =  6.0
     Generated using &quot;atomic&quot; code by A. Dal Corso  v.6.3
     Shape of augmentation charge: PSQ
     Using radial grid of 1151 points,  6 beta functions with: 
                l(1) =   0
                l(2) =   0
                l(3) =   1
                l(4) =   1
                l(5) =   2
                l(6) =   2
     Q(r) pseudized with 0 coefficients 


     PseudoPot. # 2 for Zn read from file:
     /arf/home/amuhaymin/pseudo/Zn.pbe-dnl-kjpaw_psl.1.0.0.UPF
     MD5 check sum: c608214d9520ac179f507641260889e3
     Pseudo is Projector augmented-wave + core cor, Zval = 12.0
     Generated using &quot;atomic&quot; code by A. Dal Corso  v.6.2.2
     Shape of augmentation charge: PSQ
     Using radial grid of 1201 points,  6 beta functions with: 
                l(1) =   0
                l(2) =   0
                l(3) =   1
                l(4) =   1
                l(5) =   2
                l(6) =   2
     Q(r) pseudized with 0 coefficients 


     atomic species   valence    mass     pseudopotential
        S              6.00    32.06500     S ( 1.00)
        Zn            12.00    65.38000     Zn( 1.00)

     24 Sym. Ops. (no inversion) found


                                    s                        frac. trans.

      isym =  1     identity                                     

 cryst.   s( 1) = (     1          0          0      )
                  (     0          1          0      )
                  (     0          0          1      )

 cart.    s( 1) = (  1.0000000  0.0000000  0.0000000 )
                  (  0.0000000  1.0000000  0.0000000 )
                  (  0.0000000  0.0000000  1.0000000 )


      isym =  2     180 deg rotation - cart. axis [0,0,1]        

 cryst.   s( 2) = (    -1          0          0      )
                  (     0         -1          0      )
                  (     0          0          1      )

 cart.    s( 2) = ( -1.0000000  0.0000000  0.0000000 )
                  (  0.0000000 -1.0000000  0.0000000 )
                  (  0.0000000  0.0000000  1.0000000 )


      isym =  3     180 deg rotation - cart. axis [0,1,0]        

 cryst.   s( 3) = (    -1          0          0      )
                  (     0          1          0      )
                  (     0          0         -1      )

 cart.    s( 3) = ( -1.0000000  0.0000000  0.0000000 )
                  (  0.0000000  1.0000000  0.0000000 )
                  (  0.0000000  0.0000000 -1.0000000 )


      isym =  4     180 deg rotation - cart. axis [1,0,0]        

 cryst.   s( 4) = (     1          0          0      )
                  (     0         -1          0      )
                  (     0          0         -1      )

 cart.    s( 4) = (  1.0000000  0.0000000  0.0000000 )
                  (  0.0000000 -1.0000000  0.0000000 )
                  (  0.0000000  0.0000000 -1.0000000 )


      isym =  5     120 deg rotation - cart. axis [-1,-1,-1]     

 cryst.   s( 5) = (     0          0          1      )
                  (     1          0          0      )
                  (     0          1          0      )

 cart.    s( 5) = (  0.0000000  1.0000000  0.0000000 )
                  (  0.0000000  0.0000000  1.0000000 )
                  (  1.0000000  0.0000000  0.0000000 )


      isym =  6     120 deg rotation - cart. axis [-1,1,1]       

 cryst.   s( 6) = (     0          0         -1      )
                  (    -1          0          0      )
                  (     0          1          0      )

 cart.    s( 6) = (  0.0000000 -1.0000000  0.0000000 )
                  (  0.0000000  0.0000000  1.0000000 )
                  ( -1.0000000  0.0000000  0.0000000 )


      isym =  7     120 deg rotation - cart. axis [1,1,-1]       

 cryst.   s( 7) = (     0          0         -1      )
                  (     1          0          0      )
                  (     0         -1          0      )

 cart.    s( 7) = (  0.0000000  1.0000000  0.0000000 )
                  (  0.0000000  0.0000000 -1.0000000 )
                  ( -1.0000000  0.0000000  0.0000000 )


      isym =  8     120 deg rotation - cart. axis [1,-1,1]       

 cryst.   s( 8) = (     0          0          1      )
                  (    -1          0          0      )
                  (     0         -1          0      )

 cart.    s( 8) = (  0.0000000 -1.0000000  0.0000000 )
                  (  0.0000000  0.0000000 -1.0000000 )
                  (  1.0000000  0.0000000  0.0000000 )


      isym =  9     120 deg rotation - cart. axis [1,1,1]        

 cryst.   s( 9) = (     0          1          0      )
                  (     0          0          1      )
                  (     1          0          0      )

 cart.    s( 9) = (  0.0000000  0.0000000  1.0000000 )
                  (  1.0000000  0.0000000  0.0000000 )
                  (  0.0000000  1.0000000  0.0000000 )


      isym = 10     120 deg rotation - cart. axis [-1,1,-1]      

 cryst.   s(10) = (     0         -1          0      )
                  (     0          0         -1      )
                  (     1          0          0      )

 cart.    s(10) = (  0.0000000  0.0000000  1.0000000 )
                  ( -1.0000000  0.0000000  0.0000000 )
                  (  0.0000000 -1.0000000  0.0000000 )


      isym = 11     120 deg rotation - cart. axis [1,-1,-1]      

 cryst.   s(11) = (     0         -1          0      )
                  (     0          0          1      )
                  (    -1          0          0      )

 cart.    s(11) = (  0.0000000  0.0000000 -1.0000000 )
                  ( -1.0000000  0.0000000  0.0000000 )
                  (  0.0000000  1.0000000  0.0000000 )


      isym = 12     120 deg rotation - cart. axis [-1,-1,1]      

 cryst.   s(12) = (     0          1          0      )
                  (     0          0         -1      )
                  (    -1          0          0      )

 cart.    s(12) = (  0.0000000  0.0000000 -1.0000000 )
                  (  1.0000000  0.0000000  0.0000000 )
                  (  0.0000000 -1.0000000  0.0000000 )


      isym = 13     inv. 180 deg rotation - cart. axis [1,1,0]   

 cryst.   s(13) = (     0         -1          0      )
                  (    -1          0          0      )
                  (     0          0          1      )

 cart.    s(13) = (  0.0000000 -1.0000000  0.0000000 )
                  ( -1.0000000  0.0000000  0.0000000 )
                  (  0.0000000  0.0000000  1.0000000 )


      isym = 14     inv. 180 deg rotation - cart. axis [1,-1,0]  

 cryst.   s(14) = (     0          1          0      )
                  (     1          0          0      )
                  (     0          0          1      )

 cart.    s(14) = (  0.0000000  1.0000000  0.0000000 )
                  (  1.0000000  0.0000000  0.0000000 )
                  (  0.0000000  0.0000000  1.0000000 )


      isym = 15     inv.  90 deg rotation - cart. axis [0,0,-1]  

 cryst.   s(15) = (     0          1          0      )
                  (    -1          0          0      )
                  (     0          0         -1      )

 cart.    s(15) = (  0.0000000 -1.0000000  0.0000000 )
                  (  1.0000000  0.0000000  0.0000000 )
                  (  0.0000000  0.0000000 -1.0000000 )


      isym = 16     inv.  90 deg rotation - cart. axis [0,0,1]   

 cryst.   s(16) = (     0         -1          0      )
                  (     1          0          0      )
                  (     0          0         -1      )

 cart.    s(16) = (  0.0000000  1.0000000  0.0000000 )
                  ( -1.0000000  0.0000000  0.0000000 )
                  (  0.0000000  0.0000000 -1.0000000 )


      isym = 17     inv. 180 deg rotation - cart. axis [1,0,1]   

 cryst.   s(17) = (     0          0         -1      )
                  (     0          1          0      )
                  (    -1          0          0      )

 cart.    s(17) = (  0.0000000  0.0000000 -1.0000000 )
                  (  0.0000000  1.0000000  0.0000000 )
                  ( -1.0000000  0.0000000  0.0000000 )


      isym = 18     inv. 180 deg rotation - cart. axis [-1,0,1]  

 cryst.   s(18) = (     0          0          1      )
                  (     0          1          0      )
                  (     1          0          0      )

 cart.    s(18) = (  0.0000000  0.0000000  1.0000000 )
                  (  0.0000000  1.0000000  0.0000000 )
                  (  1.0000000  0.0000000  0.0000000 )


      isym = 19     inv.  90 deg rotation - cart. axis [0,1,0]   

 cryst.   s(19) = (     0          0          1      )
                  (     0         -1          0      )
                  (    -1          0          0      )

 cart.    s(19) = (  0.0000000  0.0000000 -1.0000000 )
                  (  0.0000000 -1.0000000  0.0000000 )
                  (  1.0000000  0.0000000  0.0000000 )


      isym = 20     inv.  90 deg rotation - cart. axis [0,-1,0]  

 cryst.   s(20) = (     0          0         -1      )
                  (     0         -1          0      )
                  (     1          0          0      )

 cart.    s(20) = (  0.0000000  0.0000000  1.0000000 )
                  (  0.0000000 -1.0000000  0.0000000 )
                  ( -1.0000000  0.0000000  0.0000000 )


      isym = 21     inv. 180 deg rotation - cart. axis [0,1,1]   

 cryst.   s(21) = (     1          0          0      )
                  (     0          0         -1      )
                  (     0         -1          0      )

 cart.    s(21) = (  1.0000000  0.0000000  0.0000000 )
                  (  0.0000000  0.0000000 -1.0000000 )
                  (  0.0000000 -1.0000000  0.0000000 )


      isym = 22     inv. 180 deg rotation - cart. axis [0,1,-1]  

 cryst.   s(22) = (     1          0          0      )
                  (     0          0          1      )
                  (     0          1          0      )

 cart.    s(22) = (  1.0000000  0.0000000  0.0000000 )
                  (  0.0000000  0.0000000  1.0000000 )
                  (  0.0000000  1.0000000  0.0000000 )


      isym = 23     inv.  90 deg rotation - cart. axis [-1,0,0]  

 cryst.   s(23) = (    -1          0          0      )
                  (     0          0          1      )
                  (     0         -1          0      )

 cart.    s(23) = ( -1.0000000  0.0000000  0.0000000 )
                  (  0.0000000  0.0000000 -1.0000000 )
                  (  0.0000000  1.0000000  0.0000000 )


      isym = 24     inv.  90 deg rotation - cart. axis [1,0,0]   

 cryst.   s(24) = (    -1          0          0      )
                  (     0          0         -1      )
                  (     0          1          0      )

 cart.    s(24) = ( -1.0000000  0.0000000  0.0000000 )
                  (  0.0000000  0.0000000  1.0000000 )
                  (  0.0000000 -1.0000000  0.0000000 )


     point group T_d (-43m) 
     there are  5 classes
     the character table:

       E     8C3   3C2   6S4   6s_d 
A_1    1.00  1.00  1.00  1.00  1.00
A_2    1.00  1.00  1.00 -1.00 -1.00
E      2.00 -1.00  2.00  0.00  0.00
T_1    3.00  0.00 -1.00  1.00 -1.00
T_2    3.00  0.00 -1.00 -1.00  1.00

     the symmetry operations in each class and the name of the first element:

     E        1
          identity                                               
     8C3      5    7    8    6   12    9   10   11
          120 deg rotation - cart. axis [-1,-1,-1]               
     3C2      2    3    4
          180 deg rotation - cart. axis [0,0,1]                  
     6S4     15   16   20   19   23   24
          inv.  90 deg rotation - cart. axis [0,0,-1]            
     6s_d    13   14   17   18   21   22
          inv. 180 deg rotation - cart. axis [1,1,0]             

   Cartesian axes

     site n.     atom                  positions (alat units)
         1           Zn  tau(   1) = (   0.0000000   0.0000000   0.0000000  )
         2           Zn  tau(   2) = (   0.0000000   0.2500000   0.2500000  )
         3           Zn  tau(   3) = (   0.2500000   0.0000000   0.2500000  )
         4           Zn  tau(   4) = (   0.2500000   0.2500000   0.0000000  )
         5           S   tau(   5) = (   0.1250000   0.3750000   0.3750000  )
         6           S   tau(   6) = (   0.1250000   0.1250000   0.1250000  )
         7           S   tau(   7) = (   0.3750000   0.3750000   0.1250000  )
         8           S   tau(   8) = (   0.3750000   0.1250000   0.3750000  )
         9           Zn  tau(   9) = (   0.0000000   0.0000000   0.5000000  )
        10           Zn  tau(  10) = (   0.0000000   0.2500000   0.7500000  )
        11           Zn  tau(  11) = (   0.2500000   0.0000000   0.7500000  )
        12           Zn  tau(  12) = (   0.2500000   0.2500000   0.5000000  )
        13           S   tau(  13) = (   0.1250000   0.3750000   0.8750000  )
        14           S   tau(  14) = (   0.1250000   0.1250000   0.6250000  )
        15           S   tau(  15) = (   0.3750000   0.3750000   0.6250000  )
        16           S   tau(  16) = (   0.3750000   0.1250000   0.8750000  )
        17           Zn  tau(  17) = (   0.0000000   0.5000000   0.0000000  )
        18           Zn  tau(  18) = (   0.0000000   0.7500000   0.2500000  )
        19           Zn  tau(  19) = (   0.2500000   0.5000000   0.2500000  )
        20           Zn  tau(  20) = (   0.2500000   0.7500000   0.0000000  )
        21           S   tau(  21) = (   0.1250000   0.8750000   0.3750000  )
        22           S   tau(  22) = (   0.1250000   0.6250000   0.1250000  )
        23           S   tau(  23) = (   0.3750000   0.8750000   0.1250000  )
        24           S   tau(  24) = (   0.3750000   0.6250000   0.3750000  )
        25           Zn  tau(  25) = (   0.0000000   0.5000000   0.5000000  )
        26           Zn  tau(  26) = (   0.0000000   0.7500000   0.7500000  )
        27           Zn  tau(  27) = (   0.2500000   0.5000000   0.7500000  )
        28           Zn  tau(  28) = (   0.2500000   0.7500000   0.5000000  )
        29           S   tau(  29) = (   0.1250000   0.8750000   0.8750000  )
        30           S   tau(  30) = (   0.1250000   0.6250000   0.6250000  )
        31           S   tau(  31) = (   0.3750000   0.8750000   0.6250000  )
        32           S   tau(  32) = (   0.3750000   0.6250000   0.8750000  )
        33           Zn  tau(  33) = (   0.5000000   0.0000000   0.0000000  )
        34           Zn  tau(  34) = (   0.5000000   0.2500000   0.2500000  )
        35           Zn  tau(  35) = (   0.7500000   0.0000000   0.2500000  )
        36           Zn  tau(  36) = (   0.7500000   0.2500000   0.0000000  )
        37           S   tau(  37) = (   0.6250000   0.3750000   0.3750000  )
        38           S   tau(  38) = (   0.6250000   0.1250000   0.1250000  )
        39           S   tau(  39) = (   0.8750000   0.3750000   0.1250000  )
        40           S   tau(  40) = (   0.8750000   0.1250000   0.3750000  )
        41           Zn  tau(  41) = (   0.5000000   0.0000000   0.5000000  )
        42           Zn  tau(  42) = (   0.5000000   0.2500000   0.7500000  )
        43           Zn  tau(  43) = (   0.7500000   0.0000000   0.7500000  )
        44           Zn  tau(  44) = (   0.7500000   0.2500000   0.5000000  )
        45           S   tau(  45) = (   0.6250000   0.3750000   0.8750000  )
        46           S   tau(  46) = (   0.6250000   0.1250000   0.6250000  )
        47           S   tau(  47) = (   0.8750000   0.3750000   0.6250000  )
        48           S   tau(  48) = (   0.8750000   0.1250000   0.8750000  )
        49           Zn  tau(  49) = (   0.5000000   0.5000000   0.0000000  )
        50           Zn  tau(  50) = (   0.5000000   0.7500000   0.2500000  )
        51           Zn  tau(  51) = (   0.7500000   0.5000000   0.2500000  )
        52           Zn  tau(  52) = (   0.7500000   0.7500000   0.0000000  )
        53           S   tau(  53) = (   0.6250000   0.8750000   0.3750000  )
        54           S   tau(  54) = (   0.6250000   0.6250000   0.1250000  )
        55           S   tau(  55) = (   0.8750000   0.8750000   0.1250000  )
        56           S   tau(  56) = (   0.8750000   0.6250000   0.3750000  )
        57           Zn  tau(  57) = (   0.5000000   0.5000000   0.5000000  )
        58           Zn  tau(  58) = (   0.5000000   0.7500000   0.7500000  )
        59           Zn  tau(  59) = (   0.7500000   0.5000000   0.7500000  )
        60           Zn  tau(  60) = (   0.7500000   0.7500000   0.5000000  )
        61           S   tau(  61) = (   0.6250000   0.8750000   0.8750000  )
        62           S   tau(  62) = (   0.6250000   0.6250000   0.6250000  )
        63           S   tau(  63) = (   0.8750000   0.8750000   0.6250000  )
        64           S   tau(  64) = (   0.8750000   0.6250000   0.8750000  )

   Crystallographic axes

     site n.     atom                  positions (cryst. coord.)
         1           Zn  tau(   1) = (  0.0000000  0.0000000  0.0000000  )
         2           Zn  tau(   2) = (  0.0000000  0.2500000  0.2500000  )
         3           Zn  tau(   3) = (  0.2500000  0.0000000  0.2500000  )
         4           Zn  tau(   4) = (  0.2500000  0.2500000  0.0000000  )
         5           S   tau(   5) = (  0.1250000  0.3750000  0.3750000  )
         6           S   tau(   6) = (  0.1250000  0.1250000  0.1250000  )
         7           S   tau(   7) = (  0.3750000  0.3750000  0.1250000  )
         8           S   tau(   8) = (  0.3750000  0.1250000  0.3750000  )
         9           Zn  tau(   9) = (  0.0000000  0.0000000  0.5000000  )
        10           Zn  tau(  10) = (  0.0000000  0.2500000  0.7500000  )
        11           Zn  tau(  11) = (  0.2500000  0.0000000  0.7500000  )
        12           Zn  tau(  12) = (  0.2500000  0.2500000  0.5000000  )
        13           S   tau(  13) = (  0.1250000  0.3750000  0.8750000  )
        14           S   tau(  14) = (  0.1250000  0.1250000  0.6250000  )
        15           S   tau(  15) = (  0.3750000  0.3750000  0.6250000  )
        16           S   tau(  16) = (  0.3750000  0.1250000  0.8750000  )
        17           Zn  tau(  17) = (  0.0000000  0.5000000  0.0000000  )
        18           Zn  tau(  18) = (  0.0000000  0.7500000  0.2500000  )
        19           Zn  tau(  19) = (  0.2500000  0.5000000  0.2500000  )
        20           Zn  tau(  20) = (  0.2500000  0.7500000  0.0000000  )
        21           S   tau(  21) = (  0.1250000  0.8750000  0.3750000  )
        22           S   tau(  22) = (  0.1250000  0.6250000  0.1250000  )
        23           S   tau(  23) = (  0.3750000  0.8750000  0.1250000  )
        24           S   tau(  24) = (  0.3750000  0.6250000  0.3750000  )
        25           Zn  tau(  25) = (  0.0000000  0.5000000  0.5000000  )
        26           Zn  tau(  26) = (  0.0000000  0.7500000  0.7500000  )
        27           Zn  tau(  27) = (  0.2500000  0.5000000  0.7500000  )
        28           Zn  tau(  28) = (  0.2500000  0.7500000  0.5000000  )
        29           S   tau(  29) = (  0.1250000  0.8750000  0.8750000  )
        30           S   tau(  30) = (  0.1250000  0.6250000  0.6250000  )
        31           S   tau(  31) = (  0.3750000  0.8750000  0.6250000  )
        32           S   tau(  32) = (  0.3750000  0.6250000  0.8750000  )
        33           Zn  tau(  33) = (  0.5000000  0.0000000  0.0000000  )
        34           Zn  tau(  34) = (  0.5000000  0.2500000  0.2500000  )
        35           Zn  tau(  35) = (  0.7500000  0.0000000  0.2500000  )
        36           Zn  tau(  36) = (  0.7500000  0.2500000  0.0000000  )
        37           S   tau(  37) = (  0.6250000  0.3750000  0.3750000  )
        38           S   tau(  38) = (  0.6250000  0.1250000  0.1250000  )
        39           S   tau(  39) = (  0.8750000  0.3750000  0.1250000  )
        40           S   tau(  40) = (  0.8750000  0.1250000  0.3750000  )
        41           Zn  tau(  41) = (  0.5000000  0.0000000  0.5000000  )
        42           Zn  tau(  42) = (  0.5000000  0.2500000  0.7500000  )
        43           Zn  tau(  43) = (  0.7500000  0.0000000  0.7500000  )
        44           Zn  tau(  44) = (  0.7500000  0.2500000  0.5000000  )
        45           S   tau(  45) = (  0.6250000  0.3750000  0.8750000  )
        46           S   tau(  46) = (  0.6250000  0.1250000  0.6250000  )
        47           S   tau(  47) = (  0.8750000  0.3750000  0.6250000  )
        48           S   tau(  48) = (  0.8750000  0.1250000  0.8750000  )
        49           Zn  tau(  49) = (  0.5000000  0.5000000  0.0000000  )
        50           Zn  tau(  50) = (  0.5000000  0.7500000  0.2500000  )
        51           Zn  tau(  51) = (  0.7500000  0.5000000  0.2500000  )
        52           Zn  tau(  52) = (  0.7500000  0.7500000  0.0000000  )
        53           S   tau(  53) = (  0.6250000  0.8750000  0.3750000  )
        54           S   tau(  54) = (  0.6250000  0.6250000  0.1250000  )
        55           S   tau(  55) = (  0.8750000  0.8750000  0.1250000  )
        56           S   tau(  56) = (  0.8750000  0.6250000  0.3750000  )
        57           Zn  tau(  57) = (  0.5000000  0.5000000  0.5000000  )
        58           Zn  tau(  58) = (  0.5000000  0.7500000  0.7500000  )
        59           Zn  tau(  59) = (  0.7500000  0.5000000  0.7500000  )
        60           Zn  tau(  60) = (  0.7500000  0.7500000  0.5000000  )
        61           S   tau(  61) = (  0.6250000  0.8750000  0.8750000  )
        62           S   tau(  62) = (  0.6250000  0.6250000  0.6250000  )
        63           S   tau(  63) = (  0.8750000  0.8750000  0.6250000  )
        64           S   tau(  64) = (  0.8750000  0.6250000  0.8750000  )

     number of k points=    10
                       cart. coord. in units 2pi/alat
        k(    1) = (   0.0000000   0.0000000   0.0000000), wk =   0.0312500
        k(    2) = (   0.0000000   0.0000000   0.2500000), wk =   0.1875000
        k(    3) = (   0.0000000   0.0000000  -0.5000000), wk =   0.0937500
        k(    4) = (   0.0000000   0.2500000   0.2500000), wk =   0.3750000
        k(    5) = (   0.0000000   0.2500000  -0.5000000), wk =   0.3750000
        k(    6) = (   0.0000000  -0.5000000  -0.5000000), wk =   0.0937500
        k(    7) = (   0.2500000   0.2500000   0.2500000), wk =   0.2500000
        k(    8) = (   0.2500000   0.2500000  -0.5000000), wk =   0.3750000
        k(    9) = (   0.2500000  -0.5000000  -0.5000000), wk =   0.1875000
        k(   10) = (  -0.5000000  -0.5000000  -0.5000000), wk =   0.0312500

                       cryst. coord.
        k(    1) = (   0.0000000   0.0000000   0.0000000), wk =   0.0312500
        k(    2) = (   0.0000000   0.0000000   0.2500000), wk =   0.1875000
        k(    3) = (   0.0000000   0.0000000  -0.5000000), wk =   0.0937500
        k(    4) = (   0.0000000   0.2500000   0.2500000), wk =   0.3750000
        k(    5) = (   0.0000000   0.2500000  -0.5000000), wk =   0.3750000
        k(    6) = (   0.0000000  -0.5000000  -0.5000000), wk =   0.0937500
        k(    7) = (   0.2500000   0.2500000   0.2500000), wk =   0.2500000
        k(    8) = (   0.2500000   0.2500000  -0.5000000), wk =   0.3750000
        k(    9) = (   0.2500000  -0.5000000  -0.5000000), wk =   0.1875000
        k(   10) = (  -0.5000000  -0.5000000  -0.5000000), wk =   0.0312500

     Dense  grid:  1264415 G-vectors     FFT dimensions: ( 135, 135, 135)

     Dynamical RAM for                 wfc:       7.43 MB

     Dynamical RAM for     wfc (w. buffer):       7.43 MB

     Dynamical RAM for             U proj.:       3.44 MB

     Dynamical RAM for  U proj. (w. buff.):       3.44 MB

     Dynamical RAM for           str. fact:       0.34 MB

     Dynamical RAM for           local pot:       0.00 MB

     Dynamical RAM for          nlocal pot:      24.80 MB

     Dynamical RAM for                qrad:       3.29 MB

     Dynamical RAM for          rho,v,vnew:       1.35 MB

     Dynamical RAM for               rhoin:       0.45 MB

     Dynamical RAM for            rho*nmix:       2.76 MB

     Dynamical RAM for           G-vectors:       0.73 MB

     Dynamical RAM for          h,s,v(r/c):       2.42 MB

     Dynamical RAM for          <psi|beta>:       6.06 MB

     Dynamical RAM for                 psi:      14.86 MB

     Dynamical RAM for                hpsi:      14.86 MB

     Dynamical RAM for                spsi:      14.86 MB

     Dynamical RAM for      wfcinit/wfcrot:      21.88 MB

     Dynamical RAM for           addusdens:       3.91 MB

     Estimated static dynamical RAM per process >      43.75 MB

     Estimated max dynamical RAM per process >      99.56 MB

     Estimated total dynamical RAM >     106.18 GB

     Initial potential from superposition of free atoms

     starting charge     575.8798, renormalised to     576.0000

     HUBBARD ENERGY =    3.4221  (Ry)

     STARTING HUBBARD OCCUPATIONS:

     =================== HUBBARD OCCUPATIONS ===================
     ------------------------ ATOM    1 ------------------------
     Tr[ns(  1)] =   9.70000
     eigenvalues:
       0.970  0.970  0.970  0.970  0.970
     eigenvectors (columns):
       1.000  0.000  0.000  0.000  0.000
       0.000  1.000  0.000  0.000  0.000
       0.000  0.000  1.000  0.000  0.000
       0.000  0.000  0.000  1.000  0.000
       0.000  0.000  0.000  0.000  1.000
     occupation matrix ns (before diag.):
       0.970  0.000  0.000  0.000  0.000
       0.000  0.970  0.000  0.000  0.000
       0.000  0.000  0.970  0.000  0.000
       0.000  0.000  0.000  0.970  0.000
       0.000  0.000  0.000  0.000  0.970
     ------------------------ ATOM    2 ------------------------
     Tr[ns(  2)] =   9.70000
     eigenvalues:
       0.970  0.970  0.970  0.970  0.970
     eigenvectors (columns):
       1.000  0.000  0.000  0.000  0.000
       0.000  1.000  0.000  0.000  0.000
       0.000  0.000  1.000  0.000  0.000
       0.000  0.000  0.000  1.000  0.000
       0.000  0.000  0.000  0.000  1.000
     occupation matrix ns (before diag.):
       0.970  0.000  0.000  0.000  0.000
       0.000  0.970  0.000  0.000  0.000
       0.000  0.000  0.970  0.000  0.000
       0.000  0.000  0.000  0.970  0.000
       0.000  0.000  0.000  0.000  0.970
     ------------------------ ATOM    3 ------------------------
     Tr[ns(  3)] =   9.70000
     eigenvalues:
       0.970  0.970  0.970  0.970  0.970
     eigenvectors (columns):
       1.000  0.000  0.000  0.000  0.000
       0.000  1.000  0.000  0.000  0.000
       0.000  0.000  1.000  0.000  0.000
       0.000  0.000  0.000  1.000  0.000
       0.000  0.000  0.000  0.000  1.000
     occupation matrix ns (before diag.):
       0.970  0.000  0.000  0.000  0.000
       0.000  0.970  0.000  0.000  0.000
       0.000  0.000  0.970  0.000  0.000
       0.000  0.000  0.000  0.970  0.000
       0.000  0.000  0.000  0.000  0.970
     ------------------------ ATOM    4 ------------------------
     Tr[ns(  4)] =   9.70000
     eigenvalues:
       0.970  0.970  0.970  0.970  0.970
     eigenvectors (columns):
       1.000  0.000  0.000  0.000  0.000
       0.000  1.000  0.000  0.000  0.000
       0.000  0.000  1.000  0.000  0.000
       0.000  0.000  0.000  1.000  0.000
       0.000  0.000  0.000  0.000  1.000
     occupation matrix ns (before diag.):
       0.970  0.000  0.000  0.000  0.000
       0.000  0.970  0.000  0.000  0.000
       0.000  0.000  0.970  0.000  0.000
       0.000  0.000  0.000  0.970  0.000
       0.000  0.000  0.000  0.000  0.970
     ------------------------ ATOM    9 ------------------------
     Tr[ns(  9)] =   9.70000
     eigenvalues:
       0.970  0.970  0.970  0.970  0.970
     eigenvectors (columns):
       1.000  0.000  0.000  0.000  0.000
       0.000  1.000  0.000  0.000  0.000
       0.000  0.000  1.000  0.000  0.000
       0.000  0.000  0.000  1.000  0.000
       0.000  0.000  0.000  0.000  1.000
     occupation matrix ns (before diag.):
       0.970  0.000  0.000  0.000  0.000
       0.000  0.970  0.000  0.000  0.000
       0.000  0.000  0.970  0.000  0.000
       0.000  0.000  0.000  0.970  0.000
       0.000  0.000  0.000  0.000  0.970
     ------------------------ ATOM   10 ------------------------
     Tr[ns( 10)] =   9.70000
     eigenvalues:
       0.970  0.970  0.970  0.970  0.970
     eigenvectors (columns):
       1.000  0.000  0.000  0.000  0.000
       0.000  1.000  0.000  0.000  0.000
       0.000  0.000  1.000  0.000  0.000
       0.000  0.000  0.000  1.000  0.000
       0.000  0.000  0.000  0.000  1.000
     occupation matrix ns (before diag.):
       0.970  0.000  0.000  0.000  0.000
       0.000  0.970  0.000  0.000  0.000
       0.000  0.000  0.970  0.000  0.000
       0.000  0.000  0.000  0.970  0.000
       0.000  0.000  0.000  0.000  0.970
     ------------------------ ATOM   11 ------------------------
     Tr[ns( 11)] =   9.70000
     eigenvalues:
       0.970  0.970  0.970  0.970  0.970
     eigenvectors (columns):
       1.000  0.000  0.000  0.000  0.000
       0.000  1.000  0.000  0.000  0.000
       0.000  0.000  1.000  0.000  0.000
       0.000  0.000  0.000  1.000  0.000
       0.000  0.000  0.000  0.000  1.000
     occupation matrix ns (before diag.):
       0.970  0.000  0.000  0.000  0.000
       0.000  0.970  0.000  0.000  0.000
       0.000  0.000  0.970  0.000  0.000
       0.000  0.000  0.000  0.970  0.000
       0.000  0.000  0.000  0.000  0.970
     ------------------------ ATOM   12 ------------------------
     Tr[ns( 12)] =   9.70000
     eigenvalues:
       0.970  0.970  0.970  0.970  0.970
     eigenvectors (columns):
       1.000  0.000  0.000  0.000  0.000
       0.000  1.000  0.000  0.000  0.000
       0.000  0.000  1.000  0.000  0.000
       0.000  0.000  0.000  1.000  0.000
       0.000  0.000  0.000  0.000  1.000
     occupation matrix ns (before diag.):
       0.970  0.000  0.000  0.000  0.000
       0.000  0.970  0.000  0.000  0.000
       0.000  0.000  0.970  0.000  0.000
       0.000  0.000  0.000  0.970  0.000
       0.000  0.000  0.000  0.000  0.970
     ------------------------ ATOM   17 ------------------------
     Tr[ns( 17)] =   9.70000
     eigenvalues:
       0.970  0.970  0.970  0.970  0.970
     eigenvectors (columns):
       1.000  0.000  0.000  0.000  0.000
       0.000  1.000  0.000  0.000  0.000
       0.000  0.000  1.000  0.000  0.000
       0.000  0.000  0.000  1.000  0.000
       0.000  0.000  0.000  0.000  1.000
     occupation matrix ns (before diag.):
       0.970  0.000  0.000  0.000  0.000
       0.000  0.970  0.000  0.000  0.000
       0.000  0.000  0.970  0.000  0.000
       0.000  0.000  0.000  0.970  0.000
       0.000  0.000  0.000  0.000  0.970
     ------------------------ ATOM   18 ------------------------
     Tr[ns( 18)] =   9.70000
     eigenvalues:
       0.970  0.970  0.970  0.970  0.970
     eigenvectors (columns):
       1.000  0.000  0.000  0.000  0.000
       0.000  1.000  0.000  0.000  0.000
       0.000  0.000  1.000  0.000  0.000
       0.000  0.000  0.000  1.000  0.000
       0.000  0.000  0.000  0.000  1.000
     occupation matrix ns (before diag.):
       0.970  0.000  0.000  0.000  0.000
       0.000  0.970  0.000  0.000  0.000
       0.000  0.000  0.970  0.000  0.000
       0.000  0.000  0.000  0.970  0.000
       0.000  0.000  0.000  0.000  0.970
     ------------------------ ATOM   19 ------------------------
     Tr[ns( 19)] =   9.70000
     eigenvalues:
       0.970  0.970  0.970  0.970  0.970
     eigenvectors (columns):
       1.000  0.000  0.000  0.000  0.000
       0.000  1.000  0.000  0.000  0.000
       0.000  0.000  1.000  0.000  0.000
       0.000  0.000  0.000  1.000  0.000
       0.000  0.000  0.000  0.000  1.000
     occupation matrix ns (before diag.):
       0.970  0.000  0.000  0.000  0.000
       0.000  0.970  0.000  0.000  0.000
       0.000  0.000  0.970  0.000  0.000
       0.000  0.000  0.000  0.970  0.000
       0.000  0.000  0.000  0.000  0.970
     ------------------------ ATOM   20 ------------------------
     Tr[ns( 20)] =   9.70000
     eigenvalues:
       0.970  0.970  0.970  0.970  0.970
     eigenvectors (columns):
       1.000  0.000  0.000  0.000  0.000
       0.000  1.000  0.000  0.000  0.000
       0.000  0.000  1.000  0.000  0.000
       0.000  0.000  0.000  1.000  0.000
       0.000  0.000  0.000  0.000  1.000
     occupation matrix ns (before diag.):
       0.970  0.000  0.000  0.000  0.000
       0.000  0.970  0.000  0.000  0.000
       0.000  0.000  0.970  0.000  0.000
       0.000  0.000  0.000  0.970  0.000
       0.000  0.000  0.000  0.000  0.970
     ------------------------ ATOM   25 ------------------------
     Tr[ns( 25)] =   9.70000
     eigenvalues:
       0.970  0.970  0.970  0.970  0.970
     eigenvectors (columns):
       1.000  0.000  0.000  0.000  0.000
       0.000  1.000  0.000  0.000  0.000
       0.000  0.000  1.000  0.000  0.000
       0.000  0.000  0.000  1.000  0.000
       0.000  0.000  0.000  0.000  1.000
     occupation matrix ns (before diag.):
       0.970  0.000  0.000  0.000  0.000
       0.000  0.970  0.000  0.000  0.000
       0.000  0.000  0.970  0.000  0.000
       0.000  0.000  0.000  0.970  0.000
       0.000  0.000  0.000  0.000  0.970
     ------------------------ ATOM   26 ------------------------
     Tr[ns( 26)] =   9.70000
     eigenvalues:
       0.970  0.970  0.970  0.970  0.970
     eigenvectors (columns):
       1.000  0.000  0.000  0.000  0.000
       0.000  1.000  0.000  0.000  0.000
       0.000  0.000  1.000  0.000  0.000
       0.000  0.000  0.000  1.000  0.000
       0.000  0.000  0.000  0.000  1.000
     occupation matrix ns (before diag.):
       0.970  0.000  0.000  0.000  0.000
       0.000  0.970  0.000  0.000  0.000
       0.000  0.000  0.970  0.000  0.000
       0.000  0.000  0.000  0.970  0.000
       0.000  0.000  0.000  0.000  0.970
     ------------------------ ATOM   27 ------------------------
     Tr[ns( 27)] =   9.70000
     eigenvalues:
       0.970  0.970  0.970  0.970  0.970
     eigenvectors (columns):
       1.000  0.000  0.000  0.000  0.000
       0.000  1.000  0.000  0.000  0.000
       0.000  0.000  1.000  0.000  0.000
       0.000  0.000  0.000  1.000  0.000
       0.000  0.000  0.000  0.000  1.000
     occupation matrix ns (before diag.):
       0.970  0.000  0.000  0.000  0.000
       0.000  0.970  0.000  0.000  0.000
       0.000  0.000  0.970  0.000  0.000
       0.000  0.000  0.000  0.970  0.000
       0.000  0.000  0.000  0.000  0.970
     ------------------------ ATOM   28 ------------------------
     Tr[ns( 28)] =   9.70000
     eigenvalues:
       0.970  0.970  0.970  0.970  0.970
     eigenvectors (columns):
       1.000  0.000  0.000  0.000  0.000
       0.000  1.000  0.000  0.000  0.000
       0.000  0.000  1.000  0.000  0.000
       0.000  0.000  0.000  1.000  0.000
       0.000  0.000  0.000  0.000  1.000
     occupation matrix ns (before diag.):
       0.970  0.000  0.000  0.000  0.000
       0.000  0.970  0.000  0.000  0.000
       0.000  0.000  0.970  0.000  0.000
       0.000  0.000  0.000  0.970  0.000
       0.000  0.000  0.000  0.000  0.970
     ------------------------ ATOM   33 ------------------------
     Tr[ns( 33)] =   9.70000
     eigenvalues:
       0.970  0.970  0.970  0.970  0.970
     eigenvectors (columns):
       1.000  0.000  0.000  0.000  0.000
       0.000  1.000  0.000  0.000  0.000
       0.000  0.000  1.000  0.000  0.000
       0.000  0.000  0.000  1.000  0.000
       0.000  0.000  0.000  0.000  1.000
     occupation matrix ns (before diag.):
       0.970  0.000  0.000  0.000  0.000
       0.000  0.970  0.000  0.000  0.000
       0.000  0.000  0.970  0.000  0.000
       0.000  0.000  0.000  0.970  0.000
       0.000  0.000  0.000  0.000  0.970
     ------------------------ ATOM   34 ------------------------
     Tr[ns( 34)] =   9.70000
     eigenvalues:
       0.970  0.970  0.970  0.970  0.970
     eigenvectors (columns):
       1.000  0.000  0.000  0.000  0.000
       0.000  1.000  0.000  0.000  0.000
       0.000  0.000  1.000  0.000  0.000
       0.000  0.000  0.000  1.000  0.000
       0.000  0.000  0.000  0.000  1.000
     occupation matrix ns (before diag.):
       0.970  0.000  0.000  0.000  0.000
       0.000  0.970  0.000  0.000  0.000
       0.000  0.000  0.970  0.000  0.000
       0.000  0.000  0.000  0.970  0.000
       0.000  0.000  0.000  0.000  0.970
     ------------------------ ATOM   35 ------------------------
     Tr[ns( 35)] =   9.70000
     eigenvalues:
       0.970  0.970  0.970  0.970  0.970
     eigenvectors (columns):
       1.000  0.000  0.000  0.000  0.000
       0.000  1.000  0.000  0.000  0.000
       0.000  0.000  1.000  0.000  0.000
       0.000  0.000  0.000  1.000  0.000
       0.000  0.000  0.000  0.000  1.000
     occupation matrix ns (before diag.):
       0.970  0.000  0.000  0.000  0.000
       0.000  0.970  0.000  0.000  0.000
       0.000  0.000  0.970  0.000  0.000
       0.000  0.000  0.000  0.970  0.000
       0.000  0.000  0.000  0.000  0.970
     ------------------------ ATOM   36 ------------------------
     Tr[ns( 36)] =   9.70000
     eigenvalues:
       0.970  0.970  0.970  0.970  0.970
     eigenvectors (columns):
       1.000  0.000  0.000  0.000  0.000
       0.000  1.000  0.000  0.000  0.000
       0.000  0.000  1.000  0.000  0.000
       0.000  0.000  0.000  1.000  0.000
       0.000  0.000  0.000  0.000  1.000
     occupation matrix ns (before diag.):
       0.970  0.000  0.000  0.000  0.000
       0.000  0.970  0.000  0.000  0.000
       0.000  0.000  0.970  0.000  0.000
       0.000  0.000  0.000  0.970  0.000
       0.000  0.000  0.000  0.000  0.970
     ------------------------ ATOM   41 ------------------------
     Tr[ns( 41)] =   9.70000
     eigenvalues:
       0.970  0.970  0.970  0.970  0.970
     eigenvectors (columns):
       1.000  0.000  0.000  0.000  0.000
       0.000  1.000  0.000  0.000  0.000
       0.000  0.000  1.000  0.000  0.000
       0.000  0.000  0.000  1.000  0.000
       0.000  0.000  0.000  0.000  1.000
     occupation matrix ns (before diag.):
       0.970  0.000  0.000  0.000  0.000
       0.000  0.970  0.000  0.000  0.000
       0.000  0.000  0.970  0.000  0.000
       0.000  0.000  0.000  0.970  0.000
       0.000  0.000  0.000  0.000  0.970
     ------------------------ ATOM   42 ------------------------
     Tr[ns( 42)] =   9.70000
     eigenvalues:
       0.970  0.970  0.970  0.970  0.970
     eigenvectors (columns):
       1.000  0.000  0.000  0.000  0.000
       0.000  1.000  0.000  0.000  0.000
       0.000  0.000  1.000  0.000  0.000
       0.000  0.000  0.000  1.000  0.000
       0.000  0.000  0.000  0.000  1.000
     occupation matrix ns (before diag.):
       0.970  0.000  0.000  0.000  0.000
       0.000  0.970  0.000  0.000  0.000
       0.000  0.000  0.970  0.000  0.000
       0.000  0.000  0.000  0.970  0.000
       0.000  0.000  0.000  0.000  0.970
     ------------------------ ATOM   43 ------------------------
     Tr[ns( 43)] =   9.70000
     eigenvalues:
       0.970  0.970  0.970  0.970  0.970
     eigenvectors (columns):
       1.000  0.000  0.000  0.000  0.000
       0.000  1.000  0.000  0.000  0.000
       0.000  0.000  1.000  0.000  0.000
       0.000  0.000  0.000  1.000  0.000
       0.000  0.000  0.000  0.000  1.000
     occupation matrix ns (before diag.):
       0.970  0.000  0.000  0.000  0.000
       0.000  0.970  0.000  0.000  0.000
       0.000  0.000  0.970  0.000  0.000
       0.000  0.000  0.000  0.970  0.000
       0.000  0.000  0.000  0.000  0.970
     ------------------------ ATOM   44 ------------------------
     Tr[ns( 44)] =   9.70000
     eigenvalues:
       0.970  0.970  0.970  0.970  0.970
     eigenvectors (columns):
       1.000  0.000  0.000  0.000  0.000
       0.000  1.000  0.000  0.000  0.000
       0.000  0.000  1.000  0.000  0.000
       0.000  0.000  0.000  1.000  0.000
       0.000  0.000  0.000  0.000  1.000
     occupation matrix ns (before diag.):
       0.970  0.000  0.000  0.000  0.000
       0.000  0.970  0.000  0.000  0.000
       0.000  0.000  0.970  0.000  0.000
       0.000  0.000  0.000  0.970  0.000
       0.000  0.000  0.000  0.000  0.970
     ------------------------ ATOM   49 ------------------------
     Tr[ns( 49)] =   9.70000
     eigenvalues:
       0.970  0.970  0.970  0.970  0.970
     eigenvectors (columns):
       1.000  0.000  0.000  0.000  0.000
       0.000  1.000  0.000  0.000  0.000
       0.000  0.000  1.000  0.000  0.000
       0.000  0.000  0.000  1.000  0.000
       0.000  0.000  0.000  0.000  1.000
     occupation matrix ns (before diag.):
       0.970  0.000  0.000  0.000  0.000
       0.000  0.970  0.000  0.000  0.000
       0.000  0.000  0.970  0.000  0.000
       0.000  0.000  0.000  0.970  0.000
       0.000  0.000  0.000  0.000  0.970
     ------------------------ ATOM   50 ------------------------
     Tr[ns( 50)] =   9.70000
     eigenvalues:
       0.970  0.970  0.970  0.970  0.970
     eigenvectors (columns):
       1.000  0.000  0.000  0.000  0.000
       0.000  1.000  0.000  0.000  0.000
       0.000  0.000  1.000  0.000  0.000
       0.000  0.000  0.000  1.000  0.000
       0.000  0.000  0.000  0.000  1.000
     occupation matrix ns (before diag.):
       0.970  0.000  0.000  0.000  0.000
       0.000  0.970  0.000  0.000  0.000
       0.000  0.000  0.970  0.000  0.000
       0.000  0.000  0.000  0.970  0.000
       0.000  0.000  0.000  0.000  0.970
     ------------------------ ATOM   51 ------------------------
     Tr[ns( 51)] =   9.70000
     eigenvalues:
       0.970  0.970  0.970  0.970  0.970
     eigenvectors (columns):
       1.000  0.000  0.000  0.000  0.000
       0.000  1.000  0.000  0.000  0.000
       0.000  0.000  1.000  0.000  0.000
       0.000  0.000  0.000  1.000  0.000
       0.000  0.000  0.000  0.000  1.000
     occupation matrix ns (before diag.):
       0.970  0.000  0.000  0.000  0.000
       0.000  0.970  0.000  0.000  0.000
       0.000  0.000  0.970  0.000  0.000
       0.000  0.000  0.000  0.970  0.000
       0.000  0.000  0.000  0.000  0.970
     ------------------------ ATOM   52 ------------------------
     Tr[ns( 52)] =   9.70000
     eigenvalues:
       0.970  0.970  0.970  0.970  0.970
     eigenvectors (columns):
       1.000  0.000  0.000  0.000  0.000
       0.000  1.000  0.000  0.000  0.000
       0.000  0.000  1.000  0.000  0.000
       0.000  0.000  0.000  1.000  0.000
       0.000  0.000  0.000  0.000  1.000
     occupation matrix ns (before diag.):
       0.970  0.000  0.000  0.000  0.000
       0.000  0.970  0.000  0.000  0.000
       0.000  0.000  0.970  0.000  0.000
       0.000  0.000  0.000  0.970  0.000
       0.000  0.000  0.000  0.000  0.970
     ------------------------ ATOM   57 ------------------------
     Tr[ns( 57)] =   9.70000
     eigenvalues:
       0.970  0.970  0.970  0.970  0.970
     eigenvectors (columns):
       1.000  0.000  0.000  0.000  0.000
       0.000  1.000  0.000  0.000  0.000
       0.000  0.000  1.000  0.000  0.000
       0.000  0.000  0.000  1.000  0.000
       0.000  0.000  0.000  0.000  1.000
     occupation matrix ns (before diag.):
       0.970  0.000  0.000  0.000  0.000
       0.000  0.970  0.000  0.000  0.000
       0.000  0.000  0.970  0.000  0.000
       0.000  0.000  0.000  0.970  0.000
       0.000  0.000  0.000  0.000  0.970
     ------------------------ ATOM   58 ------------------------
     Tr[ns( 58)] =   9.70000
     eigenvalues:
       0.970  0.970  0.970  0.970  0.970
     eigenvectors (columns):
       1.000  0.000  0.000  0.000  0.000
       0.000  1.000  0.000  0.000  0.000
       0.000  0.000  1.000  0.000  0.000
       0.000  0.000  0.000  1.000  0.000
       0.000  0.000  0.000  0.000  1.000
     occupation matrix ns (before diag.):
       0.970  0.000  0.000  0.000  0.000
       0.000  0.970  0.000  0.000  0.000
       0.000  0.000  0.970  0.000  0.000
       0.000  0.000  0.000  0.970  0.000
       0.000  0.000  0.000  0.000  0.970
     ------------------------ ATOM   59 ------------------------
     Tr[ns( 59)] =   9.70000
     eigenvalues:
       0.970  0.970  0.970  0.970  0.970
     eigenvectors (columns):
       1.000  0.000  0.000  0.000  0.000
       0.000  1.000  0.000  0.000  0.000
       0.000  0.000  1.000  0.000  0.000
       0.000  0.000  0.000  1.000  0.000
       0.000  0.000  0.000  0.000  1.000
     occupation matrix ns (before diag.):
       0.970  0.000  0.000  0.000  0.000
       0.000  0.970  0.000  0.000  0.000
       0.000  0.000  0.970  0.000  0.000
       0.000  0.000  0.000  0.970  0.000
       0.000  0.000  0.000  0.000  0.970
     ------------------------ ATOM   60 ------------------------
     Tr[ns( 60)] =   9.70000
     eigenvalues:
       0.970  0.970  0.970  0.970  0.970
     eigenvectors (columns):
       1.000  0.000  0.000  0.000  0.000
       0.000  1.000  0.000  0.000  0.000
       0.000  0.000  1.000  0.000  0.000
       0.000  0.000  0.000  1.000  0.000
       0.000  0.000  0.000  0.000  1.000
     occupation matrix ns (before diag.):
       0.970  0.000  0.000  0.000  0.000
       0.000  0.970  0.000  0.000  0.000
       0.000  0.000  0.970  0.000  0.000
       0.000  0.000  0.000  0.970  0.000
       0.000  0.000  0.000  0.000  0.970

     Number of occupied Hubbard levels =  310.4000

     Atomic wfc used for Hubbard projectors are orthogonalized

     Starting wfcs are  416 randomized atomic wfcs
     Checking if some PAW data can be deallocated... 
       PAW data deallocated on  560 nodes for type:  1
       PAW data deallocated on  560 nodes for type:  2

     total cpu time spent up to now is      180.6 secs

     Self-consistent Calculation

     iteration #  1     ecut=   105.00 Ry     beta= 0.70
     Davidson diagonalization with overlap

---- Real-time Memory Report at c_bands before calling an iterative solver
           438 MiB given to the printing process from OS
             0 MiB allocation reported by mallinfo(arena+hblkhd)
        219855 MiB available memory on the node where the printing process lives
------------------
     ethr =  1.00E-02,  avg # of iterations =  4.6

     =================== HUBBARD OCCUPATIONS ===================
     ------------------------ ATOM    1 ------------------------
     Tr[ns(  1)] =   9.98279
     eigenvalues:
       0.998  0.998  0.998  0.999  0.999
     eigenvectors (columns):
       0.000  0.000 -0.000 -0.055 -0.998
       0.326 -0.057 -0.943  0.000  0.000
       0.627 -0.734  0.262  0.000  0.000
      -0.000 -0.000  0.000  0.998 -0.055
      -0.707 -0.677 -0.204 -0.000 -0.000
     occupation matrix ns (before diag.):
       0.999 -0.000 -0.000  0.000  0.000
      -0.000  0.998 -0.000  0.000  0.000
      -0.000 -0.000  0.998  0.000  0.000
       0.000  0.000  0.000  0.999 -0.000
       0.000  0.000  0.000 -0.000  0.998
     ------------------------ ATOM    2 ------------------------
     Tr[ns(  2)] =   9.98287
     eigenvalues:
       0.998  0.998  0.998  0.999  0.999
     eigenvectors (columns):
      -0.000 -0.001  0.000 -0.866 -0.500
      -0.086 -0.707 -0.702  0.001 -0.000
       0.993  0.000 -0.122  0.000 -0.000
       0.000 -0.000 -0.000 -0.500  0.866
       0.086 -0.707  0.702  0.001  0.000
     occupation matrix ns (before diag.):
       0.999 -0.000  0.000 -0.000 -0.000
      -0.000  0.998  0.000 -0.000 -0.000
       0.000  0.000  0.998 -0.000 -0.000
      -0.000 -0.000 -0.000  0.999 -0.000
      -0.000 -0.000 -0.000 -0.000  0.998
     ------------------------ ATOM    3 ------------------------
     Tr[ns(  3)] =   9.98287
     eigenvalues:
       0.998  0.998  0.998  0.999  0.999
     eigenvectors (columns):
      -0.000  0.001 -0.000 -0.866 -0.500
       0.993 -0.000  0.122  0.000 -0.000
      -0.086  0.707  0.702  0.001 -0.000
      -0.000 -0.000 -0.000  0.500 -0.866
       0.086  0.707 -0.702  0.001  0.000
     occupation matrix ns (before diag.):
       0.999  0.000 -0.000  0.000 -0.000
       0.000  0.998  0.000  0.000 -0.000
      -0.000  0.000  0.998  0.000 -0.000
       0.000  0.000  0.000  0.999  0.000
      -0.000 -0.000 -0.000  0.000  0.998
     ------------------------ ATOM    4 ------------------------
     Tr[ns(  4)] =   9.98287
     eigenvalues:
       0.998  0.998  0.998  0.999  0.999
     eigenvectors (columns):
      -0.000 -0.000 -0.000  0.000 -1.000
       0.086 -0.707 -0.702 -0.001  0.000
       0.086  0.707 -0.702  0.001  0.000
       0.000 -0.001  0.000  1.000  0.000
       0.993 -0.000  0.122 -0.000 -0.000
     occupation matrix ns (before diag.):
       0.999 -0.000 -0.000  0.000  0.000
      -0.000  0.998  0.000 -0.000 -0.000
      -0.000  0.000  0.998  0.000 -0.000
       0.000 -0.000  0.000  0.999 -0.000
       0.000 -0.000 -0.000 -0.000  0.998
     ------------------------ ATOM    9 ------------------------
     Tr[ns(  9)] =   9.98284
     eigenvalues:
       0.998  0.998  0.998  0.999  0.999
     eigenvectors (columns):
      -0.000 -0.000 -0.000  0.000  1.000
      -0.000 -0.408 -0.913 -0.000 -0.000
      -0.000 -0.913  0.408 -0.000 -0.000
       0.000  0.000  0.000 -1.000  0.000
       1.000 -0.000 -0.000  0.000  0.000
     occupation matrix ns (before diag.):
       0.999 -0.000 -0.000  0.000  0.000
      -0.000  0.998 -0.000  0.000  0.000
      -0.000 -0.000  0.998  0.000  0.000
       0.000  0.000  0.000  0.999 -0.000
       0.000  0.000  0.000 -0.000  0.998
     ------------------------ ATOM   10 ------------------------
     Tr[ns( 10)] =   9.98287
     eigenvalues:
       0.998  0.998  0.998  0.999  0.999
     eigenvectors (columns):
      -0.000 -0.001  0.000 -0.866 -0.500
      -0.086 -0.707 -0.702  0.001 -0.000
      -0.993  0.000  0.122  0.000  0.000
       0.000 -0.000 -0.000 -0.500  0.866
      -0.086  0.707 -0.702 -0.001 -0.000
     occupation matrix ns (before diag.):
       0.999 -0.000 -0.000 -0.000  0.000
      -0.000  0.998 -0.000 -0.000  0.000
      -0.000 -0.000  0.998  0.000 -0.000
      -0.000 -0.000  0.000  0.999  0.000
       0.000  0.000 -0.000  0.000  0.998
     ------------------------ ATOM   11 ------------------------
     Tr[ns( 11)] =   9.98287
     eigenvalues:
       0.998  0.998  0.998  0.999  0.999
     eigenvectors (columns):
      -0.000 -0.001  0.000 -0.866 -0.500
      -0.993  0.000  0.122  0.000  0.000
      -0.086 -0.707 -0.702  0.001 -0.000
      -0.000  0.000  0.000  0.500 -0.866
      -0.086  0.707 -0.702 -0.001 -0.000
     occupation matrix ns (before diag.):
       0.999 -0.000 -0.000  0.000  0.000
      -0.000  0.998 -0.000 -0.000 -0.000
      -0.000 -0.000  0.998  0.000  0.000
       0.000 -0.000  0.000  0.999 -0.000
       0.000 -0.000  0.000 -0.000  0.998
     ------------------------ ATOM   12 ------------------------
     Tr[ns( 12)] =   9.98284
     eigenvalues:
       0.998  0.998  0.998  0.999  0.999
     eigenvectors (columns):
      -0.001 -0.003  0.000  0.000  1.000
      -0.494  0.505 -0.707  0.001  0.001
      -0.494  0.505  0.707 -0.001  0.001
       0.000  0.000  0.002  1.000 -0.000
       0.715  0.699 -0.000 -0.000  0.003
     occupation matrix ns (before diag.):
       0.999  0.000  0.000  0.000  0.000
       0.000  0.998 -0.000  0.000  0.000
       0.000 -0.000  0.998 -0.000  0.000
       0.000  0.000 -0.000  0.999 -0.000
       0.000  0.000  0.000 -0.000  0.998
     ------------------------ ATOM   17 ------------------------
     Tr[ns( 17)] =   9.98284
     eigenvalues:
       0.998  0.998  0.998  0.999  0.999
     eigenvectors (columns):
      -0.000 -0.000 -0.000  0.866 -0.500
      -1.000  0.000 -0.000 -0.000 -0.000
      -0.000 -0.621  0.784 -0.000 -0.000
       0.000  0.000  0.000 -0.500 -0.866
       0.000  0.784  0.621  0.000  0.000
     occupation matrix ns (before diag.):
       0.999 -0.000 -0.000  0.000  0.000
      -0.000  0.998 -0.000  0.000  0.000
      -0.000 -0.000  0.998  0.000  0.000
       0.000  0.000  0.000  0.999 -0.000
       0.000  0.000  0.000 -0.000  0.998
     ------------------------ ATOM   18 ------------------------
     Tr[ns( 18)] =   9.98287
     eigenvalues:
       0.998  0.998  0.998  0.999  0.999
     eigenvectors (columns):
      -0.000  0.001 -0.000 -0.866 -0.500
       0.086 -0.707 -0.702 -0.001  0.000
      -0.993  0.000 -0.122  0.000  0.000
       0.000  0.000  0.000 -0.500  0.866
       0.086  0.707 -0.702  0.001  0.000
     occupation matrix ns (before diag.):
       0.999  0.000 -0.000 -0.000 -0.000
       0.000  0.998  0.000  0.000  0.000
      -0.000  0.000  0.998  0.000  0.000
      -0.000  0.000  0.000  0.999 -0.000
      -0.000  0.000  0.000 -0.000  0.998
     ------------------------ ATOM   19 ------------------------
     Tr[ns( 19)] =   9.98284
     eigenvalues:
       0.998  0.998  0.998  0.999  0.999
     eigenvectors (columns):
      -0.000 -0.001 -0.001  0.866  0.500
       0.715  0.699 -0.000 -0.000  0.003
       0.494 -0.505  0.707  0.001 -0.001
      -0.001 -0.002  0.001 -0.500  0.866
      -0.494  0.505  0.707  0.001  0.001
     occupation matrix ns (before diag.):
       0.999  0.000  0.000  0.000  0.000
       0.000  0.998 -0.000  0.000  0.000
       0.000 -0.000  0.998 -0.000  0.000
       0.000  0.000 -0.000  0.999  0.000
       0.000  0.000  0.000  0.000  0.998
     ------------------------ ATOM   20 ------------------------
     Tr[ns( 20)] =   9.98287
     eigenvalues:
       0.998  0.998  0.998  0.999  0.999
     eigenvectors (columns):
       0.000 -0.000  0.000  0.000 -1.000
       0.086 -0.707 -0.702 -0.001 -0.000
      -0.086 -0.707  0.702 -0.001  0.000
       0.000  0.001  0.000 -1.000 -0.000
       0.993 -0.000  0.122  0.000  0.000
     occupation matrix ns (before diag.):
       0.999  0.000 -0.000  0.000 -0.000
       0.000  0.998 -0.000  0.000 -0.000
      -0.000 -0.000  0.998  0.000  0.000
       0.000  0.000  0.000  0.999 -0.000
      -0.000 -0.000  0.000 -0.000  0.998
     ------------------------ ATOM   25 ------------------------
     Tr[ns( 25)] =   9.98288
     eigenvalues:
       0.998  0.998  0.998  0.999  0.999
     eigenvectors (columns):
      -0.000 -0.000 -0.000  0.500 -0.866
      -0.000 -0.375 -0.927 -0.000  0.000
      -1.000  0.000  0.000 -0.000  0.000
       0.000  0.000  0.000 -0.866 -0.500
       0.000  0.927 -0.375  0.000  0.000
     occupation matrix ns (before diag.):
       0.999 -0.000 -0.000  0.000  0.000
      -0.000  0.998 -0.000  0.000  0.000
      -0.000 -0.000  0.998  0.000  0.000
       0.000  0.000  0.000  0.999 -0.000
       0.000  0.000  0.000 -0.000  0.998
     ------------------------ ATOM   26 ------------------------
     Tr[ns( 26)] =   9.98287
     eigenvalues:
       0.998  0.998  0.998  0.999  0.999
     eigenvectors (columns):
      -0.000  0.001 -0.000 -0.866 -0.500
       0.086 -0.707 -0.702 -0.001  0.000
       0.993 -0.000  0.122  0.000 -0.000
       0.000  0.000  0.000 -0.500  0.866
      -0.086 -0.707  0.702 -0.001 -0.000
     occupation matrix ns (before diag.):
       0.999  0.000  0.000 -0.000  0.000
       0.000  0.998 -0.000  0.000 -0.000
       0.000 -0.000  0.998 -0.000  0.000
      -0.000  0.000 -0.000  0.999  0.000
       0.000 -0.000  0.000  0.000  0.998
     ------------------------ ATOM   27 ------------------------
     Tr[ns( 27)] =   9.98284
     eigenvalues:
       0.998  0.998  0.998  0.999  0.999
     eigenvectors (columns):
      -0.000 -0.001 -0.001  0.866  0.500
      -0.715 -0.699 -0.000 -0.000 -0.003
       0.494 -0.505  0.707  0.001 -0.001
      -0.001 -0.002  0.001 -0.500  0.866
       0.494 -0.505 -0.707 -0.001 -0.001
     occupation matrix ns (before diag.):
       0.999 -0.000  0.000  0.000 -0.000
      -0.000  0.998  0.000 -0.000  0.000
       0.000  0.000  0.998 -0.000 -0.000
       0.000 -0.000 -0.000  0.999 -0.000
      -0.000  0.000 -0.000 -0.000  0.998
     ------------------------ ATOM   28 ------------------------
     Tr[ns( 28)] =   9.98284
     eigenvalues:
       0.998  0.998  0.998  0.999  0.999
     eigenvectors (columns):
      -0.001 -0.003  0.000 -0.000  1.000
       0.494 -0.505  0.707 -0.001 -0.001
      -0.494  0.505  0.707 -0.001  0.001
      -0.000  0.000  0.002  1.000  0.000
      -0.715 -0.699  0.000 -0.000 -0.003
     occupation matrix ns (before diag.):
       0.999 -0.000  0.000  0.000 -0.000
      -0.000  0.998  0.000 -0.000  0.000
       0.000  0.000  0.998 -0.000 -0.000
       0.000 -0.000 -0.000  0.999 -0.000
      -0.000  0.000 -0.000 -0.000  0.998
     ------------------------ ATOM   33 ------------------------
     Tr[ns( 33)] =   9.98284
     eigenvalues:
       0.998  0.998  0.998  0.999  0.999
     eigenvectors (columns):
       0.000 -0.000 -0.000 -0.866  0.500
       0.000 -0.369 -0.929  0.000 -0.000
       1.000  0.000  0.000  0.000 -0.000
      -0.000  0.000  0.000 -0.500 -0.866
      -0.000  0.929 -0.369  0.000  0.000
     occupation matrix ns (before diag.):
       0.999 -0.000 -0.000 -0.000  0.000
      -0.000  0.998 -0.000  0.000  0.000
      -0.000 -0.000  0.998  0.000  0.000
      -0.000  0.000  0.000  0.999 -0.000
       0.000  0.000  0.000 -0.000  0.998
     ------------------------ ATOM   34 ------------------------
     Tr[ns( 34)] =   9.98284
     eigenvalues:
       0.998  0.998  0.998  0.999  0.999
     eigenvectors (columns):
      -0.000 -0.001 -0.001  0.866  0.500
       0.494 -0.505  0.707  0.001 -0.001
       0.715  0.699 -0.000 -0.000  0.003
       0.001  0.002 -0.001  0.500 -0.866
      -0.494  0.505  0.707  0.001  0.001
     occupation matrix ns (before diag.):
       0.999  0.000  0.000 -0.000  0.000
       0.000  0.998 -0.000  0.000  0.000
       0.000 -0.000  0.998 -0.000  0.000
      -0.000  0.000 -0.000  0.999 -0.000
       0.000  0.000  0.000 -0.000  0.998
     ------------------------ ATOM   35 ------------------------
     Tr[ns( 35)] =   9.98287
     eigenvalues:
       0.998  0.998  0.998  0.999  0.999
     eigenvectors (columns):
      -0.000 -0.001  0.000 -0.866 -0.500
      -0.993 -0.000  0.122  0.000  0.000
       0.086  0.707  0.702 -0.001  0.000
      -0.000  0.000  0.000  0.500 -0.866
       0.086 -0.707  0.702  0.001  0.000
     occupation matrix ns (before diag.):
       0.999 -0.000  0.000  0.000 -0.000
      -0.000  0.998  0.000 -0.000  0.000
       0.000  0.000  0.998 -0.000  0.000
       0.000 -0.000 -0.000  0.999  0.000
      -0.000  0.000  0.000  0.000  0.998
     ------------------------ ATOM   36 ------------------------
     Tr[ns( 36)] =   9.98287
     eigenvalues:
       0.998  0.998  0.998  0.999  0.999
     eigenvectors (columns):
       0.000  0.000  0.000 -0.000  1.000
      -0.086  0.707  0.702 -0.001 -0.000
       0.086  0.707 -0.702 -0.001  0.000
       0.000  0.001  0.000  1.000  0.000
       0.993  0.000  0.122 -0.000 -0.000
     occupation matrix ns (before diag.):
       0.999 -0.000  0.000  0.000 -0.000
      -0.000  0.998 -0.000 -0.000  0.000
       0.000 -0.000  0.998 -0.000 -0.000
       0.000 -0.000 -0.000  0.999 -0.000
      -0.000  0.000 -0.000 -0.000  0.998
     ------------------------ ATOM   41 ------------------------
     Tr[ns( 41)] =   9.98288
     eigenvalues:
       0.998  0.998  0.998  0.999  0.999
     eigenvectors (columns):
       0.000 -0.000 -0.000 -0.500  0.866
       1.000  0.000 -0.000 -0.000 -0.000
       0.000 -0.640  0.768 -0.000 -0.000
      -0.000  0.000  0.000 -0.866 -0.500
      -0.000  0.768  0.640  0.000  0.000
     occupation matrix ns (before diag.):
       0.999 -0.000 -0.000 -0.000  0.000
      -0.000  0.998 -0.000  0.000  0.000
      -0.000 -0.000  0.998  0.000  0.000
      -0.000  0.000  0.000  0.999 -0.000
       0.000  0.000  0.000 -0.000  0.998
     ------------------------ ATOM   42 ------------------------
     Tr[ns( 42)] =   9.98284
     eigenvalues:
       0.998  0.998  0.998  0.999  0.999
     eigenvectors (columns):
      -0.000 -0.001 -0.001  0.866  0.500
       0.494 -0.505  0.707  0.001 -0.001
      -0.715 -0.699 -0.000  0.000 -0.003
       0.001  0.002 -0.001  0.500 -0.866
       0.494 -0.505 -0.707 -0.001 -0.001
     occupation matrix ns (before diag.):
       0.999  0.000 -0.000 -0.000 -0.000
       0.000  0.998  0.000  0.000 -0.000
      -0.000  0.000  0.998  0.000  0.000
      -0.000  0.000  0.000  0.999  0.000
      -0.000 -0.000  0.000  0.000  0.998
     ------------------------ ATOM   43 ------------------------
     Tr[ns( 43)] =   9.98287
     eigenvalues:
       0.998  0.998  0.998  0.999  0.999
     eigenvectors (columns):
      -0.000  0.001 -0.000 -0.866 -0.500
       0.993 -0.000  0.122  0.000 -0.000
       0.086 -0.707 -0.702 -0.001  0.000
      -0.000 -0.000 -0.000  0.500 -0.866
      -0.086 -0.707  0.702 -0.001 -0.000
     occupation matrix ns (before diag.):
       0.999  0.000  0.000  0.000  0.000
       0.000  0.998 -0.000  0.000  0.000
       0.000 -0.000  0.998 -0.000 -0.000
       0.000  0.000 -0.000  0.999 -0.000
       0.000  0.000 -0.000 -0.000  0.998
     ------------------------ ATOM   44 ------------------------
     Tr[ns( 44)] =   9.98284
     eigenvalues:
       0.998  0.998  0.998  0.999  0.999
     eigenvectors (columns):
       0.001  0.003  0.000  0.000 -1.000
       0.494 -0.505  0.707  0.001 -0.001
      -0.494  0.505  0.707  0.001  0.001
       0.000  0.000 -0.002  1.000  0.000
       0.715  0.699  0.000 -0.000  0.003
     occupation matrix ns (before diag.):
       0.999  0.000 -0.000  0.000 -0.000
       0.000  0.998  0.000  0.000 -0.000
      -0.000  0.000  0.998  0.000  0.000
       0.000  0.000  0.000  0.999 -0.000
      -0.000 -0.000  0.000 -0.000  0.998
     ------------------------ ATOM   49 ------------------------
     Tr[ns( 49)] =   9.98288
     eigenvalues:
       0.998  0.998  0.998  0.999  0.999
     eigenvectors (columns):
      -0.000  0.000 -0.000 -1.000  0.000
      -0.000  0.399 -0.917  0.000  0.000
      -0.000  0.917  0.399  0.000  0.000
       0.000 -0.000  0.000  0.000  1.000
       1.000  0.000 -0.000 -0.000 -0.000
     occupation matrix ns (before diag.):
       0.999 -0.000 -0.000  0.000  0.000
      -0.000  0.998 -0.000  0.000  0.000
      -0.000 -0.000  0.998  0.000  0.000
       0.000  0.000  0.000  0.999 -0.000
       0.000  0.000  0.000 -0.000  0.998
     ------------------------ ATOM   50 ------------------------
     Tr[ns( 50)] =   9.98284
     eigenvalues:
       0.998  0.998  0.998  0.999  0.999
     eigenvectors (columns):
      -0.000 -0.001 -0.001  0.866  0.500
      -0.494  0.505 -0.707 -0.001  0.001
      -0.715 -0.699  0.000  0.000 -0.003
       0.001  0.002 -0.001  0.500 -0.866
      -0.494  0.505  0.707  0.001  0.001
     occupation matrix ns (before diag.):
       0.999 -0.000 -0.000 -0.000  0.000
      -0.000  0.998 -0.000 -0.000 -0.000
      -0.000 -0.000  0.998  0.000 -0.000
      -0.000 -0.000  0.000  0.999 -0.000
       0.000 -0.000 -0.000 -0.000  0.998
     ------------------------ ATOM   51 ------------------------
     Tr[ns( 51)] =   9.98284
     eigenvalues:
       0.998  0.998  0.998  0.999  0.999
     eigenvectors (columns):
      -0.000 -0.001 -0.001  0.866  0.500
      -0.715 -0.699  0.000 -0.000 -0.003
      -0.494  0.505 -0.707 -0.001  0.001
      -0.001 -0.002  0.001 -0.500  0.866
      -0.494  0.505  0.707  0.001  0.001
     occupation matrix ns (before diag.):
       0.999 -0.000 -0.000  0.000  0.000
      -0.000  0.998 -0.000 -0.000 -0.000
      -0.000 -0.000  0.998  0.000 -0.000
       0.000 -0.000  0.000  0.999  0.000
       0.000 -0.000 -0.000  0.000  0.998
     ------------------------ ATOM   52 ------------------------
     Tr[ns( 52)] =   9.98287
     eigenvalues:
       0.998  0.998  0.998  0.999  0.999
     eigenvectors (columns):
      -0.000 -0.000 -0.000  0.000  1.000
      -0.086 -0.707  0.702  0.001  0.000
      -0.086  0.707  0.702 -0.001  0.000
       0.000  0.001 -0.000  1.000 -0.000
       0.993  0.000  0.122 -0.000  0.000
     occupation matrix ns (before diag.):
       0.999  0.000  0.000  0.000  0.000
       0.000  0.998  0.000  0.000  0.000
       0.000  0.000  0.998 -0.000  0.000
       0.000  0.000 -0.000  0.999 -0.000
       0.000  0.000  0.000 -0.000  0.998
     ------------------------ ATOM   57 ------------------------
     Tr[ns( 57)] =   9.98297
     eigenvalues:
       0.998  0.998  0.998  0.999  0.999
     eigenvectors (columns):
      -0.000 -0.000  0.000 -0.076 -0.997
      -0.336  0.104  0.936  0.000  0.000
      -0.607  0.736 -0.299  0.000  0.000
       0.000  0.000 -0.000  0.997 -0.076
       0.720  0.669  0.184 -0.000 -0.000
     occupation matrix ns (before diag.):
       0.999 -0.000 -0.000  0.000  0.000
      -0.000  0.998 -0.000  0.000  0.000
      -0.000 -0.000  0.998  0.000  0.000
       0.000  0.000  0.000  0.999 -0.000
       0.000  0.000  0.000 -0.000  0.998
     ------------------------ ATOM   58 ------------------------
     Tr[ns( 58)] =   9.98284
     eigenvalues:
       0.998  0.998  0.998  0.999  0.999
     eigenvectors (columns):
      -0.000 -0.001 -0.001  0.866  0.500
      -0.494  0.505 -0.707 -0.001  0.001
       0.715  0.699 -0.000 -0.000  0.003
       0.001  0.002 -0.001  0.500 -0.866
       0.494 -0.505 -0.707 -0.001 -0.001
     occupation matrix ns (before diag.):
       0.999 -0.000  0.000 -0.000 -0.000
      -0.000  0.998  0.000 -0.000  0.000
       0.000  0.000  0.998 -0.000 -0.000
      -0.000 -0.000 -0.000  0.999  0.000
      -0.000  0.000 -0.000  0.000  0.998
     ------------------------ ATOM   59 ------------------------
     Tr[ns( 59)] =   9.98284
     eigenvalues:
       0.998  0.998  0.998  0.999  0.999
     eigenvectors (columns):
      -0.000 -0.001 -0.001  0.866  0.500
       0.715  0.699 -0.000 -0.000  0.003
      -0.494  0.505 -0.707 -0.001  0.001
      -0.001 -0.002  0.001 -0.500  0.866
       0.494 -0.505 -0.707 -0.001 -0.001
     occupation matrix ns (before diag.):
       0.999  0.000 -0.000  0.000 -0.000
       0.000  0.998  0.000  0.000 -0.000
      -0.000  0.000  0.998  0.000  0.000
       0.000  0.000  0.000  0.999 -0.000
      -0.000 -0.000  0.000 -0.000  0.998
     ------------------------ ATOM   60 ------------------------
     Tr[ns( 60)] =   9.98284
     eigenvalues:
       0.998  0.998  0.998  0.999  0.999
     eigenvectors (columns):
       0.001  0.003  0.000 -0.000 -1.000
      -0.494  0.505  0.707  0.001  0.001
      -0.494  0.505 -0.707 -0.001  0.001
      -0.000 -0.000  0.002 -1.000  0.000
      -0.715 -0.699 -0.000  0.000 -0.003
     occupation matrix ns (before diag.):
       0.999 -0.000 -0.000  0.000  0.000
      -0.000  0.998 -0.000 -0.000 -0.000
      -0.000 -0.000  0.998  0.000 -0.000
       0.000 -0.000  0.000  0.999 -0.000
       0.000 -0.000 -0.000 -0.000  0.998

     Number of occupied Hubbard levels =  319.4515

     Threshold (ethr) on eigenvalues was too large:
     Diagonalizing with lowered threshold

     Davidson diagonalization with overlap

---- Real-time Memory Report at c_bands before calling an iterative solver
           506 MiB given to the printing process from OS
             0 MiB allocation reported by mallinfo(arena+hblkhd)
        219400 MiB available memory on the node where the printing process lives
------------------
     ethr =  3.66E-04,  avg # of iterations =  3.6

     =================== HUBBARD OCCUPATIONS ===================
     ------------------------ ATOM    1 ------------------------
     Tr[ns(  1)] =   9.98047
     eigenvalues:
       0.998  0.998  0.998  0.999  0.999
     eigenvectors (columns):
      -0.000 -0.000  0.000  0.014 -1.000
      -0.334  0.114  0.936  0.000  0.000
      -0.579  0.759 -0.298  0.000  0.000
       0.000  0.000 -0.000  1.000  0.014
       0.744  0.641  0.187 -0.000 -0.000
     occupation matrix ns (before diag.):
       0.999 -0.000 -0.000  0.000  0.000
      -0.000  0.998 -0.000  0.000  0.000
      -0.000 -0.000  0.998  0.000  0.000
       0.000  0.000  0.000  0.999 -0.000
       0.000  0.000  0.000 -0.000  0.998
     ------------------------ ATOM    2 ------------------------
     Tr[ns(  2)] =   9.98053
     eigenvalues:
       0.998  0.998  0.998  0.999  0.999
     eigenvectors (columns):
      -0.000  0.000 -0.000  0.866  0.500
      -0.099  0.707  0.700 -0.000  0.000
       0.990 -0.000  0.140 -0.000  0.000
       0.000  0.000  0.000  0.500 -0.866
       0.099  0.707 -0.700 -0.000 -0.000
     occupation matrix ns (before diag.):
       0.999 -0.000  0.000 -0.000 -0.000
      -0.000  0.998  0.000 -0.000 -0.000
       0.000  0.000  0.998 -0.000 -0.000
      -0.000 -0.000 -0.000  0.999  0.000
      -0.000 -0.000 -0.000  0.000  0.998
     ------------------------ ATOM    3 ------------------------
     Tr[ns(  3)] =   9.98053
     eigenvalues:
       0.998  0.998  0.998  0.999  0.999
     eigenvectors (columns):
       0.000 -0.000 -0.000  0.866  0.500
      -0.990  0.000  0.140 -0.000  0.000
       0.099 -0.707  0.700 -0.000  0.000
       0.000  0.000 -0.000 -0.500  0.866
      -0.099 -0.707 -0.700 -0.000 -0.000
     occupation matrix ns (before diag.):
       0.999  0.000 -0.000  0.000 -0.000
       0.000  0.998  0.000  0.000 -0.000
      -0.000  0.000  0.998  0.000 -0.000
       0.000  0.000  0.000  0.999 -0.000
      -0.000 -0.000 -0.000 -0.000  0.998
     ------------------------ ATOM    4 ------------------------
     Tr[ns(  4)] =   9.98053
     eigenvalues:
       0.998  0.998  0.998  0.999  0.999
     eigenvectors (columns):
      -0.000 -0.000 -0.000  0.000 -1.000
       0.099 -0.707 -0.700 -0.000  0.000
       0.099  0.707 -0.700  0.000  0.000
       0.000 -0.000  0.000  1.000  0.000
       0.990 -0.000  0.140 -0.000 -0.000
     occupation matrix ns (before diag.):
       0.999 -0.000 -0.000  0.000  0.000
      -0.000  0.998  0.000 -0.000 -0.000
      -0.000  0.000  0.998  0.000 -0.000
       0.000 -0.000  0.000  0.999 -0.000
       0.000 -0.000 -0.000 -0.000  0.998
     ------------------------ ATOM    9 ------------------------
     Tr[ns(  9)] =   9.98051
     eigenvalues:
       0.998  0.998  0.998  0.999  0.999
     eigenvectors (columns):
      -0.000 -0.000 -0.000  0.000  1.000
      -0.000 -0.426 -0.905 -0.000 -0.000
      -0.000 -0.905  0.426 -0.000 -0.000
       0.000  0.000  0.000 -1.000  0.000
       1.000 -0.000 -0.000  0.000  0.000
     occupation matrix ns (before diag.):
       0.999 -0.000 -0.000  0.000  0.000
      -0.000  0.998 -0.000  0.000  0.000
      -0.000 -0.000  0.998  0.000  0.000
       0.000  0.000  0.000  0.999 -0.000
       0.000  0.000  0.000 -0.000  0.998
     ------------------------ ATOM   10 ------------------------
     Tr[ns( 10)] =   9.98053
     eigenvalues:
       0.998  0.998  0.998  0.999  0.999
     eigenvectors (columns):
       0.000  0.000  0.000  0.866  0.500
       0.099  0.707 -0.700 -0.000  0.000
       0.990 -0.000  0.140 -0.000 -0.000
      -0.000  0.000 -0.000  0.500 -0.866
       0.099 -0.707 -0.700  0.000  0.000
     occupation matrix ns (before diag.):
       0.999 -0.000 -0.000 -0.000  0.000
      -0.000  0.998 -0.000 -0.000  0.000
      -0.000 -0.000  0.998  0.000 -0.000
      -0.000 -0.000  0.000  0.999 -0.000
       0.000  0.000 -0.000 -0.000  0.998
     ------------------------ ATOM   11 ------------------------
     Tr[ns( 11)] =   9.98053
     eigenvalues:
       0.998  0.998  0.998  0.999  0.999
     eigenvectors (columns):
      -0.000  0.000 -0.000  0.866  0.500
      -0.990 -0.000 -0.140 -0.000 -0.000
      -0.099  0.707  0.700 -0.000  0.000
      -0.000 -0.000 -0.000 -0.500  0.866
      -0.099 -0.707  0.700  0.000  0.000
     occupation matrix ns (before diag.):
       0.999 -0.000 -0.000  0.000  0.000
      -0.000  0.998 -0.000 -0.000 -0.000
      -0.000 -0.000  0.998  0.000  0.000
       0.000 -0.000  0.000  0.999  0.000
       0.000 -0.000  0.000  0.000  0.998
     ------------------------ ATOM   12 ------------------------
     Tr[ns( 12)] =   9.98051
     eigenvalues:
       0.998  0.998  0.998  0.999  0.999
     eigenvectors (columns):
      -0.001  0.003 -0.000  0.000  1.000
      -0.564 -0.427 -0.707  0.001  0.001
      -0.564 -0.427  0.707 -0.001  0.001
       0.000 -0.000  0.002  1.000 -0.000
       0.604 -0.797 -0.000 -0.000  0.003
     occupation matrix ns (before diag.):
       0.999  0.000  0.000  0.000  0.000
       0.000  0.998 -0.000  0.000  0.000
       0.000 -0.000  0.998 -0.000  0.000
       0.000  0.000 -0.000  0.999 -0.000
       0.000  0.000  0.000 -0.000  0.998
     ------------------------ ATOM   17 ------------------------
     Tr[ns( 17)] =   9.98051
     eigenvalues:
       0.998  0.998  0.998  0.999  0.999
     eigenvectors (columns):
      -0.000 -0.000 -0.000  0.866 -0.500
      -1.000  0.000 -0.000 -0.000 -0.000
      -0.000 -0.648  0.762 -0.000 -0.000
       0.000  0.000  0.000 -0.500 -0.866
       0.000  0.762  0.648  0.000  0.000
     occupation matrix ns (before diag.):
       0.999 -0.000 -0.000  0.000  0.000
      -0.000  0.998 -0.000  0.000  0.000
      -0.000 -0.000  0.998  0.000  0.000
       0.000  0.000  0.000  0.999 -0.000
       0.000  0.000  0.000 -0.000  0.998
     ------------------------ ATOM   18 ------------------------
     Tr[ns( 18)] =   9.98053
     eigenvalues:
       0.998  0.998  0.998  0.999  0.999
     eigenvectors (columns):
      -0.000 -0.000  0.000  0.866  0.500
       0.099  0.707  0.700  0.000 -0.000
      -0.990 -0.000  0.140 -0.000 -0.000
       0.000 -0.000 -0.000  0.500 -0.866
       0.099 -0.707  0.700 -0.000 -0.000
     occupation matrix ns (before diag.):
       0.999  0.000 -0.000 -0.000 -0.000
       0.000  0.998  0.000  0.000  0.000
      -0.000  0.000  0.998  0.000  0.000
      -0.000  0.000  0.000  0.999  0.000
      -0.000  0.000  0.000  0.000  0.998
     ------------------------ ATOM   19 ------------------------
     Tr[ns( 19)] =   9.98051
     eigenvalues:
       0.998  0.998  0.998  0.999  0.999
     eigenvectors (columns):
      -0.000 -0.001 -0.002  0.866  0.500
       0.604  0.797 -0.000 -0.000  0.003
       0.564 -0.427  0.707  0.001 -0.001
      -0.001 -0.003  0.001 -0.500  0.866
      -0.564  0.427  0.707  0.001  0.001
     occupation matrix ns (before diag.):
       0.999  0.000  0.000  0.000  0.000
       0.000  0.998 -0.000  0.000  0.000
       0.000 -0.000  0.998 -0.000  0.000
       0.000  0.000 -0.000  0.999  0.000
       0.000  0.000  0.000  0.000  0.998
     ------------------------ ATOM   20 ------------------------
     Tr[ns( 20)] =   9.98053
     eigenvalues:
       0.998  0.998  0.998  0.999  0.999
     eigenvectors (columns):
       0.000 -0.000  0.000  0.000 -1.000
       0.099 -0.707 -0.700 -0.000 -0.000
      -0.099 -0.707  0.700 -0.000  0.000
       0.000  0.000  0.000 -1.000 -0.000
       0.990 -0.000  0.140  0.000  0.000
     occupation matrix ns (before diag.):
       0.999  0.000 -0.000  0.000 -0.000
       0.000  0.998 -0.000  0.000 -0.000
      -0.000 -0.000  0.998  0.000  0.000
       0.000  0.000  0.000  0.999 -0.000
      -0.000 -0.000  0.000 -0.000  0.998
     ------------------------ ATOM   25 ------------------------
     Tr[ns( 25)] =   9.98055
     eigenvalues:
       0.998  0.998  0.998  0.999  0.999
     eigenvectors (columns):
       0.000 -0.000 -0.000 -0.866  0.500
       0.000 -0.375 -0.927  0.000 -0.000
       1.000  0.000  0.000  0.000 -0.000
      -0.000  0.000  0.000 -0.500 -0.866
      -0.000  0.927 -0.375  0.000  0.000
     occupation matrix ns (before diag.):
       0.999 -0.000 -0.000 -0.000  0.000
      -0.000  0.998 -0.000  0.000  0.000
      -0.000 -0.000  0.998  0.000  0.000
      -0.000  0.000  0.000  0.999 -0.000
       0.000  0.000  0.000 -0.000  0.998
     ------------------------ ATOM   26 ------------------------
     Tr[ns( 26)] =   9.98053
     eigenvalues:
       0.998  0.998  0.998  0.999  0.999
     eigenvectors (columns):
       0.000 -0.000 -0.000  0.866  0.500
      -0.099  0.707 -0.700  0.000 -0.000
      -0.990  0.000  0.140 -0.000  0.000
      -0.000 -0.000  0.000  0.500 -0.866
       0.099  0.707  0.700  0.000  0.000
     occupation matrix ns (before diag.):
       0.999  0.000  0.000 -0.000  0.000
       0.000  0.998 -0.000  0.000 -0.000
       0.000 -0.000  0.998 -0.000  0.000
      -0.000  0.000 -0.000  0.999 -0.000
       0.000 -0.000  0.000 -0.000  0.998
     ------------------------ ATOM   27 ------------------------
     Tr[ns( 27)] =   9.98051
     eigenvalues:
       0.998  0.998  0.998  0.999  0.999
     eigenvectors (columns):
      -0.000 -0.001 -0.002  0.866  0.500
      -0.604 -0.797 -0.000 -0.000 -0.003
[...]
     1.0000   1.0000   1.0000   1.0000   1.0000   1.0000   1.0000   1.0000
     1.0000   1.0000   1.0000   1.0000   1.0000   1.0000   1.0000   1.0000
     1.0000   1.0000   1.0000   1.0000   1.0000   1.0000   1.0000   1.0000
     1.0000   1.0000   1.0000   1.0000   1.0000   1.0000   1.0000   1.0000
     1.0000   1.0000   1.0000   1.0000   1.0000   1.0000   1.0000   1.0000
     1.0000   1.0000   1.0000   1.0000   1.0000   1.0000   1.0000   1.0000
     1.0000   1.0000   1.0000   1.0000   1.0000   1.0000   1.0000   1.0000
     1.0000   1.0000   1.0000   1.0000   1.0000   1.0000   1.0000   1.0000
     1.0000   1.0000   1.0000   1.0000   1.0000   1.0000   1.0000   1.0000
     1.0000   1.0000   1.0000   1.0000   1.0000   1.0000   1.0000   1.0000
     1.0000   1.0000   1.0000   1.0000   1.0000   1.0000   1.0000   1.0000
     1.0000   1.0000   1.0000   1.0000   1.0000   1.0000   1.0000   1.0000
     1.0000   1.0000   1.0000   1.0000   1.0000   1.0000   1.0000   1.0000
     1.0000   1.0000   1.0000   1.0000   1.0000   1.0000   1.0000   1.0000
     1.0000   1.0000   1.0000   1.0000   1.0000   1.0000   1.0000   1.0000
     1.0000   1.0000   1.0000   1.0000   1.0000   1.0000   1.0000   1.0000
     1.0000   1.0000   1.0000   1.0000   1.0000   1.0000   1.0000   1.0000
     1.0000   1.0000   1.0000   1.0000   1.0000   1.0000   1.0000   1.0000
     0.0000   0.0000   0.0000   0.0000   0.0000   0.0000   0.0000   0.0000
     0.0000   0.0000   0.0000   0.0000   0.0000   0.0000   0.0000   0.0000
     0.0000   0.0000   0.0000   0.0000   0.0000   0.0000   0.0000   0.0000
     0.0000   0.0000   0.0000   0.0000   0.0000   0.0000   0.0000   0.0000
     0.0000   0.0000   0.0000   0.0000   0.0000   0.0000   0.0000   0.0000
     0.0000   0.0000   0.0000   0.0000   0.0000   0.0000   0.0000   0.0000
     0.0000   0.0000   0.0000   0.0000   0.0000   0.0000   0.0000   0.0000
     0.0000

          k = 0.2500-0.5000-0.5000 (158052 PWs)   bands (ev):

    -7.2443  -7.2443  -7.2442  -7.2442  -7.1274  -7.1274  -7.1274  -7.1274
    -6.9786  -6.9786  -6.9785  -6.9785  -6.9244  -6.9244  -6.9244  -6.9244
    -6.9244  -6.9244  -6.9243  -6.9243  -6.9195  -6.9195  -6.9194  -6.9194
    -6.9194  -6.9194  -6.9194  -6.9194  -6.8866  -6.8866  -6.8866  -6.8866
    -4.9545  -4.9545  -4.9545  -4.9545  -4.9492  -4.9492  -4.9491  -4.9491
    -4.9409  -4.9409  -4.9409  -4.9409  -4.9342  -4.9342  -4.9342  -4.9342
    -4.9164  -4.9163  -4.9163  -4.9163  -4.9149  -4.9149  -4.9148  -4.9148
    -4.9148  -4.9148  -4.9148  -4.9148  -4.8946  -4.8946  -4.8946  -4.8946
    -4.8905  -4.8905  -4.8905  -4.8904  -4.8904  -4.8904  -4.8904  -4.8904
    -4.8902  -4.8902  -4.8901  -4.8901  -4.8750  -4.8750  -4.8750  -4.8750
    -4.8750  -4.8750  -4.8749  -4.8749  -4.8572  -4.8572  -4.8572  -4.8572
    -4.8572  -4.8572  -4.8572  -4.8572  -4.8420  -4.8420  -4.8420  -4.8420
    -4.8302  -4.8302  -4.8302  -4.8302  -4.8302  -4.8302  -4.8302  -4.8301
    -4.8233  -4.8233  -4.8232  -4.8232  -4.8100  -4.8100  -4.8099  -4.8099
    -4.7988  -4.7988  -4.7988  -4.7988  -4.7988  -4.7988  -4.7987  -4.7987
    -4.7946  -4.7945  -4.7945  -4.7945  -4.7890  -4.7890  -4.7889  -4.7889
    -4.7869  -4.7868  -4.7868  -4.7868  -4.7632  -4.7632  -4.7631  -4.7631
    -4.7627  -4.7627  -4.7627  -4.7627  -4.7484  -4.7484  -4.7484  -4.7484
    -4.7484  -4.7484  -4.7483  -4.7483  -4.7425  -4.7424  -4.7424  -4.7424
    -4.7414  -4.7413  -4.7413  -4.7413  -4.7357  -4.7357  -4.7356  -4.7356
    -4.7356  -4.7356  -4.7356  -4.7356  -4.5783  -4.5782  -4.5782  -4.5782
    -4.2110  -4.2110  -4.2110  -4.2110  -4.0631  -4.0631  -4.0630  -4.0630
    -4.0630  -4.0630  -4.0630  -4.0630  -3.9802  -3.9802  -3.9801  -3.9801
    -3.9801  -3.9801  -3.9801  -3.9801  -3.8815  -3.8815  -3.8815  -3.8815
     0.8087   0.8087   0.8087   0.8087   0.8087   0.8087   0.8087   0.8087
     0.9267   0.9268   0.9268   0.9268   1.1533   1.1533   1.1533   1.1533
     1.1533   1.1533   1.1534   1.1534   1.1553   1.1554   1.1554   1.1554
     1.9324   1.9324   1.9324   1.9324   2.5740   2.5740   2.5740   2.5740
     3.0090   3.0090   3.0090   3.0091   3.0669   3.0669   3.0669   3.0669
     3.0669   3.0669   3.0670   3.0670   3.0771   3.0771   3.0771   3.0772
     3.0772   3.0772   3.0772   3.0772   3.6459   3.6460   3.6460   3.6460
     3.6821   3.6821   3.6821   3.6821   3.6821   3.6821   3.6821   3.6821
     3.7242   3.7242   3.7242   3.7242   3.9577   3.9577   3.9577   3.9577
     3.9577   3.9577   3.9577   3.9578   4.0772   4.0772   4.0773   4.0773
     4.6252   4.6252   4.6252   4.6252   4.7042   4.7042   4.7042   4.7042
     4.7149   4.7149   4.7149   4.7149   5.0560   5.0560   5.0560   5.0560
     9.0743   9.0743   9.0744   9.0744   9.1829   9.1829   9.1829   9.1829
     9.7387   9.7387   9.7388   9.7388   9.8799   9.8799   9.8800   9.8800
     9.9163   9.9163   9.9163   9.9163   9.9164   9.9164   9.9164   9.9164
    10.1163  10.1164  10.1164  10.1164  10.1164  10.1164  10.1164  10.1164
    10.9340  10.9340  10.9340  10.9340  10.9340  10.9341  10.9341  10.9341
    11.4680  11.4680  11.4680  11.4680  11.5471  11.5471  11.5471  11.5471
    11.6538  11.6538  11.6538  11.6538  11.6538  11.6538  11.6539  11.6539
    11.9006

     occupation numbers 
     1.0000   1.0000   1.0000   1.0000   1.0000   1.0000   1.0000   1.0000
     1.0000   1.0000   1.0000   1.0000   1.0000   1.0000   1.0000   1.0000
     1.0000   1.0000   1.0000   1.0000   1.0000   1.0000   1.0000   1.0000
     1.0000   1.0000   1.0000   1.0000   1.0000   1.0000   1.0000   1.0000
     1.0000   1.0000   1.0000   1.0000   1.0000   1.0000   1.0000   1.0000
     1.0000   1.0000   1.0000   1.0000   1.0000   1.0000   1.0000   1.0000
     1.0000   1.0000   1.0000   1.0000   1.0000   1.0000   1.0000   1.0000
     1.0000   1.0000   1.0000   1.0000   1.0000   1.0000   1.0000   1.0000
     1.0000   1.0000   1.0000   1.0000   1.0000   1.0000   1.0000   1.0000
     1.0000   1.0000   1.0000   1.0000   1.0000   1.0000   1.0000   1.0000
     1.0000   1.0000   1.0000   1.0000   1.0000   1.0000   1.0000   1.0000
     1.0000   1.0000   1.0000   1.0000   1.0000   1.0000   1.0000   1.0000
     1.0000   1.0000   1.0000   1.0000   1.0000   1.0000   1.0000   1.0000
     1.0000   1.0000   1.0000   1.0000   1.0000   1.0000   1.0000   1.0000
     1.0000   1.0000   1.0000   1.0000   1.0000   1.0000   1.0000   1.0000
     1.0000   1.0000   1.0000   1.0000   1.0000   1.0000   1.0000   1.0000
     1.0000   1.0000   1.0000   1.0000   1.0000   1.0000   1.0000   1.0000
     1.0000   1.0000   1.0000   1.0000   1.0000   1.0000   1.0000   1.0000
     1.0000   1.0000   1.0000   1.0000   1.0000   1.0000   1.0000   1.0000
     1.0000   1.0000   1.0000   1.0000   1.0000   1.0000   1.0000   1.0000
     1.0000   1.0000   1.0000   1.0000   1.0000   1.0000   1.0000   1.0000
     1.0000   1.0000   1.0000   1.0000   1.0000   1.0000   1.0000   1.0000
     1.0000   1.0000   1.0000   1.0000   1.0000   1.0000   1.0000   1.0000
     1.0000   1.0000   1.0000   1.0000   1.0000   1.0000   1.0000   1.0000
     1.0000   1.0000   1.0000   1.0000   1.0000   1.0000   1.0000   1.0000
     1.0000   1.0000   1.0000   1.0000   1.0000   1.0000   1.0000   1.0000
     1.0000   1.0000   1.0000   1.0000   1.0000   1.0000   1.0000   1.0000
     1.0000   1.0000   1.0000   1.0000   1.0000   1.0000   1.0000   1.0000
     1.0000   1.0000   1.0000   1.0000   1.0000   1.0000   1.0000   1.0000
     1.0000   1.0000   1.0000   1.0000   1.0000   1.0000   1.0000   1.0000
     1.0000   1.0000   1.0000   1.0000   1.0000   1.0000   1.0000   1.0000
     1.0000   1.0000   1.0000   1.0000   1.0000   1.0000   1.0000   1.0000
     1.0000   1.0000   1.0000   1.0000   1.0000   1.0000   1.0000   1.0000
     1.0000   1.0000   1.0000   1.0000   1.0000   1.0000   1.0000   1.0000
     1.0000   1.0000   1.0000   1.0000   1.0000   1.0000   1.0000   1.0000
     1.0000   1.0000   1.0000   1.0000   1.0000   1.0000   1.0000   1.0000
     0.0000   0.0000   0.0000   0.0000   0.0000   0.0000   0.0000   0.0000
     0.0000   0.0000   0.0000   0.0000   0.0000   0.0000   0.0000   0.0000
     0.0000   0.0000   0.0000   0.0000   0.0000   0.0000   0.0000   0.0000
     0.0000   0.0000   0.0000   0.0000   0.0000   0.0000   0.0000   0.0000
     0.0000   0.0000   0.0000   0.0000   0.0000   0.0000   0.0000   0.0000
     0.0000   0.0000   0.0000   0.0000   0.0000   0.0000   0.0000   0.0000
     0.0000   0.0000   0.0000   0.0000   0.0000   0.0000   0.0000   0.0000
     0.0000

          k =-0.5000-0.5000-0.5000 (158408 PWs)   bands (ev):

    -7.1965  -7.1964  -7.1964  -7.1964  -7.1964  -7.1963  -7.1963  -7.1963
    -6.9221  -6.9221  -6.9221  -6.9220  -6.9220  -6.9220  -6.9220  -6.9220
    -6.9219  -6.9219  -6.9219  -6.9219  -6.9219  -6.9219  -6.9219  -6.9219
    -6.9219  -6.9219  -6.9219  -6.9219  -6.9219  -6.9219  -6.9219  -6.9219
    -4.9475  -4.9475  -4.9475  -4.9474  -4.9474  -4.9474  -4.9474  -4.9474
    -4.9474  -4.9474  -4.9474  -4.9473  -4.9473  -4.9473  -4.9473  -4.9473
    -4.9035  -4.9035  -4.9035  -4.9034  -4.9034  -4.9034  -4.9034  -4.9034
    -4.9034  -4.9034  -4.9034  -4.9034  -4.9034  -4.9034  -4.9034  -4.9034
    -4.9034  -4.9033  -4.9033  -4.9033  -4.9033  -4.9033  -4.9033  -4.9033
    -4.8641  -4.8641  -4.8641  -4.8641  -4.8640  -4.8640  -4.8640  -4.8640
    -4.8640  -4.8640  -4.8640  -4.8640  -4.8640  -4.8640  -4.8640  -4.8640
    -4.8640  -4.8640  -4.8640  -4.8639  -4.8639  -4.8639  -4.8639  -4.8639
    -4.8186  -4.8186  -4.8186  -4.8186  -4.8185  -4.8185  -4.8185  -4.8185
    -4.8185  -4.8185  -4.8185  -4.8185  -4.8185  -4.8185  -4.8184  -4.8184
    -4.8184  -4.8184  -4.8184  -4.8184  -4.8184  -4.8184  -4.8184  -4.8184
    -4.7778  -4.7778  -4.7778  -4.7778  -4.7777  -4.7777  -4.7777  -4.7777
    -4.7777  -4.7777  -4.7776  -4.7776  -4.7776  -4.7776  -4.7776  -4.7776
    -4.7395  -4.7395  -4.7394  -4.7394  -4.7394  -4.7394  -4.7394  -4.7394
    -4.7394  -4.7394  -4.7394  -4.7394  -4.7394  -4.7394  -4.7393  -4.7393
    -4.7393  -4.7393  -4.7392  -4.7392  -4.7392  -4.7392  -4.7392  -4.7392
    -4.7061  -4.7061  -4.7061  -4.7061  -4.7060  -4.7060  -4.7060  -4.7060
    -4.0217  -4.0217  -4.0217  -4.0217  -4.0217  -4.0217  -4.0216  -4.0216
    -4.0216  -4.0216  -4.0216  -4.0216  -4.0216  -4.0216  -4.0216  -4.0216
    -4.0216  -4.0216  -4.0216  -4.0215  -4.0215  -4.0215  -4.0215  -4.0215
     0.9747   0.9748   0.9749   0.9749   0.9749   0.9749   0.9749   0.9749
     0.9749   0.9749   0.9749   0.9749   0.9749   0.9749   0.9749   0.9749
     0.9749   0.9749   0.9749   0.9749   0.9749   0.9750   0.9750   0.9750
     2.4685   2.4685   2.4685   2.4685   2.4685   2.4685   2.4685   2.4685
     3.0449   3.0449   3.0449   3.0449   3.0449   3.0449   3.0449   3.0450
     3.0450   3.0450   3.0450   3.0450   3.0450   3.0450   3.0450   3.0450
     3.0450   3.0450   3.0450   3.0450   3.0450   3.0450   3.0450   3.0450
     3.8625   3.8625   3.8625   3.8626   3.8626   3.8626   3.8626   3.8626
     3.8626   3.8626   3.8626   3.8626   3.8626   3.8626   3.8626   3.8626
     3.8626   3.8626   3.8626   3.8626   3.8627   3.8627   3.8627   3.8627
     4.8784   4.8784   4.8784   4.8784   4.8784   4.8784   4.8785   4.8785
     4.8785   4.8785   4.8785   4.8785   4.8785   4.8785   4.8785   4.8785
     8.9817   8.9818   8.9818   8.9818   8.9818   8.9818   8.9818   8.9818
     9.8677   9.8678   9.8678   9.8678   9.8678   9.8678   9.8678   9.8678
     9.8678   9.8678   9.8678   9.8678   9.8678   9.8678   9.8678   9.8678
     9.8678   9.8678   9.8678   9.8678   9.8678   9.8679   9.8679   9.8679
    11.4800  11.4800  11.4800  11.4800  11.4800  11.4801  11.4801  11.4801
    11.4801  11.4801  11.4801  11.4801  11.4801  11.4801  11.4801  11.4801
    11.4801  11.4801  11.4801  11.4801  11.4801  11.4801  11.4801  11.4801
    12.4252

     occupation numbers 
     1.0000   1.0000   1.0000   1.0000   1.0000   1.0000   1.0000   1.0000
     1.0000   1.0000   1.0000   1.0000   1.0000   1.0000   1.0000   1.0000
     1.0000   1.0000   1.0000   1.0000   1.0000   1.0000   1.0000   1.0000
     1.0000   1.0000   1.0000   1.0000   1.0000   1.0000   1.0000   1.0000
     1.0000   1.0000   1.0000   1.0000   1.0000   1.0000   1.0000   1.0000
     1.0000   1.0000   1.0000   1.0000   1.0000   1.0000   1.0000   1.0000
     1.0000   1.0000   1.0000   1.0000   1.0000   1.0000   1.0000   1.0000
     1.0000   1.0000   1.0000   1.0000   1.0000   1.0000   1.0000   1.0000
     1.0000   1.0000   1.0000   1.0000   1.0000   1.0000   1.0000   1.0000
     1.0000   1.0000   1.0000   1.0000   1.0000   1.0000   1.0000   1.0000
     1.0000   1.0000   1.0000   1.0000   1.0000   1.0000   1.0000   1.0000
     1.0000   1.0000   1.0000   1.0000   1.0000   1.0000   1.0000   1.0000
     1.0000   1.0000   1.0000   1.0000   1.0000   1.0000   1.0000   1.0000
     1.0000   1.0000   1.0000   1.0000   1.0000   1.0000   1.0000   1.0000
     1.0000   1.0000   1.0000   1.0000   1.0000   1.0000   1.0000   1.0000
     1.0000   1.0000   1.0000   1.0000   1.0000   1.0000   1.0000   1.0000
     1.0000   1.0000   1.0000   1.0000   1.0000   1.0000   1.0000   1.0000
     1.0000   1.0000   1.0000   1.0000   1.0000   1.0000   1.0000   1.0000
     1.0000   1.0000   1.0000   1.0000   1.0000   1.0000   1.0000   1.0000
     1.0000   1.0000   1.0000   1.0000   1.0000   1.0000   1.0000   1.0000
     1.0000   1.0000   1.0000   1.0000   1.0000   1.0000   1.0000   1.0000
     1.0000   1.0000   1.0000   1.0000   1.0000   1.0000   1.0000   1.0000
     1.0000   1.0000   1.0000   1.0000   1.0000   1.0000   1.0000   1.0000
     1.0000   1.0000   1.0000   1.0000   1.0000   1.0000   1.0000   1.0000
     1.0000   1.0000   1.0000   1.0000   1.0000   1.0000   1.0000   1.0000
     1.0000   1.0000   1.0000   1.0000   1.0000   1.0000   1.0000   1.0000
     1.0000   1.0000   1.0000   1.0000   1.0000   1.0000   1.0000   1.0000
     1.0000   1.0000   1.0000   1.0000   1.0000   1.0000   1.0000   1.0000
     1.0000   1.0000   1.0000   1.0000   1.0000   1.0000   1.0000   1.0000
     1.0000   1.0000   1.0000   1.0000   1.0000   1.0000   1.0000   1.0000
     1.0000   1.0000   1.0000   1.0000   1.0000   1.0000   1.0000   1.0000
     1.0000   1.0000   1.0000   1.0000   1.0000   1.0000   1.0000   1.0000
     1.0000   1.0000   1.0000   1.0000   1.0000   1.0000   1.0000   1.0000
     1.0000   1.0000   1.0000   1.0000   1.0000   1.0000   1.0000   1.0000
     1.0000   1.0000   1.0000   1.0000   1.0000   1.0000   1.0000   1.0000
     1.0000   1.0000   1.0000   1.0000   1.0000   1.0000   1.0000   1.0000
     0.0000   0.0000   0.0000   0.0000   0.0000   0.0000   0.0000   0.0000
     0.0000   0.0000   0.0000   0.0000   0.0000   0.0000   0.0000   0.0000
     0.0000   0.0000   0.0000   0.0000   0.0000   0.0000   0.0000   0.0000
     0.0000   0.0000   0.0000   0.0000   0.0000   0.0000   0.0000   0.0000
     0.0000   0.0000   0.0000   0.0000   0.0000   0.0000   0.0000   0.0000
     0.0000   0.0000   0.0000   0.0000   0.0000   0.0000   0.0000   0.0000
     0.0000   0.0000   0.0000   0.0000   0.0000   0.0000   0.0000   0.0000
     0.0000

     highest occupied, lowest unoccupied level (ev):     5.2994    7.5944

!    total energy              =   -9923.95274875 Ry
     total all-electron energy =   -140499.893337 Ry
     estimated scf accuracy    <       0.00000060 Ry

     The total energy is the sum of the following terms:
     one-electron contribution =   -2761.65901945 Ry
     hartree contribution      =    1970.71444838 Ry
     xc contribution           =   -1676.52505567 Ry
     ewald contribution        =   -2927.19912172 Ry
     Hubbard energy            =       0.33524228 Ry
     one-center paw contrib.   =   -4529.61924256 Ry
      -> PAW hartree energy AE =     123.94808917 Ry
      -> PAW hartree energy PS =    -123.29915100 Ry
      -> PAW xc energy AE      =    -143.28844109 Ry
      -> PAW xc energy PS      =      47.22441345 Ry
      -> total E_H with PAW    =    1971.36338655 Ry
      -> total E_XC with PAW   =   -1772.58908332 Ry

     convergence has been achieved in   9 iterations

     Writing all to output data dir ./out/ZnS_hub.save/
 
     init_run     :     40.39s CPU     75.41s WALL (       1 calls)
     electrons    :     36.42s CPU    143.87s WALL (       1 calls)

     Called by init_run:
     wfcinit      :     18.19s CPU     37.13s WALL (       1 calls)
     wfcinit:atom :      0.00s CPU      0.00s WALL (       1 calls)
     wfcinit:wfcr :     17.48s CPU     20.50s WALL (       1 calls)
     potinit      :      0.78s CPU      3.49s WALL (       1 calls)
     hinit0       :     20.85s CPU     23.27s WALL (       1 calls)

     Called by electrons:
     c_bands      :     31.50s CPU     56.87s WALL (      10 calls)
     sum_band     :      3.60s CPU      3.69s WALL (      10 calls)
     v_of_rho     :      0.30s CPU      0.47s WALL (      10 calls)
     v_h          :      0.03s CPU      0.04s WALL (      10 calls)
     v_xc         :      0.27s CPU      0.42s WALL (      10 calls)
     newd         :      0.16s CPU      0.60s WALL (      10 calls)
     PAW_pot      :      0.51s CPU      0.64s WALL (      10 calls)
     mix_rho      :      0.06s CPU      0.09s WALL (      10 calls)

     Called by c_bands:
     init_us_2    :      0.35s CPU      0.37s WALL (      22 calls)
     init_us_2:cp :      0.35s CPU      0.37s WALL (      22 calls)
     cegterg      :     30.59s CPU     31.10s WALL (      10 calls)

     Called by sum_band:
     sum_band:wei :      0.00s CPU      0.00s WALL (      10 calls)
     sum_band:loo :      2.62s CPU      2.66s WALL (      10 calls)
     sum_band:buf :      0.00s CPU      0.00s WALL (      10 calls)
     sum_band:ini :      0.18s CPU      0.18s WALL (      10 calls)
     sum_band:cal :      0.86s CPU      0.87s WALL (      10 calls)
     sum_band:bec :      0.04s CPU      0.05s WALL (      10 calls)
     addusdens    :      0.07s CPU      0.09s WALL (      10 calls)
                                        0.00s GPU  (      10 calls)
     addusd:skk   :      0.00s CPU      0.00s WALL (      20 calls)
                                        0.00s GPU  (      20 calls)

     Called by *egterg:
     cdiaghg      :      4.50s CPU      7.47s WALL (      68 calls)
     cegterg:over :      1.93s CPU      1.94s WALL (      59 calls)
     cegterg:upda :      1.71s CPU      1.73s WALL (      59 calls)
     cegterg:last :      2.69s CPU      2.72s WALL (      21 calls)
     cdiaghg:chol :      0.28s CPU      0.45s WALL (      68 calls)
     cdiaghg:inve :      0.42s CPU      0.43s WALL (      68 calls)
     cdiaghg:para :      0.68s CPU      0.69s WALL (     136 calls)
     h_psi        :     33.51s CPU     33.87s WALL (      70 calls)
     s_psi        :      2.95s CPU      2.99s WALL (      71 calls)
     g_psi        :      0.06s CPU      0.06s WALL (      59 calls)

     Called by h_psi:
     h_psi:calbec :      2.70s CPU      2.72s WALL (      70 calls)
     vloc_psi     :     24.70s CPU     24.87s WALL (      70 calls)
     add_vuspsi   :      2.82s CPU      2.88s WALL (      70 calls)
     vhpsi        :      3.18s CPU      3.24s WALL (      70 calls)

     General routines
     calbec       :      4.27s CPU      4.37s WALL (     161 calls)
     fft          :      0.35s CPU      2.92s WALL (     111 calls)
     ffts         :      0.03s CPU      0.03s WALL (      10 calls)
     fftw         :     25.61s CPU     25.79s WALL (   22486 calls)
 
     Parallel routines

     Hubbard U routines
     new_ns       :      0.16s CPU      0.16s WALL (      10 calls)
     vhpsi        :      3.18s CPU      3.24s WALL (      70 calls)

     PAW routines
     PAW_pot      :      0.51s CPU      0.64s WALL (      10 calls)
     PAW_symme    :      0.08s CPU      0.08s WALL (      20 calls)
 
     PWSCF        :   2m40.83s CPU  20m32.88s WALL

 
   This run was terminated on:  14:16:22   1Jul2024            

=------------------------------------------------------------------------------=
   JOB DONE.
=------------------------------------------------------------------------------=
