# E (eV) pdos(E) 
 -7.444 -0.371E-03
 -7.434  0.806E-02
 -7.424  0.330E-01
 -7.414  0.627E-01
 -7.404  0.889E-01
 -7.394  0.118E+00
 -7.384  0.154E+00
 -7.374  0.212E+00
 -7.364  0.287E+00
 -7.354  0.387E+00
 -7.344  0.520E+00
 -7.334  0.634E+00
 -7.324  0.769E+00
 -7.314  0.101E+01
 -7.304  0.120E+01
 -7.294  0.132E+01
 -7.284  0.143E+01
 -7.274  0.150E+01
 -7.264  0.155E+01
 -7.254  0.167E+01
 -7.244  0.200E+01
 -7.234  0.231E+01
 -7.224  0.316E+01
 -7.214  0.361E+01
 -7.204  0.336E+01
 -7.194  0.358E+01
 -7.184  0.405E+01
 -7.174  0.455E+01
 -7.164  0.487E+01
 -7.154  0.524E+01
 -7.144  0.586E+01
 -7.134  0.617E+01
 -7.124  0.718E+01
 -7.114  0.111E+02
 -7.104  0.137E+02
 -7.094  0.141E+02
 -7.084  0.138E+02
 -7.074  0.145E+02
 -7.064  0.149E+02
 -7.054  0.113E+02
 -7.044  0.105E+02
 -7.034  0.125E+02
 -7.024  0.271E+02
 -7.014  0.380E+02
 -7.004  0.379E+02
 -6.994  0.439E+02
 -6.984  0.405E+02
 -6.974  0.505E+02
 -6.964  0.571E+02
 -6.954  0.572E+02
 -6.944  0.669E+02
 -6.934  0.100E+03
 -6.924  0.517E+02
 -6.914  0.982E+02
 -6.904  0.839E+02
 -6.894  0.123E+03
 -6.884  0.141E+03
 -6.874  0.145E+03
 -6.864  0.467E+02
 -6.854  0.161E-01
 -6.844  0.000E+00
 -6.834  0.000E+00
 -6.824  0.000E+00
 -6.814  0.000E+00
 -6.804  0.000E+00
 -6.794  0.000E+00
 -6.784  0.000E+00
 -6.774  0.000E+00
 -6.764  0.000E+00
 -6.754  0.000E+00
 -6.744  0.000E+00
 -6.734  0.000E+00
 -6.724  0.000E+00
 -6.714  0.000E+00
 -6.704  0.000E+00
 -6.694  0.000E+00
 -6.684  0.000E+00
 -6.674  0.000E+00
 -6.664  0.000E+00
 -6.654  0.000E+00
 -6.644  0.000E+00
 -6.634  0.000E+00
 -6.624  0.000E+00
 -6.614  0.000E+00
 -6.604  0.000E+00
 -6.594  0.000E+00
 -6.584  0.000E+00
 -6.574  0.000E+00
 -6.564  0.000E+00
 -6.554  0.000E+00
 -6.544  0.000E+00
 -6.534  0.000E+00
 -6.524  0.000E+00
 -6.514  0.000E+00
 -6.504  0.000E+00
 -6.494  0.000E+00
 -6.484  0.000E+00
 -6.474  0.000E+00
 -6.464  0.000E+00
 -6.454  0.000E+00
 -6.444  0.000E+00
 -6.434  0.000E+00
 -6.424  0.000E+00
 -6.414  0.000E+00
 -6.404  0.000E+00
 -6.394  0.000E+00
 -6.384  0.000E+00
 -6.374  0.000E+00
 -6.364  0.000E+00
 -6.354  0.000E+00
 -6.344  0.000E+00
 -6.334  0.000E+00
 -6.324  0.000E+00
 -6.314  0.000E+00
 -6.304  0.000E+00
 -6.294  0.000E+00
 -6.284  0.000E+00
 -6.274  0.000E+00
 -6.264  0.000E+00
 -6.254  0.000E+00
 -6.244  0.000E+00
 -6.234  0.000E+00
 -6.224  0.000E+00
 -6.214  0.000E+00
 -6.204  0.000E+00
 -6.194  0.000E+00
 -6.184  0.000E+00
 -6.174  0.000E+00
 -6.164  0.000E+00
 -6.154  0.000E+00
 -6.144  0.000E+00
 -6.134  0.000E+00
 -6.124  0.000E+00
 -6.114  0.000E+00
 -6.104  0.000E+00
 -6.094  0.000E+00
 -6.084  0.000E+00
 -6.074  0.000E+00
 -6.064  0.000E+00
 -6.054  0.000E+00
 -6.044  0.000E+00
 -6.034  0.000E+00
 -6.024  0.000E+00
 -6.014  0.000E+00
 -6.004  0.000E+00
 -5.994  0.000E+00
 -5.984  0.000E+00
 -5.974  0.000E+00
 -5.964  0.000E+00
 -5.954  0.000E+00
 -5.944  0.000E+00
 -5.934  0.000E+00
 -5.924  0.000E+00
 -5.914  0.000E+00
 -5.904  0.000E+00
 -5.894  0.000E+00
 -5.884  0.000E+00
 -5.874  0.000E+00
 -5.864  0.000E+00
 -5.854  0.000E+00
 -5.844  0.000E+00
 -5.834  0.000E+00
 -5.824  0.000E+00
 -5.814  0.000E+00
 -5.804  0.000E+00
 -5.794  0.000E+00
 -5.784  0.000E+00
 -5.774  0.000E+00
 -5.764  0.000E+00
 -5.754  0.000E+00
 -5.744  0.000E+00
 -5.734  0.000E+00
 -5.724  0.000E+00
 -5.714  0.000E+00
 -5.704  0.000E+00
 -5.694  0.000E+00
 -5.684  0.000E+00
 -5.674  0.000E+00
 -5.664  0.000E+00
 -5.654  0.000E+00
 -5.644  0.000E+00
 -5.634  0.000E+00
 -5.624  0.000E+00
 -5.614  0.000E+00
 -5.604  0.000E+00
 -5.594  0.000E+00
 -5.584  0.000E+00
 -5.574  0.000E+00
 -5.564  0.000E+00
 -5.554  0.000E+00
 -5.544  0.000E+00
 -5.534  0.000E+00
 -5.524  0.000E+00
 -5.514  0.000E+00
 -5.504  0.000E+00
 -5.494  0.000E+00
 -5.484  0.000E+00
 -5.474  0.000E+00
 -5.464  0.000E+00
 -5.454  0.000E+00
 -5.444  0.000E+00
 -5.434  0.000E+00
 -5.424  0.000E+00
 -5.414  0.000E+00
 -5.404  0.000E+00
 -5.394  0.000E+00
 -5.384  0.000E+00
 -5.374  0.000E+00
 -5.364  0.000E+00
 -5.354  0.000E+00
 -5.344  0.000E+00
 -5.334  0.000E+00
 -5.324  0.000E+00
 -5.314  0.000E+00
 -5.304  0.000E+00
 -5.294  0.000E+00
 -5.284  0.000E+00
 -5.274  0.000E+00
 -5.264  0.000E+00
 -5.254  0.000E+00
 -5.244  0.000E+00
 -5.234  0.000E+00
 -5.224  0.000E+00
 -5.214  0.000E+00
 -5.204  0.000E+00
 -5.194  0.000E+00
 -5.184  0.000E+00
 -5.174  0.000E+00
 -5.164  0.000E+00
 -5.154  0.000E+00
 -5.144  0.000E+00
 -5.134  0.000E+00
 -5.124  0.000E+00
 -5.114  0.000E+00
 -5.104  0.000E+00
 -5.094  0.000E+00
 -5.084  0.000E+00
 -5.074  0.000E+00
 -5.064  0.000E+00
 -5.054  0.000E+00
 -5.044  0.000E+00
 -5.034  0.000E+00
 -5.024  0.000E+00
 -5.014  0.000E+00
 -5.004  0.000E+00
 -4.994  0.000E+00
 -4.984  0.690E+01
 -4.974  0.108E+03
 -4.964  0.280E+03
 -4.954  0.276E+03
 -4.944  0.474E+03
 -4.934  0.156E+04
 -4.924  0.114E+04
 -4.914  0.160E+04
 -4.904  0.118E+04
 -4.894  0.125E+04
 -4.884  0.128E+04
 -4.874  0.486E+03
 -4.864  0.983E+03
 -4.854  0.953E+03
 -4.844  0.570E+03
 -4.834  0.698E+03
 -4.824  0.763E+03
 -4.814  0.125E+04
 -4.804  0.143E+04
 -4.794  0.102E+04
 -4.784  0.100E+04
 -4.774  0.904E+03
 -4.764  0.204E+04
 -4.754  0.276E+04
 -4.744  0.102E+04
 -4.734  0.604E+03
 -4.724  0.249E+03
 -4.714  0.386E+02
 -4.704  0.361E+02
 -4.694  0.365E+02
 -4.684  0.366E+02
 -4.674  0.341E+02
 -4.664  0.289E+02
 -4.654  0.257E+02
 -4.644  0.254E+02
 -4.634  0.279E+02
 -4.624  0.309E+02
 -4.614  0.324E+02
 -4.604  0.324E+02
 -4.594  0.325E+02
 -4.584  0.320E+02
 -4.574  0.314E+02
 -4.564  0.291E+02
 -4.554  0.293E+02
 -4.544  0.295E+02
 -4.534  0.291E+02
 -4.524  0.303E+02
 -4.514  0.304E+02
 -4.504  0.290E+02
 -4.494  0.294E+02
 -4.484  0.325E+02
 -4.474  0.343E+02
 -4.464  0.352E+02
 -4.454  0.331E+02
 -4.444  0.301E+02
 -4.434  0.263E+02
 -4.424  0.226E+02
 -4.414  0.206E+02
 -4.404  0.188E+02
 -4.394  0.167E+02
 -4.384  0.188E+02
 -4.374  0.368E+02
 -4.364  0.420E+02
 -4.354  0.370E+02
 -4.344  0.388E+02
 -4.334  0.408E+02
 -4.324  0.435E+02
 -4.314  0.472E+02
 -4.304  0.506E+02
 -4.294  0.462E+02
 -4.284  0.368E+02
 -4.274  0.345E+02
 -4.264  0.338E+02
 -4.254  0.328E+02
 -4.244  0.322E+02
 -4.234  0.316E+02
 -4.224  0.313E+02
 -4.214  0.383E+02
 -4.204  0.517E+02
 -4.194  0.487E+02
 -4.184  0.436E+02
 -4.174  0.534E+02
 -4.164  0.678E+02
 -4.154  0.607E+02
 -4.144  0.559E+02
 -4.134  0.541E+02
 -4.124  0.554E+02
 -4.114  0.615E+02
 -4.104  0.660E+02
 -4.094  0.689E+02
 -4.084  0.713E+02
 -4.074  0.785E+02
 -4.064  0.891E+02
 -4.054  0.860E+02
 -4.044  0.661E+02
 -4.034  0.519E+02
 -4.024  0.426E+02
 -4.014  0.398E+02
 -4.004  0.430E+02
 -3.994  0.521E+02
 -3.984  0.705E+02
 -3.974  0.892E+02
 -3.964  0.858E+02
 -3.954  0.819E+02
 -3.944  0.797E+02
 -3.934  0.796E+02
 -3.924  0.791E+02
 -3.914  0.784E+02
 -3.904  0.644E+02
 -3.894  0.760E+02
 -3.884  0.865E+02
 -3.874  0.790E+02
 -3.864  0.859E+02
 -3.854  0.931E+02
 -3.844  0.104E+03
 -3.834  0.896E+02
 -3.824  0.695E+02
 -3.814  0.428E+02
 -3.804  0.297E+02
 -3.794  0.291E+02
 -3.784  0.979E+01
 -3.774  0.661E+00
 -3.764  0.751E-02
 -3.754  0.000E+00
 -3.744  0.000E+00
 -3.734  0.000E+00
 -3.724  0.000E+00
 -3.714  0.000E+00
 -3.704  0.000E+00
 -3.694  0.000E+00
 -3.684  0.000E+00
 -3.674  0.000E+00
 -3.664  0.000E+00
 -3.654  0.000E+00
 -3.644  0.000E+00
 -3.634  0.000E+00
 -3.624  0.000E+00
 -3.614  0.000E+00
 -3.604  0.000E+00
 -3.594  0.000E+00
 -3.584  0.000E+00
 -3.574  0.000E+00
 -3.564  0.000E+00
 -3.554  0.000E+00
 -3.544  0.000E+00
 -3.534  0.000E+00
 -3.524  0.000E+00
 -3.514  0.000E+00
 -3.504  0.000E+00
 -3.494  0.000E+00
 -3.484  0.000E+00
 -3.474  0.000E+00
 -3.464  0.000E+00
 -3.454  0.000E+00
 -3.444  0.000E+00
 -3.434  0.000E+00
 -3.424  0.000E+00
 -3.414  0.000E+00
 -3.404  0.000E+00
 -3.394  0.000E+00
 -3.384  0.000E+00
 -3.374  0.000E+00
 -3.364  0.000E+00
 -3.354  0.000E+00
 -3.344  0.000E+00
 -3.334  0.000E+00
 -3.324  0.000E+00
 -3.314  0.000E+00
 -3.304  0.000E+00
 -3.294  0.000E+00
 -3.284  0.000E+00
 -3.274  0.000E+00
 -3.264  0.000E+00
 -3.254  0.000E+00
 -3.244  0.000E+00
 -3.234  0.000E+00
 -3.224  0.000E+00
 -3.214  0.000E+00
 -3.204  0.000E+00
 -3.194  0.000E+00
 -3.184  0.000E+00
 -3.174  0.000E+00
 -3.164  0.000E+00
 -3.154  0.000E+00
 -3.144  0.000E+00
 -3.134  0.000E+00
 -3.124  0.000E+00
 -3.114  0.000E+00
 -3.104  0.000E+00
 -3.094  0.000E+00
 -3.084  0.000E+00
 -3.074  0.000E+00
 -3.064  0.000E+00
 -3.054  0.000E+00
 -3.044  0.000E+00
 -3.034  0.000E+00
 -3.024  0.000E+00
 -3.014  0.000E+00
 -3.004  0.000E+00
 -2.994  0.000E+00
 -2.984  0.000E+00
 -2.974  0.000E+00
 -2.964  0.000E+00
 -2.954  0.000E+00
 -2.944  0.000E+00
 -2.934  0.000E+00
 -2.924  0.000E+00
 -2.914  0.000E+00
 -2.904  0.000E+00
 -2.894  0.000E+00
 -2.884  0.000E+00
 -2.874  0.000E+00
 -2.864  0.000E+00
 -2.854  0.000E+00
 -2.844  0.000E+00
 -2.834  0.000E+00
 -2.824  0.000E+00
 -2.814  0.000E+00
 -2.804  0.000E+00
 -2.794  0.000E+00
 -2.784  0.000E+00
 -2.774  0.000E+00
 -2.764  0.000E+00
 -2.754  0.000E+00
 -2.744  0.000E+00
 -2.734  0.000E+00
 -2.724  0.000E+00
 -2.714  0.000E+00
 -2.704  0.000E+00
 -2.694  0.000E+00
 -2.684  0.000E+00
 -2.674  0.000E+00
 -2.664  0.000E+00
 -2.654  0.000E+00
 -2.644  0.000E+00
 -2.634  0.000E+00
 -2.624  0.000E+00
 -2.614  0.000E+00
 -2.604  0.000E+00
 -2.594  0.000E+00
 -2.584  0.000E+00
 -2.574  0.000E+00
 -2.564  0.000E+00
 -2.554  0.000E+00
 -2.544  0.000E+00
 -2.534  0.000E+00
 -2.524  0.000E+00
 -2.514  0.000E+00
 -2.504  0.000E+00
 -2.494  0.000E+00
 -2.484  0.000E+00
 -2.474  0.000E+00
 -2.464  0.000E+00
 -2.454  0.000E+00
 -2.444  0.000E+00
 -2.434  0.000E+00
 -2.424  0.000E+00
 -2.414  0.000E+00
 -2.404  0.000E+00
 -2.394  0.000E+00
 -2.384  0.000E+00
 -2.374  0.000E+00
 -2.364  0.000E+00
 -2.354  0.000E+00
 -2.344  0.000E+00
 -2.334  0.000E+00
 -2.324  0.000E+00
 -2.314  0.000E+00
 -2.304  0.000E+00
 -2.294  0.000E+00
 -2.284  0.000E+00
 -2.274  0.000E+00
 -2.264  0.000E+00
 -2.254  0.000E+00
 -2.244  0.000E+00
 -2.234  0.000E+00
 -2.224  0.000E+00
 -2.214  0.000E+00
 -2.204  0.000E+00
 -2.194  0.000E+00
 -2.184  0.000E+00
 -2.174  0.000E+00
 -2.164  0.000E+00
 -2.154  0.000E+00
 -2.144  0.000E+00
 -2.134  0.000E+00
 -2.124  0.000E+00
 -2.114  0.000E+00
 -2.104  0.000E+00
 -2.094  0.000E+00
 -2.084  0.000E+00
 -2.074  0.000E+00
 -2.064  0.000E+00
 -2.054  0.000E+00
 -2.044  0.000E+00
 -2.034  0.000E+00
 -2.024  0.000E+00
 -2.014  0.000E+00
 -2.004  0.000E+00
 -1.994  0.000E+00
 -1.984  0.000E+00
 -1.974  0.000E+00
 -1.964  0.000E+00
 -1.954  0.000E+00
 -1.944  0.000E+00
 -1.934  0.000E+00
 -1.924  0.000E+00
 -1.914  0.000E+00
 -1.904  0.000E+00
 -1.894  0.000E+00
 -1.884  0.000E+00
 -1.874  0.000E+00
 -1.864  0.000E+00
 -1.854  0.000E+00
 -1.844  0.000E+00
 -1.834  0.000E+00
 -1.824  0.000E+00
 -1.814  0.000E+00
 -1.804  0.000E+00
 -1.794  0.000E+00
 -1.784  0.000E+00
 -1.774  0.000E+00
 -1.764  0.000E+00
 -1.754  0.000E+00
 -1.744  0.000E+00
 -1.734  0.000E+00
 -1.724  0.000E+00
 -1.714  0.000E+00
 -1.704  0.000E+00
 -1.694  0.000E+00
 -1.684  0.000E+00
 -1.674  0.000E+00
 -1.664  0.000E+00
 -1.654  0.000E+00
 -1.644  0.000E+00
 -1.634  0.000E+00
 -1.624  0.000E+00
 -1.614  0.000E+00
 -1.604  0.000E+00
 -1.594  0.000E+00
 -1.584  0.000E+00
 -1.574  0.000E+00
 -1.564  0.000E+00
 -1.554  0.000E+00
 -1.544  0.000E+00
 -1.534  0.000E+00
 -1.524  0.000E+00
 -1.514  0.000E+00
 -1.504  0.000E+00
 -1.494  0.000E+00
 -1.484  0.000E+00
 -1.474  0.000E+00
 -1.464  0.000E+00
 -1.454  0.000E+00
 -1.444  0.000E+00
 -1.434  0.000E+00
 -1.424  0.000E+00
 -1.414  0.000E+00
 -1.404  0.000E+00
 -1.394  0.000E+00
 -1.384  0.000E+00
 -1.374  0.000E+00
 -1.364  0.000E+00
 -1.354  0.000E+00
 -1.344  0.000E+00
 -1.334  0.000E+00
 -1.324  0.000E+00
 -1.314  0.000E+00
 -1.304  0.000E+00
 -1.294  0.000E+00
 -1.284  0.000E+00
 -1.274  0.000E+00
 -1.264  0.000E+00
 -1.254  0.000E+00
 -1.244  0.000E+00
 -1.234  0.000E+00
 -1.224  0.000E+00
 -1.214  0.000E+00
 -1.204  0.000E+00
 -1.194  0.000E+00
 -1.184  0.000E+00
 -1.174  0.000E+00
 -1.164  0.000E+00
 -1.154  0.000E+00
 -1.144  0.000E+00
 -1.134  0.000E+00
 -1.124  0.000E+00
 -1.114  0.000E+00
 -1.104  0.000E+00
 -1.094  0.000E+00
 -1.084  0.000E+00
 -1.074  0.000E+00
 -1.064  0.000E+00
 -1.054  0.000E+00
 -1.044  0.000E+00
 -1.034  0.000E+00
 -1.024  0.000E+00
 -1.014  0.000E+00
 -1.004  0.000E+00
 -0.994  0.000E+00
 -0.984  0.000E+00
 -0.974  0.000E+00
 -0.964  0.000E+00
 -0.954  0.000E+00
 -0.944  0.000E+00
 -0.934  0.000E+00
 -0.924  0.000E+00
 -0.914  0.000E+00
 -0.904  0.000E+00
 -0.894  0.000E+00
 -0.884  0.000E+00
 -0.874  0.000E+00
 -0.864  0.000E+00
 -0.854  0.000E+00
 -0.844  0.000E+00
 -0.834  0.000E+00
 -0.824  0.000E+00
 -0.814  0.000E+00
 -0.804  0.000E+00
 -0.794  0.000E+00
 -0.784  0.000E+00
 -0.774  0.000E+00
 -0.764  0.000E+00
 -0.754  0.000E+00
 -0.744  0.000E+00
 -0.734  0.000E+00
 -0.724  0.000E+00
 -0.714  0.000E+00
 -0.704  0.000E+00
 -0.694  0.000E+00
 -0.684  0.000E+00
 -0.674  0.000E+00
 -0.664  0.000E+00
 -0.654  0.000E+00
 -0.644  0.000E+00
 -0.634  0.000E+00
 -0.624  0.000E+00
 -0.614  0.000E+00
 -0.604  0.000E+00
 -0.594  0.000E+00
 -0.584  0.000E+00
 -0.574  0.000E+00
 -0.564  0.000E+00
 -0.554  0.000E+00
 -0.544  0.000E+00
 -0.534  0.000E+00
 -0.524  0.000E+00
 -0.514  0.000E+00
 -0.504  0.000E+00
 -0.494  0.000E+00
 -0.484  0.000E+00
 -0.474  0.000E+00
 -0.464  0.000E+00
 -0.454  0.000E+00
 -0.444  0.000E+00
 -0.434  0.000E+00
 -0.424  0.000E+00
 -0.414  0.000E+00
 -0.404  0.000E+00
 -0.394  0.000E+00
 -0.384  0.000E+00
 -0.374  0.000E+00
 -0.364  0.000E+00
 -0.354  0.000E+00
 -0.344  0.000E+00
 -0.334  0.000E+00
 -0.324  0.000E+00
 -0.314  0.000E+00
 -0.304  0.000E+00
 -0.294  0.000E+00
 -0.284  0.000E+00
 -0.274  0.000E+00
 -0.264  0.000E+00
 -0.254  0.000E+00
 -0.244  0.000E+00
 -0.234  0.000E+00
 -0.224  0.000E+00
 -0.214  0.000E+00
 -0.204  0.000E+00
 -0.194  0.000E+00
 -0.184  0.000E+00
 -0.174  0.000E+00
 -0.164  0.000E+00
 -0.154  0.000E+00
 -0.144  0.000E+00
 -0.134  0.000E+00
 -0.124  0.000E+00
 -0.114  0.000E+00
 -0.104  0.000E+00
 -0.094  0.000E+00
 -0.084  0.000E+00
 -0.074  0.000E+00
 -0.064  0.000E+00
 -0.054  0.000E+00
 -0.044  0.000E+00
 -0.034  0.000E+00
 -0.024  0.000E+00
 -0.014  0.000E+00
 -0.004  0.000E+00
  0.006  0.000E+00
  0.016  0.000E+00
  0.026  0.000E+00
  0.036  0.000E+00
  0.046  0.000E+00
  0.056  0.000E+00
  0.066  0.000E+00
  0.076  0.000E+00
  0.086  0.000E+00
  0.096  0.000E+00
  0.106  0.000E+00
  0.116  0.000E+00
  0.126  0.000E+00
  0.136  0.000E+00
  0.146  0.000E+00
  0.156  0.000E+00
  0.166  0.000E+00
  0.176  0.000E+00
  0.186  0.000E+00
  0.196  0.000E+00
  0.206  0.000E+00
  0.216  0.000E+00
  0.226  0.000E+00
  0.236  0.000E+00
  0.246  0.000E+00
  0.256  0.000E+00
  0.266  0.000E+00
  0.276  0.000E+00
  0.286  0.000E+00
  0.296  0.000E+00
  0.306  0.000E+00
  0.316  0.000E+00
  0.326  0.000E+00
  0.336  0.000E+00
  0.346  0.000E+00
  0.356  0.000E+00
  0.366 -0.365E-06
  0.376 -0.924E-05
  0.386 -0.265E-04
  0.396  0.320E-05
  0.406  0.160E-03
  0.416  0.525E-03
  0.426  0.118E-02
  0.436  0.220E-02
  0.446  0.366E-02
  0.456  0.566E-02
  0.466  0.829E-02
  0.476  0.179E-01
  0.486  0.261E-01
  0.496  0.152E-01
  0.506  0.171E-01
  0.516  0.193E-01
  0.526  0.217E-01
  0.536  0.245E-01
  0.546  0.276E-01
  0.556  0.311E-01
  0.566  0.352E-01
  0.576  0.398E-01
  0.586  0.450E-01
  0.596  0.506E-01
  0.606  0.569E-01
  0.616  0.645E-01
  0.626  0.736E-01
  0.636  0.842E-01
  0.646  0.962E-01
  0.656  0.110E+00
  0.666  0.122E+00
  0.676  0.137E+00
  0.686  0.148E+00
  0.696  0.163E+00
  0.706  0.165E+00
  0.716  0.167E+00
  0.726  0.166E+00
  0.736  0.162E+00
  0.746  0.157E+00
  0.756  0.154E+00
  0.766  0.193E+00
  0.776  0.245E+00
  0.786  0.278E+00
  0.796  0.335E+00
  0.806  0.380E+00
  0.816  0.435E+00
  0.826  0.496E+00
  0.836  0.559E+00
  0.846  0.615E+00
  0.856  0.655E+00
  0.866  0.681E+00
  0.876  0.683E+00
  0.886  0.646E+00
  0.896  0.651E+00
  0.906  0.759E+00
  0.916  0.121E+01
  0.926  0.166E+01
  0.936  0.108E+01
  0.946  0.120E+01
  0.956  0.158E+01
  0.966  0.175E+01
  0.976  0.102E+01
  0.986  0.686E+00
  0.996  0.586E+00
  1.006  0.584E+00
  1.016  0.677E+00
  1.026  0.798E+00
  1.036  0.919E+00
  1.046  0.105E+01
  1.056  0.110E+01
  1.066  0.101E+01
  1.076  0.897E+00
  1.086  0.863E+00
  1.096  0.826E+00
  1.106  0.789E+00
  1.116  0.751E+00
  1.126  0.714E+00
  1.136  0.683E+00
  1.146  0.659E+00
  1.156  0.639E+00
  1.166  0.636E+00
  1.176  0.658E+00
  1.186  0.709E+00
  1.196  0.767E+00
  1.206  0.806E+00
  1.216  0.818E+00
  1.226  0.797E+00
  1.236  0.743E+00
  1.246  0.652E+00
  1.256  0.550E+00
  1.266  0.515E+00
  1.276  0.521E+00
  1.286  0.531E+00
  1.296  0.543E+00
  1.306  0.560E+00
  1.316  0.596E+00
  1.326  0.631E+00
  1.336  0.626E+00
  1.346  0.614E+00
  1.356  0.598E+00
  1.366  0.579E+00
  1.376  0.554E+00
  1.386  0.528E+00
  1.396  0.496E+00
  1.406  0.470E+00
  1.416  0.444E+00
  1.426  0.416E+00
  1.436  0.389E+00
  1.446  0.359E+00
  1.456  0.330E+00
  1.466  0.307E+00
  1.476  0.292E+00
  1.486  0.288E+00
  1.496  0.308E+00
  1.506  0.346E+00
  1.516  0.386E+00
  1.526  0.428E+00
  1.536  0.464E+00
  1.546  0.496E+00
  1.556  0.520E+00
  1.566  0.537E+00
  1.576  0.550E+00
  1.586  0.554E+00
  1.596  0.551E+00
  1.606  0.539E+00
  1.616  0.521E+00
  1.626  0.499E+00
  1.636  0.480E+00
  1.646  0.466E+00
  1.656  0.451E+00
  1.666  0.438E+00
  1.676  0.427E+00
  1.686  0.418E+00
  1.696  0.411E+00
  1.706  0.405E+00
  1.716  0.399E+00
  1.726  0.395E+00
  1.736  0.391E+00
  1.746  0.391E+00
  1.756  0.390E+00
  1.766  0.389E+00
  1.776  0.393E+00
  1.786  0.396E+00
  1.796  0.400E+00
  1.806  0.405E+00
  1.816  0.411E+00
  1.826  0.414E+00
  1.836  0.418E+00
  1.846  0.420E+00
  1.856  0.422E+00
  1.866  0.422E+00
  1.876  0.431E+00
  1.886  0.459E+00
  1.896  0.574E+00
  1.906  0.602E+00
  1.916  0.541E+00
  1.926  0.441E+00
  1.936  0.354E+00
  1.946  0.329E+00
  1.956  0.326E+00
  1.966  0.325E+00
  1.976  0.321E+00
  1.986  0.320E+00
  1.996  0.317E+00
  2.006  0.316E+00
  2.016  0.313E+00
  2.026  0.310E+00
  2.036  0.308E+00
  2.046  0.305E+00
  2.056  0.302E+00
  2.066  0.299E+00
  2.076  0.296E+00
  2.086  0.294E+00
  2.096  0.291E+00
  2.106  0.288E+00
  2.116  0.286E+00
  2.126  0.284E+00
  2.136  0.282E+00
  2.146  0.280E+00
  2.156  0.279E+00
  2.166  0.278E+00
  2.176  0.279E+00
  2.186  0.280E+00
  2.196  0.282E+00
  2.206  0.283E+00
  2.216  0.284E+00
  2.226  0.286E+00
  2.236  0.287E+00
  2.246  0.289E+00
  2.256  0.291E+00
  2.266  0.292E+00
  2.276  0.294E+00
  2.286  0.308E+00
  2.296  0.336E+00
  2.306  0.381E+00
  2.316  0.403E+00
  2.326  0.423E+00
  2.336  0.442E+00
  2.346  0.463E+00
  2.356  0.481E+00
  2.366  0.500E+00
  2.376  0.518E+00
  2.386  0.527E+00
  2.396  0.528E+00
  2.406  0.524E+00
  2.416  0.517E+00
  2.426  0.512E+00
  2.436  0.504E+00
  2.446  0.493E+00
  2.456  0.486E+00
  2.466  0.521E+00
  2.476  0.738E+00
  2.486  0.759E+00
  2.496  0.890E+00
  2.506  0.973E+00
  2.516  0.103E+01
  2.526  0.108E+01
  2.536  0.111E+01
  2.546  0.112E+01
  2.556  0.115E+01
  2.566  0.169E+01
  2.576  0.122E+01
  2.586  0.104E+01
  2.596  0.871E+00
  2.606  0.730E+00
  2.616  0.633E+00
  2.626  0.554E+00
  2.636  0.506E+00
  2.646  0.655E+00
  2.656  0.753E+00
  2.666  0.633E+00
  2.676  0.640E+00
  2.686  0.840E+00
  2.696  0.858E+00
  2.706  0.705E+00
  2.716  0.651E+00
  2.726  0.595E+00
  2.736  0.551E+00
  2.746  0.521E+00
  2.756  0.522E+00
  2.766  0.546E+00
  2.776  0.583E+00
  2.786  0.625E+00
  2.796  0.665E+00
  2.806  0.702E+00
  2.816  0.735E+00
  2.826  0.767E+00
  2.836  0.798E+00
  2.846  0.829E+00
  2.856  0.861E+00
  2.866  0.895E+00
  2.876  0.932E+00
  2.886  0.966E+00
  2.896  0.993E+00
  2.906  0.101E+01
  2.916  0.102E+01
  2.926  0.100E+01
  2.936  0.915E+00
  2.946  0.902E+00
  2.956  0.907E+00
  2.966  0.925E+00
  2.976  0.948E+00
  2.986  0.968E+00
  2.996  0.104E+01
  3.006  0.850E+00
  3.016  0.777E+00
  3.026  0.662E+00
  3.036  0.659E+00
  3.046  0.695E+00
  3.056  0.616E+00
  3.066  0.548E+00
  3.076  0.501E+00
  3.086  0.470E+00
  3.096  0.458E+00
  3.106  0.463E+00
  3.116  0.492E+00
  3.126  0.536E+00
  3.136  0.591E+00
  3.146  0.665E+00
  3.156  0.805E+00
  3.166  0.999E+00
  3.176  0.127E+01
  3.186  0.126E+01
  3.196  0.119E+01
  3.206  0.114E+01
  3.216  0.113E+01
  3.226  0.125E+01
  3.236  0.130E+01
  3.246  0.108E+01
  3.256  0.103E+01
  3.266  0.980E+00
  3.276  0.933E+00
  3.286  0.902E+00
  3.296  0.902E+00
  3.306  0.910E+00
  3.316  0.931E+00
  3.326  0.954E+00
  3.336  0.962E+00
  3.346  0.964E+00
  3.356  0.964E+00
  3.366  0.967E+00
  3.376  0.973E+00
  3.386  0.984E+00
  3.396  0.997E+00
  3.406  0.102E+01
  3.416  0.104E+01
  3.426  0.108E+01
  3.436  0.113E+01
  3.446  0.119E+01
  3.456  0.122E+01
  3.466  0.122E+01
  3.476  0.119E+01
  3.486  0.118E+01
  3.496  0.122E+01
  3.506  0.114E+01
  3.516  0.104E+01
  3.526  0.100E+01
  3.536  0.101E+01
  3.546  0.102E+01
  3.556  0.112E+01
  3.566  0.122E+01
  3.576  0.106E+01
  3.586  0.110E+01
  3.596  0.112E+01
  3.606  0.112E+01
  3.616  0.139E+01
  3.626  0.140E+01
  3.636  0.141E+01
  3.646  0.133E+01
  3.656  0.129E+01
  3.666  0.122E+01
  3.676  0.121E+01
  3.686  0.121E+01
  3.696  0.129E+01
  3.706  0.120E+01
  3.716  0.123E+01
  3.726  0.130E+01
  3.736  0.136E+01
  3.746  0.136E+01
  3.756  0.130E+01
  3.766  0.121E+01
  3.776  0.109E+01
  3.786  0.986E+00
  3.796  0.931E+00
  3.806  0.910E+00
  3.816  0.910E+00
  3.826  0.928E+00
  3.836  0.962E+00
  3.846  0.100E+01
  3.856  0.106E+01
  3.866  0.112E+01
  3.876  0.116E+01
  3.886  0.130E+01
  3.896  0.131E+01
  3.906  0.132E+01
  3.916  0.134E+01
  3.926  0.134E+01
  3.936  0.134E+01
  3.946  0.133E+01
  3.956  0.134E+01
  3.966  0.138E+01
  3.976  0.143E+01
  3.986  0.163E+01
  3.996  0.160E+01
  4.006  0.141E+01
  4.016  0.138E+01
  4.026  0.132E+01
  4.036  0.130E+01
  4.046  0.132E+01
  4.056  0.127E+01
  4.066  0.120E+01
  4.076  0.120E+01
  4.086  0.122E+01
  4.096  0.126E+01
  4.106  0.132E+01
  4.116  0.141E+01
  4.126  0.154E+01
  4.136  0.173E+01
  4.146  0.194E+01
  4.156  0.210E+01
  4.166  0.219E+01
  4.176  0.225E+01
  4.186  0.219E+01
  4.196  0.187E+01
  4.206  0.149E+01
  4.216  0.126E+01
  4.226  0.115E+01
  4.236  0.112E+01
  4.246  0.109E+01
  4.256  0.970E+00
  4.266  0.897E+00
  4.276  0.886E+00
  4.286  0.909E+00
  4.296  0.942E+00
  4.306  0.994E+00
  4.316  0.107E+01
  4.326  0.108E+01
  4.336  0.108E+01
  4.346  0.111E+01
  4.356  0.116E+01
  4.366  0.120E+01
  4.376  0.125E+01
  4.386  0.129E+01
  4.396  0.135E+01
  4.406  0.151E+01
  4.416  0.162E+01
  4.426  0.174E+01
  4.436  0.172E+01
  4.446  0.178E+01
  4.456  0.180E+01
  4.466  0.178E+01
  4.476  0.172E+01
  4.486  0.163E+01
  4.496  0.159E+01
  4.506  0.147E+01
  4.516  0.163E+01
  4.526  0.229E+01
  4.536  0.186E+01
  4.546  0.236E+01
  4.556  0.272E+01
  4.566  0.195E+01
  4.576  0.168E+01
  4.586  0.141E+01
  4.596  0.124E+01
  4.606  0.113E+01
  4.616  0.106E+01
  4.626  0.103E+01
  4.636  0.101E+01
  4.646  0.992E+00
  4.656  0.977E+00
  4.666  0.961E+00
  4.676  0.944E+00
  4.686  0.926E+00
  4.696  0.908E+00
  4.706  0.895E+00
  4.716  0.894E+00
  4.726  0.941E+00
  4.736  0.101E+01
  4.746  0.106E+01
  4.756  0.106E+01
  4.766  0.101E+01
  4.776  0.937E+00
  4.786  0.907E+00
  4.796  0.899E+00
  4.806  0.884E+00
  4.816  0.864E+00
  4.826  0.838E+00
  4.836  0.788E+00
  4.846  0.733E+00
  4.856  0.669E+00
  4.866  0.701E+00
  4.876  0.963E+00
  4.886  0.964E+00
  4.896  0.896E+00
  4.906  0.803E+00
  4.916  0.691E+00
  4.926  0.513E+00
  4.936  0.401E+00
  4.946  0.386E+00
  4.956  0.387E+00
  4.966  0.389E+00
  4.976  0.390E+00
  4.986  0.395E+00
  4.996  0.400E+00
  5.006  0.435E+00
  5.016  0.513E+00
  5.026  0.670E+00
  5.036  0.803E+00
  5.046  0.883E+00
  5.056  0.939E+00
  5.066  0.108E+01
  5.076  0.106E+01
  5.086  0.896E+00
  5.096  0.858E+00
  5.106  0.761E+00
  5.116  0.667E+00
  5.126  0.574E+00
  5.136  0.488E+00
  5.146  0.415E+00
  5.156  0.357E+00
  5.166  0.314E+00
  5.176  0.280E+00
  5.186  0.247E+00
  5.196  0.219E+00
  5.206  0.202E+00
  5.216  0.211E+00
  5.226  0.228E+00
  5.236  0.230E+00
  5.246  0.220E+00
  5.256  0.196E+00
  5.266  0.158E+00
  5.276  0.106E+00
  5.286  0.474E-01
  5.296  0.207E-01
  5.306  0.925E-02
  5.316  0.249E-02
  5.326  0.190E-03
  5.336  0.237E-04
  5.346  0.101E-05
  5.356  0.000E+00
  5.366  0.000E+00
  5.376  0.000E+00
  5.386  0.000E+00
  5.396  0.000E+00
  5.406  0.000E+00
  5.416  0.000E+00
  5.426  0.000E+00
  5.436  0.000E+00
  5.446  0.000E+00
  5.456  0.000E+00
  5.466  0.000E+00
  5.476  0.000E+00
  5.486  0.000E+00
  5.496  0.000E+00
  5.506  0.000E+00
  5.516  0.000E+00
  5.526  0.000E+00
  5.536  0.000E+00
  5.546  0.000E+00
  5.556  0.000E+00
  5.566  0.000E+00
  5.576  0.000E+00
  5.586  0.000E+00
  5.596  0.000E+00
  5.606  0.000E+00
  5.616  0.000E+00
  5.626  0.000E+00
  5.636  0.000E+00
  5.646  0.000E+00
  5.656  0.000E+00
  5.666  0.000E+00
  5.676  0.000E+00
  5.686  0.000E+00
  5.696  0.000E+00
  5.706  0.000E+00
  5.716  0.000E+00
  5.726  0.000E+00
  5.736  0.000E+00
  5.746  0.000E+00
  5.756  0.000E+00
  5.766  0.000E+00
  5.776  0.000E+00
  5.786  0.000E+00
  5.796  0.000E+00
  5.806  0.000E+00
  5.816  0.000E+00
  5.826  0.000E+00
  5.836  0.000E+00
  5.846  0.000E+00
  5.856  0.000E+00
  5.866  0.000E+00
  5.876  0.000E+00
  5.886  0.000E+00
  5.896  0.000E+00
  5.906  0.000E+00
  5.916  0.000E+00
  5.926  0.000E+00
  5.936  0.000E+00
  5.946  0.000E+00
  5.956  0.000E+00
  5.966  0.000E+00
  5.976  0.000E+00
  5.986  0.000E+00
  5.996  0.000E+00
  6.006  0.000E+00
  6.016  0.000E+00
  6.026  0.000E+00
  6.036  0.000E+00
  6.046  0.000E+00
  6.056  0.000E+00
  6.066  0.000E+00
  6.076  0.000E+00
  6.086  0.000E+00
  6.096  0.000E+00
  6.106  0.000E+00
  6.116  0.000E+00
  6.126  0.000E+00
  6.136  0.000E+00
  6.146  0.000E+00
  6.156  0.000E+00
  6.166  0.000E+00
  6.176  0.000E+00
  6.186  0.000E+00
  6.196  0.000E+00
  6.206  0.000E+00
  6.216  0.000E+00
  6.226  0.000E+00
  6.236  0.000E+00
  6.246  0.000E+00
  6.256  0.000E+00
  6.266  0.000E+00
  6.276  0.000E+00
  6.286  0.000E+00
  6.296  0.000E+00
  6.306  0.000E+00
  6.316  0.000E+00
  6.326  0.000E+00
  6.336  0.000E+00
  6.346  0.000E+00
  6.356  0.000E+00
  6.366  0.000E+00
  6.376  0.000E+00
  6.386  0.000E+00
  6.396  0.000E+00
  6.406  0.000E+00
  6.416  0.000E+00
  6.426  0.000E+00
  6.436  0.000E+00
  6.446  0.000E+00
  6.456  0.000E+00
  6.466  0.000E+00
  6.476  0.000E+00
  6.486  0.000E+00
  6.496  0.000E+00
  6.506  0.000E+00
  6.516  0.000E+00
  6.526  0.000E+00
  6.536  0.000E+00
  6.546  0.000E+00
  6.556  0.000E+00
  6.566  0.000E+00
  6.576  0.000E+00
  6.586  0.000E+00
  6.596  0.000E+00
  6.606  0.000E+00
  6.616  0.000E+00
  6.626  0.000E+00
  6.636  0.000E+00
  6.646  0.000E+00
  6.656  0.000E+00
  6.666  0.000E+00
  6.676  0.000E+00
  6.686  0.000E+00
  6.696  0.000E+00
  6.706  0.000E+00
  6.716  0.000E+00
  6.726  0.000E+00
  6.736  0.000E+00
  6.746  0.000E+00
  6.756  0.000E+00
  6.766  0.000E+00
  6.776  0.000E+00
  6.786  0.000E+00
  6.796  0.000E+00
  6.806  0.000E+00
  6.816  0.000E+00
  6.826  0.000E+00
  6.836  0.000E+00
  6.846  0.000E+00
  6.856  0.000E+00
  6.866  0.000E+00
  6.876  0.000E+00
  6.886  0.000E+00
  6.896  0.000E+00
  6.906  0.000E+00
  6.916  0.000E+00
  6.926  0.000E+00
  6.936  0.000E+00
  6.946  0.000E+00
  6.956  0.000E+00
  6.966  0.000E+00
  6.976  0.000E+00
  6.986  0.000E+00
  6.996  0.000E+00
  7.006  0.000E+00
  7.016  0.000E+00
  7.026  0.000E+00
  7.036  0.000E+00
  7.046  0.000E+00
  7.056  0.000E+00
  7.066  0.000E+00
  7.076  0.000E+00
  7.086  0.000E+00
  7.096  0.000E+00
  7.106  0.000E+00
  7.116  0.000E+00
  7.126  0.000E+00
  7.136  0.000E+00
  7.146  0.000E+00
  7.156  0.000E+00
  7.166  0.000E+00
  7.176  0.000E+00
  7.186  0.000E+00
  7.196  0.000E+00
  7.206  0.000E+00
  7.216  0.000E+00
  7.226  0.000E+00
  7.236  0.000E+00
  7.246  0.000E+00
  7.256  0.000E+00
  7.266  0.000E+00
  7.276  0.000E+00
  7.286  0.000E+00
  7.296  0.000E+00
  7.306  0.000E+00
  7.316  0.000E+00
  7.326  0.000E+00
  7.336  0.000E+00
  7.346  0.000E+00
  7.356  0.000E+00
  7.366  0.000E+00
  7.376  0.000E+00
  7.386  0.000E+00
  7.396  0.000E+00
  7.406  0.000E+00
  7.416  0.000E+00
  7.426  0.000E+00
  7.436  0.000E+00
  7.446  0.000E+00
  7.456  0.000E+00
  7.466 -0.163E-08
  7.476 -0.184E-07
  7.486 -0.443E-07
  7.496 -0.699E-07
  7.506 -0.134E-06
  7.516 -0.209E-06
  7.526 -0.231E-06
  7.536 -0.135E-06
  7.546  0.143E-06
  7.556  0.669E-06
  7.566  0.151E-05
  7.576  0.272E-05
  7.586  0.437E-05
  7.596  0.653E-05
  7.606  0.925E-05
  7.616  0.126E-04
  7.626  0.167E-04
  7.636  0.215E-04
  7.646  0.271E-04
  7.656  0.336E-04
  7.666  0.412E-04
  7.676  0.497E-04
  7.686  0.593E-04
  7.696  0.701E-04
  7.706  0.820E-04
  7.716  0.952E-04
  7.726  0.110E-03
  7.736  0.126E-03
  7.746  0.143E-03
  7.756  0.162E-03
  7.766  0.183E-03
  7.776  0.205E-03
  7.786  0.229E-03
  7.796  0.255E-03
  7.806  0.283E-03
  7.816  0.312E-03
  7.826  0.344E-03
  7.836  0.378E-03
  7.846  0.414E-03
  7.856  0.449E-03
  7.866  0.485E-03
  7.876  0.525E-03
  7.886  0.569E-03
  7.896  0.618E-03
  7.906  0.671E-03
  7.916  0.723E-03
  7.926  0.771E-03
  7.936  0.816E-03
  7.946  0.861E-03
  7.956  0.902E-03
  7.966  0.942E-03
  7.976  0.981E-03
  7.986  0.102E-02
  7.996  0.105E-02
  8.006  0.109E-02
  8.016  0.112E-02
  8.026  0.116E-02
  8.036  0.119E-02
  8.046  0.122E-02
  8.056  0.125E-02
  8.066  0.128E-02
  8.076  0.130E-02
  8.086  0.133E-02
  8.096  0.135E-02
  8.106  0.138E-02
  8.116  0.140E-02
  8.126  0.142E-02
  8.136  0.144E-02
  8.146  0.145E-02
  8.156  0.146E-02
  8.166  0.146E-02
  8.176  0.145E-02
  8.186  0.145E-02
  8.196  0.146E-02
  8.206  0.147E-02
  8.216  0.147E-02
  8.226  0.148E-02
  8.236  0.149E-02
  8.246  0.150E-02
  8.256  0.151E-02
  8.266  0.152E-02
  8.276  0.153E-02
  8.286  0.155E-02
  8.296  0.156E-02
  8.306  0.158E-02
  8.316  0.161E-02
  8.326  0.163E-02