
     Program PWSCF v.7.2 starts on 22Mar2024 at  0:37:24 

     This program is part of the open-source Quantum ESPRESSO suite
     for quantum simulation of materials; please cite
         "P. Giannozzi et al., J. Phys.:Condens. Matter 21 395502 (2009);
         "P. Giannozzi et al., J. Phys.:Condens. Matter 29 465901 (2017);
         "P. Giannozzi et al., J. Chem. Phys. 152 154105 (2020);
          URL http://www.quantum-espresso.org", 
     in publications or presentations arising from this work. More details at
     http://www.quantum-espresso.org/quote

     Parallel version (MPI), running on    20 processors

     MPI processes distributed on     1 nodes
     298981 MiB available memory on the printing compute node when the environment starts
 
     Waiting for input...
     Reading input from standard input

     Current dimensions of program PWSCF are:
     Max number of different atomic species (ntypx) = 10
     Max number of k-points (npk) = 120000
     Max angular momentum in pseudopotentials (lmaxx) =  4
     file Ni.pbe-spn-kjpaw_psl.1.0.0.UPF: wavefunction(s)  3P 3D renormalized
     Found identity + (  0.0000 -0.5000 -0.5000) symmetry
     This is a supercell, fractional translations are disabled
     Message from routine setup:
     using ibrav=0 with symmetry is DISCOURAGED, use correct ibrav instead
 
     R & G space division:  proc/nbgrp/npool/nimage =      20
     Subspace diagonalization in iterative solution of the eigenvalue problem:
     a serial algorithm will be used

 
     Parallelization info
     --------------------
     sticks:   dense  smooth     PW     G-vecs:    dense   smooth      PW
     Min         103     103     29                 3515     3515     537
     Max         104     104     30                 3518     3518     540
     Sum        2061    2061    593                70319    70319   10779
 
     Using Slab Decomposition
 


     bravais-lattice index     =            0
     lattice parameter (alat)  =       6.5671  a.u.
     unit-cell volume          =     283.2147 (a.u.)^3
     number of atoms/cell      =            4
     number of atomic types    =            1
     number of electrons       =        72.00
     number of Kohn-Sham states=           43
     kinetic-energy cutoff     =     150.0000  Ry
     charge density cutoff     =     600.0000  Ry
     scf convergence threshold =      8.0E-08
     mixing beta               =       0.7000
     number of iterations used =            8  plain     mixing
     Exchange-correlation= SLA  PW   PBX  PBC
                           (   1   4   3   4   0   0   0)

     celldm(1)=   6.567074  celldm(2)=   0.000000  celldm(3)=   0.000000
     celldm(4)=   0.000000  celldm(5)=   0.000000  celldm(6)=   0.000000

     crystal axes: (cart. coord. in units of alat)
               a(1) = (   1.000000   0.000000   0.000000 )  
               a(2) = (   0.000000   1.000000   0.000000 )  
               a(3) = (   0.000000   0.000000   1.000000 )  

     reciprocal axes: (cart. coord. in units 2 pi/alat)
               b(1) = (  1.000000  0.000000  0.000000 )  
               b(2) = (  0.000000  1.000000  0.000000 )  
               b(3) = (  0.000000  0.000000  1.000000 )  


     PseudoPot. # 1 for Ni read from file:
     /truba/home/amuhaymin/ZnS/pseudo/QE/Ni.pbe-spn-kjpaw_psl.1.0.0.UPF
     MD5 check sum: 6e86b733589c3ad8389697b807d86aa7
     Pseudo is Projector augmented-wave + core cor, Zval = 18.0
     Generated using &quot;atomic&quot; code by A. Dal Corso  v.6.3
     Shape of augmentation charge: PSQ
     Using radial grid of 1195 points,  6 beta functions with: 
                l(1) =   0
                l(2) =   0
                l(3) =   1
                l(4) =   1
                l(5) =   2
                l(6) =   2
     Q(r) pseudized with 0 coefficients 


     atomic species   valence    mass     pseudopotential
        Ni            18.00    58.69340     Ni( 1.00)

     Starting magnetic structure 
     atomic species   magnetization
        Ni           0.278

     48 Sym. Ops., with inversion, found


                                    s                        frac. trans.

      isym =  1     identity                                     

 cryst.   s( 1) = (     1          0          0      )
                  (     0          1          0      )
                  (     0          0          1      )

 cart.    s( 1) = (  1.0000000  0.0000000  0.0000000 )
                  (  0.0000000  1.0000000  0.0000000 )
                  (  0.0000000  0.0000000  1.0000000 )


      isym =  2     180 deg rotation - cart. axis [0,0,1]        

 cryst.   s( 2) = (    -1          0          0      )
                  (     0         -1          0      )
                  (     0          0          1      )

 cart.    s( 2) = ( -1.0000000  0.0000000  0.0000000 )
                  (  0.0000000 -1.0000000  0.0000000 )
                  (  0.0000000  0.0000000  1.0000000 )


      isym =  3     180 deg rotation - cart. axis [0,1,0]        

 cryst.   s( 3) = (    -1          0          0      )
                  (     0          1          0      )
                  (     0          0         -1      )

 cart.    s( 3) = ( -1.0000000  0.0000000  0.0000000 )
                  (  0.0000000  1.0000000  0.0000000 )
                  (  0.0000000  0.0000000 -1.0000000 )


      isym =  4     180 deg rotation - cart. axis [1,0,0]        

 cryst.   s( 4) = (     1          0          0      )
                  (     0         -1          0      )
                  (     0          0         -1      )

 cart.    s( 4) = (  1.0000000  0.0000000  0.0000000 )
                  (  0.0000000 -1.0000000  0.0000000 )
                  (  0.0000000  0.0000000 -1.0000000 )


      isym =  5     180 deg rotation - cart. axis [1,1,0]        

 cryst.   s( 5) = (     0          1          0      )
                  (     1          0          0      )
                  (     0          0         -1      )

 cart.    s( 5) = (  0.0000000  1.0000000  0.0000000 )
                  (  1.0000000  0.0000000  0.0000000 )
                  (  0.0000000  0.0000000 -1.0000000 )


      isym =  6     180 deg rotation - cart. axis [1,-1,0]       

 cryst.   s( 6) = (     0         -1          0      )
                  (    -1          0          0      )
                  (     0          0         -1      )

 cart.    s( 6) = (  0.0000000 -1.0000000  0.0000000 )
                  ( -1.0000000  0.0000000  0.0000000 )
                  (  0.0000000  0.0000000 -1.0000000 )


      isym =  7      90 deg rotation - cart. axis [0,0,-1]       

 cryst.   s( 7) = (     0         -1          0      )
                  (     1          0          0      )
                  (     0          0          1      )

 cart.    s( 7) = (  0.0000000  1.0000000  0.0000000 )
                  ( -1.0000000  0.0000000  0.0000000 )
                  (  0.0000000  0.0000000  1.0000000 )


      isym =  8      90 deg rotation - cart. axis [0,0,1]        

 cryst.   s( 8) = (     0          1          0      )
                  (    -1          0          0      )
                  (     0          0          1      )

 cart.    s( 8) = (  0.0000000 -1.0000000  0.0000000 )
                  (  1.0000000  0.0000000  0.0000000 )
                  (  0.0000000  0.0000000  1.0000000 )


      isym =  9     180 deg rotation - cart. axis [1,0,1]        

 cryst.   s( 9) = (     0          0          1      )
                  (     0         -1          0      )
                  (     1          0          0      )

 cart.    s( 9) = (  0.0000000  0.0000000  1.0000000 )
                  (  0.0000000 -1.0000000  0.0000000 )
                  (  1.0000000  0.0000000  0.0000000 )


      isym = 10     180 deg rotation - cart. axis [-1,0,1]       

 cryst.   s(10) = (     0          0         -1      )
                  (     0         -1          0      )
                  (    -1          0          0      )

 cart.    s(10) = (  0.0000000  0.0000000 -1.0000000 )
                  (  0.0000000 -1.0000000  0.0000000 )
                  ( -1.0000000  0.0000000  0.0000000 )


      isym = 11      90 deg rotation - cart. axis [0,1,0]        

 cryst.   s(11) = (     0          0         -1      )
                  (     0          1          0      )
                  (     1          0          0      )

 cart.    s(11) = (  0.0000000  0.0000000  1.0000000 )
                  (  0.0000000  1.0000000  0.0000000 )
                  ( -1.0000000  0.0000000  0.0000000 )


      isym = 12      90 deg rotation - cart. axis [0,-1,0]       

 cryst.   s(12) = (     0          0          1      )
                  (     0          1          0      )
                  (    -1          0          0      )

 cart.    s(12) = (  0.0000000  0.0000000 -1.0000000 )
                  (  0.0000000  1.0000000  0.0000000 )
                  (  1.0000000  0.0000000  0.0000000 )


      isym = 13     180 deg rotation - cart. axis [0,1,1]        

 cryst.   s(13) = (    -1          0          0      )
                  (     0          0          1      )
                  (     0          1          0      )

 cart.    s(13) = ( -1.0000000  0.0000000  0.0000000 )
                  (  0.0000000  0.0000000  1.0000000 )
                  (  0.0000000  1.0000000  0.0000000 )


      isym = 14     180 deg rotation - cart. axis [0,1,-1]       

 cryst.   s(14) = (    -1          0          0      )
                  (     0          0         -1      )
                  (     0         -1          0      )

 cart.    s(14) = ( -1.0000000  0.0000000  0.0000000 )
                  (  0.0000000  0.0000000 -1.0000000 )
                  (  0.0000000 -1.0000000  0.0000000 )


      isym = 15      90 deg rotation - cart. axis [-1,0,0]       

 cryst.   s(15) = (     1          0          0      )
                  (     0          0         -1      )
                  (     0          1          0      )

 cart.    s(15) = (  1.0000000  0.0000000  0.0000000 )
                  (  0.0000000  0.0000000  1.0000000 )
                  (  0.0000000 -1.0000000  0.0000000 )


      isym = 16      90 deg rotation - cart. axis [1,0,0]        

 cryst.   s(16) = (     1          0          0      )
                  (     0          0          1      )
                  (     0         -1          0      )

 cart.    s(16) = (  1.0000000  0.0000000  0.0000000 )
                  (  0.0000000  0.0000000 -1.0000000 )
                  (  0.0000000  1.0000000  0.0000000 )


      isym = 17     120 deg rotation - cart. axis [-1,-1,-1]     

 cryst.   s(17) = (     0          0          1      )
                  (     1          0          0      )
                  (     0          1          0      )

 cart.    s(17) = (  0.0000000  1.0000000  0.0000000 )
                  (  0.0000000  0.0000000  1.0000000 )
                  (  1.0000000  0.0000000  0.0000000 )


      isym = 18     120 deg rotation - cart. axis [-1,1,1]       

 cryst.   s(18) = (     0          0         -1      )
                  (    -1          0          0      )
                  (     0          1          0      )

 cart.    s(18) = (  0.0000000 -1.0000000  0.0000000 )
                  (  0.0000000  0.0000000  1.0000000 )
                  ( -1.0000000  0.0000000  0.0000000 )


      isym = 19     120 deg rotation - cart. axis [1,1,-1]       

 cryst.   s(19) = (     0          0         -1      )
                  (     1          0          0      )
                  (     0         -1          0      )

 cart.    s(19) = (  0.0000000  1.0000000  0.0000000 )
                  (  0.0000000  0.0000000 -1.0000000 )
                  ( -1.0000000  0.0000000  0.0000000 )


      isym = 20     120 deg rotation - cart. axis [1,-1,1]       

 cryst.   s(20) = (     0          0          1      )
                  (    -1          0          0      )
                  (     0         -1          0      )

 cart.    s(20) = (  0.0000000 -1.0000000  0.0000000 )
                  (  0.0000000  0.0000000 -1.0000000 )
                  (  1.0000000  0.0000000  0.0000000 )


      isym = 21     120 deg rotation - cart. axis [1,1,1]        

 cryst.   s(21) = (     0          1          0      )
                  (     0          0          1      )
                  (     1          0          0      )

 cart.    s(21) = (  0.0000000  0.0000000  1.0000000 )
                  (  1.0000000  0.0000000  0.0000000 )
                  (  0.0000000  1.0000000  0.0000000 )


      isym = 22     120 deg rotation - cart. axis [-1,1,-1]      

 cryst.   s(22) = (     0         -1          0      )
                  (     0          0         -1      )
                  (     1          0          0      )

 cart.    s(22) = (  0.0000000  0.0000000  1.0000000 )
                  ( -1.0000000  0.0000000  0.0000000 )
                  (  0.0000000 -1.0000000  0.0000000 )


      isym = 23     120 deg rotation - cart. axis [1,-1,-1]      

 cryst.   s(23) = (     0         -1          0      )
                  (     0          0          1      )
                  (    -1          0          0      )

 cart.    s(23) = (  0.0000000  0.0000000 -1.0000000 )
                  ( -1.0000000  0.0000000  0.0000000 )
                  (  0.0000000  1.0000000  0.0000000 )


      isym = 24     120 deg rotation - cart. axis [-1,-1,1]      

 cryst.   s(24) = (     0          1          0      )
                  (     0          0         -1      )
                  (    -1          0          0      )

 cart.    s(24) = (  0.0000000  0.0000000 -1.0000000 )
                  (  1.0000000  0.0000000  0.0000000 )
                  (  0.0000000 -1.0000000  0.0000000 )


      isym = 25     inversion                                    

 cryst.   s(25) = (    -1          0          0      )
                  (     0         -1          0      )
                  (     0          0         -1      )

 cart.    s(25) = ( -1.0000000  0.0000000  0.0000000 )
                  (  0.0000000 -1.0000000  0.0000000 )
                  (  0.0000000  0.0000000 -1.0000000 )


      isym = 26     inv. 180 deg rotation - cart. axis [0,0,1]   

 cryst.   s(26) = (     1          0          0      )
                  (     0          1          0      )
                  (     0          0         -1      )

 cart.    s(26) = (  1.0000000  0.0000000  0.0000000 )
                  (  0.0000000  1.0000000  0.0000000 )
                  (  0.0000000  0.0000000 -1.0000000 )


      isym = 27     inv. 180 deg rotation - cart. axis [0,1,0]   

 cryst.   s(27) = (     1          0          0      )
                  (     0         -1          0      )
                  (     0          0          1      )

 cart.    s(27) = (  1.0000000  0.0000000  0.0000000 )
                  (  0.0000000 -1.0000000  0.0000000 )
                  (  0.0000000  0.0000000  1.0000000 )


      isym = 28     inv. 180 deg rotation - cart. axis [1,0,0]   

 cryst.   s(28) = (    -1          0          0      )
                  (     0          1          0      )
                  (     0          0          1      )

 cart.    s(28) = ( -1.0000000  0.0000000  0.0000000 )
                  (  0.0000000  1.0000000  0.0000000 )
                  (  0.0000000  0.0000000  1.0000000 )


      isym = 29     inv. 180 deg rotation - cart. axis [1,1,0]   

 cryst.   s(29) = (     0         -1          0      )
                  (    -1          0          0      )
                  (     0          0          1      )

 cart.    s(29) = (  0.0000000 -1.0000000  0.0000000 )
                  ( -1.0000000  0.0000000  0.0000000 )
                  (  0.0000000  0.0000000  1.0000000 )


      isym = 30     inv. 180 deg rotation - cart. axis [1,-1,0]  

 cryst.   s(30) = (     0          1          0      )
                  (     1          0          0      )
                  (     0          0          1      )

 cart.    s(30) = (  0.0000000  1.0000000  0.0000000 )
                  (  1.0000000  0.0000000  0.0000000 )
                  (  0.0000000  0.0000000  1.0000000 )


      isym = 31     inv.  90 deg rotation - cart. axis [0,0,-1]  

 cryst.   s(31) = (     0          1          0      )
                  (    -1          0          0      )
                  (     0          0         -1      )

 cart.    s(31) = (  0.0000000 -1.0000000  0.0000000 )
                  (  1.0000000  0.0000000  0.0000000 )
                  (  0.0000000  0.0000000 -1.0000000 )


      isym = 32     inv.  90 deg rotation - cart. axis [0,0,1]   

 cryst.   s(32) = (     0         -1          0      )
                  (     1          0          0      )
                  (     0          0         -1      )

 cart.    s(32) = (  0.0000000  1.0000000  0.0000000 )
                  ( -1.0000000  0.0000000  0.0000000 )
                  (  0.0000000  0.0000000 -1.0000000 )


      isym = 33     inv. 180 deg rotation - cart. axis [1,0,1]   

 cryst.   s(33) = (     0          0         -1      )
                  (     0          1          0      )
                  (    -1          0          0      )

 cart.    s(33) = (  0.0000000  0.0000000 -1.0000000 )
                  (  0.0000000  1.0000000  0.0000000 )
                  ( -1.0000000  0.0000000  0.0000000 )


      isym = 34     inv. 180 deg rotation - cart. axis [-1,0,1]  

 cryst.   s(34) = (     0          0          1      )
                  (     0          1          0      )
                  (     1          0          0      )

 cart.    s(34) = (  0.0000000  0.0000000  1.0000000 )
                  (  0.0000000  1.0000000  0.0000000 )
                  (  1.0000000  0.0000000  0.0000000 )


      isym = 35     inv.  90 deg rotation - cart. axis [0,1,0]   

 cryst.   s(35) = (     0          0          1      )
                  (     0         -1          0      )
                  (    -1          0          0      )

 cart.    s(35) = (  0.0000000  0.0000000 -1.0000000 )
                  (  0.0000000 -1.0000000  0.0000000 )
                  (  1.0000000  0.0000000  0.0000000 )


      isym = 36     inv.  90 deg rotation - cart. axis [0,-1,0]  

 cryst.   s(36) = (     0          0         -1      )
                  (     0         -1          0      )
                  (     1          0          0      )

 cart.    s(36) = (  0.0000000  0.0000000  1.0000000 )
                  (  0.0000000 -1.0000000  0.0000000 )
                  ( -1.0000000  0.0000000  0.0000000 )


      isym = 37     inv. 180 deg rotation - cart. axis [0,1,1]   

 cryst.   s(37) = (     1          0          0      )
                  (     0          0         -1      )
                  (     0         -1          0      )

 cart.    s(37) = (  1.0000000  0.0000000  0.0000000 )
                  (  0.0000000  0.0000000 -1.0000000 )
                  (  0.0000000 -1.0000000  0.0000000 )


      isym = 38     inv. 180 deg rotation - cart. axis [0,1,-1]  

 cryst.   s(38) = (     1          0          0      )
                  (     0          0          1      )
                  (     0          1          0      )

 cart.    s(38) = (  1.0000000  0.0000000  0.0000000 )
                  (  0.0000000  0.0000000  1.0000000 )
                  (  0.0000000  1.0000000  0.0000000 )


      isym = 39     inv.  90 deg rotation - cart. axis [-1,0,0]  

 cryst.   s(39) = (    -1          0          0      )
                  (     0          0          1      )
                  (     0         -1          0      )

 cart.    s(39) = ( -1.0000000  0.0000000  0.0000000 )
                  (  0.0000000  0.0000000 -1.0000000 )
                  (  0.0000000  1.0000000  0.0000000 )


      isym = 40     inv.  90 deg rotation - cart. axis [1,0,0]   

 cryst.   s(40) = (    -1          0          0      )
                  (     0          0         -1      )
                  (     0          1          0      )

 cart.    s(40) = ( -1.0000000  0.0000000  0.0000000 )
                  (  0.0000000  0.0000000  1.0000000 )
                  (  0.0000000 -1.0000000  0.0000000 )


      isym = 41     inv. 120 deg rotation - cart. axis [-1,-1,-1]

 cryst.   s(41) = (     0          0         -1      )
                  (    -1          0          0      )
                  (     0         -1          0      )

 cart.    s(41) = (  0.0000000 -1.0000000  0.0000000 )
                  (  0.0000000  0.0000000 -1.0000000 )
                  ( -1.0000000  0.0000000  0.0000000 )


      isym = 42     inv. 120 deg rotation - cart. axis [-1,1,1]  

 cryst.   s(42) = (     0          0          1      )
                  (     1          0          0      )
                  (     0         -1          0      )

 cart.    s(42) = (  0.0000000  1.0000000  0.0000000 )
                  (  0.0000000  0.0000000 -1.0000000 )
                  (  1.0000000  0.0000000  0.0000000 )


      isym = 43     inv. 120 deg rotation - cart. axis [1,1,-1]  

 cryst.   s(43) = (     0          0          1      )
                  (    -1          0          0      )
                  (     0          1          0      )

 cart.    s(43) = (  0.0000000 -1.0000000  0.0000000 )
                  (  0.0000000  0.0000000  1.0000000 )
                  (  1.0000000  0.0000000  0.0000000 )


      isym = 44     inv. 120 deg rotation - cart. axis [1,-1,1]  

 cryst.   s(44) = (     0          0         -1      )
                  (     1          0          0      )
                  (     0          1          0      )

 cart.    s(44) = (  0.0000000  1.0000000  0.0000000 )
                  (  0.0000000  0.0000000  1.0000000 )
                  ( -1.0000000  0.0000000  0.0000000 )


      isym = 45     inv. 120 deg rotation - cart. axis [1,1,1]   

 cryst.   s(45) = (     0         -1          0      )
                  (     0          0         -1      )
                  (    -1          0          0      )

 cart.    s(45) = (  0.0000000  0.0000000 -1.0000000 )
                  ( -1.0000000  0.0000000  0.0000000 )
                  (  0.0000000 -1.0000000  0.0000000 )


      isym = 46     inv. 120 deg rotation - cart. axis [-1,1,-1] 

 cryst.   s(46) = (     0          1          0      )
                  (     0          0          1      )
                  (    -1          0          0      )

 cart.    s(46) = (  0.0000000  0.0000000 -1.0000000 )
                  (  1.0000000  0.0000000  0.0000000 )
                  (  0.0000000  1.0000000  0.0000000 )


      isym = 47     inv. 120 deg rotation - cart. axis [1,-1,-1] 

 cryst.   s(47) = (     0          1          0      )
                  (     0          0         -1      )
                  (     1          0          0      )

 cart.    s(47) = (  0.0000000  0.0000000  1.0000000 )
                  (  1.0000000  0.0000000  0.0000000 )
                  (  0.0000000 -1.0000000  0.0000000 )


      isym = 48     inv. 120 deg rotation - cart. axis [-1,-1,1] 

 cryst.   s(48) = (     0         -1          0      )
                  (     0          0          1      )
                  (     1          0          0      )

 cart.    s(48) = (  0.0000000  0.0000000  1.0000000 )
                  ( -1.0000000  0.0000000  0.0000000 )
                  (  0.0000000  1.0000000  0.0000000 )


   Cartesian axes

     site n.     atom                  positions (alat units)
         1           Ni  tau(   1) = (   0.0000000   0.0000000   0.0000000  )
         2           Ni  tau(   2) = (   0.0000000   0.5000000   0.5000000  )
         3           Ni  tau(   3) = (   0.5000000   0.0000000   0.5000000  )
         4           Ni  tau(   4) = (   0.5000000   0.5000000   0.0000000  )

   Crystallographic axes

     site n.     atom                  positions (cryst. coord.)
         1           Ni  tau(   1) = (  0.0000000  0.0000000  0.0000000  )
         2           Ni  tau(   2) = (  0.0000000  0.5000000  0.5000000  )
         3           Ni  tau(   3) = (  0.5000000  0.0000000  0.5000000  )
         4           Ni  tau(   4) = (  0.5000000  0.5000000  0.0000000  )

     number of k points=    35  Methfessel-Paxton smearing, width (Ry)=  0.0220
                       cart. coord. in units 2pi/alat
        k(    1) = (   0.0000000   0.0000000   0.0000000), wk =   0.0019531
        k(    2) = (   0.0000000   0.0000000   0.1250000), wk =   0.0117188
        k(    3) = (   0.0000000   0.0000000   0.2500000), wk =   0.0117188
        k(    4) = (   0.0000000   0.0000000   0.3750000), wk =   0.0117188
        k(    5) = (   0.0000000   0.0000000  -0.5000000), wk =   0.0058594
        k(    6) = (   0.0000000   0.1250000   0.1250000), wk =   0.0234375
        k(    7) = (   0.0000000   0.1250000   0.2500000), wk =   0.0468750
        k(    8) = (   0.0000000   0.1250000   0.3750000), wk =   0.0468750
        k(    9) = (   0.0000000   0.1250000  -0.5000000), wk =   0.0234375
        k(   10) = (   0.0000000   0.2500000   0.2500000), wk =   0.0234375
        k(   11) = (   0.0000000   0.2500000   0.3750000), wk =   0.0468750
        k(   12) = (   0.0000000   0.2500000  -0.5000000), wk =   0.0234375
        k(   13) = (   0.0000000   0.3750000   0.3750000), wk =   0.0234375
        k(   14) = (   0.0000000   0.3750000  -0.5000000), wk =   0.0234375
        k(   15) = (   0.0000000  -0.5000000  -0.5000000), wk =   0.0058594
        k(   16) = (   0.1250000   0.1250000   0.1250000), wk =   0.0156250
        k(   17) = (   0.1250000   0.1250000   0.2500000), wk =   0.0468750
        k(   18) = (   0.1250000   0.1250000   0.3750000), wk =   0.0468750
        k(   19) = (   0.1250000   0.1250000  -0.5000000), wk =   0.0234375
        k(   20) = (   0.1250000   0.2500000   0.2500000), wk =   0.0468750
        k(   21) = (   0.1250000   0.2500000   0.3750000), wk =   0.0937500
        k(   22) = (   0.1250000   0.2500000  -0.5000000), wk =   0.0468750
        k(   23) = (   0.1250000   0.3750000   0.3750000), wk =   0.0468750
        k(   24) = (   0.1250000   0.3750000  -0.5000000), wk =   0.0468750
        k(   25) = (   0.1250000  -0.5000000  -0.5000000), wk =   0.0117188
        k(   26) = (   0.2500000   0.2500000   0.2500000), wk =   0.0156250
        k(   27) = (   0.2500000   0.2500000   0.3750000), wk =   0.0468750
        k(   28) = (   0.2500000   0.2500000  -0.5000000), wk =   0.0234375
        k(   29) = (   0.2500000   0.3750000   0.3750000), wk =   0.0468750
        k(   30) = (   0.2500000   0.3750000  -0.5000000), wk =   0.0468750
        k(   31) = (   0.2500000  -0.5000000  -0.5000000), wk =   0.0117188
        k(   32) = (   0.3750000   0.3750000   0.3750000), wk =   0.0156250
        k(   33) = (   0.3750000   0.3750000  -0.5000000), wk =   0.0234375
        k(   34) = (   0.3750000  -0.5000000  -0.5000000), wk =   0.0117188
        k(   35) = (  -0.5000000  -0.5000000  -0.5000000), wk =   0.0019531

                       cryst. coord.
        k(    1) = (   0.0000000   0.0000000   0.0000000), wk =   0.0019531
        k(    2) = (   0.0000000   0.0000000   0.1250000), wk =   0.0117188
        k(    3) = (   0.0000000   0.0000000   0.2500000), wk =   0.0117188
        k(    4) = (   0.0000000   0.0000000   0.3750000), wk =   0.0117188
        k(    5) = (   0.0000000   0.0000000  -0.5000000), wk =   0.0058594
        k(    6) = (   0.0000000   0.1250000   0.1250000), wk =   0.0234375
        k(    7) = (   0.0000000   0.1250000   0.2500000), wk =   0.0468750
        k(    8) = (   0.0000000   0.1250000   0.3750000), wk =   0.0468750
        k(    9) = (   0.0000000   0.1250000  -0.5000000), wk =   0.0234375
        k(   10) = (   0.0000000   0.2500000   0.2500000), wk =   0.0234375
        k(   11) = (   0.0000000   0.2500000   0.3750000), wk =   0.0468750
        k(   12) = (   0.0000000   0.2500000  -0.5000000), wk =   0.0234375
        k(   13) = (   0.0000000   0.3750000   0.3750000), wk =   0.0234375
        k(   14) = (   0.0000000   0.3750000  -0.5000000), wk =   0.0234375
        k(   15) = (   0.0000000  -0.5000000  -0.5000000), wk =   0.0058594
        k(   16) = (   0.1250000   0.1250000   0.1250000), wk =   0.0156250
        k(   17) = (   0.1250000   0.1250000   0.2500000), wk =   0.0468750
        k(   18) = (   0.1250000   0.1250000   0.3750000), wk =   0.0468750
        k(   19) = (   0.1250000   0.1250000  -0.5000000), wk =   0.0234375
        k(   20) = (   0.1250000   0.2500000   0.2500000), wk =   0.0468750
        k(   21) = (   0.1250000   0.2500000   0.3750000), wk =   0.0937500
        k(   22) = (   0.1250000   0.2500000  -0.5000000), wk =   0.0468750
        k(   23) = (   0.1250000   0.3750000   0.3750000), wk =   0.0468750
        k(   24) = (   0.1250000   0.3750000  -0.5000000), wk =   0.0468750
        k(   25) = (   0.1250000  -0.5000000  -0.5000000), wk =   0.0117188
        k(   26) = (   0.2500000   0.2500000   0.2500000), wk =   0.0156250
        k(   27) = (   0.2500000   0.2500000   0.3750000), wk =   0.0468750
        k(   28) = (   0.2500000   0.2500000  -0.5000000), wk =   0.0234375
        k(   29) = (   0.2500000   0.3750000   0.3750000), wk =   0.0468750
        k(   30) = (   0.2500000   0.3750000  -0.5000000), wk =   0.0468750
        k(   31) = (   0.2500000  -0.5000000  -0.5000000), wk =   0.0117188
        k(   32) = (   0.3750000   0.3750000   0.3750000), wk =   0.0156250
        k(   33) = (   0.3750000   0.3750000  -0.5000000), wk =   0.0234375
        k(   34) = (   0.3750000  -0.5000000  -0.5000000), wk =   0.0117188
        k(   35) = (  -0.5000000  -0.5000000  -0.5000000), wk =   0.0019531

     Dense  grid:    70319 G-vectors     FFT dimensions: (  54,  54,  54)

     Dynamical RAM for                 wfc:       0.29 MB

     Dynamical RAM for     wfc (w. buffer):      20.45 MB

     Dynamical RAM for           str. fact:       0.05 MB

     Dynamical RAM for           local pot:       0.00 MB

     Dynamical RAM for          nlocal pot:       0.48 MB

     Dynamical RAM for                qrad:       1.97 MB

     Dynamical RAM for          rho,v,vnew:       0.72 MB

     Dynamical RAM for               rhoin:       0.24 MB

     Dynamical RAM for            rho*nmix:       1.72 MB

     Dynamical RAM for           G-vectors:       0.23 MB

     Dynamical RAM for          h,s,v(r/c):       0.34 MB

     Dynamical RAM for          <psi|beta>:       0.05 MB

     Dynamical RAM for                 psi:       0.58 MB

     Dynamical RAM for                hpsi:       0.58 MB

     Dynamical RAM for                spsi:       0.58 MB

     Dynamical RAM for      wfcinit/wfcrot:       0.62 MB

     Dynamical RAM for           addusdens:      10.25 MB

     Estimated static dynamical RAM per process >      24.65 MB

     Estimated max dynamical RAM per process >      36.62 MB

     Estimated total dynamical RAM >     732.37 MB

     Check: negative core charge=   -0.000001
     Generating pointlists ...
     new r_m :   0.2917 (alat units)  1.9155 (a.u.) for type    1

     The initial density is read from file :
     out/Ni.save/charge-density

     Starting wfcs from file
     Checking if some PAW data can be deallocated... 

     total cpu time spent up to now is        1.3 secs

     Self-consistent Calculation

     iteration #  1     ecut=   150.00 Ry     beta= 0.70
     Davidson diagonalization with overlap

---- Real-time Memory Report at c_bands before calling an iterative solver
            64 MiB given to the printing process from OS
             0 MiB allocation reported by mallinfo(arena+hblkhd)
        298114 MiB available memory on the node where the printing process lives
------------------
     c_bands:  1 eigenvalues not converged
     c_bands:  1 eigenvalues not converged
     ethr =  1.00E-05,  avg # of iterations = 13.8

     Threshold (ethr) on eigenvalues was too large:
     Diagonalizing with lowered threshold

     Davidson diagonalization with overlap

---- Real-time Memory Report at c_bands before calling an iterative solver
            93 MiB given to the printing process from OS
             0 MiB allocation reported by mallinfo(arena+hblkhd)
        298103 MiB available memory on the node where the printing process lives
------------------
     ethr =  3.79E-07,  avg # of iterations =  2.8

     total cpu time spent up to now is       29.6 secs

     total energy              =   -1716.65442855 Ry
     estimated scf accuracy    <       0.00027403 Ry

     total magnetization       =     2.52 Bohr mag/cell
     absolute magnetization    =     2.90 Bohr mag/cell

     iteration #  2     ecut=   150.00 Ry     beta= 0.70
     Davidson diagonalization with overlap

---- Real-time Memory Report at c_bands before calling an iterative solver
            97 MiB given to the printing process from OS
             0 MiB allocation reported by mallinfo(arena+hblkhd)
        297991 MiB available memory on the node where the printing process lives
------------------
     ethr =  3.81E-07,  avg # of iterations =  1.5

     total cpu time spent up to now is       35.5 secs

     total energy              =   -1716.65443591 Ry
     estimated scf accuracy    <       0.00012879 Ry

     total magnetization       =     2.50 Bohr mag/cell
     absolute magnetization    =     2.87 Bohr mag/cell

     iteration #  3     ecut=   150.00 Ry     beta= 0.70
     Davidson diagonalization with overlap

---- Real-time Memory Report at c_bands before calling an iterative solver
            98 MiB given to the printing process from OS
             0 MiB allocation reported by mallinfo(arena+hblkhd)
        297887 MiB available memory on the node where the printing process lives
------------------
     ethr =  1.79E-07,  avg # of iterations =  2.9

     total cpu time spent up to now is       43.1 secs

     total energy              =   -1716.65428444 Ry
     estimated scf accuracy    <       0.00246584 Ry

     total magnetization       =     2.49 Bohr mag/cell
     absolute magnetization    =     2.85 Bohr mag/cell

     iteration #  4     ecut=   150.00 Ry     beta= 0.70
     Davidson diagonalization with overlap

---- Real-time Memory Report at c_bands before calling an iterative solver
            99 MiB given to the printing process from OS
             0 MiB allocation reported by mallinfo(arena+hblkhd)
        297745 MiB available memory on the node where the printing process lives
------------------
     ethr =  1.79E-07,  avg # of iterations =  3.2

     total cpu time spent up to now is       50.2 secs

     total energy              =   -1716.65442878 Ry
     estimated scf accuracy    <       0.00092896 Ry

     total magnetization       =     2.48 Bohr mag/cell
     absolute magnetization    =     2.84 Bohr mag/cell

     iteration #  5     ecut=   150.00 Ry     beta= 0.70
     Davidson diagonalization with overlap

---- Real-time Memory Report at c_bands before calling an iterative solver
            99 MiB given to the printing process from OS
             0 MiB allocation reported by mallinfo(arena+hblkhd)
        297575 MiB available memory on the node where the printing process lives
------------------
     ethr =  1.79E-07,  avg # of iterations =  2.2

     total cpu time spent up to now is       56.9 secs

     total energy              =   -1716.65449527 Ry
     estimated scf accuracy    <       0.00000082 Ry

     total magnetization       =     2.48 Bohr mag/cell
     absolute magnetization    =     2.83 Bohr mag/cell

     iteration #  6     ecut=   150.00 Ry     beta= 0.70
     Davidson diagonalization with overlap

---- Real-time Memory Report at c_bands before calling an iterative solver
           100 MiB given to the printing process from OS
             0 MiB allocation reported by mallinfo(arena+hblkhd)
        297458 MiB available memory on the node where the printing process lives
------------------
     ethr =  1.13E-09,  avg # of iterations =  4.0

     total cpu time spent up to now is       65.9 secs

     total energy              =   -1716.65449612 Ry
     estimated scf accuracy    <       0.00000146 Ry

     total magnetization       =     2.48 Bohr mag/cell
     absolute magnetization    =     2.83 Bohr mag/cell

     iteration #  7     ecut=   150.00 Ry     beta= 0.70
     Davidson diagonalization with overlap

---- Real-time Memory Report at c_bands before calling an iterative solver
           100 MiB given to the printing process from OS
             0 MiB allocation reported by mallinfo(arena+hblkhd)
        297490 MiB available memory on the node where the printing process lives
------------------
     ethr =  1.13E-09,  avg # of iterations =  1.6

     total cpu time spent up to now is       71.9 secs

     total energy              =   -1716.65449618 Ry
     estimated scf accuracy    <       0.00000027 Ry

     total magnetization       =     2.48 Bohr mag/cell
     absolute magnetization    =     2.83 Bohr mag/cell

     iteration #  8     ecut=   150.00 Ry     beta= 0.70
     Davidson diagonalization with overlap

---- Real-time Memory Report at c_bands before calling an iterative solver
           100 MiB given to the printing process from OS
             0 MiB allocation reported by mallinfo(arena+hblkhd)
        297458 MiB available memory on the node where the printing process lives
------------------
     ethr =  3.69E-10,  avg # of iterations =  1.5
 
     Magnetic moment per site  (integrated on atomic sphere of radius R)
     atom   1 (R=0.292)  charge= 16.6730  magn=  0.6571
     atom   2 (R=0.292)  charge= 16.6731  magn=  0.6570
     atom   3 (R=0.292)  charge= 16.6731  magn=  0.6570
     atom   4 (R=0.292)  charge= 16.6731  magn=  0.6570

     total cpu time spent up to now is       77.7 secs

     End of self-consistent calculation

 ------ SPIN UP ------------


          k = 0.0000 0.0000 0.0000 (  8733 PWs)   bands (ev):

   -84.9319 -84.8793 -84.8793 -84.8793 -45.4062 -45.4062 -45.4062 -45.2636
   -45.2636 -45.2636 -45.2635 -45.2635 -45.2635 -45.1704 -45.1704 -45.1704
     9.4396  13.9046  13.9046  13.9046  14.3940  14.3940  14.3940  16.2766
    16.2766  16.2766  17.5304  17.5304  18.2877  18.2877  18.2877  18.3719
    18.3719  18.3719  18.3719  18.3719  18.3719  21.2031  21.2031  21.2031
    28.3122  28.3122  28.3122

     occupation numbers 
     1.0000   1.0000   1.0000   1.0000   1.0000   1.0000   1.0000   1.0000
     1.0000   1.0000   1.0000   1.0000   1.0000   1.0000   1.0000   1.0000
     1.0000   1.0000   1.0000   1.0000   1.0000   1.0000   1.0000   1.0000
     1.0000   1.0000   1.0000   1.0000   1.0152   1.0152   1.0152   1.0277
     1.0277   1.0277   1.0277   1.0277   1.0277  -0.0000  -0.0000  -0.0000
    -0.0000  -0.0000  -0.0000

          k = 0.0000 0.0000 0.1250 (  8797 PWs)   bands (ev):

   -84.9299 -84.8813 -84.8793 -84.8793 -45.4008 -45.4008 -45.3975 -45.2690
   -45.2690 -45.2638 -45.2638 -45.2600 -45.2600 -45.1797 -45.1740 -45.1740
     9.6493  13.9171  14.0148  14.0148  14.4599  14.4670  14.4670  16.1985
    16.3370  16.3370  17.4584  17.5584  17.9108  17.9108  18.1938  18.1938
    18.2579  18.2640  18.2640  18.3721  18.3721  20.2264  21.8378  21.8378
    28.3588  28.3588  29.6495

     occupation numbers 
     1.0000   1.0000   1.0000   1.0000   1.0000   1.0000   1.0000   1.0000
     1.0000   1.0000   1.0000   1.0000   1.0000   1.0000   1.0000   1.0000
     1.0000   1.0000   1.0000   1.0000   1.0000   1.0000   1.0000   1.0000
     1.0000   1.0000   1.0000   1.0000   1.0001   1.0001   1.0059   1.0059
     1.0116   1.0123   1.0123   1.0277   1.0277  -0.0000  -0.0000  -0.0000
    -0.0000  -0.0000  -0.0000

          k = 0.0000 0.0000 0.2500 (  8778 PWs)   bands (ev):

   -84.9242 -84.8870 -84.8793 -84.8793 -45.3854 -45.3854 -45.3728 -45.2845
   -45.2845 -45.2644 -45.2644 -45.2499 -45.2499 -45.2061 -45.1841 -45.1841
    10.2641  13.8611  14.3095  14.3095  14.6497  14.6876  14.6876  15.9791
    16.5149  16.5149  17.0717  17.0717  17.2624  17.6382  17.9365  17.9365
    17.9742  17.9742  18.1736  18.3725  18.3725  18.4970  23.1942  23.1942
    28.5090  28.5090  30.7840

     occupation numbers 
     1.0000   1.0000   1.0000   1.0000   1.0000   1.0000   1.0000   1.0000
     1.0000   1.0000   1.0000   1.0000   1.0000   1.0000   1.0000   1.0000
     1.0000   1.0000   1.0000   1.0000   1.0000   1.0000   1.0000   1.0000
     1.0000   1.0000   1.0000   1.0000   1.0000   1.0000   1.0001   1.0001
     1.0002   1.0002   1.0046   1.0278   1.0278   1.0317  -0.0000  -0.0000
    -0.0000  -0.0000  -0.0000

          k = 0.0000 0.0000 0.3750 (  8762 PWs)   bands (ev):

   -84.9156 -84.8955 -84.8793 -84.8792 -45.3623 -45.3623 -45.3353 -45.3077
   -45.3077 -45.2650 -45.2650 -45.2452 -45.2348 -45.2348 -45.1992 -45.1992
    11.2298  13.4185  14.6642  14.6642  14.9403  15.0596  15.0596  15.6591
    16.2646  16.2646  16.7997  16.7997  17.0131  17.2456  17.5814  17.5814
    17.6162  17.6162  17.7588  18.0485  18.3729  18.3729  24.8538  24.8538
    28.6986  28.7734  28.7734

     occupation numbers 
     1.0000   1.0000   1.0000   1.0000   1.0000   1.0000   1.0000   1.0000
     1.0000   1.0000   1.0000   1.0000   1.0000   1.0000   1.0000   1.0000
     1.0000   1.0000   1.0000   1.0000   1.0000   1.0000   1.0000   1.0000
     1.0000   1.0000   1.0000   1.0000   1.0000   1.0000   1.0000   1.0000
     1.0000   1.0000   1.0000   1.0008   1.0278   1.0278  -0.0000  -0.0000
    -0.0000  -0.0000  -0.0000

          k = 0.0000 0.0000-0.5000 (  8778 PWs)   bands (ev):

   -84.9056 -84.9056 -84.8793 -84.8792 -45.3350 -45.3350 -45.3350 -45.3350
   -45.2906 -45.2905 -45.2653 -45.2653 -45.2170 -45.2170 -45.2170 -45.2170
    12.4025  12.4025  14.8396  14.8397  15.2936  15.2936  15.5863  15.5863
    15.5863  15.5863  16.8798  16.8798  17.1687  17.1687  17.1687  17.1687
    17.4541  17.4542  17.9027  17.9028  18.3731  18.3731  26.7043  26.7043
    26.7043  26.7043  28.9867

     occupation numbers 
     1.0000   1.0000   1.0000   1.0000   1.0000   1.0000   1.0000   1.0000
     1.0000   1.0000   1.0000   1.0000   1.0000   1.0000   1.0000   1.0000
     1.0000   1.0000   1.0000   1.0000   1.0000   1.0000   1.0000   1.0000
     1.0000   1.0000   1.0000   1.0000   1.0000   1.0000   1.0000   1.0000
     1.0000   1.0000   1.0001   1.0001   1.0279   1.0279  -0.0000  -0.0000
    -0.0000  -0.0000  -0.0000

          k = 0.0000 0.1250 0.1250 (  8770 PWs)   bands (ev):

   -84.9280 -84.8813 -84.8812 -84.8794 -45.3955 -45.3933 -45.3933 -45.2793
   -45.2654 -45.2654 -45.2598 -45.2598 -45.2584 -45.1935 -45.1776 -45.1724
     9.8564  14.0320  14.0320  14.1185  14.5300  14.5300  14.5357  16.1568
    16.3649  16.3844  17.4404  17.5458  17.6308  17.7336  17.7336  18.1091
    18.1932  18.1933  18.2636  18.2636  18.3027  20.8615  20.8615  22.3616
    28.3882  29.7365  30.8414

     occupation numbers 
     1.0000   1.0000   1.0000   1.0000   1.0000   1.0000   1.0000   1.0000
     1.0000   1.0000   1.0000   1.0000   1.0000   1.0000   1.0000   1.0000
     1.0000   1.0000   1.0000   1.0000   1.0000   1.0000   1.0000   1.0000
     1.0000   1.0000   1.0000   1.0000   1.0000   1.0000   1.0000   1.0020
     1.0058   1.0058   1.0122   1.0122   1.0173  -0.0000  -0.0000  -0.0000
    -0.0000  -0.0000  -0.0000

          k = 0.0000 0.1250 0.2500 (  8782 PWs)   bands (ev):

   -84.9225 -84.8867 -84.8810 -84.8796 -45.3811 -45.3802 -45.3717 -45.2967
   -45.2807 -45.2591 -45.2553 -45.2551 -45.2484 -45.2212 -45.1879 -45.1791
    10.4627  13.9895  14.3412  14.3975  14.7111  14.7399  14.7413  15.9668
    16.5164  16.5244  16.8984  16.9538  17.2830  17.2854  17.6318  17.8748
    17.9448  17.9728  18.1088  18.2624  18.2659  19.2674  22.0809  23.5957
    28.1901  29.1093  29.9990

     occupation numbers 
     1.0000   1.0000   1.0000   1.0000   1.0000   1.0000   1.0000   1.0000
     1.0000   1.0000   1.0000   1.0000   1.0000   1.0000   1.0000   1.0000
     1.0000   1.0000   1.0000   1.0000   1.0000   1.0000   1.0000   1.0000
     1.0000   1.0000   1.0000   1.0000   1.0000   1.0000   1.0000   1.0000
     1.0001   1.0002   1.0020   1.0121   1.0125  -0.0283  -0.0000  -0.0000
    -0.0000  -0.0000  -0.0000

          k = 0.0000 0.1250 0.3750 (  8783 PWs)   bands (ev):

   -84.9143 -84.8949 -84.8806 -84.8799 -45.3627 -45.3574 -45.3389 -45.3178
   -45.3035 -45.2581 -45.2578 -45.2550 -45.2397 -45.2315 -45.2033 -45.1934
    11.4137  13.5633  14.7222  14.7515  14.9878  15.0581  15.0965  15.6684
    16.1286  16.2283  16.6484  16.7612  16.8030  17.1557  17.5800  17.5824
    17.6274  17.7867  17.8243  18.2586  18.2606  18.3046  23.4808  25.1854
    26.6358  28.9699  29.1365

     occupation numbers 
     1.0000   1.0000   1.0000   1.0000   1.0000   1.0000   1.0000   1.0000
     1.0000   1.0000   1.0000   1.0000   1.0000   1.0000   1.0000   1.0000
     1.0000   1.0000   1.0000   1.0000   1.0000   1.0000   1.0000   1.0000
     1.0000   1.0000   1.0000   1.0000   1.0000   1.0000   1.0000   1.0000
     1.0000   1.0000   1.0000   1.0117   1.0119   1.0175  -0.0000  -0.0000
    -0.0000  -0.0000  -0.0000

          k = 0.0000 0.1250-0.5000 (  8810 PWs)   bands (ev):

   -84.9046 -84.9046 -84.8803 -84.8802 -45.3407 -45.3407 -45.3305 -45.3305
   -45.2993 -45.2992 -45.2563 -45.2562 -45.2215 -45.2215 -45.2121 -45.2121
    12.5661  12.5661  14.9298  14.9298  15.3232  15.3232  15.5029  15.5030
    15.5956  15.5956  16.6104  16.6104  17.1688  17.1688  17.3747  17.3747
    17.4487  17.4488  17.9854  17.9854  18.2587  18.2587  24.9949  24.9950
    26.9964  26.9965  29.6866

     occupation numbers 
     1.0000   1.0000   1.0000   1.0000   1.0000   1.0000   1.0000   1.0000
     1.0000   1.0000   1.0000   1.0000   1.0000   1.0000   1.0000   1.0000
     1.0000   1.0000   1.0000   1.0000   1.0000   1.0000   1.0000   1.0000
     1.0000   1.0000   1.0000   1.0000   1.0000   1.0000   1.0000   1.0000
     1.0000   1.0000   1.0003   1.0003   1.0117   1.0117  -0.0000  -0.0000
    -0.0000  -0.0000  -0.0000

          k = 0.0000 0.2500 0.2500 (  8790 PWs)   bands (ev):

   -84.9176 -84.8859 -84.8858 -84.8804 -45.3682 -45.3681 -45.3656 -45.3159
   -45.2698 -45.2698 -45.2504 -45.2446 -45.2445 -45.2445 -45.1988 -45.1787
    11.0425  14.3400  14.3400  14.6273  14.8952  14.8952  14.8993  15.8779
    16.5090  16.5091  16.5292  16.6017  16.6132  17.2358  17.6972  17.7347
    17.8830  17.8830  17.9697  17.9697  18.1003  20.3321  20.3321  24.6412
    26.2474  29.0415  31.8081

     occupation numbers 
     1.0000   1.0000   1.0000   1.0000   1.0000   1.0000   1.0000   1.0000
     1.0000   1.0000   1.0000   1.0000   1.0000   1.0000   1.0000   1.0000
     1.0000   1.0000   1.0000   1.0000   1.0000   1.0000   1.0000   1.0000
     1.0000   1.0000   1.0000   1.0000   1.0000   1.0000   1.0000   1.0000
     1.0000   1.0000   1.0002   1.0002   1.0018  -0.0000  -0.0000  -0.0000
    -0.0000  -0.0000  -0.0000

          k = 0.0000 0.2500 0.3750 (  8791 PWs)   bands (ev):

   -84.9103 -84.8931 -84.8846 -84.8816 -45.3611 -45.3466 -45.3436 -45.3344
   -45.2918 -45.2842 -45.2535 -45.2402 -45.2386 -45.2247 -45.2151 -45.1877
    11.9451  13.9606  14.7946  14.9399  15.1061  15.1276  15.2000  15.6736
    15.8576  16.1092  16.2371  16.4945  16.8411  17.1700  17.4684  17.5799
    17.5834  17.6605  17.9682  17.9976  18.0094  19.0638  21.4956  24.3674
    26.0933  29.4732  29.7382

     occupation numbers 
     1.0000   1.0000   1.0000   1.0000   1.0000   1.0000   1.0000   1.0000
     1.0000   1.0000   1.0000   1.0000   1.0000   1.0000   1.0000   1.0000
     1.0000   1.0000   1.0000   1.0000   1.0000   1.0000   1.0000   1.0000
     1.0000   1.0000   1.0000   1.0000   1.0000   1.0000   1.0000   1.0000
     1.0000   1.0000   1.0002   1.0004   1.0004   0.0082  -0.0000  -0.0000
    -0.0000  -0.0000  -0.0000

          k = 0.0000 0.2500-0.5000 (  8810 PWs)   bands (ev):

   -84.9017 -84.9017 -84.8831 -84.8831 -45.3499 -45.3499 -45.3178 -45.3177
   -45.3176 -45.3176 -45.2376 -45.2375 -45.2343 -45.2343 -45.2042 -45.2042
    13.0275  13.0275  15.1205  15.1205  15.3391  15.3391  15.4033  15.4033
    15.6153  15.6153  16.3199  16.3199  17.1808  17.1809  17.3429  17.3429
    17.3870  17.3871  17.9759  17.9760  18.3869  18.3869  22.8078  22.8078
    27.8155  27.8155  30.2018

     occupation numbers 
     1.0000   1.0000   1.0000   1.0000   1.0000   1.0000   1.0000   1.0000
     1.0000   1.0000   1.0000   1.0000   1.0000   1.0000   1.0000   1.0000
     1.0000   1.0000   1.0000   1.0000   1.0000   1.0000   1.0000   1.0000
     1.0000   1.0000   1.0000   1.0000   1.0000   1.0000   1.0000   1.0000
     1.0000   1.0000   1.0002   1.0002   1.0298   1.0298  -0.0000  -0.0000
    -0.0000  -0.0000  -0.0000

          k = 0.0000 0.3750 0.3750 (  8798 PWs)   bands (ev):

   -84.9044 -84.8905 -84.8904 -84.8842 -45.3528 -45.3528 -45.3474 -45.3230
   -45.3121 -45.2743 -45.2742 -45.2327 -45.2257 -45.2194 -45.2193 -45.1901
    12.7532  14.4790  14.4790  14.9807  15.3484  15.3484  15.3563  15.6253
    15.8466  15.8466  15.8970  16.3669  16.9763  17.0643  17.2910  17.3947
    17.3948  17.5947  17.5947  17.7832  18.4122  19.9629  19.9629  22.4941
    27.4187  30.0576  30.9044

     occupation numbers 
     1.0000   1.0000   1.0000   1.0000   1.0000   1.0000   1.0000   1.0000
     1.0000   1.0000   1.0000   1.0000   1.0000   1.0000   1.0000   1.0000
     1.0000   1.0000   1.0000   1.0000   1.0000   1.0000   1.0000   1.0000
     1.0000   1.0000   1.0000   1.0000   1.0000   1.0000   1.0000   1.0000
     1.0000   1.0000   1.0000   1.0000   1.0330  -0.0000  -0.0000  -0.0000
    -0.0000  -0.0000  -0.0000

          k = 0.0000 0.3750-0.5000 (  8770 PWs)   bands (ev):

   -84.8974 -84.8974 -84.8874 -84.8873 -45.3537 -45.3537 -45.3361 -45.3360
   -45.2986 -45.2986 -45.2535 -45.2535 -45.2192 -45.2192 -45.2013 -45.2013
    13.6855  13.6856  14.8673  14.8673  15.5057  15.5057  15.5950  15.5950
    15.6223  15.6223  16.1248  16.1248  17.1430  17.1431  17.2182  17.2182
    17.2391  17.2391  17.6503  17.6503  19.0064  19.0064  21.0584  21.0584
    29.0447  29.0447  30.9477

     occupation numbers 
     1.0000   1.0000   1.0000   1.0000   1.0000   1.0000   1.0000   1.0000
     1.0000   1.0000   1.0000   1.0000   1.0000   1.0000   1.0000   1.0000
     1.0000   1.0000   1.0000   1.0000   1.0000   1.0000   1.0000   1.0000
     1.0000   1.0000   1.0000   1.0000   1.0000   1.0000   1.0000   1.0000
     1.0000   1.0000   1.0000   1.0000   0.0730   0.0730  -0.0000  -0.0000
    -0.0000  -0.0000  -0.0000

          k = 0.0000-0.5000-0.5000 (  8836 PWs)   bands (ev):

   -84.8924 -84.8924 -84.8924 -84.8923 -45.3490 -45.3490 -45.3490 -45.3490
   -45.2761 -45.2761 -45.2761 -45.2760 -45.2064 -45.2063 -45.2063 -45.2063
    14.3558  14.3558  14.3558  14.3558  15.5883  15.5883  15.5883  15.5883
    15.9215  15.9215  15.9215  15.9215  17.0629  17.0629  17.0629  17.0629
    17.3893  17.3893  17.3893  17.3893  19.8373  19.8373  19.8373  19.8373
    30.5847  30.5847  30.5847

     occupation numbers 
     1.0000   1.0000   1.0000   1.0000   1.0000   1.0000   1.0000   1.0000
     1.0000   1.0000   1.0000   1.0000   1.0000   1.0000   1.0000   1.0000
     1.0000   1.0000   1.0000   1.0000   1.0000   1.0000   1.0000   1.0000
     1.0000   1.0000   1.0000   1.0000   1.0000   1.0000   1.0000   1.0000
     1.0000   1.0000   1.0000   1.0000  -0.0000  -0.0000  -0.0000  -0.0000
    -0.0000  -0.0000  -0.0000

          k = 0.1250 0.1250 0.1250 (  8754 PWs)   bands (ev):

   -84.9261 -84.8812 -84.8812 -84.8812 -45.3894 -45.3894 -45.3894 -45.2742
   -45.2742 -45.2741 -45.2552 -45.2551 -45.2551 -45.2072 -45.1757 -45.1757
    10.0602  14.1379  14.1379  14.1379  14.5967  14.5968  14.5968  16.1225
    16.4042  16.4042  17.4693  17.4693  17.4694  17.4846  17.4846  17.9676
    17.9676  17.9676  18.3238  18.3238  18.3238  21.3386  21.3386  21.3386
    29.7872  29.7872  29.7872

     occupation numbers 
     1.0000   1.0000   1.0000   1.0000   1.0000   1.0000   1.0000   1.0000
     1.0000   1.0000   1.0000   1.0000   1.0000   1.0000   1.0000   1.0000
     1.0000   1.0000   1.0000   1.0000   1.0000   1.0000   1.0000   1.0000
     1.0000   1.0000   1.0000   1.0000   1.0000   1.0000   1.0000   1.0002
     1.0002   1.0002   1.0203   1.0203   1.0203  -0.0000  -0.0000  -0.0000
    -0.0000  -0.0000  -0.0000

          k = 0.1250 0.1250 0.2500 (  8781 PWs)   bands (ev):

   -84.9208 -84.8865 -84.8812 -84.8812 -45.3785 -45.3785 -45.3716 -45.2892
   -45.2891 -45.2597 -45.2518 -45.2517 -45.2458 -45.2358 -45.1850 -45.1807
    10.6564  14.1011  14.4222  14.4222  14.7736  14.7952  14.7952  15.9605
    16.5144  16.5243  16.8047  16.8047  17.0304  17.3386  17.6076  17.6777
    17.7778  17.7779  18.2656  18.2656  18.2831  19.6646  22.4033  22.4033
    28.8367  28.8367  30.2949

     occupation numbers 
     1.0000   1.0000   1.0000   1.0000   1.0000   1.0000   1.0000   1.0000
     1.0000   1.0000   1.0000   1.0000   1.0000   1.0000   1.0000   1.0000
     1.0000   1.0000   1.0000   1.0000   1.0000   1.0000   1.0000   1.0000
     1.0000   1.0000   1.0000   1.0000   1.0000   1.0000   1.0000   1.0000
     1.0000   1.0000   1.0125   1.0125   1.0146  -0.0003  -0.0000  -0.0000
    -0.0000  -0.0000  -0.0000

          k = 0.1250 0.1250 0.3750 (  8789 PWs)   bands (ev):

   -84.9129 -84.8943 -84.8812 -84.8812 -45.3635 -45.3635 -45.3439 -45.3061
   -45.3061 -45.2715 -45.2504 -45.2503 -45.2389 -45.2319 -45.1990 -45.1951
    11.5889  13.6862  14.7919  14.7919  15.0428  15.0857  15.0857  15.6874
    16.1352  16.1352  16.5843  16.6001  16.7273  17.3029  17.3371  17.5352
    17.5353  17.7841  18.1588  18.2154  18.2155  18.4136  23.6844  23.6844
    27.0451  27.0451  30.8144

     occupation numbers 
     1.0000   1.0000   1.0000   1.0000   1.0000   1.0000   1.0000   1.0000
     1.0000   1.0000   1.0000   1.0000   1.0000   1.0000   1.0000   1.0000
     1.0000   1.0000   1.0000   1.0000   1.0000   1.0000   1.0000   1.0000
     1.0000   1.0000   1.0000   1.0000   1.0000   1.0000   1.0000   1.0000
     1.0000   1.0000   1.0038   1.0075   1.0075   1.0331  -0.0000  -0.0000
    -0.0000  -0.0000  -0.0000

          k = 0.1250 0.1250-0.5000 (  8798 PWs)   bands (ev):

   -84.9037 -84.9036 -84.8812 -84.8811 -45.3541 -45.3540 -45.3162 -45.3162
   -45.3092 -45.3091 -45.2500 -45.2500 -45.2159 -45.2158 -45.2155 -45.2154
    12.7143  12.7144  15.0240  15.0240  15.2983  15.2983  15.3635  15.3635
    15.7387  15.7387  16.5097  16.5097  17.0060  17.0060  17.3978  17.3978
    17.6651  17.6651  17.9802  17.9802  18.2008  18.2008  24.6895  24.6895
    25.8719  25.8719  31.4059

     occupation numbers 
     1.0000   1.0000   1.0000   1.0000   1.0000   1.0000   1.0000   1.0000
     1.0000   1.0000   1.0000   1.0000   1.0000   1.0000   1.0000   1.0000
     1.0000   1.0000   1.0000   1.0000   1.0000   1.0000   1.0000   1.0000
     1.0000   1.0000   1.0000   1.0000   1.0000   1.0000   1.0000   1.0000
     1.0000   1.0000   1.0003   1.0003   1.0063   1.0063  -0.0000  -0.0000
    -0.0000  -0.0000  -0.0000

          k = 0.1250 0.2500 0.2500 (  8759 PWs)   bands (ev):

   -84.9162 -84.8859 -84.8858 -84.8818 -45.3721 -45.3710 -45.3710 -45.3008
   -45.2703 -45.2702 -45.2654 -45.2421 -45.2414 -45.2414 -45.1929 -45.1812
    11.2200  14.3937  14.3937  14.6217  14.9640  14.9640  14.9643  15.8964
    16.4622  16.4623  16.5113  16.5251  16.5677  17.3505  17.5204  17.5217
    17.5217  17.6882  18.1977  18.2210  18.2211  20.5445  20.5445  23.1850
    26.7094  29.6437  29.6437

     occupation numbers 
     1.0000   1.0000   1.0000   1.0000   1.0000   1.0000   1.0000   1.0000
     1.0000   1.0000   1.0000   1.0000   1.0000   1.0000   1.0000   1.0000
     1.0000   1.0000   1.0000   1.0000   1.0000   1.0000   1.0000   1.0000
     1.0000   1.0000   1.0000   1.0000   1.0000   1.0000   1.0000   1.0000
     1.0000   1.0000   1.0061   1.0079   1.0079  -0.0000  -0.0000  -0.0000
    -0.0000  -0.0000  -0.0000

          k = 0.1250 0.2500 0.3750 (  8785 PWs)   bands (ev):

   -84.9092 -84.8928 -84.8849 -84.8827 -45.3691 -45.3668 -45.3549 -45.3051
   -45.2988 -45.2844 -45.2473 -45.2372 -45.2362 -45.2253 -45.2074 -45.1898
    12.0913  14.0055  14.7491  14.8610  15.1838  15.2168  15.2399  15.7280
    15.9635  16.1260  16.2291  16.4892  16.6943  17.2000  17.3165  17.3599
    17.3827  17.9472  18.0542  18.0987  18.1037  19.1105  21.6092  23.7464
    25.4408  27.7868  31.2829

     occupation numbers 
     1.0000   1.0000   1.0000   1.0000   1.0000   1.0000   1.0000   1.0000
     1.0000   1.0000   1.0000   1.0000   1.0000   1.0000   1.0000   1.0000
     1.0000   1.0000   1.0000   1.0000   1.0000   1.0000   1.0000   1.0000
     1.0000   1.0000   1.0000   1.0000   1.0000   1.0000   1.0000   1.0000
     1.0000   1.0001   1.0009   1.0017   1.0018  -0.0208  -0.0000  -0.0000
    -0.0000  -0.0000  -0.0000

          k = 0.1250 0.2500-0.5000 (  8812 PWs)   bands (ev):

   -84.9010 -84.9010 -84.8838 -84.8838 -45.3666 -45.3666 -45.3301 -45.3300
   -45.2982 -45.2981 -45.2349 -45.2349 -45.2258 -45.2258 -45.2062 -45.2062
    13.1230  13.1230  14.9922  14.9922  15.2946  15.2946  15.4866  15.4866
    15.8599  15.8599  16.3157  16.3157  16.9063  16.9063  17.2363  17.2364
    17.7015  17.7015  18.0558  18.0558  18.3290  18.3290  22.7975  22.7976
    26.2486  26.2486  32.1675

     occupation numbers 
     1.0000   1.0000   1.0000   1.0000   1.0000   1.0000   1.0000   1.0000
     1.0000   1.0000   1.0000   1.0000   1.0000   1.0000   1.0000   1.0000
     1.0000   1.0000   1.0000   1.0000   1.0000   1.0000   1.0000   1.0000
     1.0000   1.0000   1.0000   1.0000   1.0000   1.0000   1.0000   1.0000
     1.0000   1.0000   1.0009   1.0009   1.0211   1.0211  -0.0000  -0.0000
    -0.0000  -0.0000  -0.0000

          k = 0.1250 0.3750 0.3750 (  8788 PWs)   bands (ev):

   -84.9036 -84.8905 -84.8904 -84.8850 -45.3707 -45.3654 -45.3653 -45.3273
   -45.2950 -45.2621 -45.2620 -45.2243 -45.2224 -45.2191 -45.2191 -45.1914
    12.8409  14.3752  14.3752  14.7912  15.4518  15.5077  15.5077  15.7427
    15.9414  15.9414  16.0609  16.3812  16.7094  17.0871  17.0871  17.0975
    17.3760  17.8954  17.8954  17.9444  18.3477  19.9706  19.9706  22.3945
    25.9907  28.8639  28.8639

     occupation numbers 
     1.0000   1.0000   1.0000   1.0000   1.0000   1.0000   1.0000   1.0000
     1.0000   1.0000   1.0000   1.0000   1.0000   1.0000   1.0000   1.0000
     1.0000   1.0000   1.0000   1.0000   1.0000   1.0000   1.0000   1.0000
     1.0000   1.0000   1.0000   1.0000   1.0000   1.0000   1.0000   1.0000
     1.0000   1.0001   1.0001   1.0001   1.0240  -0.0000  -0.0000  -0.0000
    -0.0000  -0.0000  -0.0000

          k = 0.1250 0.3750-0.5000 (  8774 PWs)   bands (ev):

   -84.8970 -84.8970 -84.8877 -84.8877 -45.3710 -45.3710 -45.3509 -45.3508
   -45.2792 -45.2792 -45.2411 -45.2411 -45.2183 -45.2183 -45.2021 -45.2021
    13.6775  13.6775  14.6433  14.6434  15.6502  15.6502  15.6831  15.6831
    15.9178  15.9178  16.1591  16.1591  16.8348  16.8348  17.0052  17.0053
    17.5846  17.5846  17.8450  17.8451  18.9446  18.9446  21.0312  21.0312
    27.2672  27.2672  30.2413

     occupation numbers 
     1.0000   1.0000   1.0000   1.0000   1.0000   1.0000   1.0000   1.0000
     1.0000   1.0000   1.0000   1.0000   1.0000   1.0000   1.0000   1.0000
     1.0000   1.0000   1.0000   1.0000   1.0000   1.0000   1.0000   1.0000
     1.0000   1.0000   1.0000   1.0000   1.0000   1.0000   1.0000   1.0000
     1.0000   1.0000   1.0000   1.0000   0.1835   0.1835  -0.0000  -0.0000
    -0.0000  -0.0000  -0.0000

          k = 0.1250-0.5000-0.5000 (  8820 PWs)   bands (ev):

   -84.8924 -84.8924 -84.8924 -84.8923 -45.3655 -45.3655 -45.3655 -45.3655
   -45.2597 -45.2597 -45.2597 -45.2596 -45.2063 -45.2063 -45.2063 -45.2063
    14.2133  14.2133  14.2133  14.2133  15.8584  15.8584  15.8584  15.8584
    15.9824  15.9824  15.9825  15.9825  16.8315  16.8315  16.8315  16.8315
    17.6313  17.6313  17.6313  17.6313  19.7782  19.7782  19.7782  19.7782
    28.6091  28.6091  28.6091

     occupation numbers 
     1.0000   1.0000   1.0000   1.0000   1.0000   1.0000   1.0000   1.0000
     1.0000   1.0000   1.0000   1.0000   1.0000   1.0000   1.0000   1.0000
     1.0000   1.0000   1.0000   1.0000   1.0000   1.0000   1.0000   1.0000
     1.0000   1.0000   1.0000   1.0000   1.0000   1.0000   1.0000   1.0000
     1.0000   1.0000   1.0000   1.0000  -0.0000  -0.0000  -0.0000  -0.0000
    -0.0000  -0.0000  -0.0000

          k = 0.2500 0.2500 0.2500 (  8790 PWs)   bands (ev):

   -84.9121 -84.8858 -84.8858 -84.8858 -45.3775 -45.3775 -45.3775 -45.2957
   -45.2708 -45.2708 -45.2707 -45.2349 -45.2349 -45.2349 -45.1884 -45.1884
    11.7306  14.5024  14.5024  14.5024  15.1798  15.1798  15.1798  15.9250
    16.3151  16.3151  16.3151  16.5178  16.5178  17.2109  17.2109  17.2109
    17.5994  17.5994  18.2833  18.2834  18.2834  21.1075  21.1075  21.1075
    27.4740  27.4740  27.4740

     occupation numbers 
     1.0000   1.0000   1.0000   1.0000   1.0000   1.0000   1.0000   1.0000
     1.0000   1.0000   1.0000   1.0000   1.0000   1.0000   1.0000   1.0000
     1.0000   1.0000   1.0000   1.0000   1.0000   1.0000   1.0000   1.0000
     1.0000   1.0000   1.0000   1.0000   1.0000   1.0000   1.0000   1.0000
     1.0000   1.0000   1.0146   1.0146   1.0146  -0.0000  -0.0000  -0.0000
    -0.0000  -0.0000  -0.0000

          k = 0.2500 0.2500 0.3750 (  8803 PWs)   bands (ev):

   -84.9061 -84.8918 -84.8858 -84.8858 -45.3836 -45.3835 -45.3721 -45.3278
   -45.2709 -45.2708 -45.2390 -45.2293 -45.2293 -45.2242 -45.1990 -45.1945
    12.4982  14.0975  14.5963  14.5964  15.4435  15.4435  15.4913  15.8951
    16.1726  16.1726  16.2010  16.4617  16.5478  16.9124  17.0335  17.0335
    17.6820  17.8731  18.1976  18.1977  18.2533  19.3946  21.8143  21.8143
    25.8176  25.8176  28.5552

     occupation numbers 
     1.0000   1.0000   1.0000   1.0000   1.0000   1.0000   1.0000   1.0000
     1.0000   1.0000   1.0000   1.0000   1.0000   1.0000   1.0000   1.0000
     1.0000   1.0000   1.0000   1.0000   1.0000   1.0000   1.0000   1.0000
     1.0000   1.0000   1.0000   1.0000   1.0000   1.0000   1.0000   1.0000
     1.0000   1.0000   1.0061   1.0061   1.0111  -0.0106  -0.0000  -0.0000
    -0.0000  -0.0000  -0.0000

          k = 0.2500 0.2500-0.5000 (  8778 PWs)   bands (ev):

   -84.8990 -84.8989 -84.8858 -84.8858 -45.3860 -45.3859 -45.3547 -45.3547
   -45.2708 -45.2708 -45.2271 -45.2271 -45.2122 -45.2121 -45.2116 -45.2116
    13.3664  13.3664  14.6364  14.6364  15.5353  15.5353  15.7581  15.7581
    16.1668  16.1668  16.2925  16.2925  16.6816  16.6816  16.9561  16.9561
    18.1066  18.1066  18.1357  18.1358  18.2441  18.2441  22.2226  22.2227
    25.0937  25.0938  29.9339

     occupation numbers 
     1.0000   1.0000   1.0000   1.0000   1.0000   1.0000   1.0000   1.0000
     1.0000   1.0000   1.0000   1.0000   1.0000   1.0000   1.0000   1.0000
     1.0000   1.0000   1.0000   1.0000   1.0000   1.0000   1.0000   1.0000
     1.0000   1.0000   1.0000   1.0000   1.0000   1.0000   1.0000   1.0000
     1.0019   1.0019   1.0028   1.0028   1.0101   1.0101  -0.0000  -0.0000
    -0.0000  -0.0000  -0.0000

          k = 0.2500 0.3750 0.3750 (  8790 PWs)   bands (ev):

   -84.9014 -84.8905 -84.8904 -84.8872 -45.3938 -45.3874 -45.3874 -45.3566
   -45.2588 -45.2414 -45.2413 -45.2204 -45.2180 -45.2180 -45.2072 -45.1952
    13.0687  14.1876  14.1876  14.4240  15.7074  15.8156  15.8156  16.1271
    16.2311  16.2311  16.3666  16.4027  16.4886  16.7630  16.7630  16.7955
    17.7228  18.1507  18.1706  18.1708  18.1708  19.9977  19.9977  21.6061
    24.9652  26.7628  26.7629

     occupation numbers 
     1.0000   1.0000   1.0000   1.0000   1.0000   1.0000   1.0000   1.0000
     1.0000   1.0000   1.0000   1.0000   1.0000   1.0000   1.0000   1.0000
     1.0000   1.0000   1.0000   1.0000   1.0000   1.0000   1.0000   1.0000
     1.0000   1.0000   1.0000   1.0000   1.0000   1.0000   1.0000   1.0000
     1.0000   1.0035   1.0044   1.0044   1.0044  -0.0000  -0.0000  -0.0000
    -0.0000  -0.0000  -0.0000

          k = 0.2500 0.3750-0.5000 (  8776 PWs)   bands (ev):

   -84.8959 -84.8959 -84.8888 -84.8888 -45.3954 -45.3954 -45.3778 -45.3778
   -45.2489 -45.2489 -45.2209 -45.2209 -45.2158 -45.2158 -45.2043 -45.2043
    13.6659  13.6659  14.2877  14.2877  15.8596  15.8596  16.1680  16.1680
    16.2664  16.2664  16.4141  16.4142  16.5664  16.5664  16.7042  16.7042
    17.9576  17.9576  18.0870  18.0870  18.7636  18.7636  20.8078  20.8078
    25.4751  25.4752  28.0554

     occupation numbers 
     1.0000   1.0000   1.0000   1.0000   1.0000   1.0000   1.0000   1.0000
     1.0000   1.0000   1.0000   1.0000   1.0000   1.0000   1.0000   1.0000
     1.0000   1.0000   1.0000   1.0000   1.0000   1.0000   1.0000   1.0000
     1.0000   1.0000   1.0000   1.0000   1.0000   1.0000   1.0000   1.0000
     1.0002   1.0002   1.0014   1.0014   0.6605   0.6605  -0.0000  -0.0000
    -0.0000  -0.0000  -0.0000

          k = 0.2500-0.5000-0.5000 (  8804 PWs)   bands (ev):

   -84.8924 -84.8924 -84.8924 -84.8923 -45.3925 -45.3925 -45.3925 -45.3925
   -45.2330 -45.2330 -45.2330 -45.2329 -45.2063 -45.2063 -45.2063 -45.2063
    13.9695  13.9695  13.9695  13.9695  16.1142  16.1142  16.1142  16.1142
    16.5098  16.5099  16.5099  16.5099  16.5496  16.5496  16.5496  16.5496
    17.9387  17.9387  17.9387  17.9388  19.5610  19.5610  19.5610  19.5610
    26.5558  26.5558  26.5558

     occupation numbers 
     1.0000   1.0000   1.0000   1.0000   1.0000   1.0000   1.0000   1.0000
     1.0000   1.0000   1.0000   1.0000   1.0000   1.0000   1.0000   1.0000
     1.0000   1.0000   1.0000   1.0000   1.0000   1.0000   1.0000   1.0000
     1.0000   1.0000   1.0000   1.0000   1.0000   1.0000   1.0000   1.0000
     1.0001   1.0001   1.0001   1.0001  -0.0014  -0.0014  -0.0014  -0.0014
    -0.0000  -0.0000  -0.0000

          k = 0.3750 0.3750 0.3750 (  8778 PWs)   bands (ev):

   -84.8981 -84.8904 -84.8904 -84.8904 -45.4044 -45.4044 -45.4044 -45.3835
   -45.2281 -45.2281 -45.2281 -45.2146 -45.2146 -45.2146 -45.2010 -45.2010
    13.3648  14.0420  14.0420  14.0420  16.0229  16.0229  16.0229  16.3810
    16.3810  16.5466  16.5466  16.5466  16.6936  16.6936  16.6937  16.7528
    18.0132  18.0132  18.2467  18.2467  18.2467  20.0457  20.0457  20.0457
    25.3078  25.3079  25.3079

     occupation numbers 
     1.0000   1.0000   1.0000   1.0000   1.0000   1.0000   1.0000   1.0000
     1.0000   1.0000   1.0000   1.0000   1.0000   1.0000   1.0000   1.0000
     1.0000   1.0000   1.0000   1.0000   1.0000   1.0000   1.0000   1.0000
     1.0000   1.0000   1.0000   1.0000   1.0000   1.0000   1.0000   1.0000
     1.0005   1.0005   1.0104   1.0104   1.0104  -0.0000  -0.0000  -0.0000
    -0.0000  -0.0000  -0.0000

          k = 0.3750 0.3750-0.5000 (  8790 PWs)   bands (ev):

   -84.8943 -84.8942 -84.8904 -84.8904 -45.4106 -45.4106 -45.4007 -45.4006
   -45.2252 -45.2251 -45.2116 -45.2116 -45.2080 -45.2080 -45.2078 -45.2078
    13.6887  13.6887  13.9888  13.9888  16.0896  16.0897  16.2651  16.2651
    16.4012  16.4012  16.4720  16.4720  16.9646  16.9647  16.9771  16.9771
    18.1987  18.1987  18.2021  18.2022  18.6008  18.6008  20.0755  20.0755
    24.7746  24.7746  26.3329

     occupation numbers 
     1.0000   1.0000   1.0000   1.0000   1.0000   1.0000   1.0000   1.0000
     1.0000   1.0000   1.0000   1.0000   1.0000   1.0000   1.0000   1.0000
     1.0000   1.0000   1.0000   1.0000   1.0000   1.0000   1.0000   1.0000
     1.0000   1.0000   1.0000   1.0000   1.0000   1.0000   1.0000   1.0000
     1.0062   1.0062   1.0064   1.0064   0.9719   0.9719  -0.0000  -0.0000
    -0.0000  -0.0000  -0.0000

          k = 0.3750-0.5000-0.5000 (  8760 PWs)   bands (ev):

   -84.8923 -84.8923 -84.8923 -84.8922 -45.4125 -45.4125 -45.4124 -45.4124
   -45.2133 -45.2133 -45.2133 -45.2132 -45.2062 -45.2062 -45.2062 -45.2062
    13.7883  13.7883  13.7883  13.7883  16.2421  16.2421  16.2421  16.2421
    16.3593  16.3593  16.3593  16.3593  17.3693  17.3693  17.3693  17.3693
    18.1547  18.1547  18.1547  18.1548  19.0844  19.0844  19.0844  19.0844
    25.1791  25.1791  25.1792

     occupation numbers 
     1.0000   1.0000   1.0000   1.0000   1.0000   1.0000   1.0000   1.0000
     1.0000   1.0000   1.0000   1.0000   1.0000   1.0000   1.0000   1.0000
     1.0000   1.0000   1.0000   1.0000   1.0000   1.0000   1.0000   1.0000
     1.0000   1.0000   1.0000   1.0000   1.0000   1.0000   1.0000   1.0000
     1.0036   1.0036   1.0036   1.0036  -0.0069  -0.0069  -0.0070  -0.0070
    -0.0000  -0.0000  -0.0000

          k =-0.5000-0.5000-0.5000 (  8744 PWs)   bands (ev):

   -84.8923 -84.8923 -84.8923 -84.8922 -45.4197 -45.4196 -45.4196 -45.4196
   -45.2062 -45.2062 -45.2062 -45.2062 -45.2062 -45.2062 -45.2062 -45.2062
    13.7234  13.7235  13.7235  13.7235  16.2927  16.2927  16.2927  16.2927
    16.2927  16.2927  16.2927  16.2927  18.2320  18.2320  18.2320  18.2320
    18.2320  18.2320  18.2320  18.2320  18.3706  18.3706  18.3706  18.3707
    24.6963  24.6963  24.6963

     occupation numbers 
     1.0000   1.0000   1.0000   1.0000   1.0000   1.0000   1.0000   1.0000
     1.0000   1.0000   1.0000   1.0000   1.0000   1.0000   1.0000   1.0000
     1.0000   1.0000   1.0000   1.0000   1.0000   1.0000   1.0000   1.0000
     1.0000   1.0000   1.0000   1.0000   1.0089   1.0089   1.0089   1.0089
     1.0089   1.0089   1.0089   1.0089   1.0275   1.0275   1.0275   1.0275
    -0.0000  -0.0000  -0.0000

 ------ SPIN DOWN ----------


          k = 0.0000 0.0000 0.0000 (  8733 PWs)   bands (ev):

   -84.1050 -84.0509 -84.0509 -84.0508 -44.6049 -44.6049 -44.6049 -44.4571
   -44.4571 -44.4571 -44.4571 -44.4571 -44.4571 -44.3609 -44.3609 -44.3609
     9.4004  14.2376  14.2376  14.2376  15.0051  15.0051  15.0051  17.0313
    17.0313  17.0313  18.1131  18.1131  18.8974  18.8974  18.8974  19.2444
    19.2444  19.2444  19.2445  19.2445  19.2445  21.1573  21.1573  21.1573
    28.5636  28.5636  28.5636

     occupation numbers 
     1.0000   1.0000   1.0000   1.0000   1.0000   1.0000   1.0000   1.0000
     1.0000   1.0000   1.0000   1.0000   1.0000   1.0000   1.0000   1.0000
     1.0000   1.0000   1.0000   1.0000   1.0000   1.0000   1.0000   1.0000
     1.0000   1.0000   1.0021   1.0021   0.2939   0.2937   0.2937  -0.0314
    -0.0314  -0.0314  -0.0314  -0.0314  -0.0314  -0.0000  -0.0000  -0.0000
    -0.0000  -0.0000  -0.0000

          k = 0.0000 0.0000 0.1250 (  8797 PWs)   bands (ev):

   -84.1030 -84.0529 -84.0509 -84.0508 -44.5993 -44.5993 -44.5959 -44.4628
   -44.4628 -44.4574 -44.4573 -44.4534 -44.4534 -44.3706 -44.3646 -44.3646
     9.6104  14.2320  14.3522  14.3522  15.0754  15.0769  15.0769  16.9463
    17.0937  17.0937  18.0367  18.1419  18.6450  18.6450  18.7972  18.7972
    18.8665  19.1275  19.1275  19.2446  19.2447  20.2506  21.9283  21.9283
    28.6037  28.6037  29.8480

     occupation numbers 
     1.0000   1.0000   1.0000   1.0000   1.0000   1.0000   1.0000   1.0000
     1.0000   1.0000   1.0000   1.0000   1.0000   1.0000   1.0000   1.0000
     1.0000   1.0000   1.0000   1.0000   1.0000   1.0000   1.0000   1.0000
     1.0000   1.0000   1.0007   1.0031   0.9150   0.9150   0.5689   0.5688
     0.3751  -0.0270  -0.0270  -0.0314  -0.0314  -0.0000  -0.0000  -0.0000
    -0.0000  -0.0000  -0.0000

          k = 0.0000 0.0000 0.2500 (  8778 PWs)   bands (ev):

   -84.0971 -84.0588 -84.0509 -84.0508 -44.5833 -44.5833 -44.5703 -44.4788
   -44.4788 -44.4581 -44.4580 -44.4430 -44.4430 -44.3979 -44.3750 -44.3750
    10.2267  14.1023  14.6588  14.6589  15.2780  15.2944  15.2944  16.7082
    17.2782  17.2782  17.7148  17.7148  17.8269  18.2246  18.5226  18.5226
    18.6574  18.7791  18.8155  18.8155  19.2451  19.2451  23.3700  23.3700
    28.7347  28.7347  30.9060

     occupation numbers 
     1.0000   1.0000   1.0000   1.0000   1.0000   1.0000   1.0000   1.0000
     1.0000   1.0000   1.0000   1.0000   1.0000   1.0000   1.0000   1.0000
     1.0000   1.0000   1.0000   1.0000   1.0000   1.0000   1.0000   1.0000
     1.0000   1.0000   1.0000   1.0000   1.0000   1.0082   1.0248   1.0248
     0.8951   0.6190   0.5174   0.5174  -0.0314  -0.0313  -0.0000  -0.0000
    -0.0000  -0.0000  -0.0000

          k = 0.0000 0.0000 0.3750 (  8762 PWs)   bands (ev):

   -84.0883 -84.0676 -84.0509 -84.0508 -44.5594 -44.5594 -44.5317 -44.5028
   -44.5028 -44.4587 -44.4586 -44.4384 -44.4274 -44.4274 -44.3907 -44.3907
    11.1991  13.5157  15.0283  15.0283  15.5889  15.6631  15.6631  16.3619
    16.8764  16.8764  17.5510  17.5745  17.5745  17.5942  18.1813  18.1813
    18.3494  18.3967  18.3967  18.6494  19.2455  19.2456  25.0499  25.0499
    28.8610  28.9682  28.9683

     occupation numbers 
     1.0000   1.0000   1.0000   1.0000   1.0000   1.0000   1.0000   1.0000
     1.0000   1.0000   1.0000   1.0000   1.0000   1.0000   1.0000   1.0000
     1.0000   1.0000   1.0000   1.0000   1.0000   1.0000   1.0000   1.0000
     1.0000   1.0000   1.0000   1.0000   1.0000   1.0000   1.0050   1.0051
     1.0242   1.0311   1.0311   0.9082  -0.0313  -0.0313  -0.0000  -0.0000
    -0.0000  -0.0000  -0.0000

          k = 0.0000 0.0000-0.5000 (  8778 PWs)   bands (ev):

   -84.0780 -84.0779 -84.0509 -84.0508 -44.5312 -44.5312 -44.5311 -44.5311
   -44.4854 -44.4853 -44.4590 -44.4589 -44.4091 -44.4091 -44.4090 -44.4090
    12.4005  12.4005  15.2111  15.2111  15.9681  15.9681  16.1894  16.1894
    16.1894  16.1894  17.3619  17.3619  17.9609  17.9609  17.9610  17.9610
    18.0090  18.0091  18.4983  18.4984  19.2457  19.2458  26.8921  26.8921
    26.8922  26.8922  29.1564

     occupation numbers 
     1.0000   1.0000   1.0000   1.0000   1.0000   1.0000   1.0000   1.0000
     1.0000   1.0000   1.0000   1.0000   1.0000   1.0000   1.0000   1.0000
     1.0000   1.0000   1.0000   1.0000   1.0000   1.0000   1.0000   1.0000
     1.0000   1.0000   1.0000   1.0000   1.0002   1.0002   1.0002   1.0002
     1.0004   1.0004   1.0314   1.0314  -0.0313  -0.0313  -0.0000  -0.0000
    -0.0000  -0.0000  -0.0000

          k = 0.0000 0.1250 0.1250 (  8770 PWs)   bands (ev):

   -84.1010 -84.0529 -84.0528 -84.0509 -44.5938 -44.5915 -44.5915 -44.4735
   -44.4591 -44.4590 -44.4532 -44.4532 -44.4518 -44.3848 -44.3684 -44.3630
     9.8180  14.3519  14.3519  14.4627  15.1407  15.1440  15.1440  16.8974
    17.1243  17.1391  18.0174  18.1311  18.3140  18.4158  18.4158  18.7073
    18.8009  18.8010  19.1272  19.1272  19.1714  21.0593  21.0594  22.5052
    28.6254  29.9290  30.9321

     occupation numbers 
     1.0000   1.0000   1.0000   1.0000   1.0000   1.0000   1.0000   1.0000
     1.0000   1.0000   1.0000   1.0000   1.0000   1.0000   1.0000   1.0000
     1.0000   1.0000   1.0000   1.0000   1.0000   1.0000   1.0000   1.0000
     1.0000   1.0000   1.0005   1.0027   1.0189   1.0333   1.0333   0.7982
     0.5584   0.5583  -0.0269  -0.0269  -0.0349  -0.0000  -0.0000  -0.0000
    -0.0000  -0.0000  -0.0000

          k = 0.0000 0.1250 0.2500 (  8782 PWs)   bands (ev):

   -84.0953 -84.0585 -84.0526 -84.0512 -44.5789 -44.5780 -44.5693 -44.4914
   -44.4749 -44.4525 -44.4486 -44.4484 -44.4415 -44.4136 -44.3790 -44.3699
    10.4267  14.2370  14.6754  14.7605  15.3310  15.3376  15.3519  16.6895
    17.2609  17.2902  17.5096  17.5847  17.8435  17.8564  18.2279  18.4582
    18.5310  18.6870  18.8144  19.1261  19.1317  19.7259  22.3457  23.7888
    28.3730  29.2828  30.1739

     occupation numbers 
     1.0000   1.0000   1.0000   1.0000   1.0000   1.0000   1.0000   1.0000
     1.0000   1.0000   1.0000   1.0000   1.0000   1.0000   1.0000   1.0000
     1.0000   1.0000   1.0000   1.0000   1.0000   1.0000   1.0000   1.0000
     1.0000   1.0000   1.0000   1.0000   1.0000   1.0000   1.0085   1.0354
     1.0216   0.8408   0.5206  -0.0266  -0.0283  -0.0001  -0.0000  -0.0000
    -0.0000  -0.0000  -0.0000

          k = 0.0000 0.1250 0.3750 (  8783 PWs)   bands (ev):

   -84.0869 -84.0669 -84.0523 -84.0515 -44.5599 -44.5544 -44.5354 -44.5134
   -44.4985 -44.4518 -44.4512 -44.4483 -44.4325 -44.4241 -44.3949 -44.3847
    11.3861  13.6671  15.0758  15.1278  15.6339  15.6396  15.7029  16.3663
    16.7178  16.8380  17.2680  17.3207  17.5799  17.7669  18.1478  18.1951
    18.3960  18.4020  18.4045  18.9730  19.1232  19.1244  23.7462  25.3907
    26.8258  29.1386  29.3255

     occupation numbers 
     1.0000   1.0000   1.0000   1.0000   1.0000   1.0000   1.0000   1.0000
     1.0000   1.0000   1.0000   1.0000   1.0000   1.0000   1.0000   1.0000
     1.0000   1.0000   1.0000   1.0000   1.0000   1.0000   1.0000   1.0000
     1.0000   1.0000   1.0000   1.0000   1.0000   1.0000   1.0033   1.0059
     1.0311   1.0318   1.0321   0.1276  -0.0256  -0.0260  -0.0000  -0.0000
    -0.0000  -0.0000  -0.0000

          k = 0.0000 0.1250-0.5000 (  8810 PWs)   bands (ev):

   -84.0769 -84.0768 -84.0519 -84.0518 -44.5371 -44.5371 -44.5265 -44.5264
   -44.4944 -44.4943 -44.4496 -44.4496 -44.4138 -44.4137 -44.4040 -44.4039
    12.5697  12.5697  15.2987  15.2987  15.9941  15.9942  16.0873  16.0874
    16.2001  16.2001  17.1773  17.1773  17.9624  17.9624  18.0067  18.0068
    18.0244  18.0244  18.6313  18.6313  19.1227  19.1228  25.2301  25.2302
    27.1910  27.1911  29.8422

     occupation numbers 
     1.0000   1.0000   1.0000   1.0000   1.0000   1.0000   1.0000   1.0000
     1.0000   1.0000   1.0000   1.0000   1.0000   1.0000   1.0000   1.0000
     1.0000   1.0000   1.0000   1.0000   1.0000   1.0000   1.0000   1.0000
     1.0000   1.0000   1.0000   1.0000   1.0002   1.0002   1.0004   1.0004
     1.0006   1.0006   0.9350   0.9349  -0.0255  -0.0255  -0.0000  -0.0000
    -0.0000  -0.0000  -0.0000

          k = 0.0000 0.2500 0.2500 (  8790 PWs)   bands (ev):

   -84.0903 -84.0577 -84.0576 -84.0520 -44.5656 -44.5655 -44.5628 -44.5114
   -44.4637 -44.4636 -44.4438 -44.4375 -44.4374 -44.4374 -44.3903 -44.3695
    11.0117  14.6067  14.6067  15.0358  15.4374  15.5168  15.5168  16.5835
    17.0660  17.0660  17.2142  17.2361  17.3864  17.7999  18.2719  18.3668
    18.4518  18.4518  18.8120  18.8120  18.9577  20.7724  20.7724  24.8561
    26.4360  29.2415  31.9529

     occupation numbers 
     1.0000   1.0000   1.0000   1.0000   1.0000   1.0000   1.0000   1.0000
     1.0000   1.0000   1.0000   1.0000   1.0000   1.0000   1.0000   1.0000
     1.0000   1.0000   1.0000   1.0000   1.0000   1.0000   1.0000   1.0000
     1.0000   1.0000   1.0000   1.0000   1.0000   1.0000   1.0132   1.0269
     1.0354   1.0354   0.5274   0.5274   0.1567  -0.0000  -0.0000  -0.0000
    -0.0000  -0.0000  -0.0000

          k = 0.0000 0.2500 0.3750 (  8791 PWs)   bands (ev):

   -84.0828 -84.0651 -84.0563 -84.0533 -44.5583 -44.5433 -44.5401 -44.5306
   -44.4864 -44.4788 -44.4468 -44.4329 -44.4313 -44.4169 -44.4071 -44.3787
    11.9290  14.0881  15.0932  15.3981  15.5759  15.7665  15.8149  16.3573
    16.4156  16.7153  16.7931  17.1420  17.6244  17.7399  18.0311  18.1432
    18.2102  18.3982  18.6634  18.8119  18.8602  19.6805  21.8896  24.6198
    26.3122  29.6507  29.9194

     occupation numbers 
     1.0000   1.0000   1.0000   1.0000   1.0000   1.0000   1.0000   1.0000
     1.0000   1.0000   1.0000   1.0000   1.0000   1.0000   1.0000   1.0000
     1.0000   1.0000   1.0000   1.0000   1.0000   1.0000   1.0000   1.0000
     1.0000   1.0000   1.0000   1.0000   1.0000   1.0000   1.0006   1.0031
     1.0070   1.0313   0.8849   0.5278   0.3925  -0.0002  -0.0000  -0.0000
    -0.0000  -0.0000  -0.0000

          k = 0.0000 0.2500-0.5000 (  8810 PWs)   bands (ev):

   -84.0740 -84.0739 -84.0548 -84.0547 -44.5466 -44.5466 -44.5134 -44.5134
   -44.5133 -44.5132 -44.4302 -44.4302 -44.4270 -44.4269 -44.3958 -44.3958
    13.0522  13.0522  15.4625  15.4625  15.8917  15.8917  16.0637  16.0638
    16.2240  16.2241  16.9101  16.9101  17.9087  17.9087  17.9442  17.9443
    17.9788  17.9789  18.8222  18.8222  19.0660  19.0660  23.1350  23.1350
    28.0218  28.0219  30.3482

     occupation numbers 
     1.0000   1.0000   1.0000   1.0000   1.0000   1.0000   1.0000   1.0000
     1.0000   1.0000   1.0000   1.0000   1.0000   1.0000   1.0000   1.0000
     1.0000   1.0000   1.0000   1.0000   1.0000   1.0000   1.0000   1.0000
[...]
     1.0021   1.0329   0.4042   0.0331   0.0095   0.0094  -0.0000  -0.0000
    -0.0000  -0.0000  -0.0000

          k = 0.1250 0.1250-0.5000 (  8798 PWs)   bands (ev):

   -84.0760 -84.0759 -84.0528 -84.0527 -44.5509 -44.5509 -44.5117 -44.5117
   -44.5046 -44.5046 -44.4431 -44.4431 -44.4079 -44.4078 -44.4075 -44.4074
    12.7274  12.7274  15.3943  15.3943  15.8631  15.8631  16.0242  16.0242
    16.3463  16.3463  17.0888  17.0888  17.7326  17.7326  17.9642  17.9642
    18.3530  18.3530  18.6389  18.6389  19.0513  19.0513  24.9135  24.9135
    26.1245  26.1246  31.5373

     occupation numbers 
     1.0000   1.0000   1.0000   1.0000   1.0000   1.0000   1.0000   1.0000
     1.0000   1.0000   1.0000   1.0000   1.0000   1.0000   1.0000   1.0000
     1.0000   1.0000   1.0000   1.0000   1.0000   1.0000   1.0000   1.0000
     1.0000   1.0000   1.0000   1.0000   1.0000   1.0000   1.0002   1.0002
     1.0248   1.0248   0.9242   0.9242   0.0194   0.0193  -0.0000  -0.0000
    -0.0000  -0.0000  -0.0000

          k = 0.1250 0.2500 0.2500 (  8759 PWs)   bands (ev):

   -84.0888 -84.0576 -84.0576 -84.0534 -44.5696 -44.5685 -44.5685 -44.4957
   -44.4642 -44.4641 -44.4593 -44.4349 -44.4343 -44.4342 -44.3841 -44.3720
    11.1941  14.6930  14.6930  15.0405  15.4779  15.5480  15.5480  16.5853
    17.0249  17.0250  17.1114  17.2328  17.3008  17.9577  18.1344  18.1689
    18.1689  18.3239  18.9919  18.9919  19.0113  20.9676  20.9676  23.4562
    26.9109  29.8026  29.8026

     occupation numbers 
     1.0000   1.0000   1.0000   1.0000   1.0000   1.0000   1.0000   1.0000
     1.0000   1.0000   1.0000   1.0000   1.0000   1.0000   1.0000   1.0000
     1.0000   1.0000   1.0000   1.0000   1.0000   1.0000   1.0000   1.0000
     1.0000   1.0000   1.0000   1.0000   1.0000   1.0002   1.0028   1.0043
     1.0043   1.0204   0.0952   0.0952   0.0661  -0.0000  -0.0000  -0.0000
    -0.0000  -0.0000  -0.0000

          k = 0.1250 0.2500 0.3750 (  8785 PWs)   bands (ev):

   -84.0817 -84.0648 -84.0566 -84.0544 -44.5666 -44.5641 -44.5519 -44.5002
   -44.4939 -44.4787 -44.4404 -44.4299 -44.4288 -44.4176 -44.3991 -44.3809
    12.0865  14.1699  15.1197  15.3731  15.5845  15.7553  15.8128  16.3882
    16.5496  16.7320  16.7967  17.1374  17.3953  17.8659  17.9095  17.9619
    18.0378  18.6170  18.7698  18.9054  18.9161  19.7001  21.9857  23.9851
    25.7258  27.9953  31.4231

     occupation numbers 
     1.0000   1.0000   1.0000   1.0000   1.0000   1.0000   1.0000   1.0000
     1.0000   1.0000   1.0000   1.0000   1.0000   1.0000   1.0000   1.0000
     1.0000   1.0000   1.0000   1.0000   1.0000   1.0000   1.0000   1.0000
     1.0000   1.0000   1.0000   1.0000   1.0000   1.0000   1.0001   1.0002
     1.0007   0.9536   0.6440   0.2738   0.2477  -0.0001  -0.0000  -0.0000
    -0.0000  -0.0000  -0.0000

          k = 0.1250 0.2500-0.5000 (  8812 PWs)   bands (ev):

   -84.0732 -84.0732 -84.0555 -84.0554 -44.5640 -44.5639 -44.5262 -44.5262
   -44.4930 -44.4930 -44.4275 -44.4275 -44.4181 -44.4181 -44.3978 -44.3978
    13.1712  13.1712  15.4600  15.4600  15.7180  15.7180  16.1142  16.1142
    16.4664  16.4665  16.9124  16.9124  17.5865  17.5865  17.8198  17.8199
    18.3822  18.3822  18.8736  18.8737  19.0078  19.0078  23.1021  23.1022
    26.5084  26.5085  32.3305

     occupation numbers 
     1.0000   1.0000   1.0000   1.0000   1.0000   1.0000   1.0000   1.0000
     1.0000   1.0000   1.0000   1.0000   1.0000   1.0000   1.0000   1.0000
     1.0000   1.0000   1.0000   1.0000   1.0000   1.0000   1.0000   1.0000
     1.0000   1.0000   1.0000   1.0000   1.0000   1.0000   1.0000   1.0000
     1.0292   1.0292   0.3559   0.3558   0.0711   0.0711  -0.0000  -0.0000
    -0.0000  -0.0000  -0.0000

          k = 0.1250 0.3750 0.3750 (  8788 PWs)   bands (ev):

   -84.0759 -84.0624 -84.0623 -84.0567 -44.5683 -44.5628 -44.5627 -44.5235
   -44.4898 -44.4557 -44.4556 -44.4165 -44.4146 -44.4112 -44.4111 -44.3825
    12.8795  14.6393  14.6393  15.2879  15.8297  16.0193  16.0193  16.3622
    16.5378  16.5379  16.6633  17.0026  17.3597  17.6910  17.7035  17.7035
    18.0740  18.6501  18.6501  18.7448  19.0309  20.4974  20.4974  22.7128
    26.2737  29.0729  29.0729

     occupation numbers 
     1.0000   1.0000   1.0000   1.0000   1.0000   1.0000   1.0000   1.0000
     1.0000   1.0000   1.0000   1.0000   1.0000   1.0000   1.0000   1.0000
     1.0000   1.0000   1.0000   1.0000   1.0000   1.0000   1.0000   1.0000
     1.0000   1.0000   1.0000   1.0000   1.0000   1.0000   1.0000   1.0000
     1.0012   0.9071   0.9070   0.7094   0.0411  -0.0000  -0.0000  -0.0000
    -0.0000  -0.0000  -0.0000

          k = 0.1250 0.3750-0.5000 (  8774 PWs)   bands (ev):

   -84.0692 -84.0691 -84.0596 -84.0595 -44.5686 -44.5685 -44.5478 -44.5478
   -44.4734 -44.4733 -44.4340 -44.4339 -44.4103 -44.4103 -44.3935 -44.3935
    13.8058  13.8059  15.0353  15.0353  16.0731  16.0732  16.2520  16.2520
    16.5236  16.5236  16.7511  16.7511  17.4609  17.4609  17.5977  17.5978
    18.3127  18.3127  18.6322  18.6322  19.5907  19.5907  21.4622  21.4623
    27.5171  27.5171  30.4385

     occupation numbers 
     1.0000   1.0000   1.0000   1.0000   1.0000   1.0000   1.0000   1.0000
     1.0000   1.0000   1.0000   1.0000   1.0000   1.0000   1.0000   1.0000
     1.0000   1.0000   1.0000   1.0000   1.0000   1.0000   1.0000   1.0000
     1.0000   1.0000   1.0000   1.0000   1.0000   1.0000   1.0000   1.0000
     1.0187   1.0187   0.9338   0.9337  -0.0009  -0.0009  -0.0000  -0.0000
    -0.0000  -0.0000  -0.0000

          k = 0.1250-0.5000-0.5000 (  8820 PWs)   bands (ev):

   -84.0644 -84.0644 -84.0644 -84.0642 -44.5630 -44.5630 -44.5629 -44.5629
   -44.4532 -44.4532 -44.4532 -44.4531 -44.3980 -44.3979 -44.3979 -44.3979
    14.4725  14.4725  14.4725  14.4725  16.3349  16.3349  16.3349  16.3349
    16.5783  16.5783  16.5783  16.5783  17.4302  17.4302  17.4302  17.4303
    18.3987  18.3987  18.3987  18.3987  20.3417  20.3417  20.3417  20.3418
    28.8371  28.8371  28.8371

     occupation numbers 
     1.0000   1.0000   1.0000   1.0000   1.0000   1.0000   1.0000   1.0000
     1.0000   1.0000   1.0000   1.0000   1.0000   1.0000   1.0000   1.0000
     1.0000   1.0000   1.0000   1.0000   1.0000   1.0000   1.0000   1.0000
     1.0000   1.0000   1.0000   1.0000   1.0000   1.0000   1.0000   1.0000
     1.0314   1.0314   1.0314   1.0314  -0.0000  -0.0000  -0.0000  -0.0000
    -0.0000  -0.0000  -0.0000

          k = 0.2500 0.2500 0.2500 (  8790 PWs)   bands (ev):

   -84.0847 -84.0576 -84.0576 -84.0575 -44.5753 -44.5752 -44.5752 -44.4907
   -44.4647 -44.4647 -44.4646 -44.4275 -44.4275 -44.4275 -44.3794 -44.3794
    11.7225  14.8928  14.8928  14.8928  15.6606  15.6607  15.6607  16.5690
    16.8995  16.8995  16.8996  17.2124  17.2124  17.8520  17.8520  17.8520
    18.2538  18.2538  19.0577  19.0577  19.0577  21.4913  21.4913  21.4913
    27.6880  27.6880  27.6880

     occupation numbers 
     1.0000   1.0000   1.0000   1.0000   1.0000   1.0000   1.0000   1.0000
     1.0000   1.0000   1.0000   1.0000   1.0000   1.0000   1.0000   1.0000
     1.0000   1.0000   1.0000   1.0000   1.0000   1.0000   1.0000   1.0000
     1.0000   1.0000   1.0000   1.0000   1.0000   1.0000   1.0000   1.0000
     1.0111   1.0111   0.0135   0.0134   0.0134  -0.0000  -0.0000  -0.0000
    -0.0000  -0.0000  -0.0000

          k = 0.2500 0.2500 0.3750 (  8803 PWs)   bands (ev):

   -84.0784 -84.0638 -84.0576 -84.0575 -44.5816 -44.5815 -44.5697 -44.5239
   -44.4648 -44.4647 -44.4318 -44.4217 -44.4216 -44.4165 -44.3904 -44.3857
    12.5327  14.3619  15.0670  15.0671  15.8394  15.8394  15.9788  16.4846
    16.7769  16.7769  16.7980  17.1066  17.2209  17.5647  17.6515  17.6515
    18.3651  18.5625  18.9803  18.9803  18.9994  19.9206  22.1364  22.1364
    26.1093  26.1094  28.7712

     occupation numbers 
     1.0000   1.0000   1.0000   1.0000   1.0000   1.0000   1.0000   1.0000
     1.0000   1.0000   1.0000   1.0000   1.0000   1.0000   1.0000   1.0000
     1.0000   1.0000   1.0000   1.0000   1.0000   1.0000   1.0000   1.0000
     1.0000   1.0000   1.0000   1.0000   1.0000   1.0000   1.0000   1.0000
     1.0267   1.0047   0.1147   0.1146   0.0834  -0.0000  -0.0000  -0.0000
    -0.0000  -0.0000  -0.0000

          k = 0.2500 0.2500-0.5000 (  8778 PWs)   bands (ev):

   -84.0711 -84.0711 -84.0576 -84.0575 -44.5841 -44.5840 -44.5518 -44.5518
   -44.4647 -44.4646 -44.4195 -44.4194 -44.4040 -44.4040 -44.4035 -44.4034
    13.4897  13.4897  15.1304  15.1304  15.9247  15.9247  16.2894  16.2894
    16.7596  16.7597  16.9058  16.9058  17.3422  17.3422  17.5618  17.5619
    18.8255  18.8256  18.8894  18.8894  18.9245  18.9245  22.4932  22.4932
    25.4439  25.4440  30.1388

     occupation numbers 
     1.0000   1.0000   1.0000   1.0000   1.0000   1.0000   1.0000   1.0000
     1.0000   1.0000   1.0000   1.0000   1.0000   1.0000   1.0000   1.0000
     1.0000   1.0000   1.0000   1.0000   1.0000   1.0000   1.0000   1.0000
     1.0000   1.0000   1.0000   1.0000   1.0000   1.0000   1.0000   1.0000
     0.4892   0.4892   0.3142   0.3142   0.2281   0.2280  -0.0000  -0.0000
    -0.0000  -0.0000  -0.0000

          k = 0.2500 0.3750 0.3750 (  8790 PWs)   bands (ev):

   -84.0736 -84.0624 -84.0623 -84.0590 -44.5922 -44.5856 -44.5856 -44.5537
   -44.4522 -44.4342 -44.4342 -44.4125 -44.4101 -44.4100 -44.3988 -44.3865
    13.1850  14.5598  14.5598  14.9022  16.1102  16.2284  16.2284  16.6144
    16.8313  16.8313  16.9429  17.0380  17.1276  17.3884  17.3884  17.4101
    18.4387  18.8672  18.9263  18.9263  18.9265  20.4582  20.4582  21.8898
    25.3368  27.0413  27.0413

     occupation numbers 
     1.0000   1.0000   1.0000   1.0000   1.0000   1.0000   1.0000   1.0000
     1.0000   1.0000   1.0000   1.0000   1.0000   1.0000   1.0000   1.0000
     1.0000   1.0000   1.0000   1.0000   1.0000   1.0000   1.0000   1.0000
     1.0000   1.0000   1.0000   1.0000   1.0000   1.0000   1.0000   1.0000
     1.0351   0.3734   0.2239   0.2238   0.2235  -0.0000  -0.0000  -0.0000
    -0.0000  -0.0000  -0.0000

          k = 0.2500 0.3750-0.5000 (  8776 PWs)   bands (ev):

   -84.0680 -84.0679 -84.0607 -84.0606 -44.5938 -44.5938 -44.5757 -44.5757
   -44.4420 -44.4419 -44.4131 -44.4130 -44.4078 -44.4077 -44.3959 -44.3958
    13.9068  13.9068  14.7303  14.7304  16.2991  16.2991  16.5794  16.5794
    16.8907  16.8907  16.9556  16.9557  17.1946  17.1946  17.3144  17.3145
    18.6853  18.6853  18.8566  18.8566  19.3906  19.3906  21.1699  21.1700
    25.8198  25.8198  28.3089

     occupation numbers 
     1.0000   1.0000   1.0000   1.0000   1.0000   1.0000   1.0000   1.0000
     1.0000   1.0000   1.0000   1.0000   1.0000   1.0000   1.0000   1.0000
     1.0000   1.0000   1.0000   1.0000   1.0000   1.0000   1.0000   1.0000
     1.0000   1.0000   1.0000   1.0000   1.0000   1.0000   1.0000   1.0000
     0.8443   0.8443   0.4023   0.4022  -0.0110  -0.0110  -0.0000  -0.0000
    -0.0000  -0.0000  -0.0000

          k = 0.2500-0.5000-0.5000 (  8804 PWs)   bands (ev):

   -84.0643 -84.0643 -84.0643 -84.0641 -44.5909 -44.5909 -44.5909 -44.5909
   -44.4256 -44.4256 -44.4256 -44.4255 -44.3979 -44.3979 -44.3978 -44.3978
    14.3274  14.3275  14.3275  14.3275  16.6157  16.6157  16.6157  16.6158
    16.9786  16.9786  16.9786  16.9786  17.1622  17.1622  17.1622  17.1623
    18.6952  18.6952  18.6952  18.6952  20.0783  20.0783  20.0783  20.0783
    26.8589  26.8589  26.8589

     occupation numbers 
     1.0000   1.0000   1.0000   1.0000   1.0000   1.0000   1.0000   1.0000
     1.0000   1.0000   1.0000   1.0000   1.0000   1.0000   1.0000   1.0000
     1.0000   1.0000   1.0000   1.0000   1.0000   1.0000   1.0000   1.0000
     1.0000   1.0000   1.0000   1.0000   1.0000   1.0000   1.0000   1.0000
     0.8242   0.8241   0.8241   0.8241  -0.0000  -0.0000  -0.0000  -0.0000
    -0.0000  -0.0000  -0.0000

          k = 0.3750 0.3750 0.3750 (  8778 PWs)   bands (ev):

   -84.0702 -84.0624 -84.0624 -84.0622 -44.6032 -44.6032 -44.6032 -44.5816
   -44.4205 -44.4205 -44.4204 -44.4065 -44.4065 -44.4065 -44.3924 -44.3924
    13.5960  14.4687  14.4687  14.4687  16.5003  16.5003  16.5003  17.0110
    17.0110  17.0473  17.1673  17.1673  17.1673  17.1894  17.1894  17.1895
    18.7477  18.7477  19.0100  19.0101  19.0101  20.4186  20.4186  20.4186
    25.6747  25.6747  25.6747

     occupation numbers 
     1.0000   1.0000   1.0000   1.0000   1.0000   1.0000   1.0000   1.0000
     1.0000   1.0000   1.0000   1.0000   1.0000   1.0000   1.0000   1.0000
     1.0000   1.0000   1.0000   1.0000   1.0000   1.0000   1.0000   1.0000
     1.0000   1.0000   1.0000   1.0000   1.0000   1.0000   1.0000   1.0000
     0.7019   0.7019   0.0679   0.0679   0.0679  -0.0000  -0.0000  -0.0000
    -0.0000  -0.0000  -0.0000

          k = 0.3750 0.3750-0.5000 (  8790 PWs)   bands (ev):

   -84.0663 -84.0662 -84.0623 -84.0622 -44.6096 -44.6096 -44.5994 -44.5993
   -44.4175 -44.4174 -44.4034 -44.4033 -44.3997 -44.3996 -44.3995 -44.3994
    14.0325  14.0325  14.4304  14.4304  16.6144  16.6144  16.8408  16.8408
    17.0256  17.0256  17.0859  17.0860  17.3084  17.3084  17.4039  17.4040
    18.9493  18.9493  18.9670  18.9670  19.1825  19.1825  20.4065  20.4065
    25.1896  25.1896  26.6572

     occupation numbers 
     1.0000   1.0000   1.0000   1.0000   1.0000   1.0000   1.0000   1.0000
     1.0000   1.0000   1.0000   1.0000   1.0000   1.0000   1.0000   1.0000
     1.0000   1.0000   1.0000   1.0000   1.0000   1.0000   1.0000   1.0000
     1.0000   1.0000   1.0000   1.0000   1.0000   1.0000   1.0000   1.0000
     0.1736   0.1736   0.1386   0.1386  -0.0354  -0.0354  -0.0000  -0.0000
    -0.0000  -0.0000  -0.0000

          k = 0.3750-0.5000-0.5000 (  8760 PWs)   bands (ev):

   -84.0643 -84.0643 -84.0643 -84.0641 -44.6116 -44.6116 -44.6116 -44.6116
   -44.4052 -44.4051 -44.4051 -44.4051 -44.3979 -44.3978 -44.3978 -44.3978
    14.1975  14.1976  14.1976  14.1976  16.8303  16.8303  16.8304  16.8304
    16.9725  16.9726  16.9726  16.9726  17.6814  17.6814  17.6814  17.6814
    18.9134  18.9135  18.9135  18.9135  19.5486  19.5486  19.5486  19.5487
    25.5714  25.5714  25.5714

     occupation numbers 
     1.0000   1.0000   1.0000   1.0000   1.0000   1.0000   1.0000   1.0000
     1.0000   1.0000   1.0000   1.0000   1.0000   1.0000   1.0000   1.0000
     1.0000   1.0000   1.0000   1.0000   1.0000   1.0000   1.0000   1.0000
     1.0000   1.0000   1.0000   1.0000   1.0000   1.0000   1.0000   1.0000
     0.2542   0.2541   0.2541   0.2541  -0.0016  -0.0016  -0.0016  -0.0016
    -0.0000  -0.0000  -0.0000

          k =-0.5000-0.5000-0.5000 (  8744 PWs)   bands (ev):

   -84.0643 -84.0643 -84.0643 -84.0641 -44.6191 -44.6190 -44.6190 -44.6190
   -44.3978 -44.3978 -44.3978 -44.3978 -44.3978 -44.3977 -44.3977 -44.3977
    14.1474  14.1475  14.1475  14.1475  16.9054  16.9054  16.9054  16.9055
    16.9055  16.9055  16.9055  16.9055  18.3094  18.3094  18.3094  18.3095
    18.9924  18.9924  18.9924  18.9924  18.9924  18.9925  18.9925  18.9925
    25.1325  25.1325  25.1325

     occupation numbers 
     1.0000   1.0000   1.0000   1.0000   1.0000   1.0000   1.0000   1.0000
     1.0000   1.0000   1.0000   1.0000   1.0000   1.0000   1.0000   1.0000
     1.0000   1.0000   1.0000   1.0000   1.0000   1.0000   1.0000   1.0000
     1.0000   1.0000   1.0000   1.0000   1.0182   1.0182   1.0182   1.0182
     0.0944   0.0944   0.0944   0.0943   0.0943   0.0943   0.0943   0.0943
    -0.0000  -0.0000  -0.0000

     the Fermi energy is    18.8217 ev

!    total energy              =   -1716.65449616 Ry
     total all-electron energy =    -12166.382926 Ry
     estimated scf accuracy    <       0.00000004 Ry
     smearing contrib. (-TS)   =      -0.00112269 Ry
     internal energy E=F+TS    =   -1716.65337347 Ry

     The total energy is F=E-TS. E is the sum of the following terms:
     one-electron contribution =    -721.94378597 Ry
     hartree contribution      =     411.93000389 Ry
     xc contribution           =    -137.44503000 Ry
     ewald contribution        =    -904.81412341 Ry
     one-center paw contrib.   =    -364.38043797 Ry
      -> PAW hartree energy AE =     268.05720675 Ry
      -> PAW hartree energy PS =    -266.36391993 Ry
      -> PAW xc energy AE      =    -125.61187071 Ry
      -> PAW xc energy PS      =      32.82348688 Ry
      -> total E_H with PAW    =     413.62329071 Ry
      -> total E_XC with PAW   =    -230.23341383 Ry

     total magnetization       =     2.48 Bohr mag/cell
     absolute magnetization    =     2.83 Bohr mag/cell

     convergence has been achieved in   8 iterations

     Writing all to output data dir out/Ni.save/
 
     init_run     :      0.76s CPU      0.99s WALL (       1 calls)
     electrons    :     75.41s CPU     76.44s WALL (       1 calls)

     Called by init_run:
     wfcinit      :      0.35s CPU      0.51s WALL (       1 calls)
     potinit      :      0.26s CPU      0.29s WALL (       1 calls)
     hinit0       :      0.08s CPU      0.09s WALL (       1 calls)

     Called by electrons:
     c_bands      :     64.49s CPU     65.31s WALL (       9 calls)
     sum_band     :      8.61s CPU      8.71s WALL (       9 calls)
     v_of_rho     :      0.15s CPU      0.15s WALL (       9 calls)
     v_h          :      0.01s CPU      0.01s WALL (       9 calls)
     v_xc         :      0.15s CPU      0.15s WALL (       9 calls)
     newd         :      0.21s CPU      0.22s WALL (       9 calls)
     PAW_pot      :      2.18s CPU      2.26s WALL (       9 calls)
     mix_rho      :      0.02s CPU      0.02s WALL (       9 calls)

     Called by c_bands:
     init_us_2    :      0.39s CPU      0.42s WALL (    1260 calls)
     init_us_2:cp :      0.39s CPU      0.42s WALL (    1260 calls)
     cegterg      :     61.71s CPU     62.40s WALL (     630 calls)

     Called by sum_band:
     sum_band:wei :      0.12s CPU      0.12s WALL (       9 calls)
     sum_band:loo :      8.10s CPU      8.19s WALL (       9 calls)
     sum_band:buf :      0.09s CPU      0.10s WALL (     630 calls)
     sum_band:ini :      0.19s CPU      0.20s WALL (     630 calls)
     sum_band:cal :      0.45s CPU      0.46s WALL (     630 calls)
     sum_band:bec :      0.03s CPU      0.03s WALL (     630 calls)
     addusdens    :      0.34s CPU      0.35s WALL (       9 calls)
                                        0.00s GPU  (       9 calls)
     addusd:skk   :      0.00s CPU      0.00s WALL (       9 calls)
                                        0.00s GPU  (       9 calls)

     Called by *egterg:
     cdiaghg      :      6.90s CPU      6.92s WALL (    2841 calls)
     cegterg:over :      2.73s CPU      2.76s WALL (    2351 calls)
     cegterg:upda :      1.19s CPU      1.20s WALL (    2351 calls)
     cegterg:last :      2.67s CPU      2.67s WALL (    1680 calls)
     h_psi        :     45.65s CPU     46.24s WALL (    2981 calls)
     s_psi        :      1.09s CPU      1.10s WALL (    2981 calls)
     g_psi        :      0.16s CPU      0.16s WALL (    2351 calls)

     Called by h_psi:
     h_psi:calbec :      1.68s CPU      1.69s WALL (    2981 calls)
     vloc_psi     :     42.46s CPU     43.00s WALL (    2981 calls)
     add_vuspsi   :      1.32s CPU      1.33s WALL (    2981 calls)

     General routines
     calbec       :      2.13s CPU      2.13s WALL (    3611 calls)
     fft          :      0.08s CPU      0.08s WALL (     189 calls)
     ffts         :      0.01s CPU      0.01s WALL (      18 calls)
     fftw         :     46.87s CPU     47.05s WALL (  195288 calls)
 
     Parallel routines

     PAW routines
     PAW_pot      :      2.18s CPU      2.26s WALL (       9 calls)
     PAW_symme    :      0.03s CPU      0.03s WALL (      17 calls)
 
     PWSCF        :   1m16.76s CPU   1m19.31s WALL

 
   This run was terminated on:   0:38:43  22Mar2024            

=------------------------------------------------------------------------------=
   JOB DONE.
=------------------------------------------------------------------------------=
