
     Program PWSCF v.7.2 starts on  1Jul2024 at  4:37:32 

     This program is part of the open-source Quantum ESPRESSO suite
     for quantum simulation of materials; please cite
         "P. Giannozzi et al., J. Phys.:Condens. Matter 21 395502 (2009);
         "P. Giannozzi et al., J. Phys.:Condens. Matter 29 465901 (2017);
         "P. Giannozzi et al., J. Chem. Phys. 152 154105 (2020);
          URL http://www.quantum-espresso.org", 
     in publications or presentations arising from this work. More details at
     http://www.quantum-espresso.org/quote

     Parallel version (MPI), running on  1120 processors

     MPI processes distributed on    10 nodes
     227832 MiB available memory on the printing compute node when the environment starts
 
     Waiting for input...
     Reading input from standard input

     Current dimensions of program PWSCF are:
     Max number of different atomic species (ntypx) = 10
     Max number of k-points (npk) =  40000
     Max angular momentum in pseudopotentials (lmaxx) =  4

     Atomic positions and unit cell read from directory:
     ./out/ZnS_hub.save/
 
     file S.pbe-n-kjpaw_psl.1.0.0.UPF: wavefunction(s)  3S 3P renormalized
     file Zn.pbe-dnl-kjpaw_psl.1.0.0.UPF: wavefunction(s)  4S 3D renormalized
     Found identity + (  0.0000  0.2500  0.2500) symmetry
     This is a supercell, fractional translations are disabled
     [opt_tetra]  Optimized tetrahedron method is used.
 
     K-points division:     npool     =      10
     R & G space division:  proc/nbgrp/npool/nimage =     112
     Subspace diagonalization in iterative solution of the eigenvalue problem:
     one sub-group per band group will be used
     scalapack distributed-memory algorithm (size of sub-group:  3*  3 procs)

 
     Parallelization info
     --------------------
     sticks:   dense  smooth     PW     G-vecs:    dense   smooth      PW
     Min         126     126     33                11287    11287    1523
     Max         128     128     34                11292    11292    1528
     Sum       14137   14137   3721              1264415  1264415  170709
 
     Using Slab Decomposition
 


     bravais-lattice index     =            1
     lattice parameter (alat)  =      20.5686  a.u.
     unit-cell volume          =    8701.8437 (a.u.)^3
     number of atoms/cell      =           64
     number of atomic types    =            2
     number of electrons       =       576.00
     number of Kohn-Sham states=          345
     kinetic-energy cutoff     =     105.0000  Ry
     charge density cutoff     =     420.0000  Ry
     Exchange-correlation= SLA  PW   PBX  PBC
                           (   1   4   3   4   0   0   0)
     Hubbard projectors: ortho-atomic
     Hubbard parameters of DFT+U (Dudarev formulation) in eV:
     U(S-3p) =  3.0000
     U(Zn-3d) =  1.0000

     Internal variables: lda_plus_u = T, lda_plus_u_kind = 0

     celldm(1)=  20.568554  celldm(2)=   0.000000  celldm(3)=   0.000000
     celldm(4)=   0.000000  celldm(5)=   0.000000  celldm(6)=   0.000000

     crystal axes: (cart. coord. in units of alat)
               a(1) = (   1.000000   0.000000   0.000000 )  
               a(2) = (   0.000000   1.000000   0.000000 )  
               a(3) = (   0.000000   0.000000   1.000000 )  

     reciprocal axes: (cart. coord. in units 2 pi/alat)
               b(1) = (  1.000000  0.000000  0.000000 )  
               b(2) = (  0.000000  1.000000  0.000000 )  
               b(3) = (  0.000000  0.000000  1.000000 )  


     PseudoPot. # 1 for S  read from file:
     /arf/home/amuhaymin/pseudo/S.pbe-n-kjpaw_psl.1.0.0.UPF
     MD5 check sum: fb45dfebcf3e72a4e1bd4a866ec2e262
     Pseudo is Projector augmented-wave + core cor, Zval =  6.0
     Generated using &quot;atomic&quot; code by A. Dal Corso  v.6.3
     Shape of augmentation charge: PSQ
     Using radial grid of 1151 points,  6 beta functions with: 
                l(1) =   0
                l(2) =   0
                l(3) =   1
                l(4) =   1
                l(5) =   2
                l(6) =   2
     Q(r) pseudized with 0 coefficients 


     PseudoPot. # 2 for Zn read from file:
     /arf/home/amuhaymin/pseudo/Zn.pbe-dnl-kjpaw_psl.1.0.0.UPF
     MD5 check sum: c608214d9520ac179f507641260889e3
     Pseudo is Projector augmented-wave + core cor, Zval = 12.0
     Generated using &quot;atomic&quot; code by A. Dal Corso  v.6.2.2
     Shape of augmentation charge: PSQ
     Using radial grid of 1201 points,  6 beta functions with: 
                l(1) =   0
                l(2) =   0
                l(3) =   1
                l(4) =   1
                l(5) =   2
                l(6) =   2
     Q(r) pseudized with 0 coefficients 


     atomic species   valence    mass     pseudopotential
        S              6.00    32.06500     S ( 1.00)
        Zn            12.00    65.38000     Zn( 1.00)

     24 Sym. Ops. (no inversion) found


                                    s                        frac. trans.

      isym =  1     identity                                     

 cryst.   s( 1) = (     1          0          0      )
                  (     0          1          0      )
                  (     0          0          1      )

 cart.    s( 1) = (  1.0000000  0.0000000  0.0000000 )
                  (  0.0000000  1.0000000  0.0000000 )
                  (  0.0000000  0.0000000  1.0000000 )


      isym =  2     180 deg rotation - cart. axis [0,0,1]        

 cryst.   s( 2) = (    -1          0          0      )
                  (     0         -1          0      )
                  (     0          0          1      )

 cart.    s( 2) = ( -1.0000000  0.0000000  0.0000000 )
                  (  0.0000000 -1.0000000  0.0000000 )
                  (  0.0000000  0.0000000  1.0000000 )


      isym =  3     180 deg rotation - cart. axis [0,1,0]        

 cryst.   s( 3) = (    -1          0          0      )
                  (     0          1          0      )
                  (     0          0         -1      )

 cart.    s( 3) = ( -1.0000000  0.0000000  0.0000000 )
                  (  0.0000000  1.0000000  0.0000000 )
                  (  0.0000000  0.0000000 -1.0000000 )


      isym =  4     180 deg rotation - cart. axis [1,0,0]        

 cryst.   s( 4) = (     1          0          0      )
                  (     0         -1          0      )
                  (     0          0         -1      )

 cart.    s( 4) = (  1.0000000  0.0000000  0.0000000 )
                  (  0.0000000 -1.0000000  0.0000000 )
                  (  0.0000000  0.0000000 -1.0000000 )


      isym =  5     120 deg rotation - cart. axis [-1,-1,-1]     

 cryst.   s( 5) = (     0          0          1      )
                  (     1          0          0      )
                  (     0          1          0      )

 cart.    s( 5) = (  0.0000000  1.0000000  0.0000000 )
                  (  0.0000000  0.0000000  1.0000000 )
                  (  1.0000000  0.0000000  0.0000000 )


      isym =  6     120 deg rotation - cart. axis [-1,1,1]       

 cryst.   s( 6) = (     0          0         -1      )
                  (    -1          0          0      )
                  (     0          1          0      )

 cart.    s( 6) = (  0.0000000 -1.0000000  0.0000000 )
                  (  0.0000000  0.0000000  1.0000000 )
                  ( -1.0000000  0.0000000  0.0000000 )


      isym =  7     120 deg rotation - cart. axis [1,1,-1]       

 cryst.   s( 7) = (     0          0         -1      )
                  (     1          0          0      )
                  (     0         -1          0      )

 cart.    s( 7) = (  0.0000000  1.0000000  0.0000000 )
                  (  0.0000000  0.0000000 -1.0000000 )
                  ( -1.0000000  0.0000000  0.0000000 )


      isym =  8     120 deg rotation - cart. axis [1,-1,1]       

 cryst.   s( 8) = (     0          0          1      )
                  (    -1          0          0      )
                  (     0         -1          0      )

 cart.    s( 8) = (  0.0000000 -1.0000000  0.0000000 )
                  (  0.0000000  0.0000000 -1.0000000 )
                  (  1.0000000  0.0000000  0.0000000 )


      isym =  9     120 deg rotation - cart. axis [1,1,1]        

 cryst.   s( 9) = (     0          1          0      )
                  (     0          0          1      )
                  (     1          0          0      )

 cart.    s( 9) = (  0.0000000  0.0000000  1.0000000 )
                  (  1.0000000  0.0000000  0.0000000 )
                  (  0.0000000  1.0000000  0.0000000 )


      isym = 10     120 deg rotation - cart. axis [-1,1,-1]      

 cryst.   s(10) = (     0         -1          0      )
                  (     0          0         -1      )
                  (     1          0          0      )

 cart.    s(10) = (  0.0000000  0.0000000  1.0000000 )
                  ( -1.0000000  0.0000000  0.0000000 )
                  (  0.0000000 -1.0000000  0.0000000 )


      isym = 11     120 deg rotation - cart. axis [1,-1,-1]      

 cryst.   s(11) = (     0         -1          0      )
                  (     0          0          1      )
                  (    -1          0          0      )

 cart.    s(11) = (  0.0000000  0.0000000 -1.0000000 )
                  ( -1.0000000  0.0000000  0.0000000 )
                  (  0.0000000  1.0000000  0.0000000 )


      isym = 12     120 deg rotation - cart. axis [-1,-1,1]      

 cryst.   s(12) = (     0          1          0      )
                  (     0          0         -1      )
                  (    -1          0          0      )

 cart.    s(12) = (  0.0000000  0.0000000 -1.0000000 )
                  (  1.0000000  0.0000000  0.0000000 )
                  (  0.0000000 -1.0000000  0.0000000 )


      isym = 13     inv. 180 deg rotation - cart. axis [1,1,0]   

 cryst.   s(13) = (     0         -1          0      )
                  (    -1          0          0      )
                  (     0          0          1      )

 cart.    s(13) = (  0.0000000 -1.0000000  0.0000000 )
                  ( -1.0000000  0.0000000  0.0000000 )
                  (  0.0000000  0.0000000  1.0000000 )


      isym = 14     inv. 180 deg rotation - cart. axis [1,-1,0]  

 cryst.   s(14) = (     0          1          0      )
                  (     1          0          0      )
                  (     0          0          1      )

 cart.    s(14) = (  0.0000000  1.0000000  0.0000000 )
                  (  1.0000000  0.0000000  0.0000000 )
                  (  0.0000000  0.0000000  1.0000000 )


      isym = 15     inv.  90 deg rotation - cart. axis [0,0,-1]  

 cryst.   s(15) = (     0          1          0      )
                  (    -1          0          0      )
                  (     0          0         -1      )

 cart.    s(15) = (  0.0000000 -1.0000000  0.0000000 )
                  (  1.0000000  0.0000000  0.0000000 )
                  (  0.0000000  0.0000000 -1.0000000 )


      isym = 16     inv.  90 deg rotation - cart. axis [0,0,1]   

 cryst.   s(16) = (     0         -1          0      )
                  (     1          0          0      )
                  (     0          0         -1      )

 cart.    s(16) = (  0.0000000  1.0000000  0.0000000 )
                  ( -1.0000000  0.0000000  0.0000000 )
                  (  0.0000000  0.0000000 -1.0000000 )


      isym = 17     inv. 180 deg rotation - cart. axis [1,0,1]   

 cryst.   s(17) = (     0          0         -1      )
                  (     0          1          0      )
                  (    -1          0          0      )

 cart.    s(17) = (  0.0000000  0.0000000 -1.0000000 )
                  (  0.0000000  1.0000000  0.0000000 )
                  ( -1.0000000  0.0000000  0.0000000 )


      isym = 18     inv. 180 deg rotation - cart. axis [-1,0,1]  

 cryst.   s(18) = (     0          0          1      )
                  (     0          1          0      )
                  (     1          0          0      )

 cart.    s(18) = (  0.0000000  0.0000000  1.0000000 )
                  (  0.0000000  1.0000000  0.0000000 )
                  (  1.0000000  0.0000000  0.0000000 )


      isym = 19     inv.  90 deg rotation - cart. axis [0,1,0]   

 cryst.   s(19) = (     0          0          1      )
                  (     0         -1          0      )
                  (    -1          0          0      )

 cart.    s(19) = (  0.0000000  0.0000000 -1.0000000 )
                  (  0.0000000 -1.0000000  0.0000000 )
                  (  1.0000000  0.0000000  0.0000000 )


      isym = 20     inv.  90 deg rotation - cart. axis [0,-1,0]  

 cryst.   s(20) = (     0          0         -1      )
                  (     0         -1          0      )
                  (     1          0          0      )

 cart.    s(20) = (  0.0000000  0.0000000  1.0000000 )
                  (  0.0000000 -1.0000000  0.0000000 )
                  ( -1.0000000  0.0000000  0.0000000 )


      isym = 21     inv. 180 deg rotation - cart. axis [0,1,1]   

 cryst.   s(21) = (     1          0          0      )
                  (     0          0         -1      )
                  (     0         -1          0      )

 cart.    s(21) = (  1.0000000  0.0000000  0.0000000 )
                  (  0.0000000  0.0000000 -1.0000000 )
                  (  0.0000000 -1.0000000  0.0000000 )


      isym = 22     inv. 180 deg rotation - cart. axis [0,1,-1]  

 cryst.   s(22) = (     1          0          0      )
                  (     0          0          1      )
                  (     0          1          0      )

 cart.    s(22) = (  1.0000000  0.0000000  0.0000000 )
                  (  0.0000000  0.0000000  1.0000000 )
                  (  0.0000000  1.0000000  0.0000000 )


      isym = 23     inv.  90 deg rotation - cart. axis [-1,0,0]  

 cryst.   s(23) = (    -1          0          0      )
                  (     0          0          1      )
                  (     0         -1          0      )

 cart.    s(23) = ( -1.0000000  0.0000000  0.0000000 )
                  (  0.0000000  0.0000000 -1.0000000 )
                  (  0.0000000  1.0000000  0.0000000 )


      isym = 24     inv.  90 deg rotation - cart. axis [1,0,0]   

 cryst.   s(24) = (    -1          0          0      )
                  (     0          0         -1      )
                  (     0          1          0      )

 cart.    s(24) = ( -1.0000000  0.0000000  0.0000000 )
                  (  0.0000000  0.0000000  1.0000000 )
                  (  0.0000000 -1.0000000  0.0000000 )


     point group T_d (-43m) 
     there are  5 classes
     the character table:

       E     8C3   3C2   6S4   6s_d 
A_1    1.00  1.00  1.00  1.00  1.00
A_2    1.00  1.00  1.00 -1.00 -1.00
E      2.00 -1.00  2.00  0.00  0.00
T_1    3.00  0.00 -1.00  1.00 -1.00
T_2    3.00  0.00 -1.00 -1.00  1.00

     the symmetry operations in each class and the name of the first element:

     E        1
          identity                                               
     8C3      5    7    8    6   12    9   10   11
          120 deg rotation - cart. axis [-1,-1,-1]               
     3C2      2    3    4
          180 deg rotation - cart. axis [0,0,1]                  
     6S4     15   16   20   19   23   24
          inv.  90 deg rotation - cart. axis [0,0,-1]            
     6s_d    13   14   17   18   21   22
          inv. 180 deg rotation - cart. axis [1,1,0]             

   Cartesian axes

     site n.     atom                  positions (alat units)
         1           Zn  tau(   1) = (   0.0000000   0.0000000   0.0000000  )
         2           Zn  tau(   2) = (   0.0000000   0.2500000   0.2500000  )
         3           Zn  tau(   3) = (   0.2500000   0.0000000   0.2500000  )
         4           Zn  tau(   4) = (   0.2500000   0.2500000   0.0000000  )
         5           S   tau(   5) = (   0.1250000   0.3750000   0.3750000  )
         6           S   tau(   6) = (   0.1250000   0.1250000   0.1250000  )
         7           S   tau(   7) = (   0.3750000   0.3750000   0.1250000  )
         8           S   tau(   8) = (   0.3750000   0.1250000   0.3750000  )
         9           Zn  tau(   9) = (   0.0000000   0.0000000   0.5000000  )
        10           Zn  tau(  10) = (   0.0000000   0.2500000   0.7500000  )
        11           Zn  tau(  11) = (   0.2500000   0.0000000   0.7500000  )
        12           Zn  tau(  12) = (   0.2500000   0.2500000   0.5000000  )
        13           S   tau(  13) = (   0.1250000   0.3750000   0.8750000  )
        14           S   tau(  14) = (   0.1250000   0.1250000   0.6250000  )
        15           S   tau(  15) = (   0.3750000   0.3750000   0.6250000  )
        16           S   tau(  16) = (   0.3750000   0.1250000   0.8750000  )
        17           Zn  tau(  17) = (   0.0000000   0.5000000   0.0000000  )
        18           Zn  tau(  18) = (   0.0000000   0.7500000   0.2500000  )
        19           Zn  tau(  19) = (   0.2500000   0.5000000   0.2500000  )
        20           Zn  tau(  20) = (   0.2500000   0.7500000   0.0000000  )
        21           S   tau(  21) = (   0.1250000   0.8750000   0.3750000  )
        22           S   tau(  22) = (   0.1250000   0.6250000   0.1250000  )
        23           S   tau(  23) = (   0.3750000   0.8750000   0.1250000  )
        24           S   tau(  24) = (   0.3750000   0.6250000   0.3750000  )
        25           Zn  tau(  25) = (   0.0000000   0.5000000   0.5000000  )
        26           Zn  tau(  26) = (   0.0000000   0.7500000   0.7500000  )
        27           Zn  tau(  27) = (   0.2500000   0.5000000   0.7500000  )
        28           Zn  tau(  28) = (   0.2500000   0.7500000   0.5000000  )
        29           S   tau(  29) = (   0.1250000   0.8750000   0.8750000  )
        30           S   tau(  30) = (   0.1250000   0.6250000   0.6250000  )
        31           S   tau(  31) = (   0.3750000   0.8750000   0.6250000  )
        32           S   tau(  32) = (   0.3750000   0.6250000   0.8750000  )
        33           Zn  tau(  33) = (   0.5000000   0.0000000   0.0000000  )
        34           Zn  tau(  34) = (   0.5000000   0.2500000   0.2500000  )
        35           Zn  tau(  35) = (   0.7500000   0.0000000   0.2500000  )
        36           Zn  tau(  36) = (   0.7500000   0.2500000   0.0000000  )
        37           S   tau(  37) = (   0.6250000   0.3750000   0.3750000  )
        38           S   tau(  38) = (   0.6250000   0.1250000   0.1250000  )
        39           S   tau(  39) = (   0.8750000   0.3750000   0.1250000  )
        40           S   tau(  40) = (   0.8750000   0.1250000   0.3750000  )
        41           Zn  tau(  41) = (   0.5000000   0.0000000   0.5000000  )
        42           Zn  tau(  42) = (   0.5000000   0.2500000   0.7500000  )
        43           Zn  tau(  43) = (   0.7500000   0.0000000   0.7500000  )
        44           Zn  tau(  44) = (   0.7500000   0.2500000   0.5000000  )
        45           S   tau(  45) = (   0.6250000   0.3750000   0.8750000  )
        46           S   tau(  46) = (   0.6250000   0.1250000   0.6250000  )
        47           S   tau(  47) = (   0.8750000   0.3750000   0.6250000  )
        48           S   tau(  48) = (   0.8750000   0.1250000   0.8750000  )
        49           Zn  tau(  49) = (   0.5000000   0.5000000   0.0000000  )
        50           Zn  tau(  50) = (   0.5000000   0.7500000   0.2500000  )
        51           Zn  tau(  51) = (   0.7500000   0.5000000   0.2500000  )
        52           Zn  tau(  52) = (   0.7500000   0.7500000   0.0000000  )
        53           S   tau(  53) = (   0.6250000   0.8750000   0.3750000  )
        54           S   tau(  54) = (   0.6250000   0.6250000   0.1250000  )
        55           S   tau(  55) = (   0.8750000   0.8750000   0.1250000  )
        56           S   tau(  56) = (   0.8750000   0.6250000   0.3750000  )
        57           Zn  tau(  57) = (   0.5000000   0.5000000   0.5000000  )
        58           Zn  tau(  58) = (   0.5000000   0.7500000   0.7500000  )
        59           Zn  tau(  59) = (   0.7500000   0.5000000   0.7500000  )
        60           Zn  tau(  60) = (   0.7500000   0.7500000   0.5000000  )
        61           S   tau(  61) = (   0.6250000   0.8750000   0.8750000  )
        62           S   tau(  62) = (   0.6250000   0.6250000   0.6250000  )
        63           S   tau(  63) = (   0.8750000   0.8750000   0.6250000  )
        64           S   tau(  64) = (   0.8750000   0.6250000   0.8750000  )

   Crystallographic axes

     site n.     atom                  positions (cryst. coord.)
         1           Zn  tau(   1) = (  0.0000000  0.0000000  0.0000000  )
         2           Zn  tau(   2) = (  0.0000000  0.2500000  0.2500000  )
         3           Zn  tau(   3) = (  0.2500000  0.0000000  0.2500000  )
         4           Zn  tau(   4) = (  0.2500000  0.2500000  0.0000000  )
         5           S   tau(   5) = (  0.1250000  0.3750000  0.3750000  )
         6           S   tau(   6) = (  0.1250000  0.1250000  0.1250000  )
         7           S   tau(   7) = (  0.3750000  0.3750000  0.1250000  )
         8           S   tau(   8) = (  0.3750000  0.1250000  0.3750000  )
         9           Zn  tau(   9) = (  0.0000000  0.0000000  0.5000000  )
        10           Zn  tau(  10) = (  0.0000000  0.2500000  0.7500000  )
        11           Zn  tau(  11) = (  0.2500000  0.0000000  0.7500000  )
        12           Zn  tau(  12) = (  0.2500000  0.2500000  0.5000000  )
        13           S   tau(  13) = (  0.1250000  0.3750000  0.8750000  )
        14           S   tau(  14) = (  0.1250000  0.1250000  0.6250000  )
        15           S   tau(  15) = (  0.3750000  0.3750000  0.6250000  )
        16           S   tau(  16) = (  0.3750000  0.1250000  0.8750000  )
        17           Zn  tau(  17) = (  0.0000000  0.5000000  0.0000000  )
        18           Zn  tau(  18) = (  0.0000000  0.7500000  0.2500000  )
        19           Zn  tau(  19) = (  0.2500000  0.5000000  0.2500000  )
        20           Zn  tau(  20) = (  0.2500000  0.7500000  0.0000000  )
        21           S   tau(  21) = (  0.1250000  0.8750000  0.3750000  )
        22           S   tau(  22) = (  0.1250000  0.6250000  0.1250000  )
        23           S   tau(  23) = (  0.3750000  0.8750000  0.1250000  )
        24           S   tau(  24) = (  0.3750000  0.6250000  0.3750000  )
        25           Zn  tau(  25) = (  0.0000000  0.5000000  0.5000000  )
        26           Zn  tau(  26) = (  0.0000000  0.7500000  0.7500000  )
        27           Zn  tau(  27) = (  0.2500000  0.5000000  0.7500000  )
        28           Zn  tau(  28) = (  0.2500000  0.7500000  0.5000000  )
        29           S   tau(  29) = (  0.1250000  0.8750000  0.8750000  )
        30           S   tau(  30) = (  0.1250000  0.6250000  0.6250000  )
        31           S   tau(  31) = (  0.3750000  0.8750000  0.6250000  )
        32           S   tau(  32) = (  0.3750000  0.6250000  0.8750000  )
        33           Zn  tau(  33) = (  0.5000000  0.0000000  0.0000000  )
        34           Zn  tau(  34) = (  0.5000000  0.2500000  0.2500000  )
        35           Zn  tau(  35) = (  0.7500000  0.0000000  0.2500000  )
        36           Zn  tau(  36) = (  0.7500000  0.2500000  0.0000000  )
        37           S   tau(  37) = (  0.6250000  0.3750000  0.3750000  )
        38           S   tau(  38) = (  0.6250000  0.1250000  0.1250000  )
        39           S   tau(  39) = (  0.8750000  0.3750000  0.1250000  )
        40           S   tau(  40) = (  0.8750000  0.1250000  0.3750000  )
        41           Zn  tau(  41) = (  0.5000000  0.0000000  0.5000000  )
        42           Zn  tau(  42) = (  0.5000000  0.2500000  0.7500000  )
        43           Zn  tau(  43) = (  0.7500000  0.0000000  0.7500000  )
        44           Zn  tau(  44) = (  0.7500000  0.2500000  0.5000000  )
        45           S   tau(  45) = (  0.6250000  0.3750000  0.8750000  )
        46           S   tau(  46) = (  0.6250000  0.1250000  0.6250000  )
        47           S   tau(  47) = (  0.8750000  0.3750000  0.6250000  )
        48           S   tau(  48) = (  0.8750000  0.1250000  0.8750000  )
        49           Zn  tau(  49) = (  0.5000000  0.5000000  0.0000000  )
        50           Zn  tau(  50) = (  0.5000000  0.7500000  0.2500000  )
        51           Zn  tau(  51) = (  0.7500000  0.5000000  0.2500000  )
        52           Zn  tau(  52) = (  0.7500000  0.7500000  0.0000000  )
        53           S   tau(  53) = (  0.6250000  0.8750000  0.3750000  )
        54           S   tau(  54) = (  0.6250000  0.6250000  0.1250000  )
        55           S   tau(  55) = (  0.8750000  0.8750000  0.1250000  )
        56           S   tau(  56) = (  0.8750000  0.6250000  0.3750000  )
        57           Zn  tau(  57) = (  0.5000000  0.5000000  0.5000000  )
        58           Zn  tau(  58) = (  0.5000000  0.7500000  0.7500000  )
        59           Zn  tau(  59) = (  0.7500000  0.5000000  0.7500000  )
        60           Zn  tau(  60) = (  0.7500000  0.7500000  0.5000000  )
        61           S   tau(  61) = (  0.6250000  0.8750000  0.8750000  )
        62           S   tau(  62) = (  0.6250000  0.6250000  0.6250000  )
        63           S   tau(  63) = (  0.8750000  0.8750000  0.6250000  )
        64           S   tau(  64) = (  0.8750000  0.6250000  0.8750000  )

     number of k points=    10 (tetrahedron method)
                       cart. coord. in units 2pi/alat
        k(    1) = (   0.0000000   0.0000000   0.0000000), wk =   0.0312500
        k(    2) = (   0.0000000   0.0000000   0.2500000), wk =   0.1875000
        k(    3) = (   0.0000000   0.0000000  -0.5000000), wk =   0.0937500
        k(    4) = (   0.0000000   0.2500000   0.2500000), wk =   0.3750000
        k(    5) = (   0.0000000   0.2500000  -0.5000000), wk =   0.3750000
        k(    6) = (   0.0000000  -0.5000000  -0.5000000), wk =   0.0937500
        k(    7) = (   0.2500000   0.2500000   0.2500000), wk =   0.2500000
        k(    8) = (   0.2500000   0.2500000  -0.5000000), wk =   0.3750000
        k(    9) = (   0.2500000  -0.5000000  -0.5000000), wk =   0.1875000
        k(   10) = (  -0.5000000  -0.5000000  -0.5000000), wk =   0.0312500

                       cryst. coord.
        k(    1) = (   0.0000000   0.0000000   0.0000000), wk =   0.0312500
        k(    2) = (   0.0000000   0.0000000   0.2500000), wk =   0.1875000
        k(    3) = (   0.0000000   0.0000000  -0.5000000), wk =   0.0937500
        k(    4) = (   0.0000000   0.2500000   0.2500000), wk =   0.3750000
        k(    5) = (   0.0000000   0.2500000  -0.5000000), wk =   0.3750000
        k(    6) = (   0.0000000  -0.5000000  -0.5000000), wk =   0.0937500
        k(    7) = (   0.2500000   0.2500000   0.2500000), wk =   0.2500000
        k(    8) = (   0.2500000   0.2500000  -0.5000000), wk =   0.3750000
        k(    9) = (   0.2500000  -0.5000000  -0.5000000), wk =   0.1875000
        k(   10) = (  -0.5000000  -0.5000000  -0.5000000), wk =   0.0312500

     Dense  grid:  1264415 G-vectors     FFT dimensions: ( 135, 135, 135)

     Dynamical RAM for                 wfc:       7.43 MB

     Dynamical RAM for     wfc (w. buffer):       7.43 MB

     Dynamical RAM for             U proj.:       5.51 MB

     Dynamical RAM for  U proj. (w. buff.):       5.51 MB

     Dynamical RAM for           str. fact:       0.34 MB

     Dynamical RAM for           local pot:       0.00 MB

     Dynamical RAM for          nlocal pot:      24.80 MB

     Dynamical RAM for                qrad:       3.29 MB

     Dynamical RAM for          rho,v,vnew:       1.35 MB

     Dynamical RAM for           G-vectors:       0.73 MB

     Dynamical RAM for          h,s,v(r/c):       2.42 MB

     Dynamical RAM for          <psi|beta>:       6.06 MB

     Dynamical RAM for                 psi:      14.86 MB

     Dynamical RAM for                hpsi:      14.86 MB

     Dynamical RAM for                spsi:      14.86 MB

     Dynamical RAM for      wfcinit/wfcrot:      17.58 MB

     Dynamical RAM for           addusdens:       3.91 MB

     Estimated static dynamical RAM per process >      45.37 MB

     Estimated max dynamical RAM per process >      98.42 MB

     Estimated total dynamical RAM >     107.65 GB

     The potential is recalculated from file :
     ./out/ZnS_hub.save/charge-density


     HUBBARD ENERGY =    3.7840  (Ry)

     STARTING HUBBARD OCCUPATIONS:

     =================== HUBBARD OCCUPATIONS ===================
     ------------------------ ATOM    1 ------------------------
     Tr[ns(  1)] =   9.95862
     eigenvalues:
       0.995  0.995  0.995  0.997  0.997
     eigenvectors (columns):
      -0.000  0.000  0.000 -0.118 -0.993
      -0.345 -0.087  0.935  0.000  0.000
      -0.632 -0.715 -0.300  0.000  0.000
       0.000 -0.000 -0.000  0.993 -0.118
       0.694 -0.694  0.191 -0.000 -0.000
     occupation matrix ns (before diag.):
       0.997 -0.000 -0.000  0.000  0.000
      -0.000  0.995 -0.000  0.000  0.000
      -0.000 -0.000  0.995  0.000  0.000
       0.000  0.000  0.000  0.997 -0.000
       0.000  0.000  0.000 -0.000  0.995
     ------------------------ ATOM    2 ------------------------
     Tr[ns(  2)] =   9.95861
     eigenvalues:
       0.995  0.995  0.995  0.997  0.997
     eigenvectors (columns):
      -0.000  0.000 -0.000 -0.500 -0.866
       0.591  0.707  0.388 -0.000  0.000
       0.549  0.000 -0.836 -0.000  0.000
       0.000  0.000  0.000  0.866 -0.500
      -0.591  0.707 -0.388  0.000  0.000
     occupation matrix ns (before diag.):
       0.997 -0.000  0.000  0.000 -0.000
      -0.000  0.995 -0.000 -0.000  0.000
       0.000 -0.000  0.995 -0.000  0.000
       0.000 -0.000 -0.000  0.997  0.000
      -0.000  0.000  0.000  0.000  0.995
     ------------------------ ATOM    3 ------------------------
     Tr[ns(  3)] =   9.95861
     eigenvalues:
       0.995  0.995  0.995  0.997  0.997
     eigenvectors (columns):
      -0.000 -0.000  0.000 -0.500 -0.866
       0.549 -0.000  0.836 -0.000  0.000
       0.591 -0.707 -0.388 -0.000  0.000
      -0.000  0.000  0.000 -0.866  0.500
      -0.591 -0.707  0.388  0.000  0.000
     occupation matrix ns (before diag.):
       0.997  0.000 -0.000 -0.000 -0.000
       0.000  0.995 -0.000  0.000  0.000
      -0.000 -0.000  0.995  0.000  0.000
      -0.000  0.000  0.000  0.997 -0.000
      -0.000  0.000  0.000 -0.000  0.995
     ------------------------ ATOM    4 ------------------------
     Tr[ns(  4)] =   9.95861
     eigenvalues:
       0.995  0.995  0.995  0.997  0.997
     eigenvectors (columns):
      -0.000 -0.000 -0.000  1.000  0.000
      -0.591 -0.707 -0.388 -0.000  0.000
      -0.591  0.707 -0.388 -0.000 -0.000
       0.000 -0.000 -0.000  0.000 -1.000
       0.549  0.000 -0.836  0.000  0.000
     occupation matrix ns (before diag.):
       0.997 -0.000 -0.000  0.000  0.000
      -0.000  0.995 -0.000 -0.000  0.000
      -0.000 -0.000  0.995  0.000  0.000
       0.000 -0.000  0.000  0.997 -0.000
       0.000  0.000  0.000 -0.000  0.995
     ------------------------ ATOM    5 ------------------------
     Tr[ns(  5)] =   4.62694
     eigenvalues:
       0.771  0.771  0.771
     eigenvectors (columns):
       0.570 -0.707  0.418
      -0.591 -0.000  0.807
      -0.570 -0.707 -0.418
     occupation matrix ns (before diag.):
       0.771  0.000  0.000
       0.000  0.771 -0.000
       0.000 -0.000  0.771
     ------------------------ ATOM    6 ------------------------
     Tr[ns(  6)] =   4.62695
     eigenvalues:
       0.771  0.771  0.771
     eigenvectors (columns):
      -0.577 -0.809  0.107
       0.577 -0.498 -0.647
       0.577 -0.312  0.755
     occupation matrix ns (before diag.):
       0.771  0.000  0.000
       0.000  0.771 -0.000
       0.000 -0.000  0.771
     ------------------------ ATOM    7 ------------------------
     Tr[ns(  7)] =   4.62694
     eigenvalues:
       0.771  0.771  0.771
     eigenvectors (columns):
      -0.591  0.000  0.807
       0.570 -0.707  0.418
       0.570  0.707  0.418
     occupation matrix ns (before diag.):
       0.771  0.000  0.000
       0.000  0.771 -0.000
       0.000 -0.000  0.771
     ------------------------ ATOM    8 ------------------------
     Tr[ns(  8)] =   4.62694
     eigenvalues:
       0.771  0.771  0.771
     eigenvectors (columns):
      -0.570  0.707  0.418
       0.570  0.707 -0.418
       0.591  0.000  0.807
     occupation matrix ns (before diag.):
       0.771  0.000  0.000
       0.000  0.771 -0.000
       0.000 -0.000  0.771
     ------------------------ ATOM    9 ------------------------
     Tr[ns(  9)] =   9.95861
     eigenvalues:
       0.995  0.995  0.995  0.997  0.997
     eigenvectors (columns):
      -0.000  0.000 -0.000 -1.000  0.000
      -0.000  0.418 -0.909  0.000  0.000
      -0.000  0.909  0.418  0.000  0.000
       0.000 -0.000  0.000  0.000  1.000
       1.000  0.000 -0.000 -0.000 -0.000
     occupation matrix ns (before diag.):
       0.997 -0.000 -0.000  0.000  0.000
      -0.000  0.995 -0.000  0.000  0.000
      -0.000 -0.000  0.995  0.000  0.000
       0.000  0.000  0.000  0.997 -0.000
       0.000  0.000  0.000 -0.000  0.995
     ------------------------ ATOM   10 ------------------------
     Tr[ns( 10)] =   9.95861
     eigenvalues:
       0.995  0.995  0.995  0.997  0.997
     eigenvectors (columns):
      -0.000  0.000 -0.000 -0.500 -0.866
       0.591  0.707  0.388 -0.000  0.000
      -0.549  0.000  0.836  0.000  0.000
       0.000  0.000  0.000  0.866 -0.500
       0.591 -0.707  0.388 -0.000 -0.000
     occupation matrix ns (before diag.):
       0.997 -0.000 -0.000  0.000  0.000
      -0.000  0.995  0.000 -0.000 -0.000
      -0.000  0.000  0.995  0.000  0.000
       0.000 -0.000  0.000  0.997 -0.000
       0.000 -0.000  0.000 -0.000  0.995
     ------------------------ ATOM   11 ------------------------
     Tr[ns( 11)] =   9.95861
     eigenvalues:
       0.995  0.995  0.995  0.997  0.997
     eigenvectors (columns):
      -0.000  0.000 -0.000 -0.500 -0.866
      -0.549  0.000  0.836  0.000  0.000
       0.591  0.707  0.388 -0.000  0.000
      -0.000 -0.000 -0.000 -0.866  0.500
       0.591 -0.707  0.388 -0.000 -0.000
     occupation matrix ns (before diag.):
       0.997 -0.000 -0.000 -0.000  0.000
      -0.000  0.995  0.000 -0.000  0.000
      -0.000  0.000  0.995  0.000 -0.000
      -0.000 -0.000  0.000  0.997  0.000
       0.000  0.000 -0.000  0.000  0.995
     ------------------------ ATOM   12 ------------------------
     Tr[ns( 12)] =   9.95861
     eigenvalues:
       0.995  0.995  0.995  0.997  0.997
     eigenvectors (columns):
      -0.000  0.000  0.000 -0.000 -1.000
      -0.341  0.707  0.619 -0.000  0.000
      -0.341 -0.707  0.619  0.000  0.000
       0.000  0.000 -0.000  1.000 -0.000
       0.876 -0.000  0.483 -0.000 -0.000
     occupation matrix ns (before diag.):
       0.997 -0.000 -0.000  0.000  0.000
      -0.000  0.995  0.000 -0.000  0.000
      -0.000  0.000  0.995  0.000  0.000
       0.000 -0.000  0.000  0.997 -0.000
       0.000  0.000  0.000 -0.000  0.995
     ------------------------ ATOM   13 ------------------------
     Tr[ns( 13)] =   4.62695
     eigenvalues:
       0.771  0.771  0.771
     eigenvectors (columns):
      -0.239 -0.707 -0.665
      -0.239  0.707 -0.665
       0.941 -0.000 -0.338
     occupation matrix ns (before diag.):
       0.771  0.000  0.000
       0.000  0.771  0.000
       0.000  0.000  0.771
     ------------------------ ATOM   14 ------------------------
     Tr[ns( 14)] =   4.62695
     eigenvalues:
       0.771  0.771  0.771
     eigenvectors (columns):
       0.941 -0.000  0.338
      -0.239  0.707  0.665
      -0.239 -0.707  0.665
     occupation matrix ns (before diag.):
       0.771  0.000  0.000
       0.000  0.771  0.000
       0.000  0.000  0.771
     ------------------------ ATOM   15 ------------------------
     Tr[ns( 15)] =   4.62694
     eigenvalues:
       0.771  0.771  0.771
     eigenvectors (columns):
       0.519  0.630  0.577
       0.286 -0.765  0.577
      -0.805  0.135  0.577
     occupation matrix ns (before diag.):
       0.771  0.000  0.000
       0.000  0.771  0.000
       0.000  0.000  0.771
     ------------------------ ATOM   16 ------------------------
     Tr[ns( 16)] =   4.62695
     eigenvalues:
       0.771  0.771  0.771
     eigenvectors (columns):
       0.239  0.707  0.665
      -0.941 -0.000  0.338
       0.239 -0.707  0.665
     occupation matrix ns (before diag.):
       0.771  0.000  0.000
       0.000  0.771  0.000
       0.000  0.000  0.771
     ------------------------ ATOM   17 ------------------------
     Tr[ns( 17)] =   9.95861
     eigenvalues:
       0.995  0.995  0.995  0.997  0.997
     eigenvectors (columns):
       0.000 -0.000 -0.000 -0.500  0.866
       1.000  0.000 -0.000 -0.000 -0.000
       0.000 -0.588  0.809 -0.000 -0.000
      -0.000  0.000  0.000 -0.866 -0.500
      -0.000  0.809  0.588  0.000  0.000
     occupation matrix ns (before diag.):
       0.997 -0.000 -0.000 -0.000  0.000
      -0.000  0.995 -0.000  0.000  0.000
      -0.000 -0.000  0.995  0.000  0.000
      -0.000  0.000  0.000  0.997 -0.000
       0.000  0.000  0.000 -0.000  0.995
     ------------------------ ATOM   18 ------------------------
     Tr[ns( 18)] =   9.95861
     eigenvalues:
       0.995  0.995  0.995  0.997  0.997
     eigenvectors (columns):
      -0.000 -0.000  0.000 -0.500 -0.866
      -0.591  0.707  0.388  0.000 -0.000
      -0.549  0.000 -0.836  0.000  0.000
       0.000 -0.000 -0.000  0.866 -0.500
      -0.591 -0.707  0.388  0.000  0.000
     occupation matrix ns (before diag.):
       0.997  0.000 -0.000  0.000 -0.000
       0.000  0.995 -0.000  0.000 -0.000
      -0.000 -0.000  0.995  0.000 -0.000
       0.000  0.000  0.000  0.997  0.000
      -0.000 -0.000 -0.000  0.000  0.995
     ------------------------ ATOM   19 ------------------------
     Tr[ns( 19)] =   9.95861
     eigenvalues:
       0.995  0.995  0.995  0.997  0.997
     eigenvectors (columns):
      -0.000 -0.000 -0.000 -0.866 -0.500
       0.876 -0.000 -0.483  0.000 -0.000
       0.341 -0.707  0.619  0.000 -0.000
      -0.000  0.000 -0.000  0.500 -0.866
      -0.341 -0.707 -0.619  0.000  0.000
     occupation matrix ns (before diag.):
       0.997  0.000 -0.000  0.000 -0.000
       0.000  0.995 -0.000  0.000  0.000
      -0.000 -0.000  0.995  0.000 -0.000
       0.000  0.000  0.000  0.997 -0.000
      -0.000  0.000 -0.000 -0.000  0.995
     ------------------------ ATOM   20 ------------------------
     Tr[ns( 20)] =   9.95861
     eigenvalues:
       0.995  0.995  0.995  0.997  0.997
     eigenvectors (columns):
      -0.000 -0.000 -0.000  1.000  0.000
       0.591 -0.707  0.388  0.000  0.000
      -0.591 -0.707 -0.388 -0.000  0.000
      -0.000  0.000 -0.000 -0.000  1.000
      -0.549  0.000  0.836 -0.000 -0.000
     occupation matrix ns (before diag.):
       0.997  0.000 -0.000  0.000 -0.000
       0.000  0.995  0.000  0.000  0.000
      -0.000  0.000  0.995  0.000 -0.000
       0.000  0.000  0.000  0.997 -0.000
      -0.000  0.000 -0.000 -0.000  0.995
     ------------------------ ATOM   21 ------------------------
     Tr[ns( 21)] =   4.62695
     eigenvalues:
       0.771  0.771  0.771
     eigenvectors (columns):
       0.941 -0.000  0.338
       0.239  0.707 -0.665
      -0.239  0.707  0.665
     occupation matrix ns (before diag.):
       0.771 -0.000  0.000
      -0.000  0.771 -0.000
       0.000 -0.000  0.771
     ------------------------ ATOM   22 ------------------------
     Tr[ns( 22)] =   4.62695
     eigenvalues:
       0.771  0.771  0.771
     eigenvectors (columns):
      -0.239 -0.707  0.665
       0.239 -0.707 -0.665
       0.941  0.000  0.338
     occupation matrix ns (before diag.):
       0.771 -0.000  0.000
      -0.000  0.771 -0.000
       0.000 -0.000  0.771
     ------------------------ ATOM   23 ------------------------
     Tr[ns( 23)] =   4.62695
     eigenvalues:
       0.771  0.771  0.771
     eigenvectors (columns):
       0.239 -0.707  0.665
       0.941 -0.000 -0.338
       0.239  0.707  0.665
     occupation matrix ns (before diag.):
       0.771 -0.000  0.000
      -0.000  0.771 -0.000
       0.000 -0.000  0.771
     ------------------------ ATOM   24 ------------------------
     Tr[ns( 24)] =   4.62694
     eigenvalues:
       0.771  0.771  0.771
     eigenvectors (columns):
       0.333  0.745  0.577
       0.812  0.084 -0.577
       0.479 -0.661  0.577
     occupation matrix ns (before diag.):
       0.771 -0.000  0.000
      -0.000  0.771 -0.000
       0.000 -0.000  0.771
     ------------------------ ATOM   25 ------------------------
     Tr[ns( 25)] =   9.95861
     eigenvalues:
       0.995  0.995  0.995  0.997  0.997
     eigenvectors (columns):
      -0.000 -0.000  0.000 -0.866  0.500
      -0.355 -0.935 -0.000  0.000 -0.000
      -0.000 -0.000  1.000  0.000 -0.000
       0.000  0.000 -0.000 -0.500 -0.866
       0.935 -0.355  0.000  0.000  0.000
     occupation matrix ns (before diag.):
       0.997 -0.000 -0.000 -0.000  0.000
      -0.000  0.995 -0.000  0.000  0.000
      -0.000 -0.000  0.995  0.000  0.000
      -0.000  0.000  0.000  0.997 -0.000
       0.000  0.000  0.000 -0.000  0.995
     ------------------------ ATOM   26 ------------------------
     Tr[ns( 26)] =   9.95861
     eigenvalues:
       0.995  0.995  0.995  0.997  0.997
     eigenvectors (columns):
      -0.000 -0.000  0.000 -0.500 -0.866
      -0.591  0.707  0.388  0.000 -0.000
       0.549 -0.000  0.836 -0.000  0.000
       0.000 -0.000 -0.000  0.866 -0.500
       0.591  0.707 -0.388 -0.000 -0.000
     occupation matrix ns (before diag.):
       0.997  0.000  0.000  0.000  0.000
       0.000  0.995  0.000  0.000  0.000
       0.000  0.000  0.995 -0.000 -0.000
       0.000  0.000 -0.000  0.997 -0.000
       0.000  0.000 -0.000 -0.000  0.995
     ------------------------ ATOM   27 ------------------------
     Tr[ns( 27)] =   9.95861
     eigenvalues:
       0.995  0.995  0.995  0.997  0.997
     eigenvectors (columns):
      -0.000 -0.000 -0.000 -0.866 -0.500
      -0.876  0.000  0.483  0.000  0.000
       0.341 -0.707  0.619  0.000 -0.000
      -0.000  0.000 -0.000  0.500 -0.866
       0.341  0.707  0.619 -0.000 -0.000
     occupation matrix ns (before diag.):
       0.997 -0.000 -0.000  0.000  0.000
      -0.000  0.995  0.000 -0.000  0.000
      -0.000  0.000  0.995  0.000  0.000
       0.000 -0.000  0.000  0.997  0.000
       0.000  0.000  0.000  0.000  0.995
     ------------------------ ATOM   28 ------------------------
     Tr[ns( 28)] =   9.95861
     eigenvalues:
       0.995  0.995  0.995  0.997  0.997
     eigenvectors (columns):
       0.000  0.000 -0.000 -0.000  1.000
      -0.341  0.707  0.619  0.000  0.000
       0.341  0.707 -0.619  0.000 -0.000
       0.000 -0.000  0.000  1.000  0.000
       0.876  0.000  0.483 -0.000 -0.000
     occupation matrix ns (before diag.):
       0.997  0.000 -0.000  0.000 -0.000
       0.000  0.995 -0.000  0.000  0.000
      -0.000 -0.000  0.995  0.000 -0.000
       0.000  0.000  0.000  0.997 -0.000
      -0.000  0.000 -0.000 -0.000  0.995
     ------------------------ ATOM   29 ------------------------
     Tr[ns( 29)] =   4.62695
     eigenvalues:
       0.771  0.771  0.771
     eigenvectors (columns):
       0.577  0.316 -0.753
       0.577  0.494  0.650
      -0.577  0.810 -0.103
     occupation matrix ns (before diag.):
       0.771 -0.000  0.000
      -0.000  0.771  0.000
       0.000  0.000  0.771
     ------------------------ ATOM   30 ------------------------
     Tr[ns( 30)] =   4.62694
     eigenvalues:
       0.771  0.771  0.771
     eigenvectors (columns):
       0.570 -0.707 -0.418
       0.591 -0.000  0.807
      -0.570 -0.707  0.418
     occupation matrix ns (before diag.):
       0.771 -0.000  0.000
      -0.000  0.771  0.000
       0.000  0.000  0.771
     ------------------------ ATOM   31 ------------------------
     Tr[ns( 31)] =   4.62694
     eigenvalues:
       0.771  0.771  0.771
     eigenvectors (columns):
       0.570  0.707  0.418
       0.570 -0.707  0.418
      -0.591  0.000  0.807
     occupation matrix ns (before diag.):
       0.771 -0.000  0.000
      -0.000  0.771  0.000
       0.000  0.000  0.771
     ------------------------ ATOM   32 ------------------------
     Tr[ns( 32)] =   4.62694
     eigenvalues:
       0.771  0.771  0.771
     eigenvectors (columns):
      -0.591  0.000 -0.807
      -0.570  0.707  0.418
       0.570  0.707 -0.418
     occupation matrix ns (before diag.):
       0.771 -0.000  0.000
      -0.000  0.771  0.000
       0.000  0.000  0.771
     ------------------------ ATOM   33 ------------------------
     Tr[ns( 33)] =   9.95861
     eigenvalues:
       0.995  0.995  0.995  0.997  0.997
     eigenvectors (columns):
      -0.000 -0.000 -0.000  0.500 -0.866
      -0.000 -0.364 -0.931 -0.000  0.000
      -1.000  0.000  0.000 -0.000  0.000
       0.000  0.000  0.000 -0.866 -0.500
       0.000  0.931 -0.364  0.000  0.000
     occupation matrix ns (before diag.):
       0.997 -0.000 -0.000  0.000  0.000
      -0.000  0.995 -0.000  0.000  0.000
      -0.000 -0.000  0.995  0.000  0.000
       0.000  0.000  0.000  0.997 -0.000
       0.000  0.000  0.000 -0.000  0.995
     ------------------------ ATOM   34 ------------------------
     Tr[ns( 34)] =   9.95861
     eigenvalues:
       0.995  0.995  0.995  0.997  0.997
     eigenvectors (columns):
      -0.000 -0.000 -0.000 -0.866 -0.500
       0.341 -0.707  0.619  0.000 -0.000
       0.876 -0.000 -0.483  0.000 -0.000
       0.000 -0.000  0.000 -0.500  0.866
      -0.341 -0.707 -0.619  0.000  0.000
     occupation matrix ns (before diag.):
       0.997 -0.000  0.000 -0.000 -0.000
      -0.000  0.995 -0.000 -0.000 -0.000
       0.000 -0.000  0.995 -0.000  0.000
      -0.000 -0.000 -0.000  0.997  0.000
      -0.000 -0.000  0.000  0.000  0.995
     ------------------------ ATOM   35 ------------------------
     Tr[ns( 35)] =   9.95861
     eigenvalues:
       0.995  0.995  0.995  0.997  0.997
     eigenvectors (columns):
      -0.000  0.000 -0.000 -0.500 -0.866
      -0.549 -0.000  0.836  0.000  0.000
      -0.591 -0.707 -0.388  0.000 -0.000
      -0.000 -0.000 -0.000 -0.866  0.500
      -0.591  0.707 -0.388  0.000  0.000
     occupation matrix ns (before diag.):
       0.997 -0.000  0.000 -0.000 -0.000
      -0.000  0.995 -0.000 -0.000 -0.000
       0.000 -0.000  0.995 -0.000 -0.000
      -0.000 -0.000 -0.000  0.997 -0.000
      -0.000 -0.000 -0.000 -0.000  0.995
     ------------------------ ATOM   36 ------------------------
     Tr[ns( 36)] =   9.95861
     eigenvalues:
       0.995  0.995  0.995  0.997  0.997
     eigenvectors (columns):
       0.000  0.000  0.000  1.000 -0.000
       0.591  0.707  0.388 -0.000 -0.000
      -0.591  0.707 -0.388  0.000 -0.000
       0.000  0.000 -0.000  0.000  1.000
       0.549 -0.000 -0.836 -0.000 -0.000
     occupation matrix ns (before diag.):
       0.997 -0.000  0.000  0.000 -0.000
      -0.000  0.995  0.000 -0.000 -0.000
       0.000  0.000  0.995 -0.000  0.000
       0.000 -0.000 -0.000  0.997 -0.000
      -0.000 -0.000  0.000 -0.000  0.995
     ------------------------ ATOM   37 ------------------------
     Tr[ns( 37)] =   4.62694
     eigenvalues:
       0.771  0.771  0.771
     eigenvectors (columns):
       0.332  0.746 -0.577
       0.480 -0.660 -0.577
       0.812  0.086  0.577
     occupation matrix ns (before diag.):
       0.771  0.000 -0.000
       0.000  0.771 -0.000
      -0.000 -0.000  0.771
     ------------------------ ATOM   38 ------------------------
     Tr[ns( 38)] =   4.62695
     eigenvalues:
       0.771  0.771  0.771
     eigenvectors (columns):
       0.239  0.707 -0.665
      -0.941 -0.000 -0.338
      -0.239  0.707  0.665
     occupation matrix ns (before diag.):
       0.771  0.000 -0.000
       0.000  0.771 -0.000
      -0.000 -0.000  0.771
     ------------------------ ATOM   39 ------------------------
     Tr[ns( 39)] =   4.62695
     eigenvalues:
       0.771  0.771  0.771
     eigenvectors (columns):
       0.239 -0.707 -0.665
       0.239  0.707 -0.665
       0.941 -0.000  0.338
     occupation matrix ns (before diag.):
       0.771  0.000 -0.000
       0.000  0.771 -0.000
      -0.000 -0.000  0.771
     ------------------------ ATOM   40 ------------------------
     Tr[ns( 40)] =   4.62695
     eigenvalues:
       0.771  0.771  0.771
     eigenvectors (columns):
       0.941 -0.000 -0.338
      -0.239  0.707 -0.665
       0.239  0.707  0.665
     occupation matrix ns (before diag.):
       0.771  0.000 -0.000
       0.000  0.771 -0.000
      -0.000 -0.000  0.771
     ------------------------ ATOM   41 ------------------------
     Tr[ns( 41)] =   9.95861
     eigenvalues:
       0.995  0.995  0.995  0.997  0.997
     eigenvectors (columns):
      -0.000 -0.000 -0.000  0.866 -0.500
      -0.000  0.000 -1.000 -0.000 -0.000
      -0.561  0.828  0.000 -0.000 -0.000
       0.000  0.000  0.000 -0.500 -0.866
       0.828  0.561 -0.000  0.000  0.000
     occupation matrix ns (before diag.):
       0.997 -0.000 -0.000  0.000  0.000
      -0.000  0.995 -0.000  0.000  0.000
      -0.000 -0.000  0.995  0.000  0.000
       0.000  0.000  0.000  0.997 -0.000
       0.000  0.000  0.000 -0.000  0.995
     ------------------------ ATOM   42 ------------------------
     Tr[ns( 42)] =   9.95861
     eigenvalues:
       0.995  0.995  0.995  0.997  0.997
     eigenvectors (columns):
      -0.000 -0.000 -0.000 -0.866 -0.500
       0.341 -0.707  0.619  0.000 -0.000
      -0.876  0.000  0.483  0.000  0.000
       0.000 -0.000  0.000 -0.500  0.866
       0.341  0.707  0.619 -0.000 -0.000
     occupation matrix ns (before diag.):
       0.997 -0.000 -0.000 -0.000  0.000
      -0.000  0.995  0.000 -0.000  0.000
      -0.000  0.000  0.995  0.000  0.000
      -0.000 -0.000  0.000  0.997 -0.000
       0.000  0.000  0.000 -0.000  0.995
     ------------------------ ATOM   43 ------------------------
     Tr[ns( 43)] =   9.95861
     eigenvalues:
       0.995  0.995  0.995  0.997  0.997
     eigenvectors (columns):
      -0.000 -0.000  0.000 -0.500 -0.866
       0.549 -0.000  0.836 -0.000  0.000
      -0.591  0.707  0.388  0.000 -0.000
      -0.000  0.000  0.000 -0.866  0.500
       0.591  0.707 -0.388 -0.000 -0.000
     occupation matrix ns (before diag.):
       0.997  0.000  0.000 -0.000  0.000
       0.000  0.995  0.000  0.000 -0.000
       0.000  0.000  0.995 -0.000  0.000
      -0.000  0.000 -0.000  0.997  0.000
       0.000 -0.000  0.000  0.000  0.995
     ------------------------ ATOM   44 ------------------------
     Tr[ns( 44)] =   9.95861
     eigenvalues:
       0.995  0.995  0.995  0.997  0.997
     eigenvectors (columns):
       0.000 -0.000 -0.000  0.000  1.000
       0.341 -0.707 -0.619 -0.000 -0.000
      -0.341 -0.707  0.619 -0.000  0.000
       0.000 -0.000  0.000  1.000 -0.000
       0.876 -0.000  0.483 -0.000 -0.000
     occupation matrix ns (before diag.):
       0.997 -0.000  0.000  0.000 -0.000
      -0.000  0.995 -0.000 -0.000 -0.000
       0.000 -0.000  0.995 -0.000  0.000
       0.000 -0.000 -0.000  0.997 -0.000
      -0.000 -0.000  0.000 -0.000  0.995
     ------------------------ ATOM   45 ------------------------
     Tr[ns( 45)] =   4.62694
     eigenvalues:
       0.771  0.771  0.771
     eigenvectors (columns):
      -0.591  0.000 -0.807
       0.570 -0.707 -0.418
      -0.570 -0.707  0.418
     occupation matrix ns (before diag.):
       0.771  0.000 -0.000
       0.000  0.771  0.000
      -0.000  0.000  0.771
     ------------------------ ATOM   46 ------------------------
     Tr[ns( 46)] =   4.62694
     eigenvalues:
       0.771  0.771  0.771
     eigenvectors (columns):
       0.570  0.707  0.418
      -0.570  0.707 -0.418
       0.591  0.000 -0.807
     occupation matrix ns (before diag.):
       0.771  0.000 -0.000
       0.000  0.771  0.000
      -0.000  0.000  0.771
     ------------------------ ATOM   47 ------------------------
     Tr[ns( 47)] =   4.62694
     eigenvalues:
       0.771  0.771  0.771
     eigenvectors (columns):
       0.570 -0.707 -0.418
      -0.591  0.000 -0.807
       0.570  0.707 -0.418
     occupation matrix ns (before diag.):
       0.771  0.000 -0.000
       0.000  0.771  0.000
      -0.000  0.000  0.771
     ------------------------ ATOM   48 ------------------------
     Tr[ns( 48)] =   4.62695
     eigenvalues:
       0.771  0.771  0.771
     eigenvectors (columns):
       0.577 -0.346  0.739
      -0.577 -0.814  0.070
       0.577 -0.467 -0.670
     occupation matrix ns (before diag.):
       0.771  0.000 -0.000
       0.000  0.771  0.000
      -0.000  0.000  0.771
     ------------------------ ATOM   49 ------------------------
     Tr[ns( 49)] =   9.95861
     eigenvalues:
       0.995  0.995  0.995  0.997  0.997
     eigenvectors (columns):
      -0.000 -0.000  0.000 -0.000  1.000
      -0.406 -0.914 -0.000  0.000 -0.000
      -0.914  0.406 -0.000  0.000 -0.000
       0.000  0.000 -0.000  1.000  0.000
       0.000  0.000 -1.000 -0.000  0.000
     occupation matrix ns (before diag.):
       0.997 -0.000 -0.000  0.000  0.000
      -0.000  0.995 -0.000  0.000  0.000
      -0.000 -0.000  0.995  0.000  0.000
       0.000  0.000  0.000  0.997 -0.000
       0.000  0.000  0.000 -0.000  0.995
     ------------------------ ATOM   50 ------------------------
     Tr[ns( 50)] =   9.95861
     eigenvalues:
       0.995  0.995  0.995  0.997  0.997
     eigenvectors (columns):
      -0.000 -0.000 -0.000 -0.866 -0.500
      -0.341  0.707 -0.619 -0.000  0.000
      -0.876 -0.000  0.483  0.000  0.000
       0.000 -0.000  0.000 -0.500  0.866
      -0.341 -0.707 -0.619  0.000  0.000
     occupation matrix ns (before diag.):
       0.997  0.000 -0.000 -0.000 -0.000
       0.000  0.995 -0.000  0.000  0.000
      -0.000 -0.000  0.995  0.000 -0.000
      -0.000  0.000  0.000  0.997  0.000
      -0.000  0.000 -0.000  0.000  0.995
     ------------------------ ATOM   51 ------------------------
     Tr[ns( 51)] =   9.95861
     eigenvalues:
       0.995  0.995  0.995  0.997  0.997
     eigenvectors (columns):
      -0.000 -0.000 -0.000 -0.866 -0.500
      -0.876 -0.000  0.483  0.000  0.000
      -0.341  0.707 -0.619 -0.000  0.000
      -0.000  0.000 -0.000  0.500 -0.866
      -0.341 -0.707 -0.619  0.000  0.000
     occupation matrix ns (before diag.):
       0.997 -0.000  0.000  0.000 -0.000
      -0.000  0.995 -0.000 -0.000 -0.000
       0.000 -0.000  0.995 -0.000  0.000
       0.000 -0.000 -0.000  0.997 -0.000
      -0.000 -0.000  0.000 -0.000  0.995
     ------------------------ ATOM   52 ------------------------
     Tr[ns( 52)] =   9.95861
     eigenvalues:
       0.995  0.995  0.995  0.997  0.997
     eigenvectors (columns):
       0.000  0.000  0.000  1.000 -0.000
      -0.591  0.707 -0.388  0.000 -0.000
      -0.591 -0.707 -0.388  0.000  0.000
       0.000 -0.000  0.000 -0.000 -1.000
      -0.549  0.000  0.836  0.000  0.000
     occupation matrix ns (before diag.):
       0.997  0.000  0.000  0.000  0.000
       0.000  0.995 -0.000  0.000 -0.000
       0.000 -0.000  0.995 -0.000 -0.000
       0.000  0.000 -0.000  0.997 -0.000
       0.000 -0.000 -0.000 -0.000  0.995
     ------------------------ ATOM   53 ------------------------
     Tr[ns( 53)] =   4.62694
     eigenvalues:
       0.771  0.771  0.771
     eigenvectors (columns):
       0.570  0.707 -0.418
       0.570 -0.707 -0.418
       0.591 -0.000  0.807
     occupation matrix ns (before diag.):
       0.771 -0.000 -0.000
      -0.000  0.771 -0.000
      -0.000 -0.000  0.771
     ------------------------ ATOM   54 ------------------------
     Tr[ns( 54)] =   4.62694
     eigenvalues:
       0.771  0.771  0.771
     eigenvectors (columns):
      -0.591  0.000  0.807
      -0.570  0.707 -0.418
      -0.570 -0.707 -0.418
     occupation matrix ns (before diag.):
       0.771 -0.000 -0.000
      -0.000  0.771 -0.000
      -0.000 -0.000  0.771
     ------------------------ ATOM   55 ------------------------
     Tr[ns( 55)] =   4.62695
     eigenvalues:
       0.771  0.771  0.771
     eigenvectors (columns):
       0.577 -0.477 -0.663
       0.577 -0.335  0.744
       0.577  0.812 -0.082
     occupation matrix ns (before diag.):
       0.771 -0.000 -0.000
      -0.000  0.771 -0.000
      -0.000 -0.000  0.771
     ------------------------ ATOM   56 ------------------------
     Tr[ns( 56)] =   4.62694
     eigenvalues:
       0.771  0.771  0.771
     eigenvectors (columns):
       0.570 -0.707  0.418
       0.591 -0.000 -0.807
       0.570  0.707  0.418
     occupation matrix ns (before diag.):
       0.771 -0.000 -0.000
      -0.000  0.771 -0.000
      -0.000 -0.000  0.771
     ------------------------ ATOM   57 ------------------------
     Tr[ns( 57)] =   9.95861
     eigenvalues:
       0.995  0.995  0.995  0.997  0.997
     eigenvectors (columns):
      -0.000  0.000  0.000  0.078 -0.997
      -0.362 -0.019  0.932  0.000  0.000
      -0.638 -0.724 -0.263  0.000  0.000
       0.000 -0.000 -0.000  0.997  0.078
       0.680 -0.690  0.250 -0.000 -0.000
     occupation matrix ns (before diag.):
       0.997 -0.000 -0.000  0.000  0.000
      -0.000  0.995 -0.000  0.000  0.000
      -0.000 -0.000  0.995  0.000  0.000
       0.000  0.000  0.000  0.997 -0.000
       0.000  0.000  0.000 -0.000  0.995
     ------------------------ ATOM   58 ------------------------
     Tr[ns( 58)] =   9.95861
     eigenvalues:
       0.995  0.995  0.995  0.997  0.997
     eigenvectors (columns):
      -0.000 -0.000 -0.000 -0.866 -0.500
      -0.341  0.707 -0.619 -0.000  0.000
       0.876 -0.000 -0.483  0.000 -0.000
       0.000 -0.000  0.000 -0.500  0.866
       0.341  0.707  0.619 -0.000 -0.000
     occupation matrix ns (before diag.):
       0.997  0.000  0.000 -0.000  0.000
       0.000  0.995  0.000  0.000 -0.000
       0.000  0.000  0.995 -0.000 -0.000
      -0.000  0.000 -0.000  0.997 -0.000
       0.000 -0.000 -0.000 -0.000  0.995
     ------------------------ ATOM   59 ------------------------
     Tr[ns( 59)] =   9.95861
     eigenvalues:
       0.995  0.995  0.995  0.997  0.997
     eigenvectors (columns):
      -0.000 -0.000 -0.000 -0.866 -0.500
       0.876 -0.000 -0.483  0.000 -0.000
      -0.341  0.707 -0.619 -0.000  0.000
      -0.000  0.000 -0.000  0.500 -0.866
       0.341  0.707  0.619 -0.000 -0.000
     occupation matrix ns (before diag.):
       0.997  0.000  0.000  0.000  0.000
       0.000  0.995  0.000  0.000 -0.000
       0.000  0.000  0.995 -0.000 -0.000
       0.000  0.000 -0.000  0.997  0.000
       0.000 -0.000 -0.000  0.000  0.995
     ------------------------ ATOM   60 ------------------------
     Tr[ns( 60)] =   9.95861
     eigenvalues:
       0.995  0.995  0.995  0.997  0.997
     eigenvectors (columns):
      -0.000 -0.000  0.000  0.000 -1.000
       0.341 -0.707 -0.619  0.000 -0.000
       0.341  0.707 -0.619 -0.000 -0.000
       0.000  0.000  0.000  1.000  0.000
       0.876 -0.000  0.483 -0.000 -0.000
     occupation matrix ns (before diag.):
       0.997  0.000  0.000  0.000  0.000
       0.000  0.995  0.000  0.000 -0.000
       0.000  0.000  0.995 -0.000 -0.000
       0.000  0.000 -0.000  0.997 -0.000
       0.000 -0.000 -0.000 -0.000  0.995
     ------------------------ ATOM   61 ------------------------
     Tr[ns( 61)] =   4.62695
     eigenvalues:
       0.771  0.771  0.771
     eigenvectors (columns):
       0.239 -0.707 -0.665
       0.941  0.000  0.338
      -0.239 -0.707  0.665
     occupation matrix ns (before diag.):
       0.771 -0.000 -0.000
      -0.000  0.771  0.000
      -0.000  0.000  0.771
     ------------------------ ATOM   62 ------------------------
     Tr[ns( 62)] =   4.62694
     eigenvalues:
       0.771  0.771  0.771
     eigenvectors (columns):
       0.796 -0.181 -0.577
       0.555  0.599  0.577
       0.241 -0.780  0.577
     occupation matrix ns (before diag.):
       0.771 -0.000 -0.000
      -0.000  0.771  0.000
      -0.000  0.000  0.771
     ------------------------ ATOM   63 ------------------------
     Tr[ns( 63)] =   4.62695
     eigenvalues:
       0.771  0.771  0.771
     eigenvectors (columns):
       0.941 -0.000 -0.338
       0.239  0.707  0.665
       0.239 -0.707  0.665
     occupation matrix ns (before diag.):
       0.771 -0.000 -0.000
      -0.000  0.771  0.000
      -0.000  0.000  0.771
     ------------------------ ATOM   64 ------------------------
     Tr[ns( 64)] =   4.62695
     eigenvalues:
       0.771  0.771  0.771
     eigenvectors (columns):
       0.239 -0.707  0.665
      -0.239 -0.707 -0.665
       0.941  0.000 -0.338
     occupation matrix ns (before diag.):
       0.771 -0.000 -0.000
      -0.000  0.771  0.000
      -0.000  0.000  0.771

     Number of occupied Hubbard levels =  466.7378

     Atomic wfc used for Hubbard projectors are orthogonalized

     Starting wfcs from file
     Checking if some PAW data can be deallocated... 
       PAW data deallocated on  560 nodes for type:  1
       PAW data deallocated on  560 nodes for type:  2

     Band Structure Calculation
     Davidson diagonalization with overlap

     Computing kpt #:     1  of     1 on this pool
     total cpu time spent up to now is       43.7 secs

     ethr =  1.74E-10,  avg # of iterations = 58.2

     total cpu time spent up to now is       43.8 secs

     End of band structure calculation

          k = 0.0000 0.0000 0.0000 (158355 PWs)   bands (ev):

    -7.2735  -6.7300  -6.7300  -6.7300  -6.7300  -6.7300  -6.7299  -6.4034
    -6.4034  -6.4034  -6.4034  -6.4034  -6.4034  -6.4034  -6.4034  -6.4034
    -6.4034  -6.4034  -6.4034  -6.3821  -6.3821  -6.3821  -6.3821  -6.0783
    -6.0783  -6.0783  -6.0723  -6.0723  -6.0723  -6.0722  -6.0722  -6.0722
    -1.2891  -1.2891  -1.2891  -1.2891  -1.2891  -1.2891  -1.2685  -1.2685
    -1.2685  -1.2663  -1.2663  -1.2663  -1.1538  -1.1538  -1.1538  -1.1537
    -1.1537  -1.1537  -1.1537  -1.1537  -1.1425  -1.1425  -1.1425  -1.1425
    -1.1425  -1.1425  -1.1425  -1.1425  -1.1425  -1.1425  -1.1425  -1.1425
    -1.1276  -1.1276  -1.1276  -1.1276  -1.1275  -1.1275  -1.1219  -1.1219
    -1.1219  -1.1219  -1.1219  -1.1219  -1.1219  -1.1219  -1.1219  -1.1218
    -1.1218  -1.1218  -1.1131  -1.1131  -1.1131  -1.1131  -1.1131  -1.1131
    -1.1131  -1.1131  -1.1131  -1.1130  -1.1130  -1.1130  -0.9892  -0.9892
    -0.9892  -0.9892  -0.9892  -0.9892  -0.9493  -0.9493  -0.9493  -0.9493
    -0.9493  -0.9493  -0.9493  -0.9492  -0.9492  -0.9492  -0.9492  -0.9492
    -0.9302  -0.9302  -0.9302  -0.9302  -0.9302  -0.9302  -0.8352  -0.8352
    -0.8352  -0.8352  -0.8351  -0.8351  -0.8165  -0.8165  -0.8165  -0.8165
    -0.8165  -0.8165  -0.8160  -0.8160  -0.8160  -0.8160  -0.8160  -0.8160
    -0.7980  -0.7980  -0.7980  -0.7980  -0.7980  -0.7980  -0.7980  -0.7979
    -0.7979  -0.7979  -0.7978  -0.7978  -0.7846  -0.7846  -0.7554  -0.7554
    -0.7554  -0.7554  -0.7554  -0.7554  -0.7553  -0.7553  -0.7497  -0.7497
    -0.7497  -0.7497  -0.7496  -0.7496  -0.7153  -0.7153  -0.7153  -0.7153
    -0.7153  -0.7153  -0.7153  -0.7153  -0.7153  -0.7153  -0.7152  -0.7152
    -0.7148  -0.7148  -0.7148  -0.5534  -0.5533  -0.5533  -0.5533  -0.5253
    -0.5253  -0.5253  -0.3600  -0.3600  -0.3600  -0.3599  -0.3599  -0.3599
    -0.0078  -0.0078  -0.0078  -0.0078   0.6173   0.6173   0.6173   0.6275
     0.6275   0.6275   0.6275   0.6275   0.6276   1.2498   1.2498   1.2498
     1.2498   1.2498   1.2498   1.2498   1.2498   1.2498   1.2498   1.2498
     1.2498   2.4137   2.4138   2.4138   2.4138   2.4138   2.4138   2.4642
     2.4642   2.4642   2.4642   2.4642   2.4642   2.5797   2.5797   2.5797
     2.5797   2.5797   2.5797   2.6448   2.6448   2.6448   2.6448   2.6448
     2.6448   2.6448   2.6449   2.6449   2.6449   2.6449   2.6449   2.8886
     2.8886   2.8886   2.8886   2.8886   2.8886   3.8210   3.8210   3.8210
     3.8210   3.8210   3.8210   3.8210   3.8210   3.8210   3.8210   3.8210
     3.8210   4.1261   4.1261   4.1261   4.1261   4.1261   4.1261   4.1261
     4.1261   4.1261   4.1261   4.1261   4.1261   4.1628   4.1628   4.1628
     4.1628   4.1628   4.1628   4.1628   4.1628   4.9583   4.9583   4.9583
     7.6273   8.8067   8.8067   8.8067   8.8067   9.0136   9.0136   9.0136
     9.4343   9.4343   9.4343   9.8453   9.8453   9.8453   9.8453   9.8453
     9.8454  10.1123  10.1123  10.1123  10.1123  10.1123  10.1123  10.2282
    10.2282  10.2282  10.2282  10.2282  10.2282  10.2282  10.2282  10.2282
    10.2282  10.2282  10.2283  11.1081  11.1081  11.1081  11.1081  11.1081
    11.1081  11.2738  11.2738  11.2738  11.2738  11.2738  11.2739  11.9327
    11.9327  11.9327  12.0647  12.0647  12.0647  12.0647  12.0647  12.0647
    12.0647

     occupation numbers 
     1.0000   1.0000   1.0000   1.0000   1.0000   1.0000   1.0000   1.0000
     1.0000   1.0000   1.0000   1.0000   1.0000   1.0000   1.0000   1.0000
     1.0000   1.0000   1.0000   1.0000   1.0000   1.0000   1.0000   1.0000
     1.0000   1.0000   1.0000   1.0000   1.0000   1.0000   1.0000   1.0000
     1.0000   1.0000   1.0000   1.0000   1.0000   1.0000   1.0000   1.0000
     1.0000   1.0000   1.0000   1.0000   1.0000   1.0000   1.0000   1.0000
     1.0000   1.0000   1.0000   1.0000   1.0000   1.0000   1.0000   1.0000
     1.0000   1.0000   1.0000   1.0000   1.0000   1.0000   1.0000   1.0000
     1.0000   1.0000   1.0000   1.0000   1.0000   1.0000   1.0000   1.0000
     1.0000   1.0000   1.0000   1.0000   1.0000   1.0000   1.0000   1.0000
     1.0000   1.0000   1.0000   1.0000   1.0000   1.0000   1.0000   1.0000
     1.0000   1.0000   1.0000   1.0000   1.0000   1.0000   1.0000   1.0000
     1.0000   1.0000   1.0000   1.0000   1.0000   1.0000   1.0000   1.0000
     1.0000   1.0000   1.0000   1.0000   1.0000   1.0000   1.0000   1.0000
     1.0000   1.0000   1.0000   1.0000   1.0000   1.0000   1.0000   1.0000
     1.0000   1.0000   1.0000   1.0000   1.0000   1.0000   1.0000   1.0000
     1.0000   1.0000   1.0000   1.0000   1.0000   1.0000   1.0000   1.0000
     1.0000   1.0000   1.0000   1.0000   1.0000   1.0000   1.0000   1.0000
     1.0000   1.0000   1.0000   1.0000   1.0000   1.0000   1.0000   1.0000
     1.0000   1.0000   1.0000   1.0000   1.0000   1.0000   1.0000   1.0000
     1.0000   1.0000   1.0000   1.0000   1.0000   1.0000   1.0000   1.0000
     1.0000   1.0000   1.0000   1.0000   1.0000   1.0000   1.0000   1.0000
     1.0000   1.0000   1.0000   1.0000   1.0000   1.0000   1.0000   1.0000
     1.0000   1.0000   1.0000   1.0000   1.0000   1.0000   1.0000   1.0000
     1.0000   1.0000   1.0000   1.0000   1.0000   1.0000   1.0000   1.0000
     1.0000   1.0000   1.0000   1.0000   1.0000   1.0000   1.0000   1.0000
     1.0000   1.0000   1.0000   1.0000   1.0000   1.0000   1.0000   1.0000
     1.0000   1.0000   1.0000   1.0000   1.0000   1.0000   1.0000   1.0000
     1.0000   1.0000   1.0000   1.0000   1.0000   1.0000   1.0000   1.0000
     1.0000   1.0000   1.0000   1.0000   1.0000   1.0000   1.0000   1.0000
     1.0000   1.0000   1.0000   1.0000   1.0000   1.0000   1.0000   1.0000
     1.0000   1.0000   1.0000   1.0000   1.0000   1.0000   1.0000   1.0000
     1.0000   1.0000   1.0000   1.0000   1.0000   1.0000   1.0000   1.0000
     1.0000   1.0000   1.0000   1.0000   1.0000   1.0000   1.0000   1.0000
     1.0000   1.0000   1.0000   1.0000   1.0000   1.0000   1.0000   1.0000
     1.0000   1.0000   1.0000   1.0000   1.0000   1.0000   1.0000   1.0000
     0.0000   0.0000   0.0000   0.0000   0.0000   0.0000   0.0000   0.0000
     0.0000   0.0000   0.0000   0.0000   0.0000   0.0000   0.0000   0.0000
     0.0000   0.0000   0.0000   0.0000   0.0000   0.0000   0.0000   0.0000
     0.0000   0.0000   0.0000   0.0000   0.0000   0.0000   0.0000   0.0000
     0.0000   0.0000   0.0000   0.0000   0.0000   0.0000   0.0000   0.0000
     0.0000   0.0000   0.0000   0.0000   0.0000   0.0000   0.0000   0.0000
     0.0000   0.0000   0.0000   0.0000   0.0000   0.0000   0.0000   0.0000
     0.0000

          k = 0.0000 0.0000 0.2500 (158119 PWs)   bands (ev):

    -7.2357  -6.9494  -6.7053  -6.7053  -6.7053  -6.7053  -6.5291  -6.5291
    -6.5291  -6.5291  -6.4951  -6.4002  -6.4002  -6.4002  -6.4002  -6.3851
    -6.3851  -6.3851  -6.3851  -6.2770  -6.2770  -6.2770  -6.2770  -6.1325
    -6.0975  -6.0975  -6.0975  -6.0975  -6.0774  -6.0774  -6.0732  -6.0732
    -1.2880  -1.2812  -1.2710  -1.2710  -1.2710  -1.2710  -1.2702  -1.2681
    -1.2565  -1.2565  -1.2476  -1.2476  -1.1816  -1.1816  -1.1537  -1.1537
    -1.1537  -1.1537  -1.1529  -1.1529  -1.1529  -1.1529  -1.1484  -1.1484
    -1.1483  -1.1483  -1.1472  -1.1472  -1.1454  -1.1454  -1.1454  -1.1453
    -1.1424  -1.1424  -1.1424  -1.1424  -1.1356  -1.1356  -1.1356  -1.1356
    -1.1271  -1.1271  -1.1271  -1.1271  -1.1261  -1.1260  -1.1260  -1.1260
    -1.1197  -1.1197  -1.1197  -1.1197  -1.1175  -1.1175  -1.1175  -1.1175
    -1.0843  -1.0843  -1.0843  -1.0842  -1.0555  -1.0555  -1.0540  -1.0540
    -1.0540  -1.0539  -1.0112  -1.0112  -1.0112  -1.0112  -0.9822  -0.9822
    -0.9471  -0.9471  -0.9410  -0.9410  -0.9260  -0.9259  -0.9198  -0.9197
    -0.9197  -0.9197  -0.8767  -0.8766  -0.8617  -0.8617  -0.8617  -0.8617
    -0.8251  -0.8251  -0.8251  -0.8250  -0.8134  -0.8134  -0.8134  -0.8133
    -0.8123  -0.8110  -0.8110  -0.8110  -0.8110  -0.7987  -0.7987  -0.7987
    -0.7986  -0.7938  -0.7911  -0.7911  -0.7911  -0.7910  -0.7887  -0.7832
    -0.7832  -0.7831  -0.7831  -0.7819  -0.7754  -0.7754  -0.7713  -0.7713
    -0.7713  -0.7712  -0.7631  -0.7611  -0.7611  -0.7611  -0.7610  -0.7501
    -0.7501  -0.7501  -0.7501  -0.7364  -0.7363  -0.7363  -0.7363  -0.7362
    -0.7209  -0.7209  -0.7174  -0.7123  -0.7123  -0.7123  -0.7123  -0.6518
    -0.6518  -0.6518  -0.6518  -0.6312  -0.6311  -0.6311  -0.6311  -0.6008
    -0.5001  -0.5001  -0.3983  -0.3983  -0.3983  -0.3982  -0.3838  -0.3838
     0.1737   0.1737   0.1737   0.1737   0.6186   0.6186   0.6259   0.6259
     0.6463   0.6463   0.6463   0.6463   0.8153   0.9448   0.9448   0.9448
     0.9449   1.0007   1.0007   1.0007   1.0007   1.6260   1.6260   1.6260
     1.6260   1.8982   2.2127   2.2127   2.2127   2.2127   2.3573   2.3573
     2.3573   2.3573   2.4063   2.4063   2.4063   2.4063   2.4801   2.4801
     2.5234   2.5234   2.8151   2.8151   2.8228   2.8228   2.8489   2.8489
     2.8489   2.8489   2.9390   2.9390   2.9390   2.9390   2.9563   2.9563
     3.0116   3.0116   3.0116   3.0116   3.2976   3.4505   3.4505   3.7005
     3.7005   3.7005   3.7005   3.8116   3.8116   3.8116   3.8116   3.9384
     3.9384   3.9384   3.9384   3.9678   3.9678   3.9678   3.9678   4.1314
     4.1314   4.1314   4.1314   4.1574   4.1574   4.1574   4.1574   4.2192
     4.2192   4.2273   4.2274   4.2274   4.2274   4.6580   4.8581   4.8581
     7.9623   9.0066   9.0066   9.0066   9.0066   9.0877   9.2269   9.2269
     9.3963   9.5054   9.6393   9.6393   9.6494   9.8866   9.9141   9.9141
     9.9141   9.9142  10.0043  10.0043  10.0043  10.0043  10.1800  10.1800
    10.1800  10.1800  10.3314  10.3314  10.3314  10.3314  10.3431  10.3431
    10.3431  10.3431  10.6037  10.6037  10.6555  10.8817  10.8817  10.9063
    10.9063  10.9063  10.9063  11.4220  11.4220  11.4220  11.4220  11.7254
    11.7743  11.7743  11.7743  11.7743  11.8857  11.8857  11.8857  11.8857
    11.9489

     occupation numbers 
     1.0000   1.0000   1.0000   1.0000   1.0000   1.0000   1.0000   1.0000
     1.0000   1.0000   1.0000   1.0000   1.0000   1.0000   1.0000   1.0000
     1.0000   1.0000   1.0000   1.0000   1.0000   1.0000   1.0000   1.0000
     1.0000   1.0000   1.0000   1.0000   1.0000   1.0000   1.0000   1.0000
     1.0000   1.0000   1.0000   1.0000   1.0000   1.0000   1.0000   1.0000
     1.0000   1.0000   1.0000   1.0000   1.0000   1.0000   1.0000   1.0000
     1.0000   1.0000   1.0000   1.0000   1.0000   1.0000   1.0000   1.0000
     1.0000   1.0000   1.0000   1.0000   1.0000   1.0000   1.0000   1.0000
     1.0000   1.0000   1.0000   1.0000   1.0000   1.0000   1.0000   1.0000
     1.0000   1.0000   1.0000   1.0000   1.0000   1.0000   1.0000   1.0000
     1.0000   1.0000   1.0000   1.0000   1.0000   1.0000   1.0000   1.0000
     1.0000   1.0000   1.0000   1.0000   1.0000   1.0000   1.0000   1.0000
     1.0000   1.0000   1.0000   1.0000   1.0000   1.0000   1.0000   1.0000
     1.0000   1.0000   1.0000   1.0000   1.0000   1.0000   1.0000   1.0000
     1.0000   1.0000   1.0000   1.0000   1.0000   1.0000   1.0000   1.0000
     1.0000   1.0000   1.0000   1.0000   1.0000   1.0000   1.0000   1.0000
     1.0000   1.0000   1.0000   1.0000   1.0000   1.0000   1.0000   1.0000
     1.0000   1.0000   1.0000   1.0000   1.0000   1.0000   1.0000   1.0000
     1.0000   1.0000   1.0000   1.0000   1.0000   1.0000   1.0000   1.0000
     1.0000   1.0000   1.0000   1.0000   1.0000   1.0000   1.0000   1.0000
     1.0000   1.0000   1.0000   1.0000   1.0000   1.0000   1.0000   1.0000
     1.0000   1.0000   1.0000   1.0000   1.0000   1.0000   1.0000   1.0000
     1.0000   1.0000   1.0000   1.0000   1.0000   1.0000   1.0000   1.0000
     1.0000   1.0000   1.0000   1.0000   1.0000   1.0000   1.0000   1.0000
     1.0000   1.0000   1.0000   1.0000   1.0000   1.0000   1.0000   1.0000
     1.0000   1.0000   1.0000   1.0000   1.0000   1.0000   1.0000   1.0000
     1.0000   1.0000   1.0000   1.0000   1.0000   1.0000   1.0000   1.0000
     1.0000   1.0000   1.0000   1.0000   1.0000   1.0000   1.0000   1.0000
     1.0000   1.0000   1.0000   1.0000   1.0000   1.0000   1.0000   1.0000
     1.0000   1.0000   1.0000   1.0000   1.0000   1.0000   1.0000   1.0000
     1.0000   1.0000   1.0000   1.0000   1.0000   1.0000   1.0000   1.0000
     1.0000   1.0000   1.0000   1.0000   1.0000   1.0000   1.0000   1.0000
     1.0000   1.0000   1.0000   1.0000   1.0000   1.0000   1.0000   1.0000
     1.0000   1.0000   1.0000   1.0000   1.0000   1.0000   1.0000   1.0000
     1.0000   1.0000   1.0000   1.0000   1.0000   1.0000   1.0000   1.0000
     1.0000   1.0000   1.0000   1.0000   1.0000   1.0000   1.0000   1.0000
     0.0000   0.0000   0.0000   0.0000   0.0000   0.0000   0.0000   0.0000
     0.0000   0.0000   0.0000   0.0000   0.0000   0.0000   0.0000   0.0000
     0.0000   0.0000   0.0000   0.0000   0.0000   0.0000   0.0000   0.0000
     0.0000   0.0000   0.0000   0.0000   0.0000   0.0000   0.0000   0.0000
     0.0000   0.0000   0.0000   0.0000   0.0000   0.0000   0.0000   0.0000
     0.0000   0.0000   0.0000   0.0000   0.0000   0.0000   0.0000   0.0000
     0.0000   0.0000   0.0000   0.0000   0.0000   0.0000   0.0000   0.0000
     0.0000

          k = 0.0000 0.0000-0.5000 (157924 PWs)   bands (ev):

    -7.1245  -7.1244  -6.6350  -6.6350  -6.6350  -6.6350  -6.6349  -6.6349
    -6.6349  -6.6349  -6.3926  -6.3926  -6.3926  -6.3926  -6.3925  -6.3925
    -6.3925  -6.3925  -6.2825  -6.2824  -6.1695  -6.1695  -6.1695  -6.1695
    -6.1694  -6.1694  -6.1694  -6.1694  -6.0754  -6.0754  -6.0753  -6.0753
    -1.2796  -1.2795  -1.2715  -1.2715  -1.2277  -1.2277  -1.2277  -1.2277
    -1.2191  -1.2191  -1.2191  -1.2191  -1.2191  -1.2191  -1.2190  -1.2190
    -1.1970  -1.1970  -1.1970  -1.1969  -1.1501  -1.1501  -1.1501  -1.1501
    -1.1501  -1.1501  -1.1501  -1.1499  -1.1352  -1.1352  -1.1352  -1.1352
    -1.1352  -1.1351  -1.1351  -1.1351  -1.1347  -1.1347  -1.1347  -1.1347
    -1.1346  -1.1346  -1.1345  -1.1345  -1.1288  -1.1288  -1.1288  -1.1288
    -1.1287  -1.1287  -1.1287  -1.1287  -1.1015  -1.1014  -1.1014  -1.1014
    -1.1014  -1.1014  -1.1014  -1.1012  -1.0507  -1.0507  -1.0507  -1.0507
    -1.0507  -1.0506  -1.0506  -1.0505  -0.9929  -0.9929  -0.9928  -0.9928
    -0.9634  -0.9634  -0.9633  -0.9633  -0.9102  -0.9102  -0.9102  -0.9101
    -0.8422  -0.8422  -0.8421  -0.8421  -0.8421  -0.8421  -0.8421  -0.8420
    -0.8365  -0.8365  -0.8365  -0.8365  -0.8364  -0.8364  -0.8364  -0.8363
    -0.8013  -0.8013  -0.8013  -0.8013  -0.8012  -0.8012  -0.8011  -0.8011
    -0.7996  -0.7995  -0.7878  -0.7878  -0.7878  -0.7878  -0.7877  -0.7877
    -0.7877  -0.7875  -0.7756  -0.7756  -0.7755  -0.7755  -0.7755  -0.7755
    -0.7754  -0.7752  -0.7744  -0.7743  -0.7480  -0.7480  -0.7479  -0.7479
    -0.7478  -0.7478  -0.7477  -0.7477  -0.7405  -0.7405  -0.7405  -0.7404
    -0.7250  -0.7250  -0.7211  -0.7211  -0.6973  -0.6973  -0.6973  -0.6973
    -0.6973  -0.6973  -0.6972  -0.6972  -0.5127  -0.5127  -0.5127  -0.5127
    -0.5127  -0.5126  -0.5126  -0.5126  -0.4414  -0.4414  -0.4413  -0.4413
     0.5597   0.5597   0.5597   0.5597   0.5597   0.5597   0.5598   0.5598
     0.6220   0.6221   0.6221   0.6221   0.7398   0.7398   0.7398   0.7398
     0.7398   0.7398   0.7398   0.7399   1.2881   1.2881   2.0350   2.0350
     2.0350   2.0350   2.0350   2.0350   2.0350   2.0350   2.1974   2.1974
     2.1974   2.1974   2.1974   2.1974   2.1974   2.1974   2.6440   2.6440
     2.6440   2.6441   2.6698   2.6698   2.6699   2.6699   3.1512   3.1512
     3.1513   3.1513   3.3470   3.3470   3.3470   3.3471   3.3471   3.3471
     3.3471   3.3471   3.3942   3.3942   3.3942   3.3942   3.3943   3.3943
     3.3943   3.3943   3.4885   3.4885   3.4885   3.4885   3.4885   3.4885
     3.4885   3.4886   4.0184   4.0185   4.1343   4.1343   4.1343   4.1343
     4.1343   4.1343   4.1343   4.1343   4.1443   4.1443   4.1443   4.1443
     4.1444   4.1444   4.1444   4.1444   4.5885   4.5885   4.5886   4.5886
     8.6741   8.6742   9.3043   9.3044   9.4914   9.4914   9.4914   9.4914
     9.4915   9.4915   9.4915   9.4915   9.6922   9.6922   9.8115   9.8115
     9.8116   9.8116  10.0665  10.0665  10.0666  10.0666  10.0666  10.0666
    10.0666  10.0666  10.1868  10.1868  10.1869  10.1869  10.5943  10.5943
    10.5943  10.5943  10.5944  10.5944  10.5944  10.5944  10.9325  10.9325
    10.9325  10.9325  10.9325  10.9326  10.9326  10.9326  11.2328  11.2328
    11.6441  11.6441  11.6441  11.6441  11.6441  11.6441  11.6441  11.6441
    12.0284

     occupation numbers 
     1.0000   1.0000   1.0000   1.0000   1.0000   1.0000   1.0000   1.0000
     1.0000   1.0000   1.0000   1.0000   1.0000   1.0000   1.0000   1.0000
     1.0000   1.0000   1.0000   1.0000   1.0000   1.0000   1.0000   1.0000
     1.0000   1.0000   1.0000   1.0000   1.0000   1.0000   1.0000   1.0000
     1.0000   1.0000   1.0000   1.0000   1.0000   1.0000   1.0000   1.0000
     1.0000   1.0000   1.0000   1.0000   1.0000   1.0000   1.0000   1.0000
     1.0000   1.0000   1.0000   1.0000   1.0000   1.0000   1.0000   1.0000
     1.0000   1.0000   1.0000   1.0000   1.0000   1.0000   1.0000   1.0000
     1.0000   1.0000   1.0000   1.0000   1.0000   1.0000   1.0000   1.0000
     1.0000   1.0000   1.0000   1.0000   1.0000   1.0000   1.0000   1.0000
     1.0000   1.0000   1.0000   1.0000   1.0000   1.0000   1.0000   1.0000
     1.0000   1.0000   1.0000   1.0000   1.0000   1.0000   1.0000   1.0000
     1.0000   1.0000   1.0000   1.0000   1.0000   1.0000   1.0000   1.0000
     1.0000   1.0000   1.0000   1.0000   1.0000   1.0000   1.0000   1.0000
     1.0000   1.0000   1.0000   1.0000   1.0000   1.0000   1.0000   1.0000
     1.0000   1.0000   1.0000   1.0000   1.0000   1.0000   1.0000   1.0000
     1.0000   1.0000   1.0000   1.0000   1.0000   1.0000   1.0000   1.0000
     1.0000   1.0000   1.0000   1.0000   1.0000   1.0000   1.0000   1.0000
     1.0000   1.0000   1.0000   1.0000   1.0000   1.0000   1.0000   1.0000
     1.0000   1.0000   1.0000   1.0000   1.0000   1.0000   1.0000   1.0000
     1.0000   1.0000   1.0000   1.0000   1.0000   1.0000   1.0000   1.0000
     1.0000   1.0000   1.0000   1.0000   1.0000   1.0000   1.0000   1.0000
     1.0000   1.0000   1.0000   1.0000   1.0000   1.0000   1.0000   1.0000
     1.0000   1.0000   1.0000   1.0000   1.0000   1.0000   1.0000   1.0000
     1.0000   1.0000   1.0000   1.0000   1.0000   1.0000   1.0000   1.0000
     1.0000   1.0000   1.0000   1.0000   1.0000   1.0000   1.0000   1.0000
     1.0000   1.0000   1.0000   1.0000   1.0000   1.0000   1.0000   1.0000
     1.0000   1.0000   1.0000   1.0000   1.0000   1.0000   1.0000   1.0000
[...]
     4.4921   4.4921   4.4921   4.4921   4.5795   4.5795   4.6902   4.6902
     8.8128   8.8129   9.1045   9.1045   9.3904   9.3904   9.3904   9.3904
     9.5504   9.5505   9.6753   9.6753   9.6753   9.6753   9.7744   9.7744
     9.7745   9.7745   9.8445   9.8446   9.9774   9.9774   9.9775   9.9775
    10.0297  10.0297  10.0297  10.0297  10.1777  10.1778  10.3783  10.3783
    10.3784  10.3784  10.6768  10.6768  10.6768  10.6768  10.9696  10.9696
    10.9696  10.9696  11.2914  11.2914  11.2915  11.2915  11.5507  11.5508
    11.6494  11.6494  11.6494  11.6495  11.6645  11.6645  11.6645  11.6645
    11.6731

     occupation numbers 
     1.0000   1.0000   1.0000   1.0000   1.0000   1.0000   1.0000   1.0000
     1.0000   1.0000   1.0000   1.0000   1.0000   1.0000   1.0000   1.0000
     1.0000   1.0000   1.0000   1.0000   1.0000   1.0000   1.0000   1.0000
     1.0000   1.0000   1.0000   1.0000   1.0000   1.0000   1.0000   1.0000
     1.0000   1.0000   1.0000   1.0000   1.0000   1.0000   1.0000   1.0000
     1.0000   1.0000   1.0000   1.0000   1.0000   1.0000   1.0000   1.0000
     1.0000   1.0000   1.0000   1.0000   1.0000   1.0000   1.0000   1.0000
     1.0000   1.0000   1.0000   1.0000   1.0000   1.0000   1.0000   1.0000
     1.0000   1.0000   1.0000   1.0000   1.0000   1.0000   1.0000   1.0000
     1.0000   1.0000   1.0000   1.0000   1.0000   1.0000   1.0000   1.0000
     1.0000   1.0000   1.0000   1.0000   1.0000   1.0000   1.0000   1.0000
     1.0000   1.0000   1.0000   1.0000   1.0000   1.0000   1.0000   1.0000
     1.0000   1.0000   1.0000   1.0000   1.0000   1.0000   1.0000   1.0000
     1.0000   1.0000   1.0000   1.0000   1.0000   1.0000   1.0000   1.0000
     1.0000   1.0000   1.0000   1.0000   1.0000   1.0000   1.0000   1.0000
     1.0000   1.0000   1.0000   1.0000   1.0000   1.0000   1.0000   1.0000
     1.0000   1.0000   1.0000   1.0000   1.0000   1.0000   1.0000   1.0000
     1.0000   1.0000   1.0000   1.0000   1.0000   1.0000   1.0000   1.0000
     1.0000   1.0000   1.0000   1.0000   1.0000   1.0000   1.0000   1.0000
     1.0000   1.0000   1.0000   1.0000   1.0000   1.0000   1.0000   1.0000
     1.0000   1.0000   1.0000   1.0000   1.0000   1.0000   1.0000   1.0000
     1.0000   1.0000   1.0000   1.0000   1.0000   1.0000   1.0000   1.0000
     1.0000   1.0000   1.0000   1.0000   1.0000   1.0000   1.0000   1.0000
     1.0000   1.0000   1.0000   1.0000   1.0000   1.0000   1.0000   1.0000
     1.0000   1.0000   1.0000   1.0000   1.0000   1.0000   1.0000   1.0000
     1.0000   1.0000   1.0000   1.0000   1.0000   1.0000   1.0000   1.0000
     1.0000   1.0000   1.0000   1.0000   1.0000   1.0000   1.0000   1.0000
     1.0000   1.0000   1.0000   1.0000   1.0000   1.0000   1.0000   1.0000
     1.0000   1.0000   1.0000   1.0000   1.0000   1.0000   1.0000   1.0000
     1.0000   1.0000   1.0000   1.0000   1.0000   1.0000   1.0000   1.0000
     1.0000   1.0000   1.0000   1.0000   1.0000   1.0000   1.0000   1.0000
     1.0000   1.0000   1.0000   1.0000   1.0000   1.0000   1.0000   1.0000
     1.0000   1.0000   1.0000   1.0000   1.0000   1.0000   1.0000   1.0000
     1.0000   1.0000   1.0000   1.0000   1.0000   1.0000   1.0000   1.0000
     1.0000   1.0000   1.0000   1.0000   1.0000   1.0000   1.0000   1.0000
     1.0000   1.0000   1.0000   1.0000   1.0000   1.0000   1.0000   1.0000
     0.0000   0.0000   0.0000   0.0000   0.0000   0.0000   0.0000   0.0000
     0.0000   0.0000   0.0000   0.0000   0.0000   0.0000   0.0000   0.0000
     0.0000   0.0000   0.0000   0.0000   0.0000   0.0000   0.0000   0.0000
     0.0000   0.0000   0.0000   0.0000   0.0000   0.0000   0.0000   0.0000
     0.0000   0.0000   0.0000   0.0000   0.0000   0.0000   0.0000   0.0000
     0.0000   0.0000   0.0000   0.0000   0.0000   0.0000   0.0000   0.0000
     0.0000   0.0000   0.0000   0.0000   0.0000   0.0000   0.0000   0.0000
     0.0000

          k = 0.2500-0.5000-0.5000 (158052 PWs)   bands (ev):

    -6.9564  -6.9564  -6.9564  -6.9563  -6.7292  -6.7291  -6.7291  -6.7291
    -6.3901  -6.3901  -6.3901  -6.3900  -6.2452  -6.2452  -6.2452  -6.2452
    -6.2452  -6.2452  -6.2451  -6.2451  -6.2345  -6.2345  -6.2345  -6.2345
    -6.2345  -6.2345  -6.2344  -6.2344  -6.1374  -6.1373  -6.1373  -6.1372
    -1.2328  -1.2328  -1.2327  -1.2327  -1.2156  -1.2156  -1.2156  -1.2156
    -1.2021  -1.2021  -1.2021  -1.2020  -1.1945  -1.1945  -1.1945  -1.1944
    -1.1877  -1.1877  -1.1877  -1.1877  -1.1876  -1.1876  -1.1876  -1.1876
    -1.1754  -1.1754  -1.1754  -1.1753  -1.1746  -1.1745  -1.1745  -1.1745
    -1.1699  -1.1699  -1.1699  -1.1698  -1.1494  -1.1494  -1.1494  -1.1494
    -1.1493  -1.1493  -1.1493  -1.1493  -1.1334  -1.1333  -1.1333  -1.1333
    -1.0921  -1.0920  -1.0920  -1.0920  -1.0693  -1.0693  -1.0693  -1.0693
    -1.0693  -1.0692  -1.0692  -1.0692  -1.0324  -1.0324  -1.0323  -1.0323
    -1.0323  -1.0323  -1.0323  -1.0321  -1.0060  -1.0059  -1.0059  -1.0059
    -0.9701  -0.9701  -0.9701  -0.9701  -0.9543  -0.9543  -0.9543  -0.9543
    -0.9542  -0.9542  -0.9542  -0.9542  -0.8897  -0.8897  -0.8897  -0.8897
    -0.8616  -0.8615  -0.8615  -0.8615  -0.8615  -0.8615  -0.8615  -0.8614
    -0.7944  -0.7944  -0.7944  -0.7943  -0.7883  -0.7883  -0.7883  -0.7882
    -0.7760  -0.7760  -0.7760  -0.7759  -0.7675  -0.7675  -0.7675  -0.7674
    -0.7569  -0.7568  -0.7568  -0.7568  -0.7568  -0.7568  -0.7567  -0.7566
    -0.7485  -0.7485  -0.7485  -0.7484  -0.7446  -0.7446  -0.7446  -0.7445
    -0.7399  -0.7399  -0.7399  -0.7399  -0.7399  -0.7398  -0.7398  -0.7397
    -0.7167  -0.7167  -0.7167  -0.7166  -0.6384  -0.6383  -0.6383  -0.6383
    -0.6383  -0.6383  -0.6383  -0.6383  -0.5267  -0.5267  -0.5267  -0.5267
    -0.5266  -0.5266  -0.5266  -0.5266  -0.4624  -0.4624  -0.4624  -0.4623
     0.4849   0.4849   0.4849   0.4849   0.4849   0.4849   0.4849   0.4850
     0.6187   0.6188   0.6188   0.6188   0.9905   0.9906   0.9906   0.9906
     0.9950   0.9950   0.9950   0.9950   0.9950   0.9950   0.9950   0.9951
     1.8102   1.8103   1.8103   1.8103   2.2771   2.2771   2.2771   2.2772
     2.7523   2.7523   2.7523   2.7523   2.7524   2.7524   2.7524   2.7524
     2.7835   2.7835   2.7835   2.7835   2.7835   2.7835   2.7836   2.7836
     2.8561   2.8561   2.8561   2.8562   3.3047   3.3047   3.3047   3.3047
     3.3048   3.3048   3.3048   3.3048   3.3327   3.3327   3.3327   3.3327
     3.3453   3.3453   3.3453   3.3454   3.5863   3.5863   3.5863   3.5863
     3.5863   3.5864   3.5864   3.5864   3.7084   3.7084   3.7085   3.7085
     4.2746   4.2746   4.2746   4.2746   4.3686   4.3687   4.3687   4.3688
     4.3749   4.3749   4.3749   4.3750   4.7091   4.7091   4.7091   4.7091
     9.0016   9.0016   9.0016   9.0017   9.1222   9.1223   9.1223   9.1223
     9.6770   9.6770   9.6770   9.6771   9.7847   9.7848   9.7848   9.7848
     9.8471   9.8471   9.8471   9.8471   9.8472   9.8472   9.8472   9.8472
    10.0175  10.0175  10.0175  10.0175  10.0176  10.0176  10.0176  10.0176
    10.7905  10.7905  10.7905  10.7905  10.7905  10.7905  10.7905  10.7905
    11.3055  11.3055  11.3055  11.3055  11.4500  11.4501  11.4501  11.4501
    11.5472  11.5472  11.5472  11.5472  11.5472  11.5473  11.5473  11.5473
    11.8487

     occupation numbers 
     1.0000   1.0000   1.0000   1.0000   1.0000   1.0000   1.0000   1.0000
     1.0000   1.0000   1.0000   1.0000   1.0000   1.0000   1.0000   1.0000
     1.0000   1.0000   1.0000   1.0000   1.0000   1.0000   1.0000   1.0000
     1.0000   1.0000   1.0000   1.0000   1.0000   1.0000   1.0000   1.0000
     1.0000   1.0000   1.0000   1.0000   1.0000   1.0000   1.0000   1.0000
     1.0000   1.0000   1.0000   1.0000   1.0000   1.0000   1.0000   1.0000
     1.0000   1.0000   1.0000   1.0000   1.0000   1.0000   1.0000   1.0000
     1.0000   1.0000   1.0000   1.0000   1.0000   1.0000   1.0000   1.0000
     1.0000   1.0000   1.0000   1.0000   1.0000   1.0000   1.0000   1.0000
     1.0000   1.0000   1.0000   1.0000   1.0000   1.0000   1.0000   1.0000
     1.0000   1.0000   1.0000   1.0000   1.0000   1.0000   1.0000   1.0000
     1.0000   1.0000   1.0000   1.0000   1.0000   1.0000   1.0000   1.0000
     1.0000   1.0000   1.0000   1.0000   1.0000   1.0000   1.0000   1.0000
     1.0000   1.0000   1.0000   1.0000   1.0000   1.0000   1.0000   1.0000
     1.0000   1.0000   1.0000   1.0000   1.0000   1.0000   1.0000   1.0000
     1.0000   1.0000   1.0000   1.0000   1.0000   1.0000   1.0000   1.0000
     1.0000   1.0000   1.0000   1.0000   1.0000   1.0000   1.0000   1.0000
     1.0000   1.0000   1.0000   1.0000   1.0000   1.0000   1.0000   1.0000
     1.0000   1.0000   1.0000   1.0000   1.0000   1.0000   1.0000   1.0000
     1.0000   1.0000   1.0000   1.0000   1.0000   1.0000   1.0000   1.0000
     1.0000   1.0000   1.0000   1.0000   1.0000   1.0000   1.0000   1.0000
     1.0000   1.0000   1.0000   1.0000   1.0000   1.0000   1.0000   1.0000
     1.0000   1.0000   1.0000   1.0000   1.0000   1.0000   1.0000   1.0000
     1.0000   1.0000   1.0000   1.0000   1.0000   1.0000   1.0000   1.0000
     1.0000   1.0000   1.0000   1.0000   1.0000   1.0000   1.0000   1.0000
     1.0000   1.0000   1.0000   1.0000   1.0000   1.0000   1.0000   1.0000
     1.0000   1.0000   1.0000   1.0000   1.0000   1.0000   1.0000   1.0000
     1.0000   1.0000   1.0000   1.0000   1.0000   1.0000   1.0000   1.0000
     1.0000   1.0000   1.0000   1.0000   1.0000   1.0000   1.0000   1.0000
     1.0000   1.0000   1.0000   1.0000   1.0000   1.0000   1.0000   1.0000
     1.0000   1.0000   1.0000   1.0000   1.0000   1.0000   1.0000   1.0000
     1.0000   1.0000   1.0000   1.0000   1.0000   1.0000   1.0000   1.0000
     1.0000   1.0000   1.0000   1.0000   1.0000   1.0000   1.0000   1.0000
     1.0000   1.0000   1.0000   1.0000   1.0000   1.0000   1.0000   1.0000
     1.0000   1.0000   1.0000   1.0000   1.0000   1.0000   1.0000   1.0000
     1.0000   1.0000   1.0000   1.0000   1.0000   1.0000   1.0000   1.0000
     0.0000   0.0000   0.0000   0.0000   0.0000   0.0000   0.0000   0.0000
     0.0000   0.0000   0.0000   0.0000   0.0000   0.0000   0.0000   0.0000
     0.0000   0.0000   0.0000   0.0000   0.0000   0.0000   0.0000   0.0000
     0.0000   0.0000   0.0000   0.0000   0.0000   0.0000   0.0000   0.0000
     0.0000   0.0000   0.0000   0.0000   0.0000   0.0000   0.0000   0.0000
     0.0000   0.0000   0.0000   0.0000   0.0000   0.0000   0.0000   0.0000
     0.0000   0.0000   0.0000   0.0000   0.0000   0.0000   0.0000   0.0000
     0.0000

          k =-0.5000-0.5000-0.5000 (158408 PWs)   bands (ev):

    -6.8666  -6.8666  -6.8666  -6.8666  -6.8665  -6.8665  -6.8665  -6.8664
    -6.2399  -6.2399  -6.2399  -6.2399  -6.2399  -6.2399  -6.2399  -6.2399
    -6.2399  -6.2398  -6.2398  -6.2398  -6.2398  -6.2398  -6.2398  -6.2398
    -6.2398  -6.2398  -6.2398  -6.2398  -6.2397  -6.2396  -6.2396  -6.2396
    -1.2007  -1.2007  -1.2007  -1.2006  -1.2006  -1.2006  -1.2006  -1.2006
    -1.2006  -1.2006  -1.2006  -1.2006  -1.2006  -1.2005  -1.2005  -1.2005
    -1.1954  -1.1954  -1.1954  -1.1954  -1.1954  -1.1953  -1.1953  -1.1953
    -1.1698  -1.1698  -1.1698  -1.1698  -1.1698  -1.1698  -1.1697  -1.1697
    -1.1697  -1.1697  -1.1697  -1.1697  -1.1697  -1.1697  -1.1697  -1.1697
    -1.1697  -1.1697  -1.1697  -1.1696  -1.1696  -1.1696  -1.1695  -1.1695
    -1.0446  -1.0446  -1.0446  -1.0446  -1.0446  -1.0446  -1.0446  -1.0446
    -1.0446  -1.0445  -1.0445  -1.0445  -1.0445  -1.0445  -1.0445  -1.0445
    -1.0445  -1.0445  -1.0445  -1.0445  -1.0445  -1.0443  -1.0443  -1.0443
    -0.9206  -0.9206  -0.9206  -0.9206  -0.9206  -0.9206  -0.9206  -0.9206
    -0.9206  -0.9206  -0.9206  -0.9206  -0.9205  -0.9205  -0.9205  -0.9205
    -0.9205  -0.9205  -0.9205  -0.9204  -0.9204  -0.9204  -0.9204  -0.9204
    -0.7828  -0.7828  -0.7828  -0.7828  -0.7828  -0.7828  -0.7828  -0.7828
    -0.7828  -0.7828  -0.7828  -0.7827  -0.7827  -0.7827  -0.7825  -0.7825
    -0.7438  -0.7438  -0.7438  -0.7438  -0.7438  -0.7438  -0.7437  -0.7437
    -0.7437  -0.7437  -0.7437  -0.7437  -0.7437  -0.7437  -0.7437  -0.7437
    -0.7437  -0.7437  -0.7437  -0.7437  -0.7437  -0.7436  -0.7433  -0.7433
    -0.5905  -0.5905  -0.5905  -0.5905  -0.5905  -0.5905  -0.5905  -0.5905
    -0.5905  -0.5904  -0.5904  -0.5904  -0.5904  -0.5904  -0.5904  -0.5904
    -0.5904  -0.5904  -0.5904  -0.5903  -0.5903  -0.5902  -0.5902  -0.5902
     0.7393   0.7393   0.7393   0.7393   0.7393   0.7393   0.7393   0.7394
     0.7394   0.7394   0.7394   0.7394   0.7394   0.7394   0.7394   0.7394
     0.7394   0.7394   0.7394   0.7394   0.7394   0.7394   0.7394   0.7396
     2.3318   2.3318   2.3318   2.3318   2.3318   2.3318   2.3318   2.3318
     2.7510   2.7510   2.7510   2.7510   2.7510   2.7510   2.7510   2.7510
     2.7510   2.7511   2.7511   2.7511   2.7511   2.7511   2.7511   2.7511
     2.7511   2.7511   2.7511   2.7511   2.7511   2.7511   2.7511   2.7511
     3.4812   3.4812   3.4812   3.4812   3.4812   3.4812   3.4812   3.4812
     3.4812   3.4812   3.4812   3.4812   3.4812   3.4812   3.4812   3.4812
     3.4813   3.4813   3.4813   3.4813   3.4813   3.4813   3.4813   3.4813
     4.5309   4.5309   4.5309   4.5309   4.5309   4.5309   4.5309   4.5309
     4.5310   4.5310   4.5310   4.5310   4.5310   4.5311   4.5311   4.5311
     8.9299   8.9299   8.9299   8.9299   8.9300   8.9300   8.9300   8.9300
     9.7912   9.7913   9.7913   9.7913   9.7913   9.7913   9.7913   9.7913
     9.7913   9.7913   9.7913   9.7913   9.7913   9.7913   9.7913   9.7913
     9.7913   9.7913   9.7913   9.7913   9.7913   9.7913   9.7913   9.7914
    11.3384  11.3384  11.3384  11.3384  11.3384  11.3384  11.3384  11.3384
    11.3384  11.3384  11.3384  11.3384  11.3384  11.3384  11.3384  11.3384
    11.3384  11.3385  11.3385  11.3385  11.3385  11.3385  11.3385  11.3385
    12.3417

     occupation numbers 
     1.0000   1.0000   1.0000   1.0000   1.0000   1.0000   1.0000   1.0000
     1.0000   1.0000   1.0000   1.0000   1.0000   1.0000   1.0000   1.0000
     1.0000   1.0000   1.0000   1.0000   1.0000   1.0000   1.0000   1.0000
     1.0000   1.0000   1.0000   1.0000   1.0000   1.0000   1.0000   1.0000
     1.0000   1.0000   1.0000   1.0000   1.0000   1.0000   1.0000   1.0000
     1.0000   1.0000   1.0000   1.0000   1.0000   1.0000   1.0000   1.0000
     1.0000   1.0000   1.0000   1.0000   1.0000   1.0000   1.0000   1.0000
     1.0000   1.0000   1.0000   1.0000   1.0000   1.0000   1.0000   1.0000
     1.0000   1.0000   1.0000   1.0000   1.0000   1.0000   1.0000   1.0000
     1.0000   1.0000   1.0000   1.0000   1.0000   1.0000   1.0000   1.0000
     1.0000   1.0000   1.0000   1.0000   1.0000   1.0000   1.0000   1.0000
     1.0000   1.0000   1.0000   1.0000   1.0000   1.0000   1.0000   1.0000
     1.0000   1.0000   1.0000   1.0000   1.0000   1.0000   1.0000   1.0000
     1.0000   1.0000   1.0000   1.0000   1.0000   1.0000   1.0000   1.0000
     1.0000   1.0000   1.0000   1.0000   1.0000   1.0000   1.0000   1.0000
     1.0000   1.0000   1.0000   1.0000   1.0000   1.0000   1.0000   1.0000
     1.0000   1.0000   1.0000   1.0000   1.0000   1.0000   1.0000   1.0000
     1.0000   1.0000   1.0000   1.0000   1.0000   1.0000   1.0000   1.0000
     1.0000   1.0000   1.0000   1.0000   1.0000   1.0000   1.0000   1.0000
     1.0000   1.0000   1.0000   1.0000   1.0000   1.0000   1.0000   1.0000
     1.0000   1.0000   1.0000   1.0000   1.0000   1.0000   1.0000   1.0000
     1.0000   1.0000   1.0000   1.0000   1.0000   1.0000   1.0000   1.0000
     1.0000   1.0000   1.0000   1.0000   1.0000   1.0000   1.0000   1.0000
     1.0000   1.0000   1.0000   1.0000   1.0000   1.0000   1.0000   1.0000
     1.0000   1.0000   1.0000   1.0000   1.0000   1.0000   1.0000   1.0000
     1.0000   1.0000   1.0000   1.0000   1.0000   1.0000   1.0000   1.0000
     1.0000   1.0000   1.0000   1.0000   1.0000   1.0000   1.0000   1.0000
     1.0000   1.0000   1.0000   1.0000   1.0000   1.0000   1.0000   1.0000
     1.0000   1.0000   1.0000   1.0000   1.0000   1.0000   1.0000   1.0000
     1.0000   1.0000   1.0000   1.0000   1.0000   1.0000   1.0000   1.0000
     1.0000   1.0000   1.0000   1.0000   1.0000   1.0000   1.0000   1.0000
     1.0000   1.0000   1.0000   1.0000   1.0000   1.0000   1.0000   1.0000
     1.0000   1.0000   1.0000   1.0000   1.0000   1.0000   1.0000   1.0000
     1.0000   1.0000   1.0000   1.0000   1.0000   1.0000   1.0000   1.0000
     1.0000   1.0000   1.0000   1.0000   1.0000   1.0000   1.0000   1.0000
     1.0000   1.0000   1.0000   1.0000   1.0000   1.0000   1.0000   1.0000
     0.0000   0.0000   0.0000   0.0000   0.0000   0.0000   0.0000   0.0000
     0.0000   0.0000   0.0000   0.0000   0.0000   0.0000   0.0000   0.0000
     0.0000   0.0000   0.0000   0.0000   0.0000   0.0000   0.0000   0.0000
     0.0000   0.0000   0.0000   0.0000   0.0000   0.0000   0.0000   0.0000
     0.0000   0.0000   0.0000   0.0000   0.0000   0.0000   0.0000   0.0000
     0.0000   0.0000   0.0000   0.0000   0.0000   0.0000   0.0000   0.0000
     0.0000   0.0000   0.0000   0.0000   0.0000   0.0000   0.0000   0.0000
     0.0000

     the Fermi energy is     7.4379 ev
     (compare with:     4.9584 eV, computed in scf)

     Writing all to output data dir ./out/ZnS_hub.save/
 
     init_run     :      4.64s CPU      5.50s WALL (       1 calls)
     electrons    :     36.96s CPU     37.26s WALL (       1 calls)

     Called by init_run:
     wfcinit      :      2.68s CPU      3.00s WALL (       1 calls)
     potinit      :      0.41s CPU      0.60s WALL (       1 calls)
     hinit0       :      0.18s CPU      0.32s WALL (       1 calls)

     Called by electrons:
     c_bands      :     36.93s CPU     37.21s WALL (       1 calls)
     v_of_rho     :      0.09s CPU      0.20s WALL (       1 calls)
     v_h          :      0.01s CPU      0.02s WALL (       1 calls)
     v_xc         :      0.08s CPU      0.18s WALL (       1 calls)
     newd         :      0.06s CPU      0.07s WALL (       1 calls)
     PAW_pot      :      0.14s CPU      0.14s WALL (       1 calls)

     Called by c_bands:
     init_us_2    :      0.04s CPU      0.05s WALL (       2 calls)
     init_us_2:cp :      0.04s CPU      0.05s WALL (       2 calls)
     cegterg      :     20.49s CPU     20.69s WALL (       5 calls)

     Called by sum_band:

     Called by *egterg:
     cdiaghg      :      3.58s CPU      3.61s WALL (      81 calls)
     cegterg:over :      1.24s CPU      1.25s WALL (      81 calls)
     cegterg:upda :      1.11s CPU      1.12s WALL (      81 calls)
     cegterg:last :      1.44s CPU      1.45s WALL (      11 calls)
     cdiaghg:chol :      0.21s CPU      0.22s WALL (      81 calls)
     cdiaghg:inve :      0.27s CPU      0.27s WALL (      81 calls)
     cdiaghg:para :      0.48s CPU      0.49s WALL (     162 calls)
     h_psi        :     10.57s CPU     10.68s WALL (      86 calls)
     s_psi        :      2.21s CPU      2.23s WALL (      87 calls)
     g_psi        :      0.03s CPU      0.03s WALL (      81 calls)

     Called by h_psi:
     h_psi:calbec :      1.60s CPU      1.61s WALL (      86 calls)
     vloc_psi     :      3.96s CPU      4.01s WALL (      86 calls)
     add_vuspsi   :      2.06s CPU      2.08s WALL (      86 calls)
     vhpsi        :      2.89s CPU      2.92s WALL (      86 calls)

     General routines
     calbec       :      2.15s CPU      2.17s WALL (     173 calls)
     fft          :      0.17s CPU      0.44s WALL (      12 calls)
     fftw         :      3.72s CPU      3.76s WALL (    8922 calls)
 
     Parallel routines

     Hubbard U routines
     vhpsi        :      2.89s CPU      2.92s WALL (      86 calls)

     PAW routines
     PAW_pot      :      0.14s CPU      0.14s WALL (       1 calls)
 
     PWSCF        :     43.52s CPU     55.08s WALL

 
   This run was terminated on:   4:38:27   1Jul2024            

=------------------------------------------------------------------------------=
   JOB DONE.
=------------------------------------------------------------------------------=
