
     Program PWSCF v.7.2 starts on 16Apr2024 at  8: 0:34 

     This program is part of the open-source Quantum ESPRESSO suite
     for quantum simulation of materials; please cite
         "P. Giannozzi et al., J. Phys.:Condens. Matter 21 395502 (2009);
         "P. Giannozzi et al., J. Phys.:Condens. Matter 29 465901 (2017);
         "P. Giannozzi et al., J. Chem. Phys. 152 154105 (2020);
          URL http://www.quantum-espresso.org", 
     in publications or presentations arising from this work. More details at
     http://www.quantum-espresso.org/quote

     Parallel version (MPI), running on    20 processors

     MPI processes distributed on     1 nodes
     367054 MiB available memory on the printing compute node when the environment starts
 
     Waiting for input...
     Reading input from standard input

     Current dimensions of program PWSCF are:
     Max number of different atomic species (ntypx) = 10
     Max number of k-points (npk) = 120000
     Max angular momentum in pseudopotentials (lmaxx) =  4
     file Fe.pbe-spn-kjpaw_psl.1.0.0.UPF: wavefunction(s)  3P 3D renormalized
     Found identity + ( -0.5000 -0.5000 -0.5000) symmetry
     This is a supercell, fractional translations are disabled
 
     K-points division:     npool     =       2
     R & G space division:  proc/nbgrp/npool/nimage =      10
     Subspace diagonalization in iterative solution of the eigenvalue problem:
     a serial algorithm will be used

 
     Parallelization info
     --------------------
     sticks:   dense  smooth     PW     G-vecs:    dense   smooth      PW
     Min         159      90     27                 4781     2047     339
     Max         160      91     28                 4784     2048     342
     Sum        1597     901    277                47833    20479    3407
 
     Using Slab Decomposition
 


     bravais-lattice index     =            1
     lattice parameter (alat)  =       5.3423  a.u.
     unit-cell volume          =     152.4664 (a.u.)^3
     number of atoms/cell      =            2
     number of atomic types    =            1
     number of electrons       =        32.00
     number of Kohn-Sham states=           20
     kinetic-energy cutoff     =     100.0000  Ry
     charge density cutoff     =     700.0000  Ry
     scf convergence threshold =      4.0E-10
     mixing beta               =       0.4000
     number of iterations used =            8  plain     mixing
     Exchange-correlation= SLA  PW   PBX  PBC
                           (   1   4   3   4   0   0   0)

     celldm(1)=   5.342256  celldm(2)=   0.000000  celldm(3)=   0.000000
     celldm(4)=   0.000000  celldm(5)=   0.000000  celldm(6)=   0.000000

     crystal axes: (cart. coord. in units of alat)
               a(1) = (   1.000000   0.000000   0.000000 )  
               a(2) = (   0.000000   1.000000   0.000000 )  
               a(3) = (   0.000000   0.000000   1.000000 )  

     reciprocal axes: (cart. coord. in units 2 pi/alat)
               b(1) = (  1.000000  0.000000  0.000000 )  
               b(2) = (  0.000000  1.000000  0.000000 )  
               b(3) = (  0.000000  0.000000  1.000000 )  


     PseudoPot. # 1 for Fe read from file:
     /truba/home/amuhaymin/ZnS/pseudo/QE/Fe.pbe-spn-kjpaw_psl.1.0.0.UPF
     MD5 check sum: fc81f059e5c5069939230b1155715ae8
     Pseudo is Projector augmented-wave + core cor, Zval = 16.0
     Generated using &quot;atomic&quot; code by A. Dal Corso  v.6.3
     Shape of augmentation charge: PSQ
     Using radial grid of 1191 points,  6 beta functions with: 
                l(1) =   0
                l(2) =   0
                l(3) =   1
                l(4) =   1
                l(5) =   2
                l(6) =   2
     Q(r) pseudized with 0 coefficients 


     atomic species   valence    mass     pseudopotential
        Fe            16.00    55.84500     Fe( 1.00)

     Starting magnetic structure 
     atomic species   magnetization
        Fe           0.312

     48 Sym. Ops., with inversion, found


                                    s                        frac. trans.

      isym =  1     identity                                     

 cryst.   s( 1) = (     1          0          0      )
                  (     0          1          0      )
                  (     0          0          1      )

 cart.    s( 1) = (  1.0000000  0.0000000  0.0000000 )
                  (  0.0000000  1.0000000  0.0000000 )
                  (  0.0000000  0.0000000  1.0000000 )


      isym =  2     180 deg rotation - cart. axis [0,0,1]        

 cryst.   s( 2) = (    -1          0          0      )
                  (     0         -1          0      )
                  (     0          0          1      )

 cart.    s( 2) = ( -1.0000000  0.0000000  0.0000000 )
                  (  0.0000000 -1.0000000  0.0000000 )
                  (  0.0000000  0.0000000  1.0000000 )


      isym =  3     180 deg rotation - cart. axis [0,1,0]        

 cryst.   s( 3) = (    -1          0          0      )
                  (     0          1          0      )
                  (     0          0         -1      )

 cart.    s( 3) = ( -1.0000000  0.0000000  0.0000000 )
                  (  0.0000000  1.0000000  0.0000000 )
                  (  0.0000000  0.0000000 -1.0000000 )


      isym =  4     180 deg rotation - cart. axis [1,0,0]        

 cryst.   s( 4) = (     1          0          0      )
                  (     0         -1          0      )
                  (     0          0         -1      )

 cart.    s( 4) = (  1.0000000  0.0000000  0.0000000 )
                  (  0.0000000 -1.0000000  0.0000000 )
                  (  0.0000000  0.0000000 -1.0000000 )


      isym =  5     180 deg rotation - cart. axis [1,1,0]        

 cryst.   s( 5) = (     0          1          0      )
                  (     1          0          0      )
                  (     0          0         -1      )

 cart.    s( 5) = (  0.0000000  1.0000000  0.0000000 )
                  (  1.0000000  0.0000000  0.0000000 )
                  (  0.0000000  0.0000000 -1.0000000 )


      isym =  6     180 deg rotation - cart. axis [1,-1,0]       

 cryst.   s( 6) = (     0         -1          0      )
                  (    -1          0          0      )
                  (     0          0         -1      )

 cart.    s( 6) = (  0.0000000 -1.0000000  0.0000000 )
                  ( -1.0000000  0.0000000  0.0000000 )
                  (  0.0000000  0.0000000 -1.0000000 )


      isym =  7      90 deg rotation - cart. axis [0,0,-1]       

 cryst.   s( 7) = (     0         -1          0      )
                  (     1          0          0      )
                  (     0          0          1      )

 cart.    s( 7) = (  0.0000000  1.0000000  0.0000000 )
                  ( -1.0000000  0.0000000  0.0000000 )
                  (  0.0000000  0.0000000  1.0000000 )


      isym =  8      90 deg rotation - cart. axis [0,0,1]        

 cryst.   s( 8) = (     0          1          0      )
                  (    -1          0          0      )
                  (     0          0          1      )

 cart.    s( 8) = (  0.0000000 -1.0000000  0.0000000 )
                  (  1.0000000  0.0000000  0.0000000 )
                  (  0.0000000  0.0000000  1.0000000 )


      isym =  9     180 deg rotation - cart. axis [1,0,1]        

 cryst.   s( 9) = (     0          0          1      )
                  (     0         -1          0      )
                  (     1          0          0      )

 cart.    s( 9) = (  0.0000000  0.0000000  1.0000000 )
                  (  0.0000000 -1.0000000  0.0000000 )
                  (  1.0000000  0.0000000  0.0000000 )


      isym = 10     180 deg rotation - cart. axis [-1,0,1]       

 cryst.   s(10) = (     0          0         -1      )
                  (     0         -1          0      )
                  (    -1          0          0      )

 cart.    s(10) = (  0.0000000  0.0000000 -1.0000000 )
                  (  0.0000000 -1.0000000  0.0000000 )
                  ( -1.0000000  0.0000000  0.0000000 )


      isym = 11      90 deg rotation - cart. axis [0,1,0]        

 cryst.   s(11) = (     0          0         -1      )
                  (     0          1          0      )
                  (     1          0          0      )

 cart.    s(11) = (  0.0000000  0.0000000  1.0000000 )
                  (  0.0000000  1.0000000  0.0000000 )
                  ( -1.0000000  0.0000000  0.0000000 )


      isym = 12      90 deg rotation - cart. axis [0,-1,0]       

 cryst.   s(12) = (     0          0          1      )
                  (     0          1          0      )
                  (    -1          0          0      )

 cart.    s(12) = (  0.0000000  0.0000000 -1.0000000 )
                  (  0.0000000  1.0000000  0.0000000 )
                  (  1.0000000  0.0000000  0.0000000 )


      isym = 13     180 deg rotation - cart. axis [0,1,1]        

 cryst.   s(13) = (    -1          0          0      )
                  (     0          0          1      )
                  (     0          1          0      )

 cart.    s(13) = ( -1.0000000  0.0000000  0.0000000 )
                  (  0.0000000  0.0000000  1.0000000 )
                  (  0.0000000  1.0000000  0.0000000 )


      isym = 14     180 deg rotation - cart. axis [0,1,-1]       

 cryst.   s(14) = (    -1          0          0      )
                  (     0          0         -1      )
                  (     0         -1          0      )

 cart.    s(14) = ( -1.0000000  0.0000000  0.0000000 )
                  (  0.0000000  0.0000000 -1.0000000 )
                  (  0.0000000 -1.0000000  0.0000000 )


      isym = 15      90 deg rotation - cart. axis [-1,0,0]       

 cryst.   s(15) = (     1          0          0      )
                  (     0          0         -1      )
                  (     0          1          0      )

 cart.    s(15) = (  1.0000000  0.0000000  0.0000000 )
                  (  0.0000000  0.0000000  1.0000000 )
                  (  0.0000000 -1.0000000  0.0000000 )


      isym = 16      90 deg rotation - cart. axis [1,0,0]        

 cryst.   s(16) = (     1          0          0      )
                  (     0          0          1      )
                  (     0         -1          0      )

 cart.    s(16) = (  1.0000000  0.0000000  0.0000000 )
                  (  0.0000000  0.0000000 -1.0000000 )
                  (  0.0000000  1.0000000  0.0000000 )


      isym = 17     120 deg rotation - cart. axis [-1,-1,-1]     

 cryst.   s(17) = (     0          0          1      )
                  (     1          0          0      )
                  (     0          1          0      )

 cart.    s(17) = (  0.0000000  1.0000000  0.0000000 )
                  (  0.0000000  0.0000000  1.0000000 )
                  (  1.0000000  0.0000000  0.0000000 )


      isym = 18     120 deg rotation - cart. axis [-1,1,1]       

 cryst.   s(18) = (     0          0         -1      )
                  (    -1          0          0      )
                  (     0          1          0      )

 cart.    s(18) = (  0.0000000 -1.0000000  0.0000000 )
                  (  0.0000000  0.0000000  1.0000000 )
                  ( -1.0000000  0.0000000  0.0000000 )


      isym = 19     120 deg rotation - cart. axis [1,1,-1]       

 cryst.   s(19) = (     0          0         -1      )
                  (     1          0          0      )
                  (     0         -1          0      )

 cart.    s(19) = (  0.0000000  1.0000000  0.0000000 )
                  (  0.0000000  0.0000000 -1.0000000 )
                  ( -1.0000000  0.0000000  0.0000000 )


      isym = 20     120 deg rotation - cart. axis [1,-1,1]       

 cryst.   s(20) = (     0          0          1      )
                  (    -1          0          0      )
                  (     0         -1          0      )

 cart.    s(20) = (  0.0000000 -1.0000000  0.0000000 )
                  (  0.0000000  0.0000000 -1.0000000 )
                  (  1.0000000  0.0000000  0.0000000 )


      isym = 21     120 deg rotation - cart. axis [1,1,1]        

 cryst.   s(21) = (     0          1          0      )
                  (     0          0          1      )
                  (     1          0          0      )

 cart.    s(21) = (  0.0000000  0.0000000  1.0000000 )
                  (  1.0000000  0.0000000  0.0000000 )
                  (  0.0000000  1.0000000  0.0000000 )


      isym = 22     120 deg rotation - cart. axis [-1,1,-1]      

 cryst.   s(22) = (     0         -1          0      )
                  (     0          0         -1      )
                  (     1          0          0      )

 cart.    s(22) = (  0.0000000  0.0000000  1.0000000 )
                  ( -1.0000000  0.0000000  0.0000000 )
                  (  0.0000000 -1.0000000  0.0000000 )


      isym = 23     120 deg rotation - cart. axis [1,-1,-1]      

 cryst.   s(23) = (     0         -1          0      )
                  (     0          0          1      )
                  (    -1          0          0      )

 cart.    s(23) = (  0.0000000  0.0000000 -1.0000000 )
                  ( -1.0000000  0.0000000  0.0000000 )
                  (  0.0000000  1.0000000  0.0000000 )


      isym = 24     120 deg rotation - cart. axis [-1,-1,1]      

 cryst.   s(24) = (     0          1          0      )
                  (     0          0         -1      )
                  (    -1          0          0      )

 cart.    s(24) = (  0.0000000  0.0000000 -1.0000000 )
                  (  1.0000000  0.0000000  0.0000000 )
                  (  0.0000000 -1.0000000  0.0000000 )


      isym = 25     inversion                                    

 cryst.   s(25) = (    -1          0          0      )
                  (     0         -1          0      )
                  (     0          0         -1      )

 cart.    s(25) = ( -1.0000000  0.0000000  0.0000000 )
                  (  0.0000000 -1.0000000  0.0000000 )
                  (  0.0000000  0.0000000 -1.0000000 )


      isym = 26     inv. 180 deg rotation - cart. axis [0,0,1]   

 cryst.   s(26) = (     1          0          0      )
                  (     0          1          0      )
                  (     0          0         -1      )

 cart.    s(26) = (  1.0000000  0.0000000  0.0000000 )
                  (  0.0000000  1.0000000  0.0000000 )
                  (  0.0000000  0.0000000 -1.0000000 )


      isym = 27     inv. 180 deg rotation - cart. axis [0,1,0]   

 cryst.   s(27) = (     1          0          0      )
                  (     0         -1          0      )
                  (     0          0          1      )

 cart.    s(27) = (  1.0000000  0.0000000  0.0000000 )
                  (  0.0000000 -1.0000000  0.0000000 )
                  (  0.0000000  0.0000000  1.0000000 )


      isym = 28     inv. 180 deg rotation - cart. axis [1,0,0]   

 cryst.   s(28) = (    -1          0          0      )
                  (     0          1          0      )
                  (     0          0          1      )

 cart.    s(28) = ( -1.0000000  0.0000000  0.0000000 )
                  (  0.0000000  1.0000000  0.0000000 )
                  (  0.0000000  0.0000000  1.0000000 )


      isym = 29     inv. 180 deg rotation - cart. axis [1,1,0]   

 cryst.   s(29) = (     0         -1          0      )
                  (    -1          0          0      )
                  (     0          0          1      )

 cart.    s(29) = (  0.0000000 -1.0000000  0.0000000 )
                  ( -1.0000000  0.0000000  0.0000000 )
                  (  0.0000000  0.0000000  1.0000000 )


      isym = 30     inv. 180 deg rotation - cart. axis [1,-1,0]  

 cryst.   s(30) = (     0          1          0      )
                  (     1          0          0      )
                  (     0          0          1      )

 cart.    s(30) = (  0.0000000  1.0000000  0.0000000 )
                  (  1.0000000  0.0000000  0.0000000 )
                  (  0.0000000  0.0000000  1.0000000 )


      isym = 31     inv.  90 deg rotation - cart. axis [0,0,-1]  

 cryst.   s(31) = (     0          1          0      )
                  (    -1          0          0      )
                  (     0          0         -1      )

 cart.    s(31) = (  0.0000000 -1.0000000  0.0000000 )
                  (  1.0000000  0.0000000  0.0000000 )
                  (  0.0000000  0.0000000 -1.0000000 )


      isym = 32     inv.  90 deg rotation - cart. axis [0,0,1]   

 cryst.   s(32) = (     0         -1          0      )
                  (     1          0          0      )
                  (     0          0         -1      )

 cart.    s(32) = (  0.0000000  1.0000000  0.0000000 )
                  ( -1.0000000  0.0000000  0.0000000 )
                  (  0.0000000  0.0000000 -1.0000000 )


      isym = 33     inv. 180 deg rotation - cart. axis [1,0,1]   

 cryst.   s(33) = (     0          0         -1      )
                  (     0          1          0      )
                  (    -1          0          0      )

 cart.    s(33) = (  0.0000000  0.0000000 -1.0000000 )
                  (  0.0000000  1.0000000  0.0000000 )
                  ( -1.0000000  0.0000000  0.0000000 )


      isym = 34     inv. 180 deg rotation - cart. axis [-1,0,1]  

 cryst.   s(34) = (     0          0          1      )
                  (     0          1          0      )
                  (     1          0          0      )

 cart.    s(34) = (  0.0000000  0.0000000  1.0000000 )
                  (  0.0000000  1.0000000  0.0000000 )
                  (  1.0000000  0.0000000  0.0000000 )


      isym = 35     inv.  90 deg rotation - cart. axis [0,1,0]   

 cryst.   s(35) = (     0          0          1      )
                  (     0         -1          0      )
                  (    -1          0          0      )

 cart.    s(35) = (  0.0000000  0.0000000 -1.0000000 )
                  (  0.0000000 -1.0000000  0.0000000 )
                  (  1.0000000  0.0000000  0.0000000 )


      isym = 36     inv.  90 deg rotation - cart. axis [0,-1,0]  

 cryst.   s(36) = (     0          0         -1      )
                  (     0         -1          0      )
                  (     1          0          0      )

 cart.    s(36) = (  0.0000000  0.0000000  1.0000000 )
                  (  0.0000000 -1.0000000  0.0000000 )
                  ( -1.0000000  0.0000000  0.0000000 )


      isym = 37     inv. 180 deg rotation - cart. axis [0,1,1]   

 cryst.   s(37) = (     1          0          0      )
                  (     0          0         -1      )
                  (     0         -1          0      )

 cart.    s(37) = (  1.0000000  0.0000000  0.0000000 )
                  (  0.0000000  0.0000000 -1.0000000 )
                  (  0.0000000 -1.0000000  0.0000000 )


      isym = 38     inv. 180 deg rotation - cart. axis [0,1,-1]  

 cryst.   s(38) = (     1          0          0      )
                  (     0          0          1      )
                  (     0          1          0      )

 cart.    s(38) = (  1.0000000  0.0000000  0.0000000 )
                  (  0.0000000  0.0000000  1.0000000 )
                  (  0.0000000  1.0000000  0.0000000 )


      isym = 39     inv.  90 deg rotation - cart. axis [-1,0,0]  

 cryst.   s(39) = (    -1          0          0      )
                  (     0          0          1      )
                  (     0         -1          0      )

 cart.    s(39) = ( -1.0000000  0.0000000  0.0000000 )
                  (  0.0000000  0.0000000 -1.0000000 )
                  (  0.0000000  1.0000000  0.0000000 )


      isym = 40     inv.  90 deg rotation - cart. axis [1,0,0]   

 cryst.   s(40) = (    -1          0          0      )
                  (     0          0         -1      )
                  (     0          1          0      )

 cart.    s(40) = ( -1.0000000  0.0000000  0.0000000 )
                  (  0.0000000  0.0000000  1.0000000 )
                  (  0.0000000 -1.0000000  0.0000000 )


      isym = 41     inv. 120 deg rotation - cart. axis [-1,-1,-1]

 cryst.   s(41) = (     0          0         -1      )
                  (    -1          0          0      )
                  (     0         -1          0      )

 cart.    s(41) = (  0.0000000 -1.0000000  0.0000000 )
                  (  0.0000000  0.0000000 -1.0000000 )
                  ( -1.0000000  0.0000000  0.0000000 )


      isym = 42     inv. 120 deg rotation - cart. axis [-1,1,1]  

 cryst.   s(42) = (     0          0          1      )
                  (     1          0          0      )
                  (     0         -1          0      )

 cart.    s(42) = (  0.0000000  1.0000000  0.0000000 )
                  (  0.0000000  0.0000000 -1.0000000 )
                  (  1.0000000  0.0000000  0.0000000 )


      isym = 43     inv. 120 deg rotation - cart. axis [1,1,-1]  

 cryst.   s(43) = (     0          0          1      )
                  (    -1          0          0      )
                  (     0          1          0      )

 cart.    s(43) = (  0.0000000 -1.0000000  0.0000000 )
                  (  0.0000000  0.0000000  1.0000000 )
                  (  1.0000000  0.0000000  0.0000000 )


      isym = 44     inv. 120 deg rotation - cart. axis [1,-1,1]  

 cryst.   s(44) = (     0          0         -1      )
                  (     1          0          0      )
                  (     0          1          0      )

 cart.    s(44) = (  0.0000000  1.0000000  0.0000000 )
                  (  0.0000000  0.0000000  1.0000000 )
                  ( -1.0000000  0.0000000  0.0000000 )


      isym = 45     inv. 120 deg rotation - cart. axis [1,1,1]   

 cryst.   s(45) = (     0         -1          0      )
                  (     0          0         -1      )
                  (    -1          0          0      )

 cart.    s(45) = (  0.0000000  0.0000000 -1.0000000 )
                  ( -1.0000000  0.0000000  0.0000000 )
                  (  0.0000000 -1.0000000  0.0000000 )


      isym = 46     inv. 120 deg rotation - cart. axis [-1,1,-1] 

 cryst.   s(46) = (     0          1          0      )
                  (     0          0          1      )
                  (    -1          0          0      )

 cart.    s(46) = (  0.0000000  0.0000000 -1.0000000 )
                  (  1.0000000  0.0000000  0.0000000 )
                  (  0.0000000  1.0000000  0.0000000 )


      isym = 47     inv. 120 deg rotation - cart. axis [1,-1,-1] 

 cryst.   s(47) = (     0          1          0      )
                  (     0          0         -1      )
                  (     1          0          0      )

 cart.    s(47) = (  0.0000000  0.0000000  1.0000000 )
                  (  1.0000000  0.0000000  0.0000000 )
                  (  0.0000000 -1.0000000  0.0000000 )


      isym = 48     inv. 120 deg rotation - cart. axis [-1,-1,1] 

 cryst.   s(48) = (     0         -1          0      )
                  (     0          0          1      )
                  (     1          0          0      )

 cart.    s(48) = (  0.0000000  0.0000000  1.0000000 )
                  ( -1.0000000  0.0000000  0.0000000 )
                  (  0.0000000  1.0000000  0.0000000 )


     point group O_h (m-3m) 
     there are 10 classes
     the character table:

       E     8C3   3C2   6C4   6C2'  i     8S6   3s_h  6S4   6s_d 
A_1g   1.00  1.00  1.00  1.00  1.00  1.00  1.00  1.00  1.00  1.00
A_2g   1.00  1.00  1.00 -1.00 -1.00  1.00  1.00  1.00 -1.00 -1.00
E_g    2.00 -1.00  2.00  0.00  0.00  2.00 -1.00  2.00  0.00  0.00
T_1g   3.00  0.00 -1.00  1.00 -1.00  3.00  0.00 -1.00  1.00 -1.00
T_2g   3.00  0.00 -1.00 -1.00  1.00  3.00  0.00 -1.00 -1.00  1.00
A_1u   1.00  1.00  1.00  1.00  1.00 -1.00 -1.00 -1.00 -1.00 -1.00
A_2u   1.00  1.00  1.00 -1.00 -1.00 -1.00 -1.00 -1.00  1.00  1.00
E_u    2.00 -1.00  2.00  0.00  0.00 -2.00  1.00 -2.00  0.00  0.00
T_1u   3.00  0.00 -1.00  1.00 -1.00 -3.00  0.00  1.00 -1.00  1.00
T_2u   3.00  0.00 -1.00 -1.00  1.00 -3.00  0.00  1.00  1.00 -1.00

     the symmetry operations in each class and the name of the first element:

     E        1
          identity                                               
     8C3     17   19   20   18   24   21   22   23
          120 deg rotation - cart. axis [-1,-1,-1]               
     3C2      2    4    3
          180 deg rotation - cart. axis [0,0,1]                  
     6C4      7    8   15   16   12   11
           90 deg rotation - cart. axis [0,0,-1]                 
     6C2'     5    6   14   13   10    9
          180 deg rotation - cart. axis [1,1,0]                  
     i       25
          inversion                                              
     8S6     41   43   44   42   48   45   46   47
          inv. 120 deg rotation - cart. axis [-1,-1,-1]          
     3s_h    26   28   27
          inv. 180 deg rotation - cart. axis [0,0,1]             
     6S4     31   32   39   40   36   35
          inv.  90 deg rotation - cart. axis [0,0,-1]            
     6s_d    29   30   38   37   34   33
          inv. 180 deg rotation - cart. axis [1,1,0]             

   Cartesian axes

     site n.     atom                  positions (alat units)
         1           Fe  tau(   1) = (   0.0000000   0.0000000   0.0000000  )
         2           Fe  tau(   2) = (   0.5000000   0.5000000   0.5000000  )

   Crystallographic axes

     site n.     atom                  positions (cryst. coord.)
         1           Fe  tau(   1) = (  0.0000000  0.0000000  0.0000000  )
         2           Fe  tau(   2) = (  0.5000000  0.5000000  0.5000000  )

     number of k points=    56  Gaussian smearing, width (Ry)=  0.0010
                       cart. coord. in units 2pi/alat
        k(    1) = (   0.0000000   0.0000000   0.0000000), wk =   0.0010000
        k(    2) = (   0.0000000   0.0000000   0.1000000), wk =   0.0060000
        k(    3) = (   0.0000000   0.0000000   0.2000000), wk =   0.0060000
        k(    4) = (   0.0000000   0.0000000   0.3000000), wk =   0.0060000
        k(    5) = (   0.0000000   0.0000000   0.4000000), wk =   0.0060000
        k(    6) = (   0.0000000   0.0000000  -0.5000000), wk =   0.0030000
        k(    7) = (   0.0000000   0.1000000   0.1000000), wk =   0.0120000
        k(    8) = (   0.0000000   0.1000000   0.2000000), wk =   0.0240000
        k(    9) = (   0.0000000   0.1000000   0.3000000), wk =   0.0240000
        k(   10) = (   0.0000000   0.1000000   0.4000000), wk =   0.0240000
        k(   11) = (   0.0000000   0.1000000  -0.5000000), wk =   0.0120000
        k(   12) = (   0.0000000   0.2000000   0.2000000), wk =   0.0120000
        k(   13) = (   0.0000000   0.2000000   0.3000000), wk =   0.0240000
        k(   14) = (   0.0000000   0.2000000   0.4000000), wk =   0.0240000
        k(   15) = (   0.0000000   0.2000000  -0.5000000), wk =   0.0120000
        k(   16) = (   0.0000000   0.3000000   0.3000000), wk =   0.0120000
        k(   17) = (   0.0000000   0.3000000   0.4000000), wk =   0.0240000
        k(   18) = (   0.0000000   0.3000000  -0.5000000), wk =   0.0120000
        k(   19) = (   0.0000000   0.4000000   0.4000000), wk =   0.0120000
        k(   20) = (   0.0000000   0.4000000  -0.5000000), wk =   0.0120000
        k(   21) = (   0.0000000  -0.5000000  -0.5000000), wk =   0.0030000
        k(   22) = (   0.1000000   0.1000000   0.1000000), wk =   0.0080000
        k(   23) = (   0.1000000   0.1000000   0.2000000), wk =   0.0240000
        k(   24) = (   0.1000000   0.1000000   0.3000000), wk =   0.0240000
        k(   25) = (   0.1000000   0.1000000   0.4000000), wk =   0.0240000
        k(   26) = (   0.1000000   0.1000000  -0.5000000), wk =   0.0120000
        k(   27) = (   0.1000000   0.2000000   0.2000000), wk =   0.0240000
        k(   28) = (   0.1000000   0.2000000   0.3000000), wk =   0.0480000
        k(   29) = (   0.1000000   0.2000000   0.4000000), wk =   0.0480000
        k(   30) = (   0.1000000   0.2000000  -0.5000000), wk =   0.0240000
        k(   31) = (   0.1000000   0.3000000   0.3000000), wk =   0.0240000
        k(   32) = (   0.1000000   0.3000000   0.4000000), wk =   0.0480000
        k(   33) = (   0.1000000   0.3000000  -0.5000000), wk =   0.0240000
        k(   34) = (   0.1000000   0.4000000   0.4000000), wk =   0.0240000
        k(   35) = (   0.1000000   0.4000000  -0.5000000), wk =   0.0240000
        k(   36) = (   0.1000000  -0.5000000  -0.5000000), wk =   0.0060000
        k(   37) = (   0.2000000   0.2000000   0.2000000), wk =   0.0080000
        k(   38) = (   0.2000000   0.2000000   0.3000000), wk =   0.0240000
        k(   39) = (   0.2000000   0.2000000   0.4000000), wk =   0.0240000
        k(   40) = (   0.2000000   0.2000000  -0.5000000), wk =   0.0120000
        k(   41) = (   0.2000000   0.3000000   0.3000000), wk =   0.0240000
        k(   42) = (   0.2000000   0.3000000   0.4000000), wk =   0.0480000
        k(   43) = (   0.2000000   0.3000000  -0.5000000), wk =   0.0240000
        k(   44) = (   0.2000000   0.4000000   0.4000000), wk =   0.0240000
        k(   45) = (   0.2000000   0.4000000  -0.5000000), wk =   0.0240000
        k(   46) = (   0.2000000  -0.5000000  -0.5000000), wk =   0.0060000
        k(   47) = (   0.3000000   0.3000000   0.3000000), wk =   0.0080000
        k(   48) = (   0.3000000   0.3000000   0.4000000), wk =   0.0240000
        k(   49) = (   0.3000000   0.3000000  -0.5000000), wk =   0.0120000
        k(   50) = (   0.3000000   0.4000000   0.4000000), wk =   0.0240000
        k(   51) = (   0.3000000   0.4000000  -0.5000000), wk =   0.0240000
        k(   52) = (   0.3000000  -0.5000000  -0.5000000), wk =   0.0060000
        k(   53) = (   0.4000000   0.4000000   0.4000000), wk =   0.0080000
        k(   54) = (   0.4000000   0.4000000  -0.5000000), wk =   0.0120000
        k(   55) = (   0.4000000  -0.5000000  -0.5000000), wk =   0.0060000
        k(   56) = (  -0.5000000  -0.5000000  -0.5000000), wk =   0.0010000

                       cryst. coord.
        k(    1) = (   0.0000000   0.0000000   0.0000000), wk =   0.0010000
        k(    2) = (   0.0000000   0.0000000   0.1000000), wk =   0.0060000
        k(    3) = (   0.0000000   0.0000000   0.2000000), wk =   0.0060000
        k(    4) = (   0.0000000   0.0000000   0.3000000), wk =   0.0060000
        k(    5) = (   0.0000000   0.0000000   0.4000000), wk =   0.0060000
        k(    6) = (   0.0000000   0.0000000  -0.5000000), wk =   0.0030000
        k(    7) = (   0.0000000   0.1000000   0.1000000), wk =   0.0120000
        k(    8) = (   0.0000000   0.1000000   0.2000000), wk =   0.0240000
        k(    9) = (   0.0000000   0.1000000   0.3000000), wk =   0.0240000
        k(   10) = (   0.0000000   0.1000000   0.4000000), wk =   0.0240000
        k(   11) = (   0.0000000   0.1000000  -0.5000000), wk =   0.0120000
        k(   12) = (   0.0000000   0.2000000   0.2000000), wk =   0.0120000
        k(   13) = (   0.0000000   0.2000000   0.3000000), wk =   0.0240000
        k(   14) = (   0.0000000   0.2000000   0.4000000), wk =   0.0240000
        k(   15) = (   0.0000000   0.2000000  -0.5000000), wk =   0.0120000
        k(   16) = (   0.0000000   0.3000000   0.3000000), wk =   0.0120000
        k(   17) = (   0.0000000   0.3000000   0.4000000), wk =   0.0240000
        k(   18) = (   0.0000000   0.3000000  -0.5000000), wk =   0.0120000
        k(   19) = (   0.0000000   0.4000000   0.4000000), wk =   0.0120000
        k(   20) = (   0.0000000   0.4000000  -0.5000000), wk =   0.0120000
        k(   21) = (   0.0000000  -0.5000000  -0.5000000), wk =   0.0030000
        k(   22) = (   0.1000000   0.1000000   0.1000000), wk =   0.0080000
        k(   23) = (   0.1000000   0.1000000   0.2000000), wk =   0.0240000
        k(   24) = (   0.1000000   0.1000000   0.3000000), wk =   0.0240000
        k(   25) = (   0.1000000   0.1000000   0.4000000), wk =   0.0240000
        k(   26) = (   0.1000000   0.1000000  -0.5000000), wk =   0.0120000
        k(   27) = (   0.1000000   0.2000000   0.2000000), wk =   0.0240000
        k(   28) = (   0.1000000   0.2000000   0.3000000), wk =   0.0480000
        k(   29) = (   0.1000000   0.2000000   0.4000000), wk =   0.0480000
        k(   30) = (   0.1000000   0.2000000  -0.5000000), wk =   0.0240000
        k(   31) = (   0.1000000   0.3000000   0.3000000), wk =   0.0240000
        k(   32) = (   0.1000000   0.3000000   0.4000000), wk =   0.0480000
        k(   33) = (   0.1000000   0.3000000  -0.5000000), wk =   0.0240000
        k(   34) = (   0.1000000   0.4000000   0.4000000), wk =   0.0240000
        k(   35) = (   0.1000000   0.4000000  -0.5000000), wk =   0.0240000
        k(   36) = (   0.1000000  -0.5000000  -0.5000000), wk =   0.0060000
        k(   37) = (   0.2000000   0.2000000   0.2000000), wk =   0.0080000
        k(   38) = (   0.2000000   0.2000000   0.3000000), wk =   0.0240000
        k(   39) = (   0.2000000   0.2000000   0.4000000), wk =   0.0240000
        k(   40) = (   0.2000000   0.2000000  -0.5000000), wk =   0.0120000
        k(   41) = (   0.2000000   0.3000000   0.3000000), wk =   0.0240000
        k(   42) = (   0.2000000   0.3000000   0.4000000), wk =   0.0480000
        k(   43) = (   0.2000000   0.3000000  -0.5000000), wk =   0.0240000
        k(   44) = (   0.2000000   0.4000000   0.4000000), wk =   0.0240000
        k(   45) = (   0.2000000   0.4000000  -0.5000000), wk =   0.0240000
        k(   46) = (   0.2000000  -0.5000000  -0.5000000), wk =   0.0060000
        k(   47) = (   0.3000000   0.3000000   0.3000000), wk =   0.0080000
        k(   48) = (   0.3000000   0.3000000   0.4000000), wk =   0.0240000
        k(   49) = (   0.3000000   0.3000000  -0.5000000), wk =   0.0120000
        k(   50) = (   0.3000000   0.4000000   0.4000000), wk =   0.0240000
        k(   51) = (   0.3000000   0.4000000  -0.5000000), wk =   0.0240000
        k(   52) = (   0.3000000  -0.5000000  -0.5000000), wk =   0.0060000
        k(   53) = (   0.4000000   0.4000000   0.4000000), wk =   0.0080000
        k(   54) = (   0.4000000   0.4000000  -0.5000000), wk =   0.0120000
        k(   55) = (   0.4000000  -0.5000000  -0.5000000), wk =   0.0060000
        k(   56) = (  -0.5000000  -0.5000000  -0.5000000), wk =   0.0010000

     Dense  grid:    47833 G-vectors     FFT dimensions: (  45,  45,  45)

     Smooth grid:    20479 G-vectors     FFT dimensions: (  36,  36,  36)

     Dynamical RAM for                 wfc:       0.08 MB

     Dynamical RAM for     wfc (w. buffer):       4.47 MB

     Dynamical RAM for           str. fact:       0.07 MB

     Dynamical RAM for           local pot:       0.00 MB

     Dynamical RAM for          nlocal pot:       0.14 MB

     Dynamical RAM for                qrad:       2.12 MB

     Dynamical RAM for          rho,v,vnew:       0.90 MB

     Dynamical RAM for               rhoin:       0.30 MB

     Dynamical RAM for            rho*nmix:       2.34 MB

     Dynamical RAM for           G-vectors:       0.29 MB

     Dynamical RAM for          h,s,v(r/c):       0.07 MB

     Dynamical RAM for          <psi|beta>:       0.01 MB

     Dynamical RAM for                 psi:       0.16 MB

     Dynamical RAM for                hpsi:       0.16 MB

     Dynamical RAM for                spsi:       0.16 MB

     Dynamical RAM for      wfcinit/wfcrot:       0.17 MB

     Dynamical RAM for           addusdens:       6.97 MB

     Estimated static dynamical RAM per process >       8.91 MB

     Estimated max dynamical RAM per process >      18.21 MB

     Estimated total dynamical RAM >     340.87 MB
     Generating pointlists ...
     new r_m :   0.3572 (alat units)  1.9084 (a.u.) for type    1

     The initial density is read from file :
     ./out/Fe.save/charge-density


     starting charge      32.0340, renormalised to      32.0000

     negative rho (up, down):  0.000E+00 9.179E-05
     Starting wfcs from file
     Checking if some PAW data can be deallocated... 

     total cpu time spent up to now is        0.5 secs

     Self-consistent Calculation

     iteration #  1     ecut=   100.00 Ry     beta= 0.40
     Davidson diagonalization with overlap

---- Real-time Memory Report at c_bands before calling an iterative solver
            55 MiB given to the printing process from OS
             0 MiB allocation reported by mallinfo(arena+hblkhd)
        366473 MiB available memory on the node where the printing process lives
------------------
     ethr =  1.00E-05,  avg # of iterations =  2.0

     negative rho (up, down):  0.000E+00 9.067E-05

     total cpu time spent up to now is        1.4 secs

     total energy              =    -658.54059024 Ry
     estimated scf accuracy    <       0.00050572 Ry

     total magnetization       =     4.18 Bohr mag/cell
     absolute magnetization    =     4.42 Bohr mag/cell

     iteration #  2     ecut=   100.00 Ry     beta= 0.40
     Davidson diagonalization with overlap

---- Real-time Memory Report at c_bands before calling an iterative solver
            72 MiB given to the printing process from OS
             0 MiB allocation reported by mallinfo(arena+hblkhd)
        366217 MiB available memory on the node where the printing process lives
------------------
     ethr =  1.58E-06,  avg # of iterations =  2.6

     negative rho (up, down):  0.000E+00 9.142E-05

     total cpu time spent up to now is        2.4 secs

     total energy              =    -658.54074229 Ry
     estimated scf accuracy    <       0.00011716 Ry

     total magnetization       =     4.16 Bohr mag/cell
     absolute magnetization    =     4.40 Bohr mag/cell

     iteration #  3     ecut=   100.00 Ry     beta= 0.40
     Davidson diagonalization with overlap

---- Real-time Memory Report at c_bands before calling an iterative solver
            74 MiB given to the printing process from OS
             0 MiB allocation reported by mallinfo(arena+hblkhd)
        366207 MiB available memory on the node where the printing process lives
------------------
     ethr =  3.66E-07,  avg # of iterations =  1.6

     negative rho (up, down):  0.000E+00 9.202E-05

     total cpu time spent up to now is        3.1 secs

     total energy              =    -658.54075176 Ry
     estimated scf accuracy    <       0.00000701 Ry

     total magnetization       =     4.16 Bohr mag/cell
     absolute magnetization    =     4.41 Bohr mag/cell

     iteration #  4     ecut=   100.00 Ry     beta= 0.40
     Davidson diagonalization with overlap

---- Real-time Memory Report at c_bands before calling an iterative solver
            75 MiB given to the printing process from OS
             0 MiB allocation reported by mallinfo(arena+hblkhd)
        366197 MiB available memory on the node where the printing process lives
------------------
     ethr =  2.19E-08,  avg # of iterations =  3.1

     negative rho (up, down):  0.000E+00 9.229E-05

     total cpu time spent up to now is        4.1 secs

     total energy              =    -658.54075510 Ry
     estimated scf accuracy    <       0.00007072 Ry

     total magnetization       =     4.17 Bohr mag/cell
     absolute magnetization    =     4.41 Bohr mag/cell

     iteration #  5     ecut=   100.00 Ry     beta= 0.40
     Davidson diagonalization with overlap

---- Real-time Memory Report at c_bands before calling an iterative solver
            76 MiB given to the printing process from OS
             0 MiB allocation reported by mallinfo(arena+hblkhd)
        366185 MiB available memory on the node where the printing process lives
------------------
     ethr =  2.19E-08,  avg # of iterations =  2.1

     negative rho (up, down):  0.000E+00 9.210E-05

     total cpu time spent up to now is        4.9 secs

     total energy              =    -658.54075233 Ry
     estimated scf accuracy    <       0.00001618 Ry

     total magnetization       =     4.17 Bohr mag/cell
     absolute magnetization    =     4.41 Bohr mag/cell

     iteration #  6     ecut=   100.00 Ry     beta= 0.40
     Davidson diagonalization with overlap

---- Real-time Memory Report at c_bands before calling an iterative solver
            76 MiB given to the printing process from OS
             0 MiB allocation reported by mallinfo(arena+hblkhd)
        366173 MiB available memory on the node where the printing process lives
------------------
     ethr =  2.19E-08,  avg # of iterations =  3.1

     negative rho (up, down):  0.000E+00 9.223E-05

     total cpu time spent up to now is        5.8 secs

     total energy              =    -658.54075504 Ry
     estimated scf accuracy    <       0.00000004 Ry

     total magnetization       =     4.17 Bohr mag/cell
     absolute magnetization    =     4.41 Bohr mag/cell

     iteration #  7     ecut=   100.00 Ry     beta= 0.40
     Davidson diagonalization with overlap

---- Real-time Memory Report at c_bands before calling an iterative solver
            77 MiB given to the printing process from OS
             0 MiB allocation reported by mallinfo(arena+hblkhd)
        366165 MiB available memory on the node where the printing process lives
------------------
     ethr =  1.35E-10,  avg # of iterations =  3.5

     negative rho (up, down):  0.000E+00 9.249E-05

     total cpu time spent up to now is        6.9 secs

     total energy              =    -658.54075507 Ry
     estimated scf accuracy    <       0.00000017 Ry

     total magnetization       =     4.17 Bohr mag/cell
     absolute magnetization    =     4.41 Bohr mag/cell

     iteration #  8     ecut=   100.00 Ry     beta= 0.40
     Davidson diagonalization with overlap

---- Real-time Memory Report at c_bands before calling an iterative solver
            78 MiB given to the printing process from OS
             0 MiB allocation reported by mallinfo(arena+hblkhd)
        366155 MiB available memory on the node where the printing process lives
------------------
     ethr =  1.35E-10,  avg # of iterations =  2.0

     negative rho (up, down):  0.000E+00 9.268E-05

     total cpu time spent up to now is        7.7 secs

     total energy              =    -658.54075510 Ry
     estimated scf accuracy    <       0.00000008 Ry

     total magnetization       =     4.17 Bohr mag/cell
     absolute magnetization    =     4.41 Bohr mag/cell

     iteration #  9     ecut=   100.00 Ry     beta= 0.40
     Davidson diagonalization with overlap

---- Real-time Memory Report at c_bands before calling an iterative solver
            78 MiB given to the printing process from OS
             0 MiB allocation reported by mallinfo(arena+hblkhd)
        366151 MiB available memory on the node where the printing process lives
------------------
     ethr =  1.35E-10,  avg # of iterations =  1.9

     negative rho (up, down):  0.000E+00 9.331E-05

     total cpu time spent up to now is        8.5 secs

     total energy              =    -658.54075417 Ry
     estimated scf accuracy    <       0.00000012 Ry

     total magnetization       =     4.17 Bohr mag/cell
     absolute magnetization    =     4.41 Bohr mag/cell

     iteration # 10     ecut=   100.00 Ry     beta= 0.40
     Davidson diagonalization with overlap

---- Real-time Memory Report at c_bands before calling an iterative solver
            78 MiB given to the printing process from OS
             0 MiB allocation reported by mallinfo(arena+hblkhd)
        366145 MiB available memory on the node where the printing process lives
------------------
     ethr =  1.35E-10,  avg # of iterations =  4.0

     negative rho (up, down):  0.000E+00 9.234E-05

     total cpu time spent up to now is        9.7 secs

     total energy              =    -658.54075351 Ry
     estimated scf accuracy    <       0.00000007 Ry

     total magnetization       =     4.18 Bohr mag/cell
     absolute magnetization    =     4.42 Bohr mag/cell

     iteration # 11     ecut=   100.00 Ry     beta= 0.40
     Davidson diagonalization with overlap

---- Real-time Memory Report at c_bands before calling an iterative solver
            80 MiB given to the printing process from OS
             0 MiB allocation reported by mallinfo(arena+hblkhd)
        366142 MiB available memory on the node where the printing process lives
------------------
     ethr =  1.35E-10,  avg # of iterations =  4.2

     negative rho (up, down):  0.000E+00 9.556E-05

     total cpu time spent up to now is       10.9 secs

     total energy              =    -658.54073973 Ry
     estimated scf accuracy    <       0.00000030 Ry

     total magnetization       =     4.17 Bohr mag/cell
     absolute magnetization    =     4.41 Bohr mag/cell

     iteration # 12     ecut=   100.00 Ry     beta= 0.40
     Davidson diagonalization with overlap

---- Real-time Memory Report at c_bands before calling an iterative solver
            81 MiB given to the printing process from OS
             0 MiB allocation reported by mallinfo(arena+hblkhd)
        366138 MiB available memory on the node where the printing process lives
------------------
     ethr =  1.35E-10,  avg # of iterations =  5.7

     negative rho (up, down):  0.000E+00 9.217E-05

     total cpu time spent up to now is       12.3 secs

     total energy              =    -658.54073215 Ry
     estimated scf accuracy    <       0.00000058 Ry

     total magnetization       =     4.20 Bohr mag/cell
     absolute magnetization    =     4.45 Bohr mag/cell

     iteration # 13     ecut=   100.00 Ry     beta= 0.40
     Davidson diagonalization with overlap

---- Real-time Memory Report at c_bands before calling an iterative solver
            82 MiB given to the printing process from OS
             0 MiB allocation reported by mallinfo(arena+hblkhd)
        366135 MiB available memory on the node where the printing process lives
------------------
     ethr =  1.35E-10,  avg # of iterations =  5.8

     negative rho (up, down):  0.000E+00 9.347E-05

     total cpu time spent up to now is       13.7 secs

     total energy              =    -658.54075249 Ry
     estimated scf accuracy    <       0.00000016 Ry

     total magnetization       =     4.16 Bohr mag/cell
     absolute magnetization    =     4.41 Bohr mag/cell

     iteration # 14     ecut=   100.00 Ry     beta= 0.40
     Davidson diagonalization with overlap

---- Real-time Memory Report at c_bands before calling an iterative solver
            82 MiB given to the printing process from OS
             0 MiB allocation reported by mallinfo(arena+hblkhd)
        366133 MiB available memory on the node where the printing process lives
------------------
     ethr =  1.35E-10,  avg # of iterations =  4.6

     negative rho (up, down):  0.000E+00 9.255E-05

     total cpu time spent up to now is       14.9 secs

     total energy              =    -658.54075352 Ry
     estimated scf accuracy    <       0.00000005 Ry

     total magnetization       =     4.18 Bohr mag/cell
     absolute magnetization    =     4.42 Bohr mag/cell

     iteration # 15     ecut=   100.00 Ry     beta= 0.40
     Davidson diagonalization with overlap

---- Real-time Memory Report at c_bands before calling an iterative solver
            82 MiB given to the printing process from OS
             0 MiB allocation reported by mallinfo(arena+hblkhd)
        366131 MiB available memory on the node where the printing process lives
------------------
     ethr =  1.35E-10,  avg # of iterations =  3.9

     negative rho (up, down):  0.000E+00 9.352E-05

     total cpu time spent up to now is       16.1 secs

     total energy              =    -658.54075360 Ry
     estimated scf accuracy    <       0.00000006 Ry

     total magnetization       =     4.17 Bohr mag/cell
     absolute magnetization    =     4.41 Bohr mag/cell

     iteration # 16     ecut=   100.00 Ry     beta= 0.40
     Davidson diagonalization with overlap

---- Real-time Memory Report at c_bands before calling an iterative solver
            82 MiB given to the printing process from OS
             0 MiB allocation reported by mallinfo(arena+hblkhd)
        366130 MiB available memory on the node where the printing process lives
------------------
     ethr =  1.35E-10,  avg # of iterations =  3.9

     negative rho (up, down):  0.000E+00 9.425E-05

     total cpu time spent up to now is       17.2 secs

     total energy              =    -658.54075452 Ry
     estimated scf accuracy    <       0.00000002 Ry

     total magnetization       =     4.18 Bohr mag/cell
     absolute magnetization    =     4.42 Bohr mag/cell

     iteration # 17     ecut=   100.00 Ry     beta= 0.40
     Davidson diagonalization with overlap

---- Real-time Memory Report at c_bands before calling an iterative solver
            83 MiB given to the printing process from OS
             0 MiB allocation reported by mallinfo(arena+hblkhd)
        366130 MiB available memory on the node where the printing process lives
------------------
     ethr =  5.19E-11,  avg # of iterations =  4.4

     negative rho (up, down):  0.000E+00 9.290E-05

     total cpu time spent up to now is       18.3 secs

     total energy              =    -658.54075154 Ry
     estimated scf accuracy    <       0.00000010 Ry

     total magnetization       =     4.19 Bohr mag/cell
     absolute magnetization    =     4.43 Bohr mag/cell

     iteration # 18     ecut=   100.00 Ry     beta= 0.40
     Davidson diagonalization with overlap

---- Real-time Memory Report at c_bands before calling an iterative solver
            83 MiB given to the printing process from OS
             0 MiB allocation reported by mallinfo(arena+hblkhd)
        366127 MiB available memory on the node where the printing process lives
------------------
     ethr =  5.19E-11,  avg # of iterations =  5.2

     negative rho (up, down):  0.000E+00 9.277E-05

     total cpu time spent up to now is       19.6 secs

     total energy              =    -658.54075511 Ry
     estimated scf accuracy    <          7.4E-09 Ry

     total magnetization       =     4.17 Bohr mag/cell
     absolute magnetization    =     4.41 Bohr mag/cell

     iteration # 19     ecut=   100.00 Ry     beta= 0.40
     Davidson diagonalization with overlap

---- Real-time Memory Report at c_bands before calling an iterative solver
            83 MiB given to the printing process from OS
             0 MiB allocation reported by mallinfo(arena+hblkhd)
        366126 MiB available memory on the node where the printing process lives
------------------
     ethr =  2.31E-11,  avg # of iterations =  2.8

     negative rho (up, down):  0.000E+00 9.261E-05

     total cpu time spent up to now is       20.7 secs

     total energy              =    -658.54075506 Ry
     estimated scf accuracy    <          9.3E-09 Ry

     total magnetization       =     4.17 Bohr mag/cell
     absolute magnetization    =     4.41 Bohr mag/cell

     iteration # 20     ecut=   100.00 Ry     beta= 0.40
     Davidson diagonalization with overlap

---- Real-time Memory Report at c_bands before calling an iterative solver
            83 MiB given to the printing process from OS
             0 MiB allocation reported by mallinfo(arena+hblkhd)
        366127 MiB available memory on the node where the printing process lives
------------------
     ethr =  2.31E-11,  avg # of iterations =  3.2

     negative rho (up, down):  0.000E+00 9.273E-05

     total cpu time spent up to now is       21.7 secs

     total energy              =    -658.54075510 Ry
     estimated scf accuracy    <       0.00000001 Ry

     total magnetization       =     4.17 Bohr mag/cell
     absolute magnetization    =     4.41 Bohr mag/cell

     iteration # 21     ecut=   100.00 Ry     beta= 0.40
     Davidson diagonalization with overlap

---- Real-time Memory Report at c_bands before calling an iterative solver
            83 MiB given to the printing process from OS
             0 MiB allocation reported by mallinfo(arena+hblkhd)
        366126 MiB available memory on the node where the printing process lives
------------------
     ethr =  2.31E-11,  avg # of iterations =  2.8

     negative rho (up, down):  0.000E+00 9.288E-05

     total cpu time spent up to now is       22.7 secs

     total energy              =    -658.54075512 Ry
     estimated scf accuracy    <          9.6E-09 Ry

     total magnetization       =     4.17 Bohr mag/cell
     absolute magnetization    =     4.41 Bohr mag/cell

     iteration # 22     ecut=   100.00 Ry     beta= 0.40
     Davidson diagonalization with overlap

---- Real-time Memory Report at c_bands before calling an iterative solver
            83 MiB given to the printing process from OS
             0 MiB allocation reported by mallinfo(arena+hblkhd)
        366125 MiB available memory on the node where the printing process lives
------------------
     ethr =  2.31E-11,  avg # of iterations =  3.0

     negative rho (up, down):  0.000E+00 9.289E-05

     total cpu time spent up to now is       23.7 secs

     total energy              =    -658.54075516 Ry
     estimated scf accuracy    <          8.2E-09 Ry

     total magnetization       =     4.17 Bohr mag/cell
     absolute magnetization    =     4.41 Bohr mag/cell

     iteration # 23     ecut=   100.00 Ry     beta= 0.40
     Davidson diagonalization with overlap

---- Real-time Memory Report at c_bands before calling an iterative solver
            83 MiB given to the printing process from OS
             0 MiB allocation reported by mallinfo(arena+hblkhd)
        366124 MiB available memory on the node where the printing process lives
------------------
     ethr =  2.31E-11,  avg # of iterations =  1.0

     negative rho (up, down):  0.000E+00 9.302E-05

     total cpu time spent up to now is       24.5 secs

     total energy              =    -658.54075515 Ry
     estimated scf accuracy    <          8.4E-09 Ry

     total magnetization       =     4.17 Bohr mag/cell
     absolute magnetization    =     4.41 Bohr mag/cell

     iteration # 24     ecut=   100.00 Ry     beta= 0.40
     Davidson diagonalization with overlap

---- Real-time Memory Report at c_bands before calling an iterative solver
            84 MiB given to the printing process from OS
             0 MiB allocation reported by mallinfo(arena+hblkhd)
        366123 MiB available memory on the node where the printing process lives
------------------
     ethr =  2.31E-11,  avg # of iterations =  2.8

     negative rho (up, down):  0.000E+00 9.300E-05

     total cpu time spent up to now is       25.5 secs

     total energy              =    -658.54075518 Ry
     estimated scf accuracy    <          8.5E-09 Ry

     total magnetization       =     4.17 Bohr mag/cell
     absolute magnetization    =     4.42 Bohr mag/cell

     iteration # 25     ecut=   100.00 Ry     beta= 0.40
     Davidson diagonalization with overlap

---- Real-time Memory Report at c_bands before calling an iterative solver
            84 MiB given to the printing process from OS
             0 MiB allocation reported by mallinfo(arena+hblkhd)
        366123 MiB available memory on the node where the printing process lives
------------------
     ethr =  2.31E-11,  avg # of iterations =  1.0

     negative rho (up, down):  0.000E+00 9.293E-05

     total cpu time spent up to now is       26.2 secs

     total energy              =    -658.54075515 Ry
     estimated scf accuracy    <          8.6E-09 Ry

     total magnetization       =     4.17 Bohr mag/cell
     absolute magnetization    =     4.41 Bohr mag/cell

     iteration # 26     ecut=   100.00 Ry     beta= 0.40
     Davidson diagonalization with overlap

---- Real-time Memory Report at c_bands before calling an iterative solver
            84 MiB given to the printing process from OS
             0 MiB allocation reported by mallinfo(arena+hblkhd)
        366123 MiB available memory on the node where the printing process lives
------------------
     ethr =  2.31E-11,  avg # of iterations =  2.0

     negative rho (up, down):  0.000E+00 9.380E-05

     total cpu time spent up to now is       27.1 secs

     total energy              =    -658.54075398 Ry
     estimated scf accuracy    <          8.7E-09 Ry

     total magnetization       =     4.17 Bohr mag/cell
     absolute magnetization    =     4.41 Bohr mag/cell

     iteration # 27     ecut=   100.00 Ry     beta= 0.40
     Davidson diagonalization with overlap

---- Real-time Memory Report at c_bands before calling an iterative solver
            85 MiB given to the printing process from OS
             0 MiB allocation reported by mallinfo(arena+hblkhd)
        366122 MiB available memory on the node where the printing process lives
------------------
     ethr =  2.31E-11,  avg # of iterations =  5.2

     negative rho (up, down):  0.000E+00 9.259E-05

     total cpu time spent up to now is       28.3 secs

     total energy              =    -658.54075238 Ry
     estimated scf accuracy    <       0.00000004 Ry

     total magnetization       =     4.18 Bohr mag/cell
     absolute magnetization    =     4.42 Bohr mag/cell

     iteration # 28     ecut=   100.00 Ry     beta= 0.40
     Davidson diagonalization with overlap

---- Real-time Memory Report at c_bands before calling an iterative solver
            85 MiB given to the printing process from OS
             0 MiB allocation reported by mallinfo(arena+hblkhd)
        366118 MiB available memory on the node where the printing process lives
------------------
     ethr =  2.31E-11,  avg # of iterations =  5.6

     negative rho (up, down):  0.000E+00 9.256E-05

     total cpu time spent up to now is       29.7 secs

     total energy              =    -658.54075509 Ry
     estimated scf accuracy    <       0.00000001 Ry

     total magnetization       =     4.17 Bohr mag/cell
     absolute magnetization    =     4.41 Bohr mag/cell

     iteration # 29     ecut=   100.00 Ry     beta= 0.40
     Davidson diagonalization with overlap

---- Real-time Memory Report at c_bands before calling an iterative solver
            85 MiB given to the printing process from OS
             0 MiB allocation reported by mallinfo(arena+hblkhd)
        366118 MiB available memory on the node where the printing process lives
------------------
     ethr =  2.31E-11,  avg # of iterations =  1.1

     negative rho (up, down):  0.000E+00 9.284E-05

     total cpu time spent up to now is       30.4 secs

     total energy              =    -658.54075502 Ry
     estimated scf accuracy    <       0.00000001 Ry

     total magnetization       =     4.17 Bohr mag/cell
     absolute magnetization    =     4.41 Bohr mag/cell

     iteration # 30     ecut=   100.00 Ry     beta= 0.40
     Davidson diagonalization with overlap

---- Real-time Memory Report at c_bands before calling an iterative solver
            85 MiB given to the printing process from OS
             0 MiB allocation reported by mallinfo(arena+hblkhd)
        366117 MiB available memory on the node where the printing process lives
------------------
     ethr =  2.31E-11,  avg # of iterations =  3.5

     negative rho (up, down):  0.000E+00 9.174E-05

     total cpu time spent up to now is       31.5 secs

     total energy              =    -658.54075281 Ry
     estimated scf accuracy    <          8.4E-09 Ry

     total magnetization       =     4.17 Bohr mag/cell
     absolute magnetization    =     4.41 Bohr mag/cell

     iteration # 31     ecut=   100.00 Ry     beta= 0.40
     Davidson diagonalization with overlap

---- Real-time Memory Report at c_bands before calling an iterative solver
            85 MiB given to the printing process from OS
             0 MiB allocation reported by mallinfo(arena+hblkhd)
        366118 MiB available memory on the node where the printing process lives
------------------
     ethr =  2.31E-11,  avg # of iterations =  5.5

     negative rho (up, down):  0.000E+00 9.198E-05

     total cpu time spent up to now is       32.9 secs

     total energy              =    -658.54075480 Ry
     estimated scf accuracy    <       0.00000014 Ry

     total magnetization       =     4.16 Bohr mag/cell
     absolute magnetization    =     4.40 Bohr mag/cell

     iteration # 32     ecut=   100.00 Ry     beta= 0.40
     Davidson diagonalization with overlap

---- Real-time Memory Report at c_bands before calling an iterative solver
            85 MiB given to the printing process from OS
             0 MiB allocation reported by mallinfo(arena+hblkhd)
        366118 MiB available memory on the node where the printing process lives
------------------
     ethr =  2.31E-11,  avg # of iterations =  3.4

     negative rho (up, down):  0.000E+00 9.252E-05

     total cpu time spent up to now is       33.9 secs

     total energy              =    -658.54075466 Ry
     estimated scf accuracy    <       0.00000007 Ry

     total magnetization       =     4.16 Bohr mag/cell
     absolute magnetization    =     4.40 Bohr mag/cell

     iteration # 33     ecut=   100.00 Ry     beta= 0.40
     Davidson diagonalization with overlap

---- Real-time Memory Report at c_bands before calling an iterative solver
            85 MiB given to the printing process from OS
             0 MiB allocation reported by mallinfo(arena+hblkhd)
        366118 MiB available memory on the node where the printing process lives
------------------
     ethr =  2.31E-11,  avg # of iterations =  4.7

     negative rho (up, down):  0.000E+00 9.262E-05

     total cpu time spent up to now is       35.1 secs

     total energy              =    -658.54075509 Ry
     estimated scf accuracy    <       0.00000002 Ry

     total magnetization       =     4.17 Bohr mag/cell
     absolute magnetization    =     4.41 Bohr mag/cell

     iteration # 34     ecut=   100.00 Ry     beta= 0.40
     Davidson diagonalization with overlap

---- Real-time Memory Report at c_bands before calling an iterative solver
            85 MiB given to the printing process from OS
             0 MiB allocation reported by mallinfo(arena+hblkhd)
        366117 MiB available memory on the node where the printing process lives
------------------
     ethr =  2.31E-11,  avg # of iterations =  2.6

     negative rho (up, down):  0.000E+00 9.284E-05

     total cpu time spent up to now is       36.1 secs

     total energy              =    -658.54075507 Ry
     estimated scf accuracy    <       0.00000001 Ry

     total magnetization       =     4.17 Bohr mag/cell
     absolute magnetization    =     4.41 Bohr mag/cell

     iteration # 35     ecut=   100.00 Ry     beta= 0.40
     Davidson diagonalization with overlap

---- Real-time Memory Report at c_bands before calling an iterative solver
            85 MiB given to the printing process from OS
             0 MiB allocation reported by mallinfo(arena+hblkhd)
        366117 MiB available memory on the node where the printing process lives
------------------
     ethr =  2.31E-11,  avg # of iterations =  3.4

     negative rho (up, down):  0.000E+00 9.314E-05

     total cpu time spent up to now is       37.2 secs

     total energy              =    -658.54075505 Ry
     estimated scf accuracy    <          8.1E-09 Ry

     total magnetization       =     4.17 Bohr mag/cell
     absolute magnetization    =     4.41 Bohr mag/cell

     iteration # 36     ecut=   100.00 Ry     beta= 0.40
     Davidson diagonalization with overlap

---- Real-time Memory Report at c_bands before calling an iterative solver
            86 MiB given to the printing process from OS
             0 MiB allocation reported by mallinfo(arena+hblkhd)
        366117 MiB available memory on the node where the printing process lives
------------------
     ethr =  2.31E-11,  avg # of iterations =  3.6

     negative rho (up, down):  0.000E+00 9.316E-05

     total cpu time spent up to now is       38.3 secs

     total energy              =    -658.54075521 Ry
     estimated scf accuracy    <          8.3E-09 Ry

     total magnetization       =     4.17 Bohr mag/cell
     absolute magnetization    =     4.42 Bohr mag/cell

     iteration # 37     ecut=   100.00 Ry     beta= 0.40
     Davidson diagonalization with overlap

---- Real-time Memory Report at c_bands before calling an iterative solver
            86 MiB given to the printing process from OS
             0 MiB allocation reported by mallinfo(arena+hblkhd)
        366114 MiB available memory on the node where the printing process lives
------------------
     ethr =  2.31E-11,  avg # of iterations =  1.0

     negative rho (up, down):  0.000E+00 9.235E-05

     total cpu time spent up to now is       39.0 secs

     total energy              =    -658.54075393 Ry
     estimated scf accuracy    <          8.5E-09 Ry

     total magnetization       =     4.17 Bohr mag/cell
     absolute magnetization    =     4.42 Bohr mag/cell

     iteration # 38     ecut=   100.00 Ry     beta= 0.40
     Davidson diagonalization with overlap

---- Real-time Memory Report at c_bands before calling an iterative solver
            86 MiB given to the printing process from OS
             0 MiB allocation reported by mallinfo(arena+hblkhd)
        366114 MiB available memory on the node where the printing process lives
------------------
     ethr =  2.31E-11,  avg # of iterations =  5.1

     negative rho (up, down):  0.000E+00 9.237E-05

     total cpu time spent up to now is       40.3 secs

     total energy              =    -658.54075504 Ry
     estimated scf accuracy    <       0.00000003 Ry

     total magnetization       =     4.17 Bohr mag/cell
     absolute magnetization    =     4.41 Bohr mag/cell

     iteration # 39     ecut=   100.00 Ry     beta= 0.40
     Davidson diagonalization with overlap

---- Real-time Memory Report at c_bands before calling an iterative solver
            86 MiB given to the printing process from OS
             0 MiB allocation reported by mallinfo(arena+hblkhd)
        366091 MiB available memory on the node where the printing process lives
------------------
     ethr =  2.31E-11,  avg # of iterations =  1.0

     negative rho (up, down):  0.000E+00 9.240E-05

     total cpu time spent up to now is       41.1 secs

     total energy              =    -658.54075505 Ry
     estimated scf accuracy    <       0.00000002 Ry

     total magnetization       =     4.17 Bohr mag/cell
     absolute magnetization    =     4.41 Bohr mag/cell

     iteration # 40     ecut=   100.00 Ry     beta= 0.40
     Davidson diagonalization with overlap

---- Real-time Memory Report at c_bands before calling an iterative solver
            86 MiB given to the printing process from OS
             0 MiB allocation reported by mallinfo(arena+hblkhd)
        366112 MiB available memory on the node where the printing process lives
------------------
     ethr =  2.31E-11,  avg # of iterations =  1.1

     negative rho (up, down):  0.000E+00 9.305E-05

     total cpu time spent up to now is       41.8 secs

     total energy              =    -658.54075450 Ry
     estimated scf accuracy    <       0.00000002 Ry

     total magnetization       =     4.17 Bohr mag/cell
     absolute magnetization    =     4.41 Bohr mag/cell

     iteration # 41     ecut=   100.00 Ry     beta= 0.40
     Davidson diagonalization with overlap

---- Real-time Memory Report at c_bands before calling an iterative solver
            86 MiB given to the printing process from OS
             0 MiB allocation reported by mallinfo(arena+hblkhd)
        366112 MiB available memory on the node where the printing process lives
------------------
     ethr =  2.31E-11,  avg # of iterations =  4.9

     negative rho (up, down):  0.000E+00 9.310E-05

     total cpu time spent up to now is       43.0 secs

     total energy              =    -658.54075519 Ry
     estimated scf accuracy    <          7.7E-09 Ry

     total magnetization       =     4.17 Bohr mag/cell
     absolute magnetization    =     4.42 Bohr mag/cell

     iteration # 42     ecut=   100.00 Ry     beta= 0.40
     Davidson diagonalization with overlap

---- Real-time Memory Report at c_bands before calling an iterative solver
            86 MiB given to the printing process from OS
             0 MiB allocation reported by mallinfo(arena+hblkhd)
        366111 MiB available memory on the node where the printing process lives
------------------
     ethr =  2.31E-11,  avg # of iterations =  1.6

     negative rho (up, down):  0.000E+00 9.281E-05

     total cpu time spent up to now is       43.9 secs

     total energy              =    -658.54075499 Ry
     estimated scf accuracy    <          8.0E-09 Ry

     total magnetization       =     4.17 Bohr mag/cell
     absolute magnetization    =     4.42 Bohr mag/cell

     iteration # 43     ecut=   100.00 Ry     beta= 0.40
     Davidson diagonalization with overlap

---- Real-time Memory Report at c_bands before calling an iterative solver
            86 MiB given to the printing process from OS
             0 MiB allocation reported by mallinfo(arena+hblkhd)
        366111 MiB available memory on the node where the printing process lives
------------------
     ethr =  2.31E-11,  avg # of iterations =  3.6

     negative rho (up, down):  0.000E+00 9.307E-05

     total cpu time spent up to now is       44.9 secs

     total energy              =    -658.54075508 Ry
     estimated scf accuracy    <          9.0E-09 Ry

     total magnetization       =     4.17 Bohr mag/cell
     absolute magnetization    =     4.41 Bohr mag/cell

     iteration # 44     ecut=   100.00 Ry     beta= 0.40
     Davidson diagonalization with overlap

---- Real-time Memory Report at c_bands before calling an iterative solver
            86 MiB given to the printing process from OS
             0 MiB allocation reported by mallinfo(arena+hblkhd)
        366111 MiB available memory on the node where the printing process lives
------------------
     ethr =  2.31E-11,  avg # of iterations =  3.4

     negative rho (up, down):  0.000E+00 9.376E-05

     total cpu time spent up to now is       46.0 secs

     total energy              =    -658.54075448 Ry
     estimated scf accuracy    <          7.7E-09 Ry

     total magnetization       =     4.17 Bohr mag/cell
     absolute magnetization    =     4.42 Bohr mag/cell

     iteration # 45     ecut=   100.00 Ry     beta= 0.40
     Davidson diagonalization with overlap

---- Real-time Memory Report at c_bands before calling an iterative solver
            86 MiB given to the printing process from OS
             0 MiB allocation reported by mallinfo(arena+hblkhd)
        366111 MiB available memory on the node where the printing process lives
------------------
     ethr =  2.31E-11,  avg # of iterations =  5.0

     negative rho (up, down):  0.000E+00 9.436E-05

     total cpu time spent up to now is       47.3 secs

     total energy              =    -658.54075493 Ry
     estimated scf accuracy    <       0.00000003 Ry

     total magnetization       =     4.18 Bohr mag/cell
     absolute magnetization    =     4.42 Bohr mag/cell

     iteration # 46     ecut=   100.00 Ry     beta= 0.40
     Davidson diagonalization with overlap

---- Real-time Memory Report at c_bands before calling an iterative solver
            86 MiB given to the printing process from OS
             0 MiB allocation reported by mallinfo(arena+hblkhd)
        366111 MiB available memory on the node where the printing process lives
------------------
     ethr =  2.31E-11,  avg # of iterations =  4.8

     negative rho (up, down):  0.000E+00 9.257E-05

     total cpu time spent up to now is       48.6 secs

     total energy              =    -658.54074887 Ry
     estimated scf accuracy    <       0.00000012 Ry

     total magnetization       =     4.19 Bohr mag/cell
     absolute magnetization    =     4.43 Bohr mag/cell

     iteration # 47     ecut=   100.00 Ry     beta= 0.40
     Davidson diagonalization with overlap

---- Real-time Memory Report at c_bands before calling an iterative solver
            86 MiB given to the printing process from OS
             0 MiB allocation reported by mallinfo(arena+hblkhd)
        366111 MiB available memory on the node where the printing process lives
------------------
     ethr =  2.31E-11,  avg # of iterations =  6.2

     negative rho (up, down):  0.000E+00 9.281E-05

     total cpu time spent up to now is       50.0 secs

     total energy              =    -658.54075505 Ry
     estimated scf accuracy    <       0.00000001 Ry

     total magnetization       =     4.17 Bohr mag/cell
     absolute magnetization    =     4.41 Bohr mag/cell

     iteration # 48     ecut=   100.00 Ry     beta= 0.40
     Davidson diagonalization with overlap

---- Real-time Memory Report at c_bands before calling an iterative solver
            87 MiB given to the printing process from OS
             0 MiB allocation reported by mallinfo(arena+hblkhd)
        366112 MiB available memory on the node where the printing process lives
------------------
     ethr =  2.31E-11,  avg # of iterations =  3.3

     negative rho (up, down):  0.000E+00 9.297E-05

     total cpu time spent up to now is       51.1 secs

     total energy              =    -658.54075513 Ry
     estimated scf accuracy    <          8.8E-09 Ry

     total magnetization       =     4.17 Bohr mag/cell
     absolute magnetization    =     4.41 Bohr mag/cell

     iteration # 49     ecut=   100.00 Ry     beta= 0.40
     Davidson diagonalization with overlap

---- Real-time Memory Report at c_bands before calling an iterative solver
            87 MiB given to the printing process from OS
             0 MiB allocation reported by mallinfo(arena+hblkhd)
        366111 MiB available memory on the node where the printing process lives
------------------
     ethr =  2.31E-11,  avg # of iterations =  3.0

     negative rho (up, down):  0.000E+00 9.297E-05

     total cpu time spent up to now is       52.1 secs

     total energy              =    -658.54075517 Ry
     estimated scf accuracy    <          7.8E-09 Ry

     total magnetization       =     4.17 Bohr mag/cell
     absolute magnetization    =     4.41 Bohr mag/cell

     iteration # 50     ecut=   100.00 Ry     beta= 0.40
     Davidson diagonalization with overlap

---- Real-time Memory Report at c_bands before calling an iterative solver
            87 MiB given to the printing process from OS
             0 MiB allocation reported by mallinfo(arena+hblkhd)
        366111 MiB available memory on the node where the printing process lives
------------------
     ethr =  2.31E-11,  avg # of iterations =  1.0

     negative rho (up, down):  0.000E+00 9.326E-05

     total cpu time spent up to now is       52.9 secs

     total energy              =    -658.54075508 Ry
     estimated scf accuracy    <          8.0E-09 Ry

     total magnetization       =     4.17 Bohr mag/cell
     absolute magnetization    =     4.41 Bohr mag/cell

     iteration # 51     ecut=   100.00 Ry     beta= 0.40
     Davidson diagonalization with overlap

---- Real-time Memory Report at c_bands before calling an iterative solver
            87 MiB given to the printing process from OS
             0 MiB allocation reported by mallinfo(arena+hblkhd)
        366112 MiB available memory on the node where the printing process lives
------------------
     ethr =  2.31E-11,  avg # of iterations =  3.5

     negative rho (up, down):  0.000E+00 9.283E-05

     total cpu time spent up to now is       54.0 secs

     total energy              =    -658.54075482 Ry
     estimated scf accuracy    <       0.00000001 Ry

     total magnetization       =     4.17 Bohr mag/cell
     absolute magnetization    =     4.42 Bohr mag/cell

     iteration # 52     ecut=   100.00 Ry     beta= 0.40
     Davidson diagonalization with overlap

---- Real-time Memory Report at c_bands before calling an iterative solver
            87 MiB given to the printing process from OS
             0 MiB allocation reported by mallinfo(arena+hblkhd)
        366112 MiB available memory on the node where the printing process lives
------------------
     ethr =  2.31E-11,  avg # of iterations =  4.1

     negative rho (up, down):  0.000E+00 9.177E-05

     total cpu time spent up to now is       55.1 secs

     total energy              =    -658.54075299 Ry
     estimated scf accuracy    <          8.9E-09 Ry

     total magnetization       =     4.17 Bohr mag/cell
     absolute magnetization    =     4.41 Bohr mag/cell

     iteration # 53     ecut=   100.00 Ry     beta= 0.40
     Davidson diagonalization with overlap

---- Real-time Memory Report at c_bands before calling an iterative solver
            87 MiB given to the printing process from OS
             0 MiB allocation reported by mallinfo(arena+hblkhd)
        366111 MiB available memory on the node where the printing process lives
------------------
     ethr =  2.31E-11,  avg # of iterations =  5.5

     negative rho (up, down):  0.000E+00 9.179E-05

     total cpu time spent up to now is       56.4 secs

     total energy              =    -658.54075476 Ry
     estimated scf accuracy    <       0.00000013 Ry

     total magnetization       =     4.16 Bohr mag/cell
     absolute magnetization    =     4.40 Bohr mag/cell

     iteration # 54     ecut=   100.00 Ry     beta= 0.40
     Davidson diagonalization with overlap

---- Real-time Memory Report at c_bands before calling an iterative solver
            87 MiB given to the printing process from OS
             0 MiB allocation reported by mallinfo(arena+hblkhd)
        366111 MiB available memory on the node where the printing process lives
------------------
     ethr =  2.31E-11,  avg # of iterations =  1.0

     negative rho (up, down):  0.000E+00 9.186E-05

     total cpu time spent up to now is       57.2 secs

     total energy              =    -658.54075480 Ry
     estimated scf accuracy    <       0.00000013 Ry

     total magnetization       =     4.16 Bohr mag/cell
     absolute magnetization    =     4.40 Bohr mag/cell

     iteration # 55     ecut=   100.00 Ry     beta= 0.40
     Davidson diagonalization with overlap

---- Real-time Memory Report at c_bands before calling an iterative solver
            87 MiB given to the printing process from OS
             0 MiB allocation reported by mallinfo(arena+hblkhd)
        366111 MiB available memory on the node where the printing process lives
------------------
     ethr =  2.31E-11,  avg # of iterations =  2.0

     negative rho (up, down):  0.000E+00 9.146E-05

     total cpu time spent up to now is       58.0 secs

     total energy              =    -658.54075428 Ry
     estimated scf accuracy    <       0.00000010 Ry

     total magnetization       =     4.16 Bohr mag/cell
     absolute magnetization    =     4.40 Bohr mag/cell

     iteration # 56     ecut=   100.00 Ry     beta= 0.40
     Davidson diagonalization with overlap

---- Real-time Memory Report at c_bands before calling an iterative solver
            87 MiB given to the printing process from OS
             0 MiB allocation reported by mallinfo(arena+hblkhd)
        366106 MiB available memory on the node where the printing process lives
------------------
     ethr =  2.31E-11,  avg # of iterations =  4.0

     negative rho (up, down):  0.000E+00 9.091E-05

     total cpu time spent up to now is       59.1 secs

     total energy              =    -658.54075337 Ry
     estimated scf accuracy    <       0.00000027 Ry

     total magnetization       =     4.16 Bohr mag/cell
     absolute magnetization    =     4.40 Bohr mag/cell

     iteration # 57     ecut=   100.00 Ry     beta= 0.40
     Davidson diagonalization with overlap

---- Real-time Memory Report at c_bands before calling an iterative solver
            87 MiB given to the printing process from OS
[...]
     Davidson diagonalization with overlap

---- Real-time Memory Report at c_bands before calling an iterative solver
            87 MiB given to the printing process from OS
             0 MiB allocation reported by mallinfo(arena+hblkhd)
        366106 MiB available memory on the node where the printing process lives
------------------
     ethr =  2.31E-11,  avg # of iterations =  2.6

     negative rho (up, down):  0.000E+00 9.294E-05

     total cpu time spent up to now is       64.0 secs

     total energy              =    -658.54075514 Ry
     estimated scf accuracy    <          7.5E-09 Ry

     total magnetization       =     4.17 Bohr mag/cell
     absolute magnetization    =     4.42 Bohr mag/cell

     iteration # 61     ecut=   100.00 Ry     beta= 0.40
     Davidson diagonalization with overlap

---- Real-time Memory Report at c_bands before calling an iterative solver
            88 MiB given to the printing process from OS
             0 MiB allocation reported by mallinfo(arena+hblkhd)
        366106 MiB available memory on the node where the printing process lives
------------------
     ethr =  2.31E-11,  avg # of iterations =  3.0

     negative rho (up, down):  0.000E+00 9.289E-05

     total cpu time spent up to now is       65.0 secs

     total energy              =    -658.54075515 Ry
     estimated scf accuracy    <          7.3E-09 Ry

     total magnetization       =     4.17 Bohr mag/cell
     absolute magnetization    =     4.41 Bohr mag/cell

     iteration # 62     ecut=   100.00 Ry     beta= 0.40
     Davidson diagonalization with overlap

---- Real-time Memory Report at c_bands before calling an iterative solver
            88 MiB given to the printing process from OS
             0 MiB allocation reported by mallinfo(arena+hblkhd)
        366106 MiB available memory on the node where the printing process lives
------------------
     ethr =  2.28E-11,  avg # of iterations =  1.9

     negative rho (up, down):  0.000E+00 9.316E-05

     total cpu time spent up to now is       65.9 secs

     total energy              =    -658.54075508 Ry
     estimated scf accuracy    <          7.5E-09 Ry

     total magnetization       =     4.17 Bohr mag/cell
     absolute magnetization    =     4.41 Bohr mag/cell

     iteration # 63     ecut=   100.00 Ry     beta= 0.40
     Davidson diagonalization with overlap

---- Real-time Memory Report at c_bands before calling an iterative solver
            88 MiB given to the printing process from OS
             0 MiB allocation reported by mallinfo(arena+hblkhd)
        366106 MiB available memory on the node where the printing process lives
------------------
     ethr =  2.28E-11,  avg # of iterations =  3.5

     negative rho (up, down):  0.000E+00 9.350E-05

     total cpu time spent up to now is       66.9 secs

     total energy              =    -658.54075507 Ry
     estimated scf accuracy    <          7.5E-09 Ry

     total magnetization       =     4.17 Bohr mag/cell
     absolute magnetization    =     4.42 Bohr mag/cell

     iteration # 64     ecut=   100.00 Ry     beta= 0.40
     Davidson diagonalization with overlap

---- Real-time Memory Report at c_bands before calling an iterative solver
            88 MiB given to the printing process from OS
             0 MiB allocation reported by mallinfo(arena+hblkhd)
        366106 MiB available memory on the node where the printing process lives
------------------
     ethr =  2.28E-11,  avg # of iterations =  3.7

     negative rho (up, down):  0.000E+00 9.342E-05

     total cpu time spent up to now is       68.0 secs

     total energy              =    -658.54075524 Ry
     estimated scf accuracy    <       0.00000001 Ry

     total magnetization       =     4.18 Bohr mag/cell
     absolute magnetization    =     4.42 Bohr mag/cell

     iteration # 65     ecut=   100.00 Ry     beta= 0.40
     Davidson diagonalization with overlap

---- Real-time Memory Report at c_bands before calling an iterative solver
            88 MiB given to the printing process from OS
             0 MiB allocation reported by mallinfo(arena+hblkhd)
        366105 MiB available memory on the node where the printing process lives
------------------
     ethr =  2.28E-11,  avg # of iterations =  2.0

     negative rho (up, down):  0.000E+00 9.365E-05

     total cpu time spent up to now is       68.9 secs

     total energy              =    -658.54075522 Ry
     estimated scf accuracy    <       0.00000001 Ry

     total magnetization       =     4.18 Bohr mag/cell
     absolute magnetization    =     4.42 Bohr mag/cell

     iteration # 66     ecut=   100.00 Ry     beta= 0.40
     Davidson diagonalization with overlap

---- Real-time Memory Report at c_bands before calling an iterative solver
            88 MiB given to the printing process from OS
             0 MiB allocation reported by mallinfo(arena+hblkhd)
        366105 MiB available memory on the node where the printing process lives
------------------
     ethr =  2.28E-11,  avg # of iterations =  3.3

     negative rho (up, down):  0.000E+00 9.312E-05

     total cpu time spent up to now is       70.0 secs

     total energy              =    -658.54075467 Ry
     estimated scf accuracy    <       0.00000002 Ry

     total magnetization       =     4.18 Bohr mag/cell
     absolute magnetization    =     4.42 Bohr mag/cell

     iteration # 67     ecut=   100.00 Ry     beta= 0.40
     Davidson diagonalization with overlap

---- Real-time Memory Report at c_bands before calling an iterative solver
            88 MiB given to the printing process from OS
             0 MiB allocation reported by mallinfo(arena+hblkhd)
        366106 MiB available memory on the node where the printing process lives
------------------
     ethr =  2.28E-11,  avg # of iterations =  4.5

     negative rho (up, down):  0.000E+00 9.244E-05

     total cpu time spent up to now is       71.2 secs

     total energy              =    -658.54075428 Ry
     estimated scf accuracy    <          7.5E-09 Ry

     total magnetization       =     4.17 Bohr mag/cell
     absolute magnetization    =     4.42 Bohr mag/cell

     iteration # 68     ecut=   100.00 Ry     beta= 0.40
     Davidson diagonalization with overlap

---- Real-time Memory Report at c_bands before calling an iterative solver
            88 MiB given to the printing process from OS
             0 MiB allocation reported by mallinfo(arena+hblkhd)
        366106 MiB available memory on the node where the printing process lives
------------------
     ethr =  2.28E-11,  avg # of iterations =  4.9

     negative rho (up, down):  0.000E+00 9.172E-05

     total cpu time spent up to now is       72.4 secs

     total energy              =    -658.54075397 Ry
     estimated scf accuracy    <       0.00000002 Ry

     total magnetization       =     4.17 Bohr mag/cell
     absolute magnetization    =     4.41 Bohr mag/cell

     iteration # 69     ecut=   100.00 Ry     beta= 0.40
     Davidson diagonalization with overlap

---- Real-time Memory Report at c_bands before calling an iterative solver
            88 MiB given to the printing process from OS
             0 MiB allocation reported by mallinfo(arena+hblkhd)
        366106 MiB available memory on the node where the printing process lives
------------------
     ethr =  2.28E-11,  avg # of iterations =  5.0

     negative rho (up, down):  0.000E+00 9.299E-05

     total cpu time spent up to now is       73.7 secs

     total energy              =    -658.54075287 Ry
     estimated scf accuracy    <       0.00000015 Ry

     total magnetization       =     4.16 Bohr mag/cell
     absolute magnetization    =     4.40 Bohr mag/cell

     iteration # 70     ecut=   100.00 Ry     beta= 0.40
     Davidson diagonalization with overlap

---- Real-time Memory Report at c_bands before calling an iterative solver
            88 MiB given to the printing process from OS
             0 MiB allocation reported by mallinfo(arena+hblkhd)
        366105 MiB available memory on the node where the printing process lives
------------------
     ethr =  2.28E-11,  avg # of iterations =  5.7

     negative rho (up, down):  0.000E+00 9.398E-05

     total cpu time spent up to now is       75.1 secs

     total energy              =    -658.54075367 Ry
     estimated scf accuracy    <          7.1E-09 Ry

     total magnetization       =     4.17 Bohr mag/cell
     absolute magnetization    =     4.41 Bohr mag/cell

     iteration # 71     ecut=   100.00 Ry     beta= 0.40
     Davidson diagonalization with overlap

---- Real-time Memory Report at c_bands before calling an iterative solver
            88 MiB given to the printing process from OS
             0 MiB allocation reported by mallinfo(arena+hblkhd)
        366105 MiB available memory on the node where the printing process lives
------------------
     ethr =  2.21E-11,  avg # of iterations =  5.4

     negative rho (up, down):  0.000E+00 9.348E-05

     total cpu time spent up to now is       76.5 secs

     total energy              =    -658.54075478 Ry
     estimated scf accuracy    <       0.00000005 Ry

     total magnetization       =     4.18 Bohr mag/cell
     absolute magnetization    =     4.43 Bohr mag/cell

     iteration # 72     ecut=   100.00 Ry     beta= 0.40
     Davidson diagonalization with overlap

---- Real-time Memory Report at c_bands before calling an iterative solver
            88 MiB given to the printing process from OS
             0 MiB allocation reported by mallinfo(arena+hblkhd)
        366106 MiB available memory on the node where the printing process lives
------------------
     ethr =  2.21E-11,  avg # of iterations =  4.3

     negative rho (up, down):  0.000E+00 9.366E-05

     total cpu time spent up to now is       77.6 secs

     total energy              =    -658.54075526 Ry
     estimated scf accuracy    <       0.00000001 Ry

     total magnetization       =     4.18 Bohr mag/cell
     absolute magnetization    =     4.42 Bohr mag/cell

     iteration # 73     ecut=   100.00 Ry     beta= 0.40
     Davidson diagonalization with overlap

---- Real-time Memory Report at c_bands before calling an iterative solver
            88 MiB given to the printing process from OS
             0 MiB allocation reported by mallinfo(arena+hblkhd)
        366107 MiB available memory on the node where the printing process lives
------------------
     ethr =  2.21E-11,  avg # of iterations =  3.1

     negative rho (up, down):  0.000E+00 9.310E-05

     total cpu time spent up to now is       78.7 secs

     total energy              =    -658.54075460 Ry
     estimated scf accuracy    <       0.00000002 Ry

     total magnetization       =     4.18 Bohr mag/cell
     absolute magnetization    =     4.42 Bohr mag/cell

     iteration # 74     ecut=   100.00 Ry     beta= 0.40
     Davidson diagonalization with overlap

---- Real-time Memory Report at c_bands before calling an iterative solver
            88 MiB given to the printing process from OS
             0 MiB allocation reported by mallinfo(arena+hblkhd)
        366107 MiB available memory on the node where the printing process lives
------------------
     ethr =  2.21E-11,  avg # of iterations =  4.7

     negative rho (up, down):  0.000E+00 9.246E-05

     total cpu time spent up to now is       79.9 secs

     total energy              =    -658.54075438 Ry
     estimated scf accuracy    <          7.6E-09 Ry

     total magnetization       =     4.17 Bohr mag/cell
     absolute magnetization    =     4.42 Bohr mag/cell

     iteration # 75     ecut=   100.00 Ry     beta= 0.40
     Davidson diagonalization with overlap

---- Real-time Memory Report at c_bands before calling an iterative solver
            88 MiB given to the printing process from OS
             0 MiB allocation reported by mallinfo(arena+hblkhd)
        366107 MiB available memory on the node where the printing process lives
------------------
     ethr =  2.21E-11,  avg # of iterations =  4.9

     negative rho (up, down):  0.000E+00 9.252E-05

     total cpu time spent up to now is       81.2 secs

     total energy              =    -658.54075508 Ry
     estimated scf accuracy    <       0.00000002 Ry

     total magnetization       =     4.17 Bohr mag/cell
     absolute magnetization    =     4.41 Bohr mag/cell

     iteration # 76     ecut=   100.00 Ry     beta= 0.40
     Davidson diagonalization with overlap

---- Real-time Memory Report at c_bands before calling an iterative solver
            88 MiB given to the printing process from OS
             0 MiB allocation reported by mallinfo(arena+hblkhd)
        366106 MiB available memory on the node where the printing process lives
------------------
     ethr =  2.21E-11,  avg # of iterations =  1.6

     negative rho (up, down):  0.000E+00 9.284E-05

     total cpu time spent up to now is       82.0 secs

     total energy              =    -658.54075499 Ry
     estimated scf accuracy    <       0.00000002 Ry

     total magnetization       =     4.17 Bohr mag/cell
     absolute magnetization    =     4.41 Bohr mag/cell

     iteration # 77     ecut=   100.00 Ry     beta= 0.40
     Davidson diagonalization with overlap

---- Real-time Memory Report at c_bands before calling an iterative solver
            88 MiB given to the printing process from OS
             0 MiB allocation reported by mallinfo(arena+hblkhd)
        366106 MiB available memory on the node where the printing process lives
------------------
     ethr =  2.21E-11,  avg # of iterations =  3.6

     negative rho (up, down):  0.000E+00 9.287E-05

     total cpu time spent up to now is       83.1 secs

     total energy              =    -658.54075515 Ry
     estimated scf accuracy    <          7.8E-09 Ry

     total magnetization       =     4.17 Bohr mag/cell
     absolute magnetization    =     4.41 Bohr mag/cell

     iteration # 78     ecut=   100.00 Ry     beta= 0.40
     Davidson diagonalization with overlap

---- Real-time Memory Report at c_bands before calling an iterative solver
            88 MiB given to the printing process from OS
             0 MiB allocation reported by mallinfo(arena+hblkhd)
        366106 MiB available memory on the node where the printing process lives
------------------
     ethr =  2.21E-11,  avg # of iterations =  1.2

     negative rho (up, down):  0.000E+00 9.238E-05

     total cpu time spent up to now is       83.9 secs

     total energy              =    -658.54075466 Ry
     estimated scf accuracy    <          7.6E-09 Ry

     total magnetization       =     4.17 Bohr mag/cell
     absolute magnetization    =     4.41 Bohr mag/cell

     iteration # 79     ecut=   100.00 Ry     beta= 0.40
     Davidson diagonalization with overlap

---- Real-time Memory Report at c_bands before calling an iterative solver
            88 MiB given to the printing process from OS
             0 MiB allocation reported by mallinfo(arena+hblkhd)
        366106 MiB available memory on the node where the printing process lives
------------------
     ethr =  2.21E-11,  avg # of iterations =  4.2

     negative rho (up, down):  0.000E+00 9.214E-05

     total cpu time spent up to now is       85.0 secs

     total energy              =    -658.54075487 Ry
     estimated scf accuracy    <       0.00000002 Ry

     total magnetization       =     4.17 Bohr mag/cell
     absolute magnetization    =     4.41 Bohr mag/cell

     iteration # 80     ecut=   100.00 Ry     beta= 0.40
     Davidson diagonalization with overlap

---- Real-time Memory Report at c_bands before calling an iterative solver
            88 MiB given to the printing process from OS
             0 MiB allocation reported by mallinfo(arena+hblkhd)
        366106 MiB available memory on the node where the printing process lives
------------------
     ethr =  2.21E-11,  avg # of iterations =  3.4

     negative rho (up, down):  0.000E+00 9.198E-05

     total cpu time spent up to now is       86.1 secs

     total energy              =    -658.54075484 Ry
     estimated scf accuracy    <       0.00000005 Ry

     total magnetization       =     4.16 Bohr mag/cell
     absolute magnetization    =     4.41 Bohr mag/cell

     End of self-consistent calculation

     convergence NOT achieved after  80 iterations: stopping

     Writing config to output data dir ./out/Fe.save/
 
     init_run     :      0.29s CPU      0.36s WALL (       1 calls)
     electrons    :     81.28s CPU     85.64s WALL (       1 calls)

     Called by init_run:
     wfcinit      :      0.08s CPU      0.12s WALL (       1 calls)
     potinit      :      0.11s CPU      0.14s WALL (       1 calls)
     hinit0       :      0.06s CPU      0.06s WALL (       1 calls)

     Called by electrons:
     c_bands      :     62.22s CPU     64.60s WALL (      80 calls)
     sum_band     :      9.45s CPU      9.73s WALL (      80 calls)
     v_of_rho     :      0.83s CPU      0.84s WALL (      81 calls)
     v_h          :      0.03s CPU      0.03s WALL (      81 calls)
     v_xc         :      0.81s CPU      0.81s WALL (      81 calls)
     newd         :      0.59s CPU      0.73s WALL (      81 calls)
     PAW_pot      :      7.93s CPU      9.46s WALL (      81 calls)
     mix_rho      :      0.18s CPU      0.18s WALL (      80 calls)

     Called by c_bands:
     init_us_2    :      0.63s CPU      0.61s WALL (    8960 calls)
     init_us_2:cp :      0.62s CPU      0.60s WALL (    8960 calls)
     cegterg      :     53.02s CPU     54.49s WALL (    4480 calls)

     Called by sum_band:
     sum_band:wei :      0.05s CPU      0.05s WALL (      80 calls)
     sum_band:loo :      7.87s CPU      8.12s WALL (      80 calls)
     sum_band:buf :      0.04s CPU      0.05s WALL (    4480 calls)
     sum_band:ini :      0.35s CPU      0.32s WALL (    4480 calls)
     sum_band:cal :      0.55s CPU      0.55s WALL (    4480 calls)
     sum_band:bec :      0.02s CPU      0.05s WALL (    4480 calls)
     addusdens    :      1.28s CPU      1.30s WALL (      80 calls)
                                        0.00s GPU  (      80 calls)
     addusd:skk   :      0.00s CPU      0.00s WALL (      80 calls)
                                        0.00s GPU  (      80 calls)

     Called by *egterg:
     cdiaghg      :      8.61s CPU      8.77s WALL (   18101 calls)
     cegterg:over :      1.55s CPU      1.51s WALL (   13677 calls)
     cegterg:upda :      0.38s CPU      0.48s WALL (   13677 calls)
     cegterg:last :      0.81s CPU      0.85s WALL (   10430 calls)
     h_psi        :     39.74s CPU     40.85s WALL (   18157 calls)
     s_psi        :      0.64s CPU      0.56s WALL (   18157 calls)
     g_psi        :      0.11s CPU      0.17s WALL (   13677 calls)

     Called by h_psi:
     h_psi:calbec :      2.01s CPU      1.87s WALL (   18157 calls)
     vloc_psi     :     37.08s CPU     38.14s WALL (   18157 calls)
     add_vuspsi   :      0.53s CPU      0.65s WALL (   18157 calls)

     General routines
     calbec       :      2.55s CPU      2.38s WALL (   22637 calls)
     fft          :      0.48s CPU      0.48s WALL (    2023 calls)
     ffts         :      0.04s CPU      0.04s WALL (     322 calls)
     fftw         :     41.14s CPU     41.13s WALL (  610874 calls)
     interpolate  :      0.06s CPU      0.07s WALL (     162 calls)
     davcio       :      0.00s CPU      0.01s WALL (      74 calls)
 
     Parallel routines

     PAW routines
     PAW_pot      :      7.93s CPU      9.46s WALL (      81 calls)
     PAW_symme    :      0.15s CPU      0.15s WALL (     160 calls)
 
     PWSCF        :   1m21.69s CPU   1m26.17s WALL

 
   This run was terminated on:   8: 2: 0  16Apr2024            

=------------------------------------------------------------------------------=
   JOB DONE.
=------------------------------------------------------------------------------=
