
     Program PWSCF v.7.2 starts on 16Apr2024 at  8: 5:36 

     This program is part of the open-source Quantum ESPRESSO suite
     for quantum simulation of materials; please cite
         "P. Giannozzi et al., J. Phys.:Condens. Matter 21 395502 (2009);
         "P. Giannozzi et al., J. Phys.:Condens. Matter 29 465901 (2017);
         "P. Giannozzi et al., J. Chem. Phys. 152 154105 (2020);
          URL http://www.quantum-espresso.org", 
     in publications or presentations arising from this work. More details at
     http://www.quantum-espresso.org/quote

     Parallel version (MPI), running on    20 processors

     MPI processes distributed on     1 nodes
     366970 MiB available memory on the printing compute node when the environment starts
 
     Waiting for input...
     Reading input from standard input

     Current dimensions of program PWSCF are:
     Max number of different atomic species (ntypx) = 10
     Max number of k-points (npk) = 120000
     Max angular momentum in pseudopotentials (lmaxx) =  4
     file Fe.pbe-spn-kjpaw_psl.1.0.0.UPF: wavefunction(s)  3P 3D renormalized
     Found identity + ( -0.5000 -0.5000 -0.5000) symmetry
     This is a supercell, fractional translations are disabled
 
     K-points division:     npool     =       2
     R & G space division:  proc/nbgrp/npool/nimage =      10
     Subspace diagonalization in iterative solution of the eigenvalue problem:
     a serial algorithm will be used

 
     Parallelization info
     --------------------
     sticks:   dense  smooth     PW     G-vecs:    dense   smooth      PW
     Min         160      91     27                 4848     2080     341
     Max         161      93     28                 4851     2083     344
     Sum        1605     917    277                48489    20815    3431
 
     Using Slab Decomposition
 


     bravais-lattice index     =            1
     lattice parameter (alat)  =       5.3668  a.u.
     unit-cell volume          =     154.5794 (a.u.)^3
     number of atoms/cell      =            2
     number of atomic types    =            1
     number of electrons       =        32.00
     number of Kohn-Sham states=           20
     kinetic-energy cutoff     =     100.0000  Ry
     charge density cutoff     =     700.0000  Ry
     scf convergence threshold =      4.0E-10
     mixing beta               =       0.4000
     number of iterations used =            8  plain     mixing
     Exchange-correlation= SLA  PW   PBX  PBC
                           (   1   4   3   4   0   0   0)

     celldm(1)=   5.366822  celldm(2)=   0.000000  celldm(3)=   0.000000
     celldm(4)=   0.000000  celldm(5)=   0.000000  celldm(6)=   0.000000

     crystal axes: (cart. coord. in units of alat)
               a(1) = (   1.000000   0.000000   0.000000 )  
               a(2) = (   0.000000   1.000000   0.000000 )  
               a(3) = (   0.000000   0.000000   1.000000 )  

     reciprocal axes: (cart. coord. in units 2 pi/alat)
               b(1) = (  1.000000  0.000000  0.000000 )  
               b(2) = (  0.000000  1.000000  0.000000 )  
               b(3) = (  0.000000  0.000000  1.000000 )  


     PseudoPot. # 1 for Fe read from file:
     /truba/home/amuhaymin/ZnS/pseudo/QE/Fe.pbe-spn-kjpaw_psl.1.0.0.UPF
     MD5 check sum: fc81f059e5c5069939230b1155715ae8
     Pseudo is Projector augmented-wave + core cor, Zval = 16.0
     Generated using &quot;atomic&quot; code by A. Dal Corso  v.6.3
     Shape of augmentation charge: PSQ
     Using radial grid of 1191 points,  6 beta functions with: 
                l(1) =   0
                l(2) =   0
                l(3) =   1
                l(4) =   1
                l(5) =   2
                l(6) =   2
     Q(r) pseudized with 0 coefficients 


     atomic species   valence    mass     pseudopotential
        Fe            16.00    55.84500     Fe( 1.00)

     Starting magnetic structure 
     atomic species   magnetization
        Fe           0.312

     48 Sym. Ops., with inversion, found


                                    s                        frac. trans.

      isym =  1     identity                                     

 cryst.   s( 1) = (     1          0          0      )
                  (     0          1          0      )
                  (     0          0          1      )

 cart.    s( 1) = (  1.0000000  0.0000000  0.0000000 )
                  (  0.0000000  1.0000000  0.0000000 )
                  (  0.0000000  0.0000000  1.0000000 )


      isym =  2     180 deg rotation - cart. axis [0,0,1]        

 cryst.   s( 2) = (    -1          0          0      )
                  (     0         -1          0      )
                  (     0          0          1      )

 cart.    s( 2) = ( -1.0000000  0.0000000  0.0000000 )
                  (  0.0000000 -1.0000000  0.0000000 )
                  (  0.0000000  0.0000000  1.0000000 )


      isym =  3     180 deg rotation - cart. axis [0,1,0]        

 cryst.   s( 3) = (    -1          0          0      )
                  (     0          1          0      )
                  (     0          0         -1      )

 cart.    s( 3) = ( -1.0000000  0.0000000  0.0000000 )
                  (  0.0000000  1.0000000  0.0000000 )
                  (  0.0000000  0.0000000 -1.0000000 )


      isym =  4     180 deg rotation - cart. axis [1,0,0]        

 cryst.   s( 4) = (     1          0          0      )
                  (     0         -1          0      )
                  (     0          0         -1      )

 cart.    s( 4) = (  1.0000000  0.0000000  0.0000000 )
                  (  0.0000000 -1.0000000  0.0000000 )
                  (  0.0000000  0.0000000 -1.0000000 )


      isym =  5     180 deg rotation - cart. axis [1,1,0]        

 cryst.   s( 5) = (     0          1          0      )
                  (     1          0          0      )
                  (     0          0         -1      )

 cart.    s( 5) = (  0.0000000  1.0000000  0.0000000 )
                  (  1.0000000  0.0000000  0.0000000 )
                  (  0.0000000  0.0000000 -1.0000000 )


      isym =  6     180 deg rotation - cart. axis [1,-1,0]       

 cryst.   s( 6) = (     0         -1          0      )
                  (    -1          0          0      )
                  (     0          0         -1      )

 cart.    s( 6) = (  0.0000000 -1.0000000  0.0000000 )
                  ( -1.0000000  0.0000000  0.0000000 )
                  (  0.0000000  0.0000000 -1.0000000 )


      isym =  7      90 deg rotation - cart. axis [0,0,-1]       

 cryst.   s( 7) = (     0         -1          0      )
                  (     1          0          0      )
                  (     0          0          1      )

 cart.    s( 7) = (  0.0000000  1.0000000  0.0000000 )
                  ( -1.0000000  0.0000000  0.0000000 )
                  (  0.0000000  0.0000000  1.0000000 )


      isym =  8      90 deg rotation - cart. axis [0,0,1]        

 cryst.   s( 8) = (     0          1          0      )
                  (    -1          0          0      )
                  (     0          0          1      )

 cart.    s( 8) = (  0.0000000 -1.0000000  0.0000000 )
                  (  1.0000000  0.0000000  0.0000000 )
                  (  0.0000000  0.0000000  1.0000000 )


      isym =  9     180 deg rotation - cart. axis [1,0,1]        

 cryst.   s( 9) = (     0          0          1      )
                  (     0         -1          0      )
                  (     1          0          0      )

 cart.    s( 9) = (  0.0000000  0.0000000  1.0000000 )
                  (  0.0000000 -1.0000000  0.0000000 )
                  (  1.0000000  0.0000000  0.0000000 )


      isym = 10     180 deg rotation - cart. axis [-1,0,1]       

 cryst.   s(10) = (     0          0         -1      )
                  (     0         -1          0      )
                  (    -1          0          0      )

 cart.    s(10) = (  0.0000000  0.0000000 -1.0000000 )
                  (  0.0000000 -1.0000000  0.0000000 )
                  ( -1.0000000  0.0000000  0.0000000 )


      isym = 11      90 deg rotation - cart. axis [0,1,0]        

 cryst.   s(11) = (     0          0         -1      )
                  (     0          1          0      )
                  (     1          0          0      )

 cart.    s(11) = (  0.0000000  0.0000000  1.0000000 )
                  (  0.0000000  1.0000000  0.0000000 )
                  ( -1.0000000  0.0000000  0.0000000 )


      isym = 12      90 deg rotation - cart. axis [0,-1,0]       

 cryst.   s(12) = (     0          0          1      )
                  (     0          1          0      )
                  (    -1          0          0      )

 cart.    s(12) = (  0.0000000  0.0000000 -1.0000000 )
                  (  0.0000000  1.0000000  0.0000000 )
                  (  1.0000000  0.0000000  0.0000000 )


      isym = 13     180 deg rotation - cart. axis [0,1,1]        

 cryst.   s(13) = (    -1          0          0      )
                  (     0          0          1      )
                  (     0          1          0      )

 cart.    s(13) = ( -1.0000000  0.0000000  0.0000000 )
                  (  0.0000000  0.0000000  1.0000000 )
                  (  0.0000000  1.0000000  0.0000000 )


      isym = 14     180 deg rotation - cart. axis [0,1,-1]       

 cryst.   s(14) = (    -1          0          0      )
                  (     0          0         -1      )
                  (     0         -1          0      )

 cart.    s(14) = ( -1.0000000  0.0000000  0.0000000 )
                  (  0.0000000  0.0000000 -1.0000000 )
                  (  0.0000000 -1.0000000  0.0000000 )


      isym = 15      90 deg rotation - cart. axis [-1,0,0]       

 cryst.   s(15) = (     1          0          0      )
                  (     0          0         -1      )
                  (     0          1          0      )

 cart.    s(15) = (  1.0000000  0.0000000  0.0000000 )
                  (  0.0000000  0.0000000  1.0000000 )
                  (  0.0000000 -1.0000000  0.0000000 )


      isym = 16      90 deg rotation - cart. axis [1,0,0]        

 cryst.   s(16) = (     1          0          0      )
                  (     0          0          1      )
                  (     0         -1          0      )

 cart.    s(16) = (  1.0000000  0.0000000  0.0000000 )
                  (  0.0000000  0.0000000 -1.0000000 )
                  (  0.0000000  1.0000000  0.0000000 )


      isym = 17     120 deg rotation - cart. axis [-1,-1,-1]     

 cryst.   s(17) = (     0          0          1      )
                  (     1          0          0      )
                  (     0          1          0      )

 cart.    s(17) = (  0.0000000  1.0000000  0.0000000 )
                  (  0.0000000  0.0000000  1.0000000 )
                  (  1.0000000  0.0000000  0.0000000 )


      isym = 18     120 deg rotation - cart. axis [-1,1,1]       

 cryst.   s(18) = (     0          0         -1      )
                  (    -1          0          0      )
                  (     0          1          0      )

 cart.    s(18) = (  0.0000000 -1.0000000  0.0000000 )
                  (  0.0000000  0.0000000  1.0000000 )
                  ( -1.0000000  0.0000000  0.0000000 )


      isym = 19     120 deg rotation - cart. axis [1,1,-1]       

 cryst.   s(19) = (     0          0         -1      )
                  (     1          0          0      )
                  (     0         -1          0      )

 cart.    s(19) = (  0.0000000  1.0000000  0.0000000 )
                  (  0.0000000  0.0000000 -1.0000000 )
                  ( -1.0000000  0.0000000  0.0000000 )


      isym = 20     120 deg rotation - cart. axis [1,-1,1]       

 cryst.   s(20) = (     0          0          1      )
                  (    -1          0          0      )
                  (     0         -1          0      )

 cart.    s(20) = (  0.0000000 -1.0000000  0.0000000 )
                  (  0.0000000  0.0000000 -1.0000000 )
                  (  1.0000000  0.0000000  0.0000000 )


      isym = 21     120 deg rotation - cart. axis [1,1,1]        

 cryst.   s(21) = (     0          1          0      )
                  (     0          0          1      )
                  (     1          0          0      )

 cart.    s(21) = (  0.0000000  0.0000000  1.0000000 )
                  (  1.0000000  0.0000000  0.0000000 )
                  (  0.0000000  1.0000000  0.0000000 )


      isym = 22     120 deg rotation - cart. axis [-1,1,-1]      

 cryst.   s(22) = (     0         -1          0      )
                  (     0          0         -1      )
                  (     1          0          0      )

 cart.    s(22) = (  0.0000000  0.0000000  1.0000000 )
                  ( -1.0000000  0.0000000  0.0000000 )
                  (  0.0000000 -1.0000000  0.0000000 )


      isym = 23     120 deg rotation - cart. axis [1,-1,-1]      

 cryst.   s(23) = (     0         -1          0      )
                  (     0          0          1      )
                  (    -1          0          0      )

 cart.    s(23) = (  0.0000000  0.0000000 -1.0000000 )
                  ( -1.0000000  0.0000000  0.0000000 )
                  (  0.0000000  1.0000000  0.0000000 )


      isym = 24     120 deg rotation - cart. axis [-1,-1,1]      

 cryst.   s(24) = (     0          1          0      )
                  (     0          0         -1      )
                  (    -1          0          0      )

 cart.    s(24) = (  0.0000000  0.0000000 -1.0000000 )
                  (  1.0000000  0.0000000  0.0000000 )
                  (  0.0000000 -1.0000000  0.0000000 )


      isym = 25     inversion                                    

 cryst.   s(25) = (    -1          0          0      )
                  (     0         -1          0      )
                  (     0          0         -1      )

 cart.    s(25) = ( -1.0000000  0.0000000  0.0000000 )
                  (  0.0000000 -1.0000000  0.0000000 )
                  (  0.0000000  0.0000000 -1.0000000 )


      isym = 26     inv. 180 deg rotation - cart. axis [0,0,1]   

 cryst.   s(26) = (     1          0          0      )
                  (     0          1          0      )
                  (     0          0         -1      )

 cart.    s(26) = (  1.0000000  0.0000000  0.0000000 )
                  (  0.0000000  1.0000000  0.0000000 )
                  (  0.0000000  0.0000000 -1.0000000 )


      isym = 27     inv. 180 deg rotation - cart. axis [0,1,0]   

 cryst.   s(27) = (     1          0          0      )
                  (     0         -1          0      )
                  (     0          0          1      )

 cart.    s(27) = (  1.0000000  0.0000000  0.0000000 )
                  (  0.0000000 -1.0000000  0.0000000 )
                  (  0.0000000  0.0000000  1.0000000 )


      isym = 28     inv. 180 deg rotation - cart. axis [1,0,0]   

 cryst.   s(28) = (    -1          0          0      )
                  (     0          1          0      )
                  (     0          0          1      )

 cart.    s(28) = ( -1.0000000  0.0000000  0.0000000 )
                  (  0.0000000  1.0000000  0.0000000 )
                  (  0.0000000  0.0000000  1.0000000 )


      isym = 29     inv. 180 deg rotation - cart. axis [1,1,0]   

 cryst.   s(29) = (     0         -1          0      )
                  (    -1          0          0      )
                  (     0          0          1      )

 cart.    s(29) = (  0.0000000 -1.0000000  0.0000000 )
                  ( -1.0000000  0.0000000  0.0000000 )
                  (  0.0000000  0.0000000  1.0000000 )


      isym = 30     inv. 180 deg rotation - cart. axis [1,-1,0]  

 cryst.   s(30) = (     0          1          0      )
                  (     1          0          0      )
                  (     0          0          1      )

 cart.    s(30) = (  0.0000000  1.0000000  0.0000000 )
                  (  1.0000000  0.0000000  0.0000000 )
                  (  0.0000000  0.0000000  1.0000000 )


      isym = 31     inv.  90 deg rotation - cart. axis [0,0,-1]  

 cryst.   s(31) = (     0          1          0      )
                  (    -1          0          0      )
                  (     0          0         -1      )

 cart.    s(31) = (  0.0000000 -1.0000000  0.0000000 )
                  (  1.0000000  0.0000000  0.0000000 )
                  (  0.0000000  0.0000000 -1.0000000 )


      isym = 32     inv.  90 deg rotation - cart. axis [0,0,1]   

 cryst.   s(32) = (     0         -1          0      )
                  (     1          0          0      )
                  (     0          0         -1      )

 cart.    s(32) = (  0.0000000  1.0000000  0.0000000 )
                  ( -1.0000000  0.0000000  0.0000000 )
                  (  0.0000000  0.0000000 -1.0000000 )


      isym = 33     inv. 180 deg rotation - cart. axis [1,0,1]   

 cryst.   s(33) = (     0          0         -1      )
                  (     0          1          0      )
                  (    -1          0          0      )

 cart.    s(33) = (  0.0000000  0.0000000 -1.0000000 )
                  (  0.0000000  1.0000000  0.0000000 )
                  ( -1.0000000  0.0000000  0.0000000 )


      isym = 34     inv. 180 deg rotation - cart. axis [-1,0,1]  

 cryst.   s(34) = (     0          0          1      )
                  (     0          1          0      )
                  (     1          0          0      )

 cart.    s(34) = (  0.0000000  0.0000000  1.0000000 )
                  (  0.0000000  1.0000000  0.0000000 )
                  (  1.0000000  0.0000000  0.0000000 )


      isym = 35     inv.  90 deg rotation - cart. axis [0,1,0]   

 cryst.   s(35) = (     0          0          1      )
                  (     0         -1          0      )
                  (    -1          0          0      )

 cart.    s(35) = (  0.0000000  0.0000000 -1.0000000 )
                  (  0.0000000 -1.0000000  0.0000000 )
                  (  1.0000000  0.0000000  0.0000000 )


      isym = 36     inv.  90 deg rotation - cart. axis [0,-1,0]  

 cryst.   s(36) = (     0          0         -1      )
                  (     0         -1          0      )
                  (     1          0          0      )

 cart.    s(36) = (  0.0000000  0.0000000  1.0000000 )
                  (  0.0000000 -1.0000000  0.0000000 )
                  ( -1.0000000  0.0000000  0.0000000 )


      isym = 37     inv. 180 deg rotation - cart. axis [0,1,1]   

 cryst.   s(37) = (     1          0          0      )
                  (     0          0         -1      )
                  (     0         -1          0      )

 cart.    s(37) = (  1.0000000  0.0000000  0.0000000 )
                  (  0.0000000  0.0000000 -1.0000000 )
                  (  0.0000000 -1.0000000  0.0000000 )


      isym = 38     inv. 180 deg rotation - cart. axis [0,1,-1]  

 cryst.   s(38) = (     1          0          0      )
                  (     0          0          1      )
                  (     0          1          0      )

 cart.    s(38) = (  1.0000000  0.0000000  0.0000000 )
                  (  0.0000000  0.0000000  1.0000000 )
                  (  0.0000000  1.0000000  0.0000000 )


      isym = 39     inv.  90 deg rotation - cart. axis [-1,0,0]  

 cryst.   s(39) = (    -1          0          0      )
                  (     0          0          1      )
                  (     0         -1          0      )

 cart.    s(39) = ( -1.0000000  0.0000000  0.0000000 )
                  (  0.0000000  0.0000000 -1.0000000 )
                  (  0.0000000  1.0000000  0.0000000 )


      isym = 40     inv.  90 deg rotation - cart. axis [1,0,0]   

 cryst.   s(40) = (    -1          0          0      )
                  (     0          0         -1      )
                  (     0          1          0      )

 cart.    s(40) = ( -1.0000000  0.0000000  0.0000000 )
                  (  0.0000000  0.0000000  1.0000000 )
                  (  0.0000000 -1.0000000  0.0000000 )


      isym = 41     inv. 120 deg rotation - cart. axis [-1,-1,-1]

 cryst.   s(41) = (     0          0         -1      )
                  (    -1          0          0      )
                  (     0         -1          0      )

 cart.    s(41) = (  0.0000000 -1.0000000  0.0000000 )
                  (  0.0000000  0.0000000 -1.0000000 )
                  ( -1.0000000  0.0000000  0.0000000 )


      isym = 42     inv. 120 deg rotation - cart. axis [-1,1,1]  

 cryst.   s(42) = (     0          0          1      )
                  (     1          0          0      )
                  (     0         -1          0      )

 cart.    s(42) = (  0.0000000  1.0000000  0.0000000 )
                  (  0.0000000  0.0000000 -1.0000000 )
                  (  1.0000000  0.0000000  0.0000000 )


      isym = 43     inv. 120 deg rotation - cart. axis [1,1,-1]  

 cryst.   s(43) = (     0          0          1      )
                  (    -1          0          0      )
                  (     0          1          0      )

 cart.    s(43) = (  0.0000000 -1.0000000  0.0000000 )
                  (  0.0000000  0.0000000  1.0000000 )
                  (  1.0000000  0.0000000  0.0000000 )


      isym = 44     inv. 120 deg rotation - cart. axis [1,-1,1]  

 cryst.   s(44) = (     0          0         -1      )
                  (     1          0          0      )
                  (     0          1          0      )

 cart.    s(44) = (  0.0000000  1.0000000  0.0000000 )
                  (  0.0000000  0.0000000  1.0000000 )
                  ( -1.0000000  0.0000000  0.0000000 )


      isym = 45     inv. 120 deg rotation - cart. axis [1,1,1]   

 cryst.   s(45) = (     0         -1          0      )
                  (     0          0         -1      )
                  (    -1          0          0      )

 cart.    s(45) = (  0.0000000  0.0000000 -1.0000000 )
                  ( -1.0000000  0.0000000  0.0000000 )
                  (  0.0000000 -1.0000000  0.0000000 )


      isym = 46     inv. 120 deg rotation - cart. axis [-1,1,-1] 

 cryst.   s(46) = (     0          1          0      )
                  (     0          0          1      )
                  (    -1          0          0      )

 cart.    s(46) = (  0.0000000  0.0000000 -1.0000000 )
                  (  1.0000000  0.0000000  0.0000000 )
                  (  0.0000000  1.0000000  0.0000000 )


      isym = 47     inv. 120 deg rotation - cart. axis [1,-1,-1] 

 cryst.   s(47) = (     0          1          0      )
                  (     0          0         -1      )
                  (     1          0          0      )

 cart.    s(47) = (  0.0000000  0.0000000  1.0000000 )
                  (  1.0000000  0.0000000  0.0000000 )
                  (  0.0000000 -1.0000000  0.0000000 )


      isym = 48     inv. 120 deg rotation - cart. axis [-1,-1,1] 

 cryst.   s(48) = (     0         -1          0      )
                  (     0          0          1      )
                  (     1          0          0      )

 cart.    s(48) = (  0.0000000  0.0000000  1.0000000 )
                  ( -1.0000000  0.0000000  0.0000000 )
                  (  0.0000000  1.0000000  0.0000000 )


     point group O_h (m-3m) 
     there are 10 classes
     the character table:

       E     8C3   3C2   6C4   6C2'  i     8S6   3s_h  6S4   6s_d 
A_1g   1.00  1.00  1.00  1.00  1.00  1.00  1.00  1.00  1.00  1.00
A_2g   1.00  1.00  1.00 -1.00 -1.00  1.00  1.00  1.00 -1.00 -1.00
E_g    2.00 -1.00  2.00  0.00  0.00  2.00 -1.00  2.00  0.00  0.00
T_1g   3.00  0.00 -1.00  1.00 -1.00  3.00  0.00 -1.00  1.00 -1.00
T_2g   3.00  0.00 -1.00 -1.00  1.00  3.00  0.00 -1.00 -1.00  1.00
A_1u   1.00  1.00  1.00  1.00  1.00 -1.00 -1.00 -1.00 -1.00 -1.00
A_2u   1.00  1.00  1.00 -1.00 -1.00 -1.00 -1.00 -1.00  1.00  1.00
E_u    2.00 -1.00  2.00  0.00  0.00 -2.00  1.00 -2.00  0.00  0.00
T_1u   3.00  0.00 -1.00  1.00 -1.00 -3.00  0.00  1.00 -1.00  1.00
T_2u   3.00  0.00 -1.00 -1.00  1.00 -3.00  0.00  1.00  1.00 -1.00

     the symmetry operations in each class and the name of the first element:

     E        1
          identity                                               
     8C3     17   19   20   18   24   21   22   23
          120 deg rotation - cart. axis [-1,-1,-1]               
     3C2      2    4    3
          180 deg rotation - cart. axis [0,0,1]                  
     6C4      7    8   15   16   12   11
           90 deg rotation - cart. axis [0,0,-1]                 
     6C2'     5    6   14   13   10    9
          180 deg rotation - cart. axis [1,1,0]                  
     i       25
          inversion                                              
     8S6     41   43   44   42   48   45   46   47
          inv. 120 deg rotation - cart. axis [-1,-1,-1]          
     3s_h    26   28   27
          inv. 180 deg rotation - cart. axis [0,0,1]             
     6S4     31   32   39   40   36   35
          inv.  90 deg rotation - cart. axis [0,0,-1]            
     6s_d    29   30   38   37   34   33
          inv. 180 deg rotation - cart. axis [1,1,0]             

   Cartesian axes

     site n.     atom                  positions (alat units)
         1           Fe  tau(   1) = (   0.0000000   0.0000000   0.0000000  )
         2           Fe  tau(   2) = (   0.5000000   0.5000000   0.5000000  )

   Crystallographic axes

     site n.     atom                  positions (cryst. coord.)
         1           Fe  tau(   1) = (  0.0000000  0.0000000  0.0000000  )
         2           Fe  tau(   2) = (  0.5000000  0.5000000  0.5000000  )

     number of k points=    56  Gaussian smearing, width (Ry)=  0.0010
                       cart. coord. in units 2pi/alat
        k(    1) = (   0.0000000   0.0000000   0.0000000), wk =   0.0010000
        k(    2) = (   0.0000000   0.0000000   0.1000000), wk =   0.0060000
        k(    3) = (   0.0000000   0.0000000   0.2000000), wk =   0.0060000
        k(    4) = (   0.0000000   0.0000000   0.3000000), wk =   0.0060000
        k(    5) = (   0.0000000   0.0000000   0.4000000), wk =   0.0060000
        k(    6) = (   0.0000000   0.0000000  -0.5000000), wk =   0.0030000
        k(    7) = (   0.0000000   0.1000000   0.1000000), wk =   0.0120000
        k(    8) = (   0.0000000   0.1000000   0.2000000), wk =   0.0240000
        k(    9) = (   0.0000000   0.1000000   0.3000000), wk =   0.0240000
        k(   10) = (   0.0000000   0.1000000   0.4000000), wk =   0.0240000
        k(   11) = (   0.0000000   0.1000000  -0.5000000), wk =   0.0120000
        k(   12) = (   0.0000000   0.2000000   0.2000000), wk =   0.0120000
        k(   13) = (   0.0000000   0.2000000   0.3000000), wk =   0.0240000
        k(   14) = (   0.0000000   0.2000000   0.4000000), wk =   0.0240000
        k(   15) = (   0.0000000   0.2000000  -0.5000000), wk =   0.0120000
        k(   16) = (   0.0000000   0.3000000   0.3000000), wk =   0.0120000
        k(   17) = (   0.0000000   0.3000000   0.4000000), wk =   0.0240000
        k(   18) = (   0.0000000   0.3000000  -0.5000000), wk =   0.0120000
        k(   19) = (   0.0000000   0.4000000   0.4000000), wk =   0.0120000
        k(   20) = (   0.0000000   0.4000000  -0.5000000), wk =   0.0120000
        k(   21) = (   0.0000000  -0.5000000  -0.5000000), wk =   0.0030000
        k(   22) = (   0.1000000   0.1000000   0.1000000), wk =   0.0080000
        k(   23) = (   0.1000000   0.1000000   0.2000000), wk =   0.0240000
        k(   24) = (   0.1000000   0.1000000   0.3000000), wk =   0.0240000
        k(   25) = (   0.1000000   0.1000000   0.4000000), wk =   0.0240000
        k(   26) = (   0.1000000   0.1000000  -0.5000000), wk =   0.0120000
        k(   27) = (   0.1000000   0.2000000   0.2000000), wk =   0.0240000
        k(   28) = (   0.1000000   0.2000000   0.3000000), wk =   0.0480000
        k(   29) = (   0.1000000   0.2000000   0.4000000), wk =   0.0480000
        k(   30) = (   0.1000000   0.2000000  -0.5000000), wk =   0.0240000
        k(   31) = (   0.1000000   0.3000000   0.3000000), wk =   0.0240000
        k(   32) = (   0.1000000   0.3000000   0.4000000), wk =   0.0480000
        k(   33) = (   0.1000000   0.3000000  -0.5000000), wk =   0.0240000
        k(   34) = (   0.1000000   0.4000000   0.4000000), wk =   0.0240000
        k(   35) = (   0.1000000   0.4000000  -0.5000000), wk =   0.0240000
        k(   36) = (   0.1000000  -0.5000000  -0.5000000), wk =   0.0060000
        k(   37) = (   0.2000000   0.2000000   0.2000000), wk =   0.0080000
        k(   38) = (   0.2000000   0.2000000   0.3000000), wk =   0.0240000
        k(   39) = (   0.2000000   0.2000000   0.4000000), wk =   0.0240000
        k(   40) = (   0.2000000   0.2000000  -0.5000000), wk =   0.0120000
        k(   41) = (   0.2000000   0.3000000   0.3000000), wk =   0.0240000
        k(   42) = (   0.2000000   0.3000000   0.4000000), wk =   0.0480000
        k(   43) = (   0.2000000   0.3000000  -0.5000000), wk =   0.0240000
        k(   44) = (   0.2000000   0.4000000   0.4000000), wk =   0.0240000
        k(   45) = (   0.2000000   0.4000000  -0.5000000), wk =   0.0240000
        k(   46) = (   0.2000000  -0.5000000  -0.5000000), wk =   0.0060000
        k(   47) = (   0.3000000   0.3000000   0.3000000), wk =   0.0080000
        k(   48) = (   0.3000000   0.3000000   0.4000000), wk =   0.0240000
        k(   49) = (   0.3000000   0.3000000  -0.5000000), wk =   0.0120000
        k(   50) = (   0.3000000   0.4000000   0.4000000), wk =   0.0240000
        k(   51) = (   0.3000000   0.4000000  -0.5000000), wk =   0.0240000
        k(   52) = (   0.3000000  -0.5000000  -0.5000000), wk =   0.0060000
        k(   53) = (   0.4000000   0.4000000   0.4000000), wk =   0.0080000
        k(   54) = (   0.4000000   0.4000000  -0.5000000), wk =   0.0120000
        k(   55) = (   0.4000000  -0.5000000  -0.5000000), wk =   0.0060000
        k(   56) = (  -0.5000000  -0.5000000  -0.5000000), wk =   0.0010000

                       cryst. coord.
        k(    1) = (   0.0000000   0.0000000   0.0000000), wk =   0.0010000
        k(    2) = (   0.0000000   0.0000000   0.1000000), wk =   0.0060000
        k(    3) = (   0.0000000   0.0000000   0.2000000), wk =   0.0060000
        k(    4) = (   0.0000000   0.0000000   0.3000000), wk =   0.0060000
        k(    5) = (   0.0000000   0.0000000   0.4000000), wk =   0.0060000
        k(    6) = (   0.0000000   0.0000000  -0.5000000), wk =   0.0030000
        k(    7) = (   0.0000000   0.1000000   0.1000000), wk =   0.0120000
        k(    8) = (   0.0000000   0.1000000   0.2000000), wk =   0.0240000
        k(    9) = (   0.0000000   0.1000000   0.3000000), wk =   0.0240000
        k(   10) = (   0.0000000   0.1000000   0.4000000), wk =   0.0240000
        k(   11) = (   0.0000000   0.1000000  -0.5000000), wk =   0.0120000
        k(   12) = (   0.0000000   0.2000000   0.2000000), wk =   0.0120000
        k(   13) = (   0.0000000   0.2000000   0.3000000), wk =   0.0240000
        k(   14) = (   0.0000000   0.2000000   0.4000000), wk =   0.0240000
        k(   15) = (   0.0000000   0.2000000  -0.5000000), wk =   0.0120000
        k(   16) = (   0.0000000   0.3000000   0.3000000), wk =   0.0120000
        k(   17) = (   0.0000000   0.3000000   0.4000000), wk =   0.0240000
        k(   18) = (   0.0000000   0.3000000  -0.5000000), wk =   0.0120000
        k(   19) = (   0.0000000   0.4000000   0.4000000), wk =   0.0120000
        k(   20) = (   0.0000000   0.4000000  -0.5000000), wk =   0.0120000
        k(   21) = (   0.0000000  -0.5000000  -0.5000000), wk =   0.0030000
        k(   22) = (   0.1000000   0.1000000   0.1000000), wk =   0.0080000
        k(   23) = (   0.1000000   0.1000000   0.2000000), wk =   0.0240000
        k(   24) = (   0.1000000   0.1000000   0.3000000), wk =   0.0240000
        k(   25) = (   0.1000000   0.1000000   0.4000000), wk =   0.0240000
        k(   26) = (   0.1000000   0.1000000  -0.5000000), wk =   0.0120000
        k(   27) = (   0.1000000   0.2000000   0.2000000), wk =   0.0240000
        k(   28) = (   0.1000000   0.2000000   0.3000000), wk =   0.0480000
        k(   29) = (   0.1000000   0.2000000   0.4000000), wk =   0.0480000
        k(   30) = (   0.1000000   0.2000000  -0.5000000), wk =   0.0240000
        k(   31) = (   0.1000000   0.3000000   0.3000000), wk =   0.0240000
        k(   32) = (   0.1000000   0.3000000   0.4000000), wk =   0.0480000
        k(   33) = (   0.1000000   0.3000000  -0.5000000), wk =   0.0240000
        k(   34) = (   0.1000000   0.4000000   0.4000000), wk =   0.0240000
        k(   35) = (   0.1000000   0.4000000  -0.5000000), wk =   0.0240000
        k(   36) = (   0.1000000  -0.5000000  -0.5000000), wk =   0.0060000
        k(   37) = (   0.2000000   0.2000000   0.2000000), wk =   0.0080000
        k(   38) = (   0.2000000   0.2000000   0.3000000), wk =   0.0240000
        k(   39) = (   0.2000000   0.2000000   0.4000000), wk =   0.0240000
        k(   40) = (   0.2000000   0.2000000  -0.5000000), wk =   0.0120000
        k(   41) = (   0.2000000   0.3000000   0.3000000), wk =   0.0240000
        k(   42) = (   0.2000000   0.3000000   0.4000000), wk =   0.0480000
        k(   43) = (   0.2000000   0.3000000  -0.5000000), wk =   0.0240000
        k(   44) = (   0.2000000   0.4000000   0.4000000), wk =   0.0240000
        k(   45) = (   0.2000000   0.4000000  -0.5000000), wk =   0.0240000
        k(   46) = (   0.2000000  -0.5000000  -0.5000000), wk =   0.0060000
        k(   47) = (   0.3000000   0.3000000   0.3000000), wk =   0.0080000
        k(   48) = (   0.3000000   0.3000000   0.4000000), wk =   0.0240000
        k(   49) = (   0.3000000   0.3000000  -0.5000000), wk =   0.0120000
        k(   50) = (   0.3000000   0.4000000   0.4000000), wk =   0.0240000
        k(   51) = (   0.3000000   0.4000000  -0.5000000), wk =   0.0240000
        k(   52) = (   0.3000000  -0.5000000  -0.5000000), wk =   0.0060000
        k(   53) = (   0.4000000   0.4000000   0.4000000), wk =   0.0080000
        k(   54) = (   0.4000000   0.4000000  -0.5000000), wk =   0.0120000
        k(   55) = (   0.4000000  -0.5000000  -0.5000000), wk =   0.0060000
        k(   56) = (  -0.5000000  -0.5000000  -0.5000000), wk =   0.0010000

     Dense  grid:    48489 G-vectors     FFT dimensions: (  45,  45,  45)

     Smooth grid:    20815 G-vectors     FFT dimensions: (  36,  36,  36)

     Dynamical RAM for                 wfc:       0.08 MB

     Dynamical RAM for     wfc (w. buffer):       4.54 MB

     Dynamical RAM for           str. fact:       0.07 MB

     Dynamical RAM for           local pot:       0.00 MB

     Dynamical RAM for          nlocal pot:       0.14 MB

     Dynamical RAM for                qrad:       2.12 MB

     Dynamical RAM for          rho,v,vnew:       0.91 MB

     Dynamical RAM for               rhoin:       0.30 MB

     Dynamical RAM for            rho*nmix:       2.37 MB

     Dynamical RAM for           G-vectors:       0.29 MB

     Dynamical RAM for          h,s,v(r/c):       0.07 MB

     Dynamical RAM for          <psi|beta>:       0.01 MB

     Dynamical RAM for                 psi:       0.16 MB

     Dynamical RAM for                hpsi:       0.16 MB

     Dynamical RAM for                spsi:       0.16 MB

     Dynamical RAM for      wfcinit/wfcrot:       0.17 MB

     Dynamical RAM for           addusdens:       7.07 MB

     Estimated static dynamical RAM per process >       8.99 MB

     Estimated max dynamical RAM per process >      18.43 MB

     Estimated total dynamical RAM >     344.93 MB
     Generating pointlists ...
     new r_m :   0.3572 (alat units)  1.9172 (a.u.) for type    1

     The initial density is read from file :
     ./out/Fe.save/charge-density


     starting charge      32.0338, renormalised to      32.0000

     negative rho (up, down):  0.000E+00 1.021E-04
     Starting wfcs from file
     Checking if some PAW data can be deallocated... 

     total cpu time spent up to now is        0.5 secs

     Self-consistent Calculation

     iteration #  1     ecut=   100.00 Ry     beta= 0.40
     Davidson diagonalization with overlap

---- Real-time Memory Report at c_bands before calling an iterative solver
            56 MiB given to the printing process from OS
             0 MiB allocation reported by mallinfo(arena+hblkhd)
        366385 MiB available memory on the node where the printing process lives
------------------
     ethr =  1.00E-05,  avg # of iterations =  2.0

     negative rho (up, down):  0.000E+00 1.011E-04

     total cpu time spent up to now is        1.5 secs

     total energy              =    -658.54048351 Ry
     estimated scf accuracy    <       0.00064850 Ry

     total magnetization       =     4.31 Bohr mag/cell
     absolute magnetization    =     4.55 Bohr mag/cell

     iteration #  2     ecut=   100.00 Ry     beta= 0.40
     Davidson diagonalization with overlap

---- Real-time Memory Report at c_bands before calling an iterative solver
            75 MiB given to the printing process from OS
             0 MiB allocation reported by mallinfo(arena+hblkhd)
        366112 MiB available memory on the node where the printing process lives
------------------
     ethr =  2.03E-06,  avg # of iterations =  2.6

     negative rho (up, down):  0.000E+00 1.019E-04

     total cpu time spent up to now is        2.4 secs

     total energy              =    -658.54065516 Ry
     estimated scf accuracy    <       0.00031576 Ry

     total magnetization       =     4.26 Bohr mag/cell
     absolute magnetization    =     4.52 Bohr mag/cell

     iteration #  3     ecut=   100.00 Ry     beta= 0.40
     Davidson diagonalization with overlap

---- Real-time Memory Report at c_bands before calling an iterative solver
            77 MiB given to the printing process from OS
             0 MiB allocation reported by mallinfo(arena+hblkhd)
        366102 MiB available memory on the node where the printing process lives
------------------
     ethr =  9.87E-07,  avg # of iterations =  1.6

     negative rho (up, down):  0.000E+00 1.025E-04

     total cpu time spent up to now is        3.2 secs

     total energy              =    -658.54068374 Ry
     estimated scf accuracy    <       0.00000875 Ry

     total magnetization       =     4.28 Bohr mag/cell
     absolute magnetization    =     4.53 Bohr mag/cell

     iteration #  4     ecut=   100.00 Ry     beta= 0.40
     Davidson diagonalization with overlap

---- Real-time Memory Report at c_bands before calling an iterative solver
            78 MiB given to the printing process from OS
             0 MiB allocation reported by mallinfo(arena+hblkhd)
        366090 MiB available memory on the node where the printing process lives
------------------
     ethr =  2.74E-08,  avg # of iterations =  3.5

     negative rho (up, down):  0.000E+00 1.027E-04

     total cpu time spent up to now is        4.2 secs

     total energy              =    -658.54069057 Ry
     estimated scf accuracy    <       0.00008748 Ry

     total magnetization       =     4.29 Bohr mag/cell
     absolute magnetization    =     4.54 Bohr mag/cell

     iteration #  5     ecut=   100.00 Ry     beta= 0.40
     Davidson diagonalization with overlap

---- Real-time Memory Report at c_bands before calling an iterative solver
            79 MiB given to the printing process from OS
             0 MiB allocation reported by mallinfo(arena+hblkhd)
        366083 MiB available memory on the node where the printing process lives
------------------
     ethr =  2.74E-08,  avg # of iterations =  2.1

     negative rho (up, down):  0.000E+00 1.026E-04

     total cpu time spent up to now is        5.0 secs

     total energy              =    -658.54067916 Ry
     estimated scf accuracy    <       0.00003934 Ry

     total magnetization       =     4.30 Bohr mag/cell
     absolute magnetization    =     4.54 Bohr mag/cell

     iteration #  6     ecut=   100.00 Ry     beta= 0.40
     Davidson diagonalization with overlap

---- Real-time Memory Report at c_bands before calling an iterative solver
            79 MiB given to the printing process from OS
             0 MiB allocation reported by mallinfo(arena+hblkhd)
        366074 MiB available memory on the node where the printing process lives
------------------
     ethr =  2.74E-08,  avg # of iterations =  3.6

     negative rho (up, down):  0.000E+00 1.029E-04

     total cpu time spent up to now is        6.1 secs

     total energy              =    -658.54068960 Ry
     estimated scf accuracy    <       0.00001301 Ry

     total magnetization       =     4.28 Bohr mag/cell
     absolute magnetization    =     4.53 Bohr mag/cell

     iteration #  7     ecut=   100.00 Ry     beta= 0.40
     Davidson diagonalization with overlap

---- Real-time Memory Report at c_bands before calling an iterative solver
            80 MiB given to the printing process from OS
             0 MiB allocation reported by mallinfo(arena+hblkhd)
        366072 MiB available memory on the node where the printing process lives
------------------
     ethr =  2.74E-08,  avg # of iterations =  1.0

     negative rho (up, down):  0.000E+00 1.037E-04

     total cpu time spent up to now is        6.8 secs

     total energy              =    -658.54068987 Ry
     estimated scf accuracy    <       0.00000572 Ry

     total magnetization       =     4.29 Bohr mag/cell
     absolute magnetization    =     4.53 Bohr mag/cell

     iteration #  8     ecut=   100.00 Ry     beta= 0.40
     Davidson diagonalization with overlap

---- Real-time Memory Report at c_bands before calling an iterative solver
            81 MiB given to the printing process from OS
             0 MiB allocation reported by mallinfo(arena+hblkhd)
        366062 MiB available memory on the node where the printing process lives
------------------
     ethr =  1.79E-08,  avg # of iterations =  1.0

     negative rho (up, down):  0.000E+00 1.038E-04

     total cpu time spent up to now is        7.6 secs

     total energy              =    -658.54069026 Ry
     estimated scf accuracy    <       0.00000547 Ry

     total magnetization       =     4.29 Bohr mag/cell
     absolute magnetization    =     4.54 Bohr mag/cell

     iteration #  9     ecut=   100.00 Ry     beta= 0.40
     Davidson diagonalization with overlap

---- Real-time Memory Report at c_bands before calling an iterative solver
            83 MiB given to the printing process from OS
             0 MiB allocation reported by mallinfo(arena+hblkhd)
        366054 MiB available memory on the node where the printing process lives
------------------
     ethr =  1.71E-08,  avg # of iterations =  1.0

     negative rho (up, down):  0.000E+00 1.033E-04

     total cpu time spent up to now is        8.3 secs

     total energy              =    -658.54068851 Ry
     estimated scf accuracy    <       0.00000595 Ry

     total magnetization       =     4.29 Bohr mag/cell
     absolute magnetization    =     4.54 Bohr mag/cell

     iteration # 10     ecut=   100.00 Ry     beta= 0.40
     Davidson diagonalization with overlap

---- Real-time Memory Report at c_bands before calling an iterative solver
            84 MiB given to the printing process from OS
             0 MiB allocation reported by mallinfo(arena+hblkhd)
        366049 MiB available memory on the node where the printing process lives
------------------
     ethr =  1.71E-08,  avg # of iterations =  1.5

     negative rho (up, down):  0.000E+00 9.987E-05

     total cpu time spent up to now is        9.1 secs

     total energy              =    -658.54066931 Ry
     estimated scf accuracy    <       0.00000133 Ry

     total magnetization       =     4.29 Bohr mag/cell
     absolute magnetization    =     4.53 Bohr mag/cell

     iteration # 11     ecut=   100.00 Ry     beta= 0.40
     Davidson diagonalization with overlap

---- Real-time Memory Report at c_bands before calling an iterative solver
            84 MiB given to the printing process from OS
             0 MiB allocation reported by mallinfo(arena+hblkhd)
        366045 MiB available memory on the node where the printing process lives
------------------
     ethr =  4.16E-09,  avg # of iterations =  3.4

     negative rho (up, down):  0.000E+00 1.025E-04

     total cpu time spent up to now is       10.2 secs

     total energy              =    -658.54068269 Ry
     estimated scf accuracy    <       0.00000438 Ry

     total magnetization       =     4.26 Bohr mag/cell
     absolute magnetization    =     4.51 Bohr mag/cell

     iteration # 12     ecut=   100.00 Ry     beta= 0.40
     Davidson diagonalization with overlap

---- Real-time Memory Report at c_bands before calling an iterative solver
            84 MiB given to the printing process from OS
             0 MiB allocation reported by mallinfo(arena+hblkhd)
        366043 MiB available memory on the node where the printing process lives
------------------
     ethr =  4.16E-09,  avg # of iterations =  3.1

     negative rho (up, down):  0.000E+00 1.035E-04

     total cpu time spent up to now is       11.3 secs

     total energy              =    -658.54068785 Ry
     estimated scf accuracy    <       0.00000021 Ry

     total magnetization       =     4.28 Bohr mag/cell
     absolute magnetization    =     4.53 Bohr mag/cell

     iteration # 13     ecut=   100.00 Ry     beta= 0.40
     Davidson diagonalization with overlap

---- Real-time Memory Report at c_bands before calling an iterative solver
            84 MiB given to the printing process from OS
             0 MiB allocation reported by mallinfo(arena+hblkhd)
        366041 MiB available memory on the node where the printing process lives
------------------
     ethr =  6.54E-10,  avg # of iterations =  3.4

     negative rho (up, down):  0.000E+00 1.033E-04

     total cpu time spent up to now is       12.4 secs

     total energy              =    -658.54068904 Ry
     estimated scf accuracy    <       0.00000010 Ry

     total magnetization       =     4.29 Bohr mag/cell
     absolute magnetization    =     4.54 Bohr mag/cell

     iteration # 14     ecut=   100.00 Ry     beta= 0.40
     Davidson diagonalization with overlap

---- Real-time Memory Report at c_bands before calling an iterative solver
            84 MiB given to the printing process from OS
             0 MiB allocation reported by mallinfo(arena+hblkhd)
        366039 MiB available memory on the node where the printing process lives
------------------
     ethr =  3.19E-10,  avg # of iterations =  1.6

     negative rho (up, down):  0.000E+00 1.037E-04

     total cpu time spent up to now is       13.2 secs

     total energy              =    -658.54068911 Ry
     estimated scf accuracy    <       0.00000011 Ry

     total magnetization       =     4.29 Bohr mag/cell
     absolute magnetization    =     4.54 Bohr mag/cell

     iteration # 15     ecut=   100.00 Ry     beta= 0.40
     Davidson diagonalization with overlap

---- Real-time Memory Report at c_bands before calling an iterative solver
            85 MiB given to the printing process from OS
             0 MiB allocation reported by mallinfo(arena+hblkhd)
        366036 MiB available memory on the node where the printing process lives
------------------
     ethr =  3.19E-10,  avg # of iterations =  2.4

     negative rho (up, down):  0.000E+00 1.041E-04

     total cpu time spent up to now is       14.3 secs

     total energy              =    -658.54068944 Ry
     estimated scf accuracy    <       0.00000011 Ry

     total magnetization       =     4.30 Bohr mag/cell
     absolute magnetization    =     4.54 Bohr mag/cell

     iteration # 16     ecut=   100.00 Ry     beta= 0.40
     Davidson diagonalization with overlap

---- Real-time Memory Report at c_bands before calling an iterative solver
            85 MiB given to the printing process from OS
             0 MiB allocation reported by mallinfo(arena+hblkhd)
        366034 MiB available memory on the node where the printing process lives
------------------
     ethr =  3.19E-10,  avg # of iterations =  2.6

     negative rho (up, down):  0.000E+00 1.042E-04

     total cpu time spent up to now is       15.3 secs

     total energy              =    -658.54068974 Ry
     estimated scf accuracy    <       0.00000012 Ry

     total magnetization       =     4.30 Bohr mag/cell
     absolute magnetization    =     4.55 Bohr mag/cell

     iteration # 17     ecut=   100.00 Ry     beta= 0.40
     Davidson diagonalization with overlap

---- Real-time Memory Report at c_bands before calling an iterative solver
            85 MiB given to the printing process from OS
             0 MiB allocation reported by mallinfo(arena+hblkhd)
        366031 MiB available memory on the node where the printing process lives
------------------
     ethr =  3.19E-10,  avg # of iterations =  1.0

     negative rho (up, down):  0.000E+00 1.046E-04

     total cpu time spent up to now is       16.0 secs

     total energy              =    -658.54068977 Ry
     estimated scf accuracy    <       0.00000012 Ry

     total magnetization       =     4.30 Bohr mag/cell
     absolute magnetization    =     4.55 Bohr mag/cell

     iteration # 18     ecut=   100.00 Ry     beta= 0.40
     Davidson diagonalization with overlap

---- Real-time Memory Report at c_bands before calling an iterative solver
            86 MiB given to the printing process from OS
             0 MiB allocation reported by mallinfo(arena+hblkhd)
        366030 MiB available memory on the node where the printing process lives
------------------
     ethr =  3.19E-10,  avg # of iterations =  2.6

     negative rho (up, down):  0.000E+00 1.056E-04

     total cpu time spent up to now is       17.0 secs

     total energy              =    -658.54068943 Ry
     estimated scf accuracy    <       0.00000014 Ry

     total magnetization       =     4.31 Bohr mag/cell
     absolute magnetization    =     4.55 Bohr mag/cell

     iteration # 19     ecut=   100.00 Ry     beta= 0.40
     Davidson diagonalization with overlap

---- Real-time Memory Report at c_bands before calling an iterative solver
            86 MiB given to the printing process from OS
             0 MiB allocation reported by mallinfo(arena+hblkhd)
        366028 MiB available memory on the node where the printing process lives
------------------
     ethr =  3.19E-10,  avg # of iterations =  3.3

     negative rho (up, down):  0.000E+00 1.053E-04

     total cpu time spent up to now is       18.1 secs

     total energy              =    -658.54069052 Ry
     estimated scf accuracy    <       0.00000013 Ry

     total magnetization       =     4.32 Bohr mag/cell
     absolute magnetization    =     4.56 Bohr mag/cell

     iteration # 20     ecut=   100.00 Ry     beta= 0.40
     Davidson diagonalization with overlap

---- Real-time Memory Report at c_bands before calling an iterative solver
            87 MiB given to the printing process from OS
             0 MiB allocation reported by mallinfo(arena+hblkhd)
        366027 MiB available memory on the node where the printing process lives
------------------
     ethr =  3.19E-10,  avg # of iterations =  1.8

     negative rho (up, down):  0.000E+00 1.006E-04

     total cpu time spent up to now is       18.9 secs

     total energy              =    -658.54065181 Ry
     estimated scf accuracy    <       0.00000014 Ry

     total magnetization       =     4.31 Bohr mag/cell
     absolute magnetization    =     4.56 Bohr mag/cell

     iteration # 21     ecut=   100.00 Ry     beta= 0.40
     Davidson diagonalization with overlap

---- Real-time Memory Report at c_bands before calling an iterative solver
            87 MiB given to the printing process from OS
             0 MiB allocation reported by mallinfo(arena+hblkhd)
        366026 MiB available memory on the node where the printing process lives
------------------
     ethr =  3.19E-10,  avg # of iterations =  5.5

     negative rho (up, down):  0.000E+00 1.052E-04

     total cpu time spent up to now is       20.4 secs

     total energy              =    -658.54066396 Ry
     estimated scf accuracy    <       0.00000168 Ry

     total magnetization       =     4.27 Bohr mag/cell
     absolute magnetization    =     4.51 Bohr mag/cell

     iteration # 22     ecut=   100.00 Ry     beta= 0.40
     Davidson diagonalization with overlap

---- Real-time Memory Report at c_bands before calling an iterative solver
            87 MiB given to the printing process from OS
             0 MiB allocation reported by mallinfo(arena+hblkhd)
        366025 MiB available memory on the node where the printing process lives
------------------
     ethr =  3.19E-10,  avg # of iterations =  5.5

     negative rho (up, down):  0.000E+00 1.057E-04

     total cpu time spent up to now is       21.8 secs

     total energy              =    -658.54069055 Ry
     estimated scf accuracy    <       0.00000014 Ry

     total magnetization       =     4.31 Bohr mag/cell
     absolute magnetization    =     4.56 Bohr mag/cell

     iteration # 23     ecut=   100.00 Ry     beta= 0.40
     Davidson diagonalization with overlap

---- Real-time Memory Report at c_bands before calling an iterative solver
            88 MiB given to the printing process from OS
             0 MiB allocation reported by mallinfo(arena+hblkhd)
        366023 MiB available memory on the node where the printing process lives
------------------
     ethr =  3.19E-10,  avg # of iterations =  2.8

     negative rho (up, down):  0.000E+00 1.066E-04

     total cpu time spent up to now is       22.8 secs

     total energy              =    -658.54069045 Ry
     estimated scf accuracy    <       0.00000012 Ry

     total magnetization       =     4.32 Bohr mag/cell
     absolute magnetization    =     4.56 Bohr mag/cell

     iteration # 24     ecut=   100.00 Ry     beta= 0.40
     Davidson diagonalization with overlap

---- Real-time Memory Report at c_bands before calling an iterative solver
            88 MiB given to the printing process from OS
             0 MiB allocation reported by mallinfo(arena+hblkhd)
        366022 MiB available memory on the node where the printing process lives
------------------
     ethr =  3.19E-10,  avg # of iterations =  3.3

     negative rho (up, down):  0.000E+00 1.069E-04

     total cpu time spent up to now is       23.9 secs

     total energy              =    -658.54069139 Ry
     estimated scf accuracy    <       0.00000007 Ry

     total magnetization       =     4.33 Bohr mag/cell
     absolute magnetization    =     4.57 Bohr mag/cell

     iteration # 25     ecut=   100.00 Ry     beta= 0.40
     Davidson diagonalization with overlap

---- Real-time Memory Report at c_bands before calling an iterative solver
            88 MiB given to the printing process from OS
             0 MiB allocation reported by mallinfo(arena+hblkhd)
        366022 MiB available memory on the node where the printing process lives
------------------
     ethr =  2.26E-10,  avg # of iterations =  2.7

     negative rho (up, down):  0.000E+00 1.054E-04

     total cpu time spent up to now is       24.9 secs

     total energy              =    -658.54068741 Ry
     estimated scf accuracy    <       0.00000005 Ry

     total magnetization       =     4.33 Bohr mag/cell
     absolute magnetization    =     4.58 Bohr mag/cell

     iteration # 26     ecut=   100.00 Ry     beta= 0.40
     Davidson diagonalization with overlap

---- Real-time Memory Report at c_bands before calling an iterative solver
            88 MiB given to the printing process from OS
             0 MiB allocation reported by mallinfo(arena+hblkhd)
        366022 MiB available memory on the node where the printing process lives
------------------
     ethr =  1.61E-10,  avg # of iterations =  4.5

     negative rho (up, down):  0.000E+00 1.056E-04

     total cpu time spent up to now is       26.2 secs

     total energy              =    -658.54069078 Ry
     estimated scf accuracy    <       0.00000014 Ry

     total magnetization       =     4.31 Bohr mag/cell
     absolute magnetization    =     4.56 Bohr mag/cell

     iteration # 27     ecut=   100.00 Ry     beta= 0.40
     Davidson diagonalization with overlap

---- Real-time Memory Report at c_bands before calling an iterative solver
            88 MiB given to the printing process from OS
             0 MiB allocation reported by mallinfo(arena+hblkhd)
        366017 MiB available memory on the node where the printing process lives
------------------
     ethr =  1.61E-10,  avg # of iterations =  1.9

     negative rho (up, down):  0.000E+00 1.061E-04

     total cpu time spent up to now is       27.1 secs

     total energy              =    -658.54069078 Ry
     estimated scf accuracy    <       0.00000014 Ry

     total magnetization       =     4.32 Bohr mag/cell
     absolute magnetization    =     4.56 Bohr mag/cell

     iteration # 28     ecut=   100.00 Ry     beta= 0.40
     Davidson diagonalization with overlap

---- Real-time Memory Report at c_bands before calling an iterative solver
            88 MiB given to the printing process from OS
             0 MiB allocation reported by mallinfo(arena+hblkhd)
        366019 MiB available memory on the node where the printing process lives
------------------
     ethr =  1.61E-10,  avg # of iterations =  3.1

     negative rho (up, down):  0.000E+00 1.061E-04

     total cpu time spent up to now is       28.2 secs

     total energy              =    -658.54069121 Ry
     estimated scf accuracy    <       0.00000011 Ry

     total magnetization       =     4.32 Bohr mag/cell
     absolute magnetization    =     4.57 Bohr mag/cell

     iteration # 29     ecut=   100.00 Ry     beta= 0.40
     Davidson diagonalization with overlap

---- Real-time Memory Report at c_bands before calling an iterative solver
            88 MiB given to the printing process from OS
             0 MiB allocation reported by mallinfo(arena+hblkhd)
        366018 MiB available memory on the node where the printing process lives
------------------
     ethr =  1.61E-10,  avg # of iterations =  1.0

     negative rho (up, down):  0.000E+00 1.056E-04

     total cpu time spent up to now is       28.9 secs

     total energy              =    -658.54069063 Ry
     estimated scf accuracy    <       0.00000012 Ry

     total magnetization       =     4.32 Bohr mag/cell
     absolute magnetization    =     4.57 Bohr mag/cell

     iteration # 30     ecut=   100.00 Ry     beta= 0.40
     Davidson diagonalization with overlap

---- Real-time Memory Report at c_bands before calling an iterative solver
            88 MiB given to the printing process from OS
             0 MiB allocation reported by mallinfo(arena+hblkhd)
        366018 MiB available memory on the node where the printing process lives
------------------
     ethr =  1.61E-10,  avg # of iterations =  2.9

     negative rho (up, down):  0.000E+00 1.054E-04

     total cpu time spent up to now is       30.0 secs

     total energy              =    -658.54069065 Ry
     estimated scf accuracy    <       0.00000013 Ry

     total magnetization       =     4.32 Bohr mag/cell
     absolute magnetization    =     4.56 Bohr mag/cell

     iteration # 31     ecut=   100.00 Ry     beta= 0.40
     Davidson diagonalization with overlap

---- Real-time Memory Report at c_bands before calling an iterative solver
            88 MiB given to the printing process from OS
             0 MiB allocation reported by mallinfo(arena+hblkhd)
        366017 MiB available memory on the node where the printing process lives
------------------
     ethr =  1.61E-10,  avg # of iterations =  2.4

     negative rho (up, down):  0.000E+00 1.070E-04

     total cpu time spent up to now is       30.9 secs

     total energy              =    -658.54068759 Ry
     estimated scf accuracy    <       0.00000014 Ry

     total magnetization       =     4.32 Bohr mag/cell
     absolute magnetization    =     4.56 Bohr mag/cell

     iteration # 32     ecut=   100.00 Ry     beta= 0.40
     Davidson diagonalization with overlap

---- Real-time Memory Report at c_bands before calling an iterative solver
            88 MiB given to the printing process from OS
             0 MiB allocation reported by mallinfo(arena+hblkhd)
        366002 MiB available memory on the node where the printing process lives
------------------
     ethr =  1.61E-10,  avg # of iterations =  4.6

     negative rho (up, down):  0.000E+00 1.060E-04

     total cpu time spent up to now is       32.2 secs

     total energy              =    -658.54068959 Ry
     estimated scf accuracy    <          7.5E-09 Ry

     total magnetization       =     4.33 Bohr mag/cell
     absolute magnetization    =     4.58 Bohr mag/cell

     iteration # 33     ecut=   100.00 Ry     beta= 0.40
     Davidson diagonalization with overlap

---- Real-time Memory Report at c_bands before calling an iterative solver
            88 MiB given to the printing process from OS
             0 MiB allocation reported by mallinfo(arena+hblkhd)
        366014 MiB available memory on the node where the printing process lives
------------------
     ethr =  2.33E-11,  avg # of iterations =  5.2

     negative rho (up, down):  0.000E+00 1.064E-04

     total cpu time spent up to now is       33.6 secs

     total energy              =    -658.54069114 Ry
     estimated scf accuracy    <       0.00000010 Ry

     total magnetization       =     4.32 Bohr mag/cell
     absolute magnetization    =     4.57 Bohr mag/cell

     iteration # 34     ecut=   100.00 Ry     beta= 0.40
     Davidson diagonalization with overlap

---- Real-time Memory Report at c_bands before calling an iterative solver
            88 MiB given to the printing process from OS
             0 MiB allocation reported by mallinfo(arena+hblkhd)
        366015 MiB available memory on the node where the printing process lives
------------------
     ethr =  2.33E-11,  avg # of iterations =  3.8

     negative rho (up, down):  0.000E+00 1.070E-04

     total cpu time spent up to now is       34.7 secs

     total energy              =    -658.54069101 Ry
     estimated scf accuracy    <       0.00000006 Ry

     total magnetization       =     4.33 Bohr mag/cell
     absolute magnetization    =     4.57 Bohr mag/cell

     iteration # 35     ecut=   100.00 Ry     beta= 0.40
     Davidson diagonalization with overlap

---- Real-time Memory Report at c_bands before calling an iterative solver
            88 MiB given to the printing process from OS
             0 MiB allocation reported by mallinfo(arena+hblkhd)
        366015 MiB available memory on the node where the printing process lives
------------------
     ethr =  2.33E-11,  avg # of iterations =  4.6

     negative rho (up, down):  0.000E+00 1.073E-04

     total cpu time spent up to now is       36.0 secs

     total energy              =    -658.54069152 Ry
     estimated scf accuracy    <          4.8E-09 Ry

     total magnetization       =     4.33 Bohr mag/cell
     absolute magnetization    =     4.58 Bohr mag/cell

     iteration # 36     ecut=   100.00 Ry     beta= 0.40
     Davidson diagonalization with overlap

---- Real-time Memory Report at c_bands before calling an iterative solver
            89 MiB given to the printing process from OS
             0 MiB allocation reported by mallinfo(arena+hblkhd)
        366012 MiB available memory on the node where the printing process lives
------------------
     ethr =  1.49E-11,  avg # of iterations =  3.8

     negative rho (up, down):  0.000E+00 1.068E-04

     total cpu time spent up to now is       37.2 secs

     total energy              =    -658.54069131 Ry
     estimated scf accuracy    <          1.7E-09 Ry

     total magnetization       =     4.33 Bohr mag/cell
     absolute magnetization    =     4.58 Bohr mag/cell

     iteration # 37     ecut=   100.00 Ry     beta= 0.40
     Davidson diagonalization with overlap

---- Real-time Memory Report at c_bands before calling an iterative solver
            89 MiB given to the printing process from OS
             0 MiB allocation reported by mallinfo(arena+hblkhd)
        366013 MiB available memory on the node where the printing process lives
------------------
     ethr =  5.31E-12,  avg # of iterations =  5.1

     negative rho (up, down):  0.000E+00 1.070E-04

     total cpu time spent up to now is       38.5 secs

     total energy              =    -658.54069156 Ry
     estimated scf accuracy    <       0.00000002 Ry

     total magnetization       =     4.33 Bohr mag/cell
     absolute magnetization    =     4.58 Bohr mag/cell

     iteration # 38     ecut=   100.00 Ry     beta= 0.40
     Davidson diagonalization with overlap

---- Real-time Memory Report at c_bands before calling an iterative solver
            89 MiB given to the printing process from OS
             0 MiB allocation reported by mallinfo(arena+hblkhd)
        366013 MiB available memory on the node where the printing process lives
------------------
     ethr =  5.31E-12,  avg # of iterations =  3.6

     negative rho (up, down):  0.000E+00 1.077E-04

     total cpu time spent up to now is       39.6 secs

     total energy              =    -658.54069079 Ry
     estimated scf accuracy    <          5.0E-09 Ry

     total magnetization       =     4.33 Bohr mag/cell
     absolute magnetization    =     4.58 Bohr mag/cell

     iteration # 39     ecut=   100.00 Ry     beta= 0.40
     Davidson diagonalization with overlap

---- Real-time Memory Report at c_bands before calling an iterative solver
            89 MiB given to the printing process from OS
             0 MiB allocation reported by mallinfo(arena+hblkhd)
        366013 MiB available memory on the node where the printing process lives
------------------
     ethr =  5.31E-12,  avg # of iterations =  5.8

     negative rho (up, down):  0.000E+00 1.073E-04

     total cpu time spent up to now is       41.0 secs

     total energy              =    -658.54069139 Ry
     estimated scf accuracy    <       0.00000005 Ry

     total magnetization       =     4.34 Bohr mag/cell
     absolute magnetization    =     4.58 Bohr mag/cell

     iteration # 40     ecut=   100.00 Ry     beta= 0.40
     Davidson diagonalization with overlap

---- Real-time Memory Report at c_bands before calling an iterative solver
            89 MiB given to the printing process from OS
             0 MiB allocation reported by mallinfo(arena+hblkhd)
        366013 MiB available memory on the node where the printing process lives
------------------
     ethr =  5.31E-12,  avg # of iterations =  5.0

     negative rho (up, down):  0.000E+00 1.072E-04

     total cpu time spent up to now is       42.3 secs

     total energy              =    -658.54069159 Ry
     estimated scf accuracy    <          1.7E-09 Ry

     total magnetization       =     4.33 Bohr mag/cell
     absolute magnetization    =     4.58 Bohr mag/cell

     iteration # 41     ecut=   100.00 Ry     beta= 0.40
     Davidson diagonalization with overlap

---- Real-time Memory Report at c_bands before calling an iterative solver
            89 MiB given to the printing process from OS
             0 MiB allocation reported by mallinfo(arena+hblkhd)
        366013 MiB available memory on the node where the printing process lives
------------------
     ethr =  5.31E-12,  avg # of iterations =  3.4

     negative rho (up, down):  0.000E+00 1.072E-04
 
     Magnetic moment per site  (integrated on atomic sphere of radius R)
     atom   1 (R=0.357)  charge= 14.3973  magn=  2.2183
     atom   2 (R=0.357)  charge= 14.3975  magn=  2.2183

     total cpu time spent up to now is       43.4 secs

     End of self-consistent calculation

 ------ SPIN UP ------------


          k = 0.0000 0.0000 0.0000 (  2553 PWs)   bands (ev):

   -69.9612 -69.8286 -36.0525 -36.0525 -36.0525 -35.7632 -35.7632 -35.7632
     9.6356  13.2872  13.2872  15.8440  15.8440  15.8440  17.0325  17.0325
    18.2603  18.2603  18.2603  27.9007

     occupation numbers 
     1.0000   1.0000   1.0000   1.0000   1.0000   1.0000   1.0000   1.0000
     1.0000   1.0000   1.0000   1.0000   1.0000   1.0000   1.0000   1.0000
     0.0000   0.0000   0.0000   0.0000

          k = 0.0000 0.0000 0.1000 (  2585 PWs)   bands (ev):

   -69.9575 -69.8313 -36.0514 -36.0450 -36.0450 -35.7764 -35.7699 -35.7699
     9.8421  13.3748  13.3767  15.8425  15.8425  15.9003  16.9399  17.0688
    18.0876  18.0876  18.1983  26.5699

     occupation numbers 
     1.0000   1.0000   1.0000   1.0000   1.0000   1.0000   1.0000   1.0000
     1.0000   1.0000   1.0000   1.0000   1.0000   1.0000   1.0000   1.0000
     1.0000   1.0000   0.0000   0.0000

          k = 0.0000 0.0000 0.2000 (  2621 PWs)   bands (ev):

   -69.9469 -69.8395 -36.0466 -36.0235 -36.0235 -35.8129 -35.7894 -35.7894
    10.4426  13.6064  13.6308  15.8507  15.8507  16.0644  16.6702  17.1729
    17.6572  17.6572  18.0194  24.1199

     occupation numbers 
     1.0000   1.0000   1.0000   1.0000   1.0000   1.0000   1.0000   1.0000
     1.0000   1.0000   1.0000   1.0000   1.0000   1.0000   1.0000   1.0000
     1.0000   1.0000   1.0000   0.0000

          k = 0.0000 0.0000 0.3000 (  2609 PWs)   bands (ev):

   -69.9307 -69.8527 -36.0341 -35.9902 -35.9902 -35.8645 -35.8201 -35.8201
    11.3710  13.8530  14.0343  15.9015  15.9015  16.2485  16.3224  17.1369
    17.1369  17.3445  17.7429  21.6854

     occupation numbers 
     1.0000   1.0000   1.0000   1.0000   1.0000   1.0000   1.0000   1.0000
     1.0000   1.0000   1.0000   1.0000   1.0000   1.0000   1.0000   1.0000
     1.0000   1.0000   1.0000   0.0000

          k = 0.0000 0.0000 0.4000 (  2617 PWs)   bands (ev):

   -69.9110 -69.8699 -36.0096 -35.9488 -35.9488 -35.9206 -35.8594 -35.8594
    12.4742  13.8912  14.5501  15.7167  16.0346  16.0346  16.6518  16.6562
    16.6562  17.3986  17.6451  19.6555

     occupation numbers 
     1.0000   1.0000   1.0000   1.0000   1.0000   1.0000   1.0000   1.0000
     1.0000   1.0000   1.0000   1.0000   1.0000   1.0000   1.0000   1.0000
     1.0000   1.0000   1.0000   0.0000

          k = 0.0000 0.0000-0.5000 (  2594 PWs)   bands (ev):

   -69.8900 -69.8900 -35.9711 -35.9711 -35.9037 -35.9037 -35.9037 -35.9037
    13.4368  13.4369  15.1302  15.1303  16.2821  16.2821  16.2822  16.2822
    17.0223  17.0224  18.3064  18.3065

     occupation numbers 
     1.0000   1.0000   1.0000   1.0000   1.0000   1.0000   1.0000   1.0000
     1.0000   1.0000   1.0000   1.0000   1.0000   1.0000   1.0000   1.0000
     1.0000   1.0000   0.0000   0.0000

          k = 0.0000 0.1000 0.1000 (  2596 PWs)   bands (ev):

   -69.9539 -69.8340 -36.0633 -36.0379 -36.0253 -35.8022 -35.7762 -35.7632
    10.0450  13.4550  13.4703  15.7335  15.8284  16.0628  16.9330  17.0418
    17.7918  17.9160  18.2857  26.6355

     occupation numbers 
     1.0000   1.0000   1.0000   1.0000   1.0000   1.0000   1.0000   1.0000
     1.0000   1.0000   1.0000   1.0000   1.0000   1.0000   1.0000   1.0000
     1.0000   1.0000   0.0000   0.0000

          k = 0.0000 0.1000 0.2000 (  2612 PWs)   bands (ev):

   -69.9437 -69.8417 -36.0692 -36.0173 -35.9949 -35.8476 -35.7947 -35.7716
    10.6331  13.6732  13.7251  15.6564  15.8002  16.3080  16.7435  17.1312
    17.3064  17.4983  18.2206  24.3662

     occupation numbers 
     1.0000   1.0000   1.0000   1.0000   1.0000   1.0000   1.0000   1.0000
     1.0000   1.0000   1.0000   1.0000   1.0000   1.0000   1.0000   1.0000
     1.0000   1.0000   0.0000   0.0000

          k = 0.0000 0.1000 0.3000 (  2622 PWs)   bands (ev):

   -69.9283 -69.8541 -36.0639 -35.9856 -35.9573 -35.9033 -35.8238 -35.7949
    11.5350  13.9170  14.1007  15.6527  15.7545  16.4621  16.6116  16.7843
    17.0249  17.3069  18.0075  21.9106

     occupation numbers 
     1.0000   1.0000   1.0000   1.0000   1.0000   1.0000   1.0000   1.0000
     1.0000   1.0000   1.0000   1.0000   1.0000   1.0000   1.0000   1.0000
     1.0000   1.0000   1.0000   0.0000

          k = 0.0000 0.1000 0.4000 (  2617 PWs)   bands (ev):

   -69.9095 -69.8705 -36.0444 -35.9602 -35.9461 -35.9147 -35.8610 -35.8293
    12.5902  13.9415  14.5740  15.5388  15.7492  16.3204  16.3308  16.6535
    16.9616  17.6244  17.6967  19.8217

     occupation numbers 
     1.0000   1.0000   1.0000   1.0000   1.0000   1.0000   1.0000   1.0000
     1.0000   1.0000   1.0000   1.0000   1.0000   1.0000   1.0000   1.0000
     1.0000   1.0000   1.0000   0.0000

          k = 0.0000 0.1000-0.5000 (  2616 PWs)   bands (ev):

   -69.8895 -69.8895 -36.0092 -36.0092 -35.9032 -35.9031 -35.8707 -35.8706
    13.4973  13.4974  15.0877  15.0878  15.9692  15.9692  16.4343  16.4343
    17.3345  17.3345  18.3649  18.3650

     occupation numbers 
     1.0000   1.0000   1.0000   1.0000   1.0000   1.0000   1.0000   1.0000
     1.0000   1.0000   1.0000   1.0000   1.0000   1.0000   1.0000   1.0000
     1.0000   1.0000   0.0000   0.0000

          k = 0.0000 0.2000 0.2000 (  2622 PWs)   bands (ev):

   -69.9349 -69.8480 -36.0914 -35.9995 -35.9536 -35.9037 -35.8101 -35.7631
    11.1773  13.8081  14.0188  15.4520  15.7176  16.6659  16.7645  16.8422
    17.0745  17.1407  18.3528  24.3635

     occupation numbers 
     1.0000   1.0000   1.0000   1.0000   1.0000   1.0000   1.0000   1.0000
     1.0000   1.0000   1.0000   1.0000   1.0000   1.0000   1.0000   1.0000
     1.0000   1.0000   0.0000   0.0000

          k = 0.0000 0.2000 0.3000 (  2631 PWs)   bands (ev):

   -69.9215 -69.8584 -36.1010 -35.9722 -35.9651 -35.9098 -35.8346 -35.7711
    11.9808  13.9338  14.4231  15.3387  15.6672  16.2371  16.7642  16.8135
    17.0499  17.2065  18.3044  22.3503

     occupation numbers 
     1.0000   1.0000   1.0000   1.0000   1.0000   1.0000   1.0000   1.0000
     1.0000   1.0000   1.0000   1.0000   1.0000   1.0000   1.0000   1.0000
     1.0000   1.0000   0.0000   0.0000

          k = 0.0000 0.2000 0.4000 (  2606 PWs)   bands (ev):

   -69.9053 -69.8721 -36.0935 -36.0223 -35.9384 -35.8663 -35.8661 -35.7933
    12.8505  13.8877  14.8556  15.3477  15.5558  15.8015  16.6824  16.7279
    17.4375  17.5601  18.1052  20.1973

     occupation numbers 
     1.0000   1.0000   1.0000   1.0000   1.0000   1.0000   1.0000   1.0000
     1.0000   1.0000   1.0000   1.0000   1.0000   1.0000   1.0000   1.0000
     1.0000   1.0000   0.9956   0.0000

          k = 0.0000 0.2000-0.5000 (  2612 PWs)   bands (ev):

   -69.8882 -69.8882 -36.0668 -36.0668 -35.9018 -35.9018 -35.8263 -35.8262
    13.5324  13.5325  15.2605  15.2605  15.4999  15.4999  16.7120  16.7121
    17.8014  17.8014  18.5170  18.5170

     occupation numbers 
     1.0000   1.0000   1.0000   1.0000   1.0000   1.0000   1.0000   1.0000
     1.0000   1.0000   1.0000   1.0000   1.0000   1.0000   1.0000   1.0000
     1.0000   1.0000   0.0000   0.0000

          k = 0.0000 0.3000 0.3000 (  2618 PWs)   bands (ev):

   -69.9113 -69.8654 -36.1261 -36.0278 -35.9519 -35.8641 -35.8519 -35.7630
    12.5577  13.8464  14.9251  15.1187  15.7331  15.8436  16.7061  16.9593
    17.1325  17.4848  18.4363  22.0548

     occupation numbers 
     1.0000   1.0000   1.0000   1.0000   1.0000   1.0000   1.0000   1.0000
     1.0000   1.0000   1.0000   1.0000   1.0000   1.0000   1.0000   1.0000
     1.0000   1.0000   0.0000   0.0000

          k = 0.0000 0.3000 0.4000 (  2612 PWs)   bands (ev):

   -69.8991 -69.8750 -36.1328 -36.0813 -35.9269 -35.8743 -35.8238 -35.7705
    13.0585  13.6649  15.0338  15.3442  15.4552  16.0874  16.7781  17.0199
    17.4455  17.8768  18.3902  20.4329

     occupation numbers 
     1.0000   1.0000   1.0000   1.0000   1.0000   1.0000   1.0000   1.0000
     1.0000   1.0000   1.0000   1.0000   1.0000   1.0000   1.0000   1.0000
     1.0000   1.0000   0.0000   0.0000

          k = 0.0000 0.3000-0.5000 (  2604 PWs)   bands (ev):

   -69.8866 -69.8866 -36.1178 -36.1178 -35.9002 -35.9001 -35.7916 -35.7916
    13.4091  13.4091  15.1068  15.1068  15.8919  15.8919  16.9385  16.9385
    18.1912  18.1912  18.6717  18.6717

     occupation numbers 
     1.0000   1.0000   1.0000   1.0000   1.0000   1.0000   1.0000   1.0000
     1.0000   1.0000   1.0000   1.0000   1.0000   1.0000   1.0000   1.0000
     0.0000   0.0000   0.0000   0.0000

          k = 0.0000 0.4000 0.4000 (  2610 PWs)   bands (ev):

   -69.8922 -69.8795 -36.1541 -36.1271 -35.9131 -35.8855 -35.7910 -35.7629
    13.1612  13.4316  14.8597  15.0166  16.1509  16.9218  16.9227  17.1944
    17.4157  18.2247  18.5045  19.9467

     occupation numbers 
     1.0000   1.0000   1.0000   1.0000   1.0000   1.0000   1.0000   1.0000
     1.0000   1.0000   1.0000   1.0000   1.0000   1.0000   1.0000   1.0000
     1.0000   0.0000   0.0000   0.0000

          k = 0.0000 0.4000-0.5000 (  2612 PWs)   bands (ev):

   -69.8853 -69.8853 -36.1525 -36.1525 -35.8988 -35.8988 -35.7702 -35.7702
    13.2627  13.2627  14.8514  14.8514  16.7328  16.7328  17.0732  17.0732
    18.4436  18.4436  18.6796  18.6796

     occupation numbers 
     1.0000   1.0000   1.0000   1.0000   1.0000   1.0000   1.0000   1.0000
     1.0000   1.0000   1.0000   1.0000   1.0000   1.0000   1.0000   1.0000
     0.0000   0.0000   0.0000   0.0000

          k = 0.0000-0.5000-0.5000 (  2624 PWs)   bands (ev):

   -69.8848 -69.8848 -36.1647 -36.1647 -35.8983 -35.8982 -35.7629 -35.7629
    13.2040  13.2040  14.7631  14.7631  17.1055  17.1055  17.2218  17.2219
    18.5307  18.5307  18.5758  18.5758

     occupation numbers 
     1.0000   1.0000   1.0000   1.0000   1.0000   1.0000   1.0000   1.0000
     1.0000   1.0000   1.0000   1.0000   1.0000   1.0000   1.0000   1.0000
     0.0000   0.0000   0.0000   0.0000

          k = 0.1000 0.1000 0.1000 (  2620 PWs)   bands (ev):

   -69.9505 -69.8364 -36.0555 -36.0555 -36.0013 -35.8258 -35.7701 -35.7701
    10.2448  13.5483  13.5483  15.7138  15.7138  16.2297  16.9776  16.9776
    17.4090  18.1136  18.1136  26.9846

     occupation numbers 
     1.0000   1.0000   1.0000   1.0000   1.0000   1.0000   1.0000   1.0000
     1.0000   1.0000   1.0000   1.0000   1.0000   1.0000   1.0000   1.0000
     1.0000   0.9600   0.9600   0.0000

          k = 0.1000 0.1000 0.2000 (  2616 PWs)   bands (ev):

   -69.9408 -69.8437 -36.0697 -36.0332 -35.9671 -35.8722 -35.7904 -35.7726
    10.8224  13.7745  13.7854  15.5978  15.6593  16.5203  16.7995  16.8818
    17.0967  17.6914  18.1532  24.6265

     occupation numbers 
     1.0000   1.0000   1.0000   1.0000   1.0000   1.0000   1.0000   1.0000
     1.0000   1.0000   1.0000   1.0000   1.0000   1.0000   1.0000   1.0000
     1.0000   1.0000   0.0090   0.0000

          k = 0.1000 0.1000 0.3000 (  2619 PWs)   bands (ev):

   -69.9260 -69.8554 -36.0720 -35.9987 -35.9290 -35.9278 -35.8222 -35.7887
    11.7015  14.0267  14.1246  15.5643  15.5821  16.3925  16.5658  16.8652
    17.1967  17.2790  18.0154  22.1564

     occupation numbers 
     1.0000   1.0000   1.0000   1.0000   1.0000   1.0000   1.0000   1.0000
     1.0000   1.0000   1.0000   1.0000   1.0000   1.0000   1.0000   1.0000
     1.0000   1.0000   1.0000   0.0000

          k = 0.1000 0.1000 0.4000 (  2619 PWs)   bands (ev):

   -69.9080 -69.8709 -36.0587 -35.9827 -35.9558 -35.8891 -35.8630 -35.8156
    12.7154  14.0281  14.5562  15.3644  15.6925  16.0632  16.4151  16.7663
    17.1915  17.6554  17.7598  20.0398

     occupation numbers 
     1.0000   1.0000   1.0000   1.0000   1.0000   1.0000   1.0000   1.0000
     1.0000   1.0000   1.0000   1.0000   1.0000   1.0000   1.0000   1.0000
     1.0000   1.0000   1.0000   0.0000

          k = 0.1000 0.1000-0.5000 (  2612 PWs)   bands (ev):

   -69.8890 -69.8890 -36.0283 -36.0283 -35.9091 -35.9090 -35.8503 -35.8503
[...]
    11.9003  15.5446  16.0396  17.3640  17.4111  18.2093  18.8248  19.0862
    19.1615  20.0720  20.1411  23.3728

     occupation numbers 
     1.0000   1.0000   1.0000   1.0000   1.0000   1.0000   1.0000   1.0000
     1.0000   1.0000   1.0000   1.0000   1.0000   0.0000   0.0000   0.0000
     0.0000   0.0000   0.0000   0.0000

          k = 0.1000 0.1000 0.4000 (  2619 PWs)   bands (ev):

   -67.2836 -67.2433 -33.5152 -33.4316 -33.3998 -33.3265 -33.2975 -33.2456
    13.0407  15.1228  16.5315  17.2789  17.4373  17.8741  18.7096  18.7337
    19.2290  19.8879  20.3139  21.7423

     occupation numbers 
     1.0000   1.0000   1.0000   1.0000   1.0000   1.0000   1.0000   1.0000
     1.0000   1.0000   1.0000   1.0000   1.0000   1.0000   0.0000   0.0000
     0.0000   0.0000   0.0000   0.0000

          k = 0.1000 0.1000-0.5000 (  2612 PWs)   bands (ev):

   -67.2629 -67.2629 -33.4820 -33.4820 -33.3482 -33.3481 -33.2837 -33.2837
    14.2083  14.2083  16.9921  16.9921  17.6295  17.6295  18.5544  18.5544
    19.5954  19.5954  20.7671  20.7671

     occupation numbers 
     1.0000   1.0000   1.0000   1.0000   1.0000   1.0000   1.0000   1.0000
     1.0000   1.0000   1.0000   1.0000   1.0000   1.0000   0.0000   0.0000
     0.0000   0.0000   0.0000   0.0000

          k = 0.1000 0.2000 0.2000 (  2621 PWs)   bands (ev):

   -67.3100 -67.2202 -33.5410 -33.4758 -33.3691 -33.3641 -33.2315 -33.1961
    11.5396  15.7168  15.8217  17.2059  17.3553  18.1126  18.8565  19.4889
    19.5375  19.8199  20.3158  25.6337

     occupation numbers 
     1.0000   1.0000   1.0000   1.0000   1.0000   1.0000   1.0000   1.0000
     1.0000   1.0000   1.0000   1.0000   1.0000   0.9676   0.0000   0.0000
     0.0000   0.0000   0.0000   0.0000

          k = 0.1000 0.2000 0.3000 (  2619 PWs)   bands (ev):

   -67.2960 -67.2308 -33.5547 -33.4423 -33.4266 -33.3259 -33.2622 -33.2025
    12.3987  15.6861  16.1748  17.0533  17.2350  17.6552  19.1258  19.2971
    19.3631  19.9795  20.2910  23.8530

     occupation numbers 
     1.0000   1.0000   1.0000   1.0000   1.0000   1.0000   1.0000   1.0000
     1.0000   1.0000   1.0000   1.0000   1.0000   1.0000   0.0000   0.0000
     0.0000   0.0000   0.0000   0.0000

          k = 0.1000 0.2000 0.4000 (  2609 PWs)   bands (ev):

   -67.2791 -67.2448 -33.5519 -33.4845 -33.3982 -33.3030 -33.2851 -33.2208
    13.4329  15.2530  16.5429  16.9789  17.1790  17.4237  18.9490  19.1085
    19.7226  20.1358  20.2723  22.1151

     occupation numbers 
     1.0000   1.0000   1.0000   1.0000   1.0000   1.0000   1.0000   1.0000
     1.0000   1.0000   1.0000   1.0000   1.0000   1.0000   0.0000   0.0000
     0.0000   0.0000   0.0000   0.0000

          k = 0.1000 0.2000-0.5000 (  2612 PWs)   bands (ev):

   -67.2615 -67.2614 -33.5282 -33.5282 -33.3500 -33.3499 -33.2492 -33.2492
    14.4513  14.4513  16.8308  16.8308  17.2646  17.2646  18.9599  18.9599
    19.9553  19.9553  20.9281  20.9281

     occupation numbers 
     1.0000   1.0000   1.0000   1.0000   1.0000   1.0000   1.0000   1.0000
     1.0000   1.0000   1.0000   1.0000   1.0000   1.0000   0.0000   0.0000
     0.0000   0.0000   0.0000   0.0000

          k = 0.1000 0.3000 0.3000 (  2606 PWs)   bands (ev):

   -67.2853 -67.2379 -33.5793 -33.4877 -33.4177 -33.2843 -33.2830 -33.1971
    13.1267  15.5274  16.5770  16.8080  17.1563  17.2251  19.0741  19.5331
    19.8203  19.9303  20.3996  23.6326

     occupation numbers 
     1.0000   1.0000   1.0000   1.0000   1.0000   1.0000   1.0000   1.0000
     1.0000   1.0000   1.0000   1.0000   1.0000   1.0000   0.0000   0.0000
     0.0000   0.0000   0.0000   0.0000

          k = 0.1000 0.3000 0.4000 (  2614 PWs)   bands (ev):

   -67.2727 -67.2478 -33.5885 -33.5405 -33.3838 -33.3122 -33.2488 -33.2036
    13.9207  15.1442  16.6934  16.8388  17.0954  17.2175  19.1866  19.4700
    20.0221  20.3365  20.3896  22.3308

     occupation numbers 
     1.0000   1.0000   1.0000   1.0000   1.0000   1.0000   1.0000   1.0000
     1.0000   1.0000   1.0000   1.0000   1.0000   1.0000   0.0000   0.0000
     0.0000   0.0000   0.0000   0.0000

          k = 0.1000 0.3000-0.5000 (  2604 PWs)   bands (ev):

   -67.2597 -67.2597 -33.5757 -33.5757 -33.3471 -33.3470 -33.2213 -33.2213
    14.6111  14.6111  16.7162  16.7162  17.2675  17.2675  19.3491  19.3491
    20.1635  20.1635  21.1490  21.1490

     occupation numbers 
     1.0000   1.0000   1.0000   1.0000   1.0000   1.0000   1.0000   1.0000
     1.0000   1.0000   1.0000   1.0000   1.0000   1.0000   0.0000   0.0000
     0.0000   0.0000   0.0000   0.0000

          k = 0.1000 0.4000 0.4000 (  2607 PWs)   bands (ev):

   -67.2653 -67.2522 -33.6102 -33.5852 -33.3641 -33.3259 -33.2213 -33.1979
    14.3263  14.8895  16.5122  16.6393  17.5536  17.5915  19.4291  19.6406
    20.0280  20.3515  20.7936  21.9744

     occupation numbers 
     1.0000   1.0000   1.0000   1.0000   1.0000   1.0000   1.0000   1.0000
     1.0000   1.0000   1.0000   1.0000   1.0000   1.0000   0.0000   0.0000
     0.0000   0.0000   0.0000   0.0000

          k = 0.1000 0.4000-0.5000 (  2604 PWs)   bands (ev):

   -67.2583 -67.2582 -33.6097 -33.6097 -33.3438 -33.3438 -33.2040 -33.2040
    14.6221  14.6221  16.4910  16.4910  17.8494  17.8494  19.6032  19.6033
    20.1595  20.1595  21.2979  21.2979

     occupation numbers 
     1.0000   1.0000   1.0000   1.0000   1.0000   1.0000   1.0000   1.0000
     1.0000   1.0000   1.0000   1.0000   1.0000   1.0000   0.0000   0.0000
     0.0000   0.0000   0.0000   0.0000

          k = 0.1000-0.5000-0.5000 (  2612 PWs)   bands (ev):

   -67.2577 -67.2577 -33.6220 -33.6220 -33.3424 -33.3424 -33.1982 -33.1982
    14.6058  14.6058  16.4041  16.4041  18.2280  18.2280  19.6885  19.6885
    20.0689  20.0690  21.3354  21.3354

     occupation numbers 
     1.0000   1.0000   1.0000   1.0000   1.0000   1.0000   1.0000   1.0000
     1.0000   1.0000   1.0000   1.0000   0.0000   0.0000   0.0000   0.0000
     0.0000   0.0000   0.0000   0.0000

          k = 0.2000 0.2000 0.2000 (  2620 PWs)   bands (ev):

   -67.3019 -67.2255 -33.5140 -33.5140 -33.4095 -33.3280 -33.2206 -33.2206
    12.0799  15.9691  15.9691  17.0789  17.0789  17.4493  19.3164  19.7075
    19.7075  19.8699  19.8699  26.5989

     occupation numbers 
     1.0000   1.0000   1.0000   1.0000   1.0000   1.0000   1.0000   1.0000
     1.0000   1.0000   1.0000   1.0000   1.0000   1.0000   0.0000   0.0000
     0.0000   0.0000   0.0000   0.0000

          k = 0.2000 0.2000 0.3000 (  2615 PWs)   bands (ev):

   -67.2897 -67.2342 -33.5419 -33.4724 -33.4621 -33.2906 -33.2592 -33.2166
    12.8986  16.0071  16.1742  16.9136  16.9137  17.0881  19.4576  19.5335
    19.8142  19.9432  20.0325  24.5585

     occupation numbers 
     1.0000   1.0000   1.0000   1.0000   1.0000   1.0000   1.0000   1.0000
     1.0000   1.0000   1.0000   1.0000   1.0000   1.0000   0.0000   0.0000
     0.0000   0.0000   0.0000   0.0000

          k = 0.2000 0.2000 0.4000 (  2609 PWs)   bands (ev):

   -67.2752 -67.2460 -33.5521 -33.5090 -33.4206 -33.3085 -33.2596 -33.2219
    13.8565  15.5140  16.3874  16.7441  16.9300  17.1319  19.2246  19.3394
    20.0008  20.0463  20.5299  22.7359

     occupation numbers 
     1.0000   1.0000   1.0000   1.0000   1.0000   1.0000   1.0000   1.0000
     1.0000   1.0000   1.0000   1.0000   1.0000   1.0000   0.0000   0.0000
     0.0000   0.0000   0.0000   0.0000

          k = 0.2000 0.2000-0.5000 (  2608 PWs)   bands (ev):

   -67.2600 -67.2600 -33.5408 -33.5408 -33.3641 -33.3640 -33.2365 -33.2365
    14.7685  14.7685  16.5754  16.5754  17.0753  17.0753  19.2042  19.2042
    20.0347  20.0347  21.4171  21.4171

     occupation numbers 
     1.0000   1.0000   1.0000   1.0000   1.0000   1.0000   1.0000   1.0000
     1.0000   1.0000   1.0000   1.0000   1.0000   1.0000   0.0000   0.0000
     0.0000   0.0000   0.0000   0.0000

          k = 0.2000 0.3000 0.3000 (  2602 PWs)   bands (ev):

   -67.2804 -67.2400 -33.5496 -33.5042 -33.4613 -33.2771 -33.2613 -33.2244
    13.6214  15.8921  16.5247  16.6775  16.7257  16.7889  19.4685  19.6727
    19.9078  20.0312  20.4244  24.6537

     occupation numbers 
     1.0000   1.0000   1.0000   1.0000   1.0000   1.0000   1.0000   1.0000
     1.0000   1.0000   1.0000   1.0000   1.0000   1.0000   0.0000   0.0000
     0.0000   0.0000   0.0000   0.0000

          k = 0.2000 0.3000 0.4000 (  2612 PWs)   bands (ev):

   -67.2694 -67.2482 -33.5636 -33.5405 -33.4186 -33.3175 -33.2410 -33.2251
    14.3847  15.4995  16.5218  16.5485  16.8169  16.9270  19.4469  19.6057
    20.0238  20.0733  21.0785  23.2698

     occupation numbers 
     1.0000   1.0000   1.0000   1.0000   1.0000   1.0000   1.0000   1.0000
     1.0000   1.0000   1.0000   1.0000   1.0000   1.0000   0.0000   0.0000
     0.0000   0.0000   0.0000   0.0000

          k = 0.2000 0.3000-0.5000 (  2600 PWs)   bands (ev):

   -67.2583 -67.2582 -33.5617 -33.5617 -33.3674 -33.3674 -33.2294 -33.2294
    15.0107  15.0107  16.4959  16.4959  16.9666  16.9666  19.5054  19.5054
    20.0746  20.0746  21.9713  21.9713

     occupation numbers 
     1.0000   1.0000   1.0000   1.0000   1.0000   1.0000   1.0000   1.0000
     1.0000   1.0000   1.0000   1.0000   1.0000   1.0000   0.0000   0.0000
     0.0000   0.0000   0.0000   0.0000

          k = 0.2000 0.4000 0.4000 (  2600 PWs)   bands (ev):

   -67.2630 -67.2518 -33.5782 -33.5676 -33.3944 -33.3352 -33.2313 -33.2274
    14.7888  15.2665  16.4055  16.4688  17.0394  17.1789  19.6146  19.7459
    20.0358  20.1021  21.6829  23.1664

     occupation numbers 
     1.0000   1.0000   1.0000   1.0000   1.0000   1.0000   1.0000   1.0000
     1.0000   1.0000   1.0000   1.0000   1.0000   1.0000   0.0000   0.0000
     0.0000   0.0000   0.0000   0.0000

          k = 0.2000 0.4000-0.5000 (  2604 PWs)   bands (ev):

   -67.2569 -67.2568 -33.5813 -33.5813 -33.3630 -33.3629 -33.2282 -33.2282
    15.0385  15.0385  16.3754  16.3754  17.2962  17.2962  19.7207  19.7208
    20.0826  20.0826  22.4064  22.4064

     occupation numbers 
     1.0000   1.0000   1.0000   1.0000   1.0000   1.0000   1.0000   1.0000
     1.0000   1.0000   1.0000   1.0000   1.0000   1.0000   0.0000   0.0000
     0.0000   0.0000   0.0000   0.0000

          k = 0.2000-0.5000-0.5000 (  2604 PWs)   bands (ev):

   -67.2563 -67.2563 -33.5892 -33.5892 -33.3600 -33.3599 -33.2286 -33.2286
    15.0194  15.0194  16.3103  16.3103  17.5297  17.5297  19.7899  19.7899
    20.0809  20.0809  22.5797  22.5797

     occupation numbers 
     1.0000   1.0000   1.0000   1.0000   1.0000   1.0000   1.0000   1.0000
     1.0000   1.0000   1.0000   1.0000   1.0000   1.0000   0.0000   0.0000
     0.0000   0.0000   0.0000   0.0000

          k = 0.3000 0.3000 0.3000 (  2599 PWs)   bands (ev):

   -67.2731 -67.2438 -33.5253 -33.5036 -33.5036 -33.2673 -33.2673 -33.2463
    14.3211  16.1457  16.4444  16.4444  16.5216  16.5216  19.7830  19.7830
    19.8601  19.8601  21.1136  25.9616

     occupation numbers 
     1.0000   1.0000   1.0000   1.0000   1.0000   1.0000   1.0000   1.0000
     1.0000   1.0000   1.0000   1.0000   1.0000   1.0000   0.0000   0.0000
     0.0000   0.0000   0.0000   0.0000

          k = 0.3000 0.3000 0.4000 (  2602 PWs)   bands (ev):

   -67.2648 -67.2494 -33.5424 -33.5339 -33.4463 -33.3221 -33.2556 -33.2416
    14.9964  15.7852  16.3693  16.3979  16.5065  16.7214  19.6956  19.7896
    19.9734  20.0156  21.8678  24.2636

     occupation numbers 
     1.0000   1.0000   1.0000   1.0000   1.0000   1.0000   1.0000   1.0000
     1.0000   1.0000   1.0000   1.0000   1.0000   1.0000   0.0000   0.0000
     0.0000   0.0000   0.0000   0.0000

          k = 0.3000 0.3000-0.5000 (  2606 PWs)   bands (ev):

   -67.2565 -67.2565 -33.5470 -33.5469 -33.3837 -33.3837 -33.2458 -33.2458
    15.4430  15.4430  16.3449  16.3449  16.7012  16.7012  19.7191  19.7191
    20.0562  20.0562  22.8564  22.8564

     occupation numbers 
     1.0000   1.0000   1.0000   1.0000   1.0000   1.0000   1.0000   1.0000
     1.0000   1.0000   1.0000   1.0000   1.0000   1.0000   0.0000   0.0000
     0.0000   0.0000   0.0000   0.0000

          k = 0.3000 0.4000 0.4000 (  2596 PWs)   bands (ev):

   -67.2597 -67.2516 -33.5440 -33.5288 -33.4319 -33.3408 -33.2738 -33.2514
    15.4342  15.7018  16.2889  16.3496  16.5387  16.7712  19.8295  19.8973
    20.0155  20.0400  22.6955  24.5930

     occupation numbers 
     1.0000   1.0000   1.0000   1.0000   1.0000   1.0000   1.0000   1.0000
     1.0000   1.0000   1.0000   1.0000   1.0000   1.0000   0.0000   0.0000
     0.0000   0.0000   0.0000   0.0000

          k = 0.3000 0.4000-0.5000 (  2602 PWs)   bands (ev):

   -67.2551 -67.2551 -33.5395 -33.5395 -33.3854 -33.3854 -33.2659 -33.2659
    15.5810  15.5810  16.2691  16.2691  16.7814  16.7814  19.8816  19.8816
    20.0722  20.0722  23.6608  23.6608

     occupation numbers 
     1.0000   1.0000   1.0000   1.0000   1.0000   1.0000   1.0000   1.0000
     1.0000   1.0000   1.0000   1.0000   1.0000   1.0000   0.0000   0.0000
     0.0000   0.0000   0.0000   0.0000

          k = 0.3000-0.5000-0.5000 (  2588 PWs)   bands (ev):

   -67.2546 -67.2546 -33.5384 -33.5384 -33.3816 -33.3815 -33.2764 -33.2764
    15.5734  15.5734  16.2134  16.2134  16.9318  16.9318  19.9289  19.9289
    20.0957  20.0957  24.0800  24.0800

     occupation numbers 
     1.0000   1.0000   1.0000   1.0000   1.0000   1.0000   1.0000   1.0000
     1.0000   1.0000   1.0000   1.0000   1.0000   1.0000   0.0000   0.0000
     0.0000   0.0000   0.0000   0.0000

          k = 0.4000 0.4000 0.4000 (  2593 PWs)   bands (ev):

   -67.2564 -67.2521 -33.5199 -33.4671 -33.4671 -33.3331 -33.3331 -33.2799
    15.8902  16.0227  16.2260  16.2260  16.4523  16.4523  20.0047  20.0047
    20.0345  20.0345  23.7438  26.1974

     occupation numbers 
     1.0000   1.0000   1.0000   1.0000   1.0000   1.0000   1.0000   1.0000
     1.0000   1.0000   1.0000   1.0000   1.0000   1.0000   0.0000   0.0000
     0.0000   0.0000   0.0000   0.0000

          k = 0.4000 0.4000-0.5000 (  2584 PWs)   bands (ev):

   -67.2537 -67.2537 -33.4958 -33.4958 -33.3996 -33.3996 -33.3103 -33.3103
    15.9627  15.9627  16.2703  16.2703  16.4635  16.4635  20.0194  20.0194
    20.0830  20.0831  24.9132  24.9132

     occupation numbers 
     1.0000   1.0000   1.0000   1.0000   1.0000   1.0000   1.0000   1.0000
     1.0000   1.0000   1.0000   1.0000   1.0000   1.0000   0.0000   0.0000
     0.0000   0.0000   0.0000   0.0000

          k = 0.4000-0.5000-0.5000 (  2576 PWs)   bands (ev):

   -67.2532 -67.2531 -33.4750 -33.4750 -33.3990 -33.3990 -33.3373 -33.3373
    16.0633  16.0633  16.1779  16.1779  16.5066  16.5066  20.0576  20.0576
    20.1076  20.1077  25.7493  25.7493

     occupation numbers 
     1.0000   1.0000   1.0000   1.0000   1.0000   1.0000   1.0000   1.0000
     1.0000   1.0000   1.0000   1.0000   1.0000   1.0000   0.0000   0.0000
     0.0000   0.0000   0.0000   0.0000

          k =-0.5000-0.5000-0.5000 (  2608 PWs)   bands (ev):

   -67.2527 -67.2526 -33.4057 -33.4057 -33.4057 -33.4057 -33.4057 -33.4057
    16.2619  16.2619  16.2619  16.2619  16.2619  16.2619  20.1122  20.1122
    20.1123  20.1123  27.5520  27.5520

     occupation numbers 
     1.0000   1.0000   1.0000   1.0000   1.0000   1.0000   1.0000   1.0000
     1.0000   1.0000   1.0000   1.0000   1.0000   1.0000   0.0000   0.0000
     0.0000   0.0000   0.0000   0.0000

     the Fermi energy is    18.1304 ev

!    total energy              =    -658.54069161 Ry
     total all-electron energy =     -5091.133758 Ry
     estimated scf accuracy    <          4.6E-11 Ry
     smearing contrib. (-TS)   =      -0.00002566 Ry
     internal energy E=F+TS    =    -658.54066596 Ry

     The total energy is F=E-TS. E is the sum of the following terms:
     one-electron contribution =    -220.74663105 Ry
     hartree contribution      =     130.48371879 Ry
     xc contribution           =     -55.50565612 Ry
     ewald contribution        =    -347.18637190 Ry
     one-center paw contrib.   =    -165.58572568 Ry
      -> PAW hartree energy AE =     183.01986027 Ry
      -> PAW hartree energy PS =    -181.72138190 Ry
      -> PAW xc energy AE      =    -110.15869391 Ry
      -> PAW xc energy PS      =      26.06735237 Ry
      -> total E_H with PAW    =     131.78219716 Ry
      -> total E_XC with PAW   =    -139.59699766 Ry

     total magnetization       =     4.33 Bohr mag/cell
     absolute magnetization    =     4.58 Bohr mag/cell

     convergence has been achieved in  41 iterations

     Writing all to output data dir ./out/Fe.save/
 
     init_run     :      0.28s CPU      0.36s WALL (       1 calls)
     electrons    :     40.50s CPU     42.98s WALL (       1 calls)

     Called by init_run:
     wfcinit      :      0.07s CPU      0.12s WALL (       1 calls)
     potinit      :      0.11s CPU      0.14s WALL (       1 calls)
     hinit0       :      0.06s CPU      0.06s WALL (       1 calls)

     Called by electrons:
     c_bands      :     30.59s CPU     32.08s WALL (      41 calls)
     sum_band     :      4.92s CPU      5.06s WALL (      41 calls)
     v_of_rho     :      0.44s CPU      0.45s WALL (      42 calls)
     v_h          :      0.01s CPU      0.02s WALL (      42 calls)
     v_xc         :      0.42s CPU      0.43s WALL (      42 calls)
     newd         :      0.31s CPU      0.38s WALL (      42 calls)
     PAW_pot      :      4.16s CPU      4.94s WALL (      42 calls)
     mix_rho      :      0.09s CPU      0.09s WALL (      41 calls)

     Called by c_bands:
     init_us_2    :      0.33s CPU      0.32s WALL (    4592 calls)
     init_us_2:cp :      0.33s CPU      0.31s WALL (    4592 calls)
     cegterg      :     24.60s CPU     25.28s WALL (    2296 calls)

     Called by sum_band:
     sum_band:wei :      0.03s CPU      0.03s WALL (      41 calls)
     sum_band:loo :      4.08s CPU      4.20s WALL (      41 calls)
     sum_band:buf :      0.02s CPU      0.03s WALL (    2296 calls)
     sum_band:ini :      0.19s CPU      0.17s WALL (    2296 calls)
     sum_band:cal :      0.30s CPU      0.29s WALL (    2296 calls)
     sum_band:bec :      0.01s CPU      0.02s WALL (    2296 calls)
     addusdens    :      0.63s CPU      0.65s WALL (      41 calls)
                                        0.00s GPU  (      41 calls)
     addusd:skk   :      0.00s CPU      0.00s WALL (      41 calls)
                                        0.00s GPU  (      41 calls)

     Called by *egterg:
     cdiaghg      :      3.75s CPU      3.80s WALL (    7941 calls)
     cegterg:over :      0.69s CPU      0.67s WALL (    5701 calls)
     cegterg:upda :      0.15s CPU      0.21s WALL (    5701 calls)
     cegterg:last :      0.35s CPU      0.38s WALL (    4614 calls)
     h_psi        :     18.73s CPU     19.27s WALL (    7997 calls)
     s_psi        :      0.29s CPU      0.25s WALL (    7997 calls)
     g_psi        :      0.06s CPU      0.08s WALL (    5701 calls)

     Called by h_psi:
     h_psi:calbec :      0.94s CPU      0.87s WALL (    7997 calls)
     vloc_psi     :     17.51s CPU     18.01s WALL (    7997 calls)
     add_vuspsi   :      0.22s CPU      0.30s WALL (    7997 calls)

     General routines
     calbec       :      1.23s CPU      1.15s WALL (   10293 calls)
     fft          :      0.25s CPU      0.25s WALL (    1044 calls)
     ffts         :      0.02s CPU      0.02s WALL (     166 calls)
     fftw         :     19.83s CPU     19.65s WALL (  290722 calls)
     interpolate  :      0.03s CPU      0.03s WALL (      84 calls)
 
     Parallel routines

     PAW routines
     PAW_pot      :      4.16s CPU      4.94s WALL (      42 calls)
     PAW_symme    :      0.08s CPU      0.08s WALL (      82 calls)
 
     PWSCF        :     40.95s CPU     43.74s WALL

 
   This run was terminated on:   8: 6:20  16Apr2024            

=------------------------------------------------------------------------------=
   JOB DONE.
=------------------------------------------------------------------------------=
